<LesHouchesEvents version="3.0">
<header>
<!--
#*********************************************************************
#                                                                    *
#                        MadGraph5_aMC@NLO                           *
#                                                                    *
#                           Going Beyond                             *
#                                                                    *
#                   http://madgraph.hep.uiuc.edu                     *
#                   http://madgraph.phys.ucl.ac.be                   *
#                   http://amcatnlo.cern.ch                          *
#                                                                    *
#                     The MadGraph5_aMC@NLO team                     *
#                                                                    *
#....................................................................*
#                                                                    *
# This file contains all the information necessary to reproduce      *
# the events generated:                                              *
#                                                                    *
# 1. software version                                                *
# 2. proc_card          : code generation info including model       *
# 3. param_card         : model primary parameters in the LH format  *
# 4. run_card           : running parameters (collider and cuts)     *
# 5. pythia_card        : present only if pythia has been run        *
# 6. pgs_card           : present only if pgs has been run           *
# 7. delphes_cards      : present only if delphes has been run       *
#                                                                    *
#                                                                    *
#*********************************************************************
-->
<MGVersion>
#5.2.2.3
</MGVersion>
<MG5ProcCard>
#************************************************************
#*                     MadGraph5_aMC@NLO                    *
#*                                                          *
#*                *                       *                 *
#*                  *        * *        *                   *
#*                    * * * * 5 * * * *                     *
#*                  *        * *        *                   *
#*                *                       *                 *
#*                                                          *
#*                                                          *
#*         VERSION 2.2.3                 2015-02-10         *
#*                                                          *
#*    The MadGraph5_aMC@NLO Development Team - Find us at   *
#*    https://server06.fynu.ucl.ac.be/projects/madgraph     *
#*                                                          *
#************************************************************
#*                                                          *
#*               Command File for MadGraph5_aMC@NLO         *
#*                                                          *
#*     run as ./bin/mg5_aMC  filename                       *
#*                                                          *
#************************************************************
set group_subprocesses Auto
set ignore_six_quark_processes False
set loop_optimized_output True
set gauge unitary
set complex_mass_scheme False
import model sm
define p = g u c d s u~ c~ d~ s~
define j = g u c d s u~ c~ d~ s~
define l+ = e+ mu+
define l- = e- mu-
define vl = ve vm vt
define vl~ = ve~ vm~ vt~
import model Zprime_UFO
generate p p > zph, zph > j j
add process p p > zph, zph > b b~
output Dijet_signal
</MG5ProcCard>
<MGProcCard>
#*********************************************************************
#                        MadGraph/MadEvent                           *
#                   http://madgraph.hep.uiuc.edu                     *
#                                                                    *
#                          proc_card.dat                             *
#*********************************************************************
#                                                                    *
#            This Files is generated by MADGRAPH 5                   *
#                                                                    *
# WARNING: This Files is generated for MADEVENT (compatibility issue)*
#          This files is NOT a valid MG4 proc_card.dat               *
#          Running this in MG4 will NEVER reproduce the result of MG5*
#                                                                    *
#*********************************************************************
#*********************************************************************
# Process(es) requested : mg2 input                                  *
#*********************************************************************
# Begin PROCESS # This is TAG. Do not modify this line
p p > zph , zph > j j           #Process
# Be carefull the coupling are here in MG5 convention
          
end_coup           # End the couplings input

done               # this tells MG there are no more procs
# End PROCESS  # This is TAG. Do not modify this line
#*********************************************************************
# Model information                                                  *
#*********************************************************************
# Begin MODEL  # This is TAG. Do not modify this line
Zprime_UFO
# End   MODEL  # This is TAG. Do not modify this line
#*********************************************************************
# Start multiparticle definitions                                    *
#*********************************************************************
# Begin MULTIPARTICLES # This is TAG. Do not modify this line

# End  MULTIPARTICLES # This is TAG. Do not modify this line
</MGProcCard>
<MGRunCard>
#*********************************************************************
#                       MadGraph5_aMC@NLO                            *
#                                                                    *
#                     run_card.dat MadEvent                          *
#                                                                    *
#  This file is used to set the parameters of the run.               *
#                                                                    *
#  Some notation/conventions:                                        *
#                                                                    *
#   Lines starting with a '# ' are info or comments                  *
#                                                                    *
#   mind the format:   value    = variable     ! comment             *
#*********************************************************************
#
#*******************                                                 
# Running parameters
#*******************                                                 
#                                                                    
#*********************************************************************
# Tag name for the run (one word)                                    *
#*********************************************************************
  tag_1     = run_tag ! name of the run 
#*********************************************************************
# Run to generate the grid pack                                      *
#*********************************************************************
  .false.     = gridpack  !True = setting up the grid pack
#*********************************************************************
# Number of events and rnd seed                                      *
# Warning: Do not generate more than 1M events in a single run       *
# If you want to run Pythia, avoid more than 50k events in a run.    *
#*********************************************************************
  2000 = nevents ! Number of unweighted events requested 
 750 = iseed   ! rnd seed (0=assigned automatically=default))
#*********************************************************************
# Collider type and energy                                           *
# lpp: 0=No PDF, 1=proton, -1=antiproton, 2=photon from proton,      *
#                                         3=photon from electron     *
#*********************************************************************
        1     = lpp1    ! beam 1 type 
        1     = lpp2    ! beam 2 type
     4000     = ebeam1  ! beam 1 total energy in GeV
     4000     = ebeam2  ! beam 2 total energy in GeV
#*********************************************************************
# Beam polarization from -100 (left-handed) to 100 (right-handed)    *
#*********************************************************************
        0     = polbeam1 ! beam polarization for beam 1
        0     = polbeam2 ! beam polarization for beam 2
#*********************************************************************
# PDF CHOICE: this automatically fixes also alpha_s and its evol.    *
#*********************************************************************
 'nn23lo1'    = pdlabel     ! PDF set                                     
 230000    = lhaid     ! if pdlabel=lhapdf, this is the lhapdf number
#*********************************************************************
# Renormalization and factorization scales                           *
#*********************************************************************
 F        = fixed_ren_scale  ! if .true. use fixed ren scale
 F        = fixed_fac_scale  ! if .true. use fixed fac scale
 91.1880  = scale            ! fixed ren scale
 91.1880  = dsqrt_q2fact1    ! fixed fact scale for pdf1
 91.1880  = dsqrt_q2fact2    ! fixed fact scale for pdf2
 1        = scalefact        ! scale factor for event-by-event scales
#*********************************************************************
# Matching - Warning! ickkw > 1 is still beta
#*********************************************************************
 0        = ickkw            ! 0 no matching, 1 MLM, 2 CKKW matching
 1        = highestmult      ! for ickkw=2, highest mult group
 1        = ktscheme         ! for ickkw=1, 1 Durham kT, 2 Pythia pTE
 1        = alpsfact         ! scale factor for QCD emission vx
 F        = chcluster        ! cluster only according to channel diag
 T        = pdfwgt           ! for ickkw=1, perform pdf reweighting
 5        = asrwgtflavor     ! highest quark flavor for a_s reweight
 T        = clusinfo         ! include clustering tag in output
 3.0      = lhe_version       ! Change the way clustering information pass to shower.        
#*********************************************************************
#**********************************************************
#
#**********************************************************
# Automatic ptj and mjj cuts if xqcut > 0
# (turn off for VBF and single top processes)
#**********************************************************
   T  = auto_ptj_mjj  ! Automatic setting of ptj and mjj
#**********************************************************
#                                                                    
#**********************************
# BW cutoff (M+/-bwcutoff*Gamma)
#**********************************
  15  = bwcutoff      ! (M+/-bwcutoff*Gamma)
#**********************************************************
# Apply pt/E/eta/dr/mij cuts on decay products or not
# (note that etmiss/ptll/ptheavy/ht/sorted cuts always apply)
#**********************************************************
   T  = cut_decays    ! Cut decay products 
#*************************************************************
# Number of helicities to sum per event (0 = all helicities)
# 0 gives more stable result, but longer run time (needed for
# long decay chains e.g.).
# Use >=2 if most helicities contribute, e.g. pure QCD.
#*************************************************************
   0  = nhel          ! Number of helicities used per event
#*******************                                                 
# Standard Cuts
#*******************                                                 
#                                                                    
#*********************************************************************
# Minimum and maximum pt's (for max, -1 means no cut)                *
#*********************************************************************
 20  = ptj       ! minimum pt for the jets 
  0  = ptb       ! minimum pt for the b 
 10  = pta       ! minimum pt for the photons 
 10  = ptl       ! minimum pt for the charged leptons 
  0  = misset    ! minimum missing Et (sum of neutrino's momenta)
  0  = ptheavy   ! minimum pt for one heavy final state
 1.0 = ptonium   ! minimum pt for the quarkonium states
 -1  = ptjmax    ! maximum pt for the jets
 -1  = ptbmax    ! maximum pt for the b
 -1  = ptamax    ! maximum pt for the photons
 -1  = ptlmax    ! maximum pt for the charged leptons
 -1  = missetmax ! maximum missing Et (sum of neutrino's momenta)
#*********************************************************************
# Minimum and maximum E's (in the center of mass frame)              *
#*********************************************************************
  0  = ej     ! minimum E for the jets 
  0  = eb     ! minimum E for the b 
  0  = ea     ! minimum E for the photons 
  0  = el     ! minimum E for the charged leptons 
 -1   = ejmax ! maximum E for the jets
 -1   = ebmax ! maximum E for the b
 -1   = eamax ! maximum E for the photons
 -1   = elmax ! maximum E for the charged leptons
#*********************************************************************
# Maximum and minimum absolute rapidity (for max, -1 means no cut)   *
#*********************************************************************
   5  = etaj    ! max rap for the jets 
  -1  = etab    ! max rap for the b
 2.5  = etaa    ! max rap for the photons 
 2.5  = etal    ! max rap for the charged leptons 
 0.6  = etaonium ! max rap for the quarkonium states
   0  = etajmin ! min rap for the jets
   0  = etabmin ! min rap for the b
   0  = etaamin ! min rap for the photons
   0  = etalmin ! main rap for the charged leptons
#*********************************************************************
# Minimum and maximum DeltaR distance                                *
#*********************************************************************
 0.4 = drjj    ! min distance between jets 
 0   = drbb    ! min distance between b's 
 0.4 = drll    ! min distance between leptons 
 0.4 = draa    ! min distance between gammas 
 0   = drbj    ! min distance between b and jet 
 0.4 = draj    ! min distance between gamma and jet 
 0.4 = drjl    ! min distance between jet and lepton 
 0   = drab    ! min distance between gamma and b 
 0   = drbl    ! min distance between b and lepton 
 0.4 = dral    ! min distance between gamma and lepton 
 -1  = drjjmax ! max distance between jets
 -1  = drbbmax ! max distance between b's
 -1  = drllmax ! max distance between leptons
 -1  = draamax ! max distance between gammas
 -1  = drbjmax ! max distance between b and jet
 -1  = drajmax ! max distance between gamma and jet
 -1  = drjlmax ! max distance between jet and lepton
 -1  = drabmax ! max distance between gamma and b
 -1  = drblmax ! max distance between b and lepton
 -1  = dralmax ! maxdistance between gamma and lepton
#*********************************************************************
# Minimum and maximum invariant mass for pairs                       *
# WARNING: for four lepton final state mmll cut require to have      *
#          different lepton masses for each flavor!                  *           
#*********************************************************************
 0   = mmjj    ! min invariant mass of a jet pair 
 0   = mmbb    ! min invariant mass of a b pair 
 0   = mmaa    ! min invariant mass of gamma gamma pair
 0   = mmll    ! min invariant mass of l+l- (same flavour) lepton pair
 -1  = mmjjmax ! max invariant mass of a jet pair
 -1  = mmbbmax ! max invariant mass of a b pair
 -1  = mmaamax ! max invariant mass of gamma gamma pair
 -1  = mmllmax ! max invariant mass of l+l- (same flavour) lepton pair
#*********************************************************************
# Minimum and maximum invariant mass for all letpons                 *
#*********************************************************************
 0   = mmnl    ! min invariant mass for all letpons (l+- and vl) 
 -1  = mmnlmax ! max invariant mass for all letpons (l+- and vl) 
#*********************************************************************
# Minimum and maximum pt for 4-momenta sum of leptons                *
#*********************************************************************
 0   = ptllmin  ! Minimum pt for 4-momenta sum of leptons(l and vl)
 -1  = ptllmax  ! Maximum pt for 4-momenta sum of leptons(l and vl)
#*********************************************************************
# Inclusive cuts                                                     *
#*********************************************************************
 0  = xptj ! minimum pt for at least one jet  
 0  = xptb ! minimum pt for at least one b 
 0  = xpta ! minimum pt for at least one photon 
 0  = xptl ! minimum pt for at least one charged lepton 
#*********************************************************************
# Control the pt's of the jets sorted by pt                          *
#*********************************************************************
 0   = ptj1min ! minimum pt for the leading jet in pt
 0   = ptj2min ! minimum pt for the second jet in pt
 0   = ptj3min ! minimum pt for the third jet in pt
 0   = ptj4min ! minimum pt for the fourth jet in pt
 -1  = ptj1max ! maximum pt for the leading jet in pt 
 -1  = ptj2max ! maximum pt for the second jet in pt
 -1  = ptj3max ! maximum pt for the third jet in pt
 -1  = ptj4max ! maximum pt for the fourth jet in pt
 0   = cutuse  ! reject event if fails any (0) / all (1) jet pt cuts
#*********************************************************************
# Control the pt's of leptons sorted by pt                           *
#*********************************************************************
 0   = ptl1min ! minimum pt for the leading lepton in pt
 0   = ptl2min ! minimum pt for the second lepton in pt
 0   = ptl3min ! minimum pt for the third lepton in pt
 0   = ptl4min ! minimum pt for the fourth lepton in pt
 -1  = ptl1max ! maximum pt for the leading lepton in pt 
 -1  = ptl2max ! maximum pt for the second lepton in pt
 -1  = ptl3max ! maximum pt for the third lepton in pt
 -1  = ptl4max ! maximum pt for the fourth lepton in pt
#*********************************************************************
# Control the Ht(k)=Sum of k leading jets                            *
#*********************************************************************
 0   = htjmin ! minimum jet HT=Sum(jet pt)
 -1  = htjmax ! maximum jet HT=Sum(jet pt)
 0   = ihtmin  !inclusive Ht for all partons (including b)
 -1  = ihtmax  !inclusive Ht for all partons (including b)
 0   = ht2min ! minimum Ht for the two leading jets
 0   = ht3min ! minimum Ht for the three leading jets
 0   = ht4min ! minimum Ht for the four leading jets
 -1  = ht2max ! maximum Ht for the two leading jets
 -1  = ht3max ! maximum Ht for the three leading jets
 -1  = ht4max ! maximum Ht for the four leading jets
#***********************************************************************
# Photon-isolation cuts, according to hep-ph/9801442                   *
# When ptgmin=0, all the other parameters are ignored                  *
# When ptgmin>0, pta and draj are not going to be used                 *
#***********************************************************************
   0 = ptgmin ! Min photon transverse momentum
 0.4 = R0gamma ! Radius of isolation code
 1.0 = xn ! n parameter of eq.(3.4) in hep-ph/9801442
 1.0 = epsgamma ! epsilon_gamma parameter of eq.(3.4) in hep-ph/9801442
 .true. = isoEM ! isolate photons from EM energy (photons and leptons)
#*********************************************************************
# WBF cuts                                                           *
#*********************************************************************
 0   = xetamin ! minimum rapidity for two jets in the WBF case  
 0   = deltaeta ! minimum rapidity for two jets in the WBF case 
#*********************************************************************
# KT DURHAM CUT                                                      *
#*********************************************************************
 -1    =  ktdurham        
 0.4  =  dparameter 
#*********************************************************************
# maximal pdg code for quark to be considered as a light jet         *
# (otherwise b cuts are applied)                                     *
#*********************************************************************
 4 = maxjetflavor    ! Maximum jet pdg code
#*********************************************************************
# Jet measure cuts                                                   *
#*********************************************************************
 0   = xqcut   ! minimum kt jet measure between partons
#*********************************************************************
#
#*********************************************************************
# Store info for systematics studies                                 *
# WARNING: If use_syst is T, matched Pythia output is                *
#          meaningful ONLY if plotted taking matchscale              *
#          reweighting into account!                                 *
#*********************************************************************
   F  = use_syst      ! Enable systematics studies
#
#**************************************
# Parameter of the systematics study
#  will be used by SysCalc (if installed)
#**************************************                                  
#
0.5 1 2 = sys_scalefact  # factorization/renormalization scale factor
0.5 1 2 = sys_alpsfact  # \alpha_s emission scale factors
30 50 = sys_matchscale # variation of merging scale
# PDF sets and number of members (0 or none for all members).
CT10nlo.LHgrid = sys_pdf # matching scales
# MSTW2008nlo68cl.LHgrid 1  = sys_pdf
</MGRunCard>
<slha>
######################################################################
## PARAM_CARD AUTOMATICALY GENERATED BY MG5 FOLLOWING UFO MODEL   ####
######################################################################
##                                                                  ##
##  Width set on Auto will be computed following the information    ##
##        present in the decay.py files of the model.               ##
##        See  arXiv:1402.1178 for more details.                    ##
##                                                                  ##
######################################################################

###################################
## INFORMATION FOR CKMBLOCK
###################################
Block ckmblock 
    1 2.277360e-01 # cabi 

###################################
## INFORMATION FOR FRBLOCK
###################################
Block frblock 
    1 2.000000e-01 # gz 

###################################
## INFORMATION FOR MASS
###################################
Block mass 
    1 5.040000e-03 # MD 
    2 2.550000e-03 # MU 
    3 1.010000e-01 # MS 
    4 1.270000e+00 # MC 
    5 4.700000e+00 # MB 
    6 1.720000e+02 # MT 
   11 5.110000e-04 # Me 
   13 1.056600e-01 # MM 
   15 1.777000e+00 # MTA 
   23 9.118760e+01 # MZ 
   25 1.200000e+02 # MH 
  10030 3.300000e+03 # MZph 
  10031 3.000000e+02 # MZpl 
## Dependent parameters, given by model restrictions.
## Those values should be edited following the 
## analytical expression. MG5 ignores those values 
## but they are important for interfacing the output of MG5
## to external program such as Pythia.
  12 0.000000 # ve : 0.0 
  14 0.000000 # vm : 0.0 
  16 0.000000 # vt : 0.0 
  21 0.000000 # g : 0.0 
  22 0.000000 # a : 0.0 
  24 79.824360 # w+ : cmath.sqrt(MZ__exp__2/2. + cmath.sqrt(MZ__exp__4/4. - (aEW*cmath.pi*MZ__exp__2)/(Gf*sqrt__2))) 

###################################
## INFORMATION FOR SMINPUTS
###################################
Block sminputs 
    1 1.279000e+02 # aEWM1 
    2 1.166370e-05 # Gf 
    3 1.184000e-01 # aS 

###################################
## INFORMATION FOR YUKAWA
###################################
Block yukawa 
    1 5.040000e-03 # ymdo 
    2 2.550000e-03 # ymup 
    3 1.010000e-01 # yms 
    4 1.270000e+00 # ymc 
    5 4.700000e+00 # ymb 
    6 1.720000e+02 # ymt 
   11 5.110000e-04 # yme 
   13 1.056600e-01 # ymm 
   15 1.777000e+00 # ymtau 

###################################
## INFORMATION FOR DECAY
###################################
DECAY   6 1.508336e+00 # WT 
DECAY  23 2.495200e+00 # WZ 
DECAY  24 2.085000e+00 # WW 
DECAY  25 5.753088e-03 # WH 
## Dependent parameters, given by model restrictions.
## Those values should be edited following the 
## analytical expression. MG5 ignores those values 
## but they are important for interfacing the output of MG5
## to external program such as Pythia.
DECAY  1 0.000000 # d : 0.0 
DECAY  2 0.000000 # u : 0.0 
DECAY  3 0.000000 # s : 0.0 
DECAY  4 0.000000 # c : 0.0 
DECAY  5 0.000000 # b : 0.0 
DECAY  11 0.000000 # e- : 0.0 
DECAY  12 0.000000 # ve : 0.0 
DECAY  13 0.000000 # mu- : 0.0 
DECAY  14 0.000000 # vm : 0.0 
DECAY  15 0.000000 # ta- : 0.0 
DECAY  16 0.000000 # vt : 0.0 
DECAY  21 0.000000 # g : 0.0 
DECAY  22 0.000000 # a : 0.0 
DECAY  10030 0.308725 # zph : (gz__exp__2*MZph*(5 + cmath.sqrt(1 - (4*MT__exp__2)/MZph__exp__2)))/(144.*cmath.pi) 
DECAY  10031 0.132629 # zpl : (5*gz__exp__2*MZpl)/(144.*cmath.pi) 
#===========================================================
# QUANTUM NUMBERS OF NEW STATE(S) (NON SM PDG CODE)
#===========================================================

Block QNUMBERS 10030  # zph 
        1 0  # 3 times electric charge
        2 3  # number of spin states (2S+1)
        3 1  # colour rep (1: singlet, 3: triplet, 8: octet)
        4 0  # Particle/Antiparticle distinction (0=own anti)
Block QNUMBERS 10031  # zpl 
        1 0  # 3 times electric charge
        2 3  # number of spin states (2S+1)
        3 1  # colour rep (1: singlet, 3: triplet, 8: octet)
        4 0  # Particle/Antiparticle distinction (0=own anti)
</slha>
## END BANNER##
<MGGenerationInfo>
#  Number of Events        :         3914
#  Integrated weight (pb)  :  0.17606E-04
#  Max wgt                 :  0.70841E-08
#  Average wgt             :  0.44982E-08
</MGGenerationInfo>
</header>
<init>
     2212     2212  0.40000000000E+04  0.40000000000E+04 0 0  247000  247000 2   1
  0.17616095320E-04  0.35814524360E-07  0.70841300000E-08   0
</init>
<event>
 5   0  0.6603516E-08  0.3301305E+04  0.7818609E-02  0.8162563E-01
        2   -1    0    0  501    0  0.00000000000E+00  0.00000000000E+00  0.16231448567E+04  0.16231448567E+04  0.25500000920E-02 0.  1.
       -2   -1    0    0    0  501  0.00000000000E+00  0.00000000000E+00 -0.16786266043E+04  0.16786266043E+04  0.25500000920E-02 0. -1.
    10030    2    1    2    0    0  0.00000000000E+00  0.00000000000E+00 -0.55481747585E+02  0.33017714609E+04  0.33013052806E+04 0.  0.
        1    1    3    3  502    0 -0.89026547678E+03 -0.99598373376E+03 -0.99746425950E+03  0.16671806039E+04  0.50400001928E-02 0. -1.
       -1    1    3    3    0  502  0.89026547678E+03  0.99598373376E+03  0.94198251192E+03  0.16345908570E+04  0.50400001928E-02 0.  1.
</event>
<event>
 5   0  0.6603516E-08  0.3290216E+04  0.7818609E-02  0.8165389E-01
        2   -1    0    0  501    0  0.00000000000E+00  0.00000000000E+00  0.13585855637E+04  0.13585855637E+04  0.25500000920E-02 0. -1.
       -2   -1    0    0    0  501  0.00000000000E+00  0.00000000000E+00 -0.19920572346E+04  0.19920572346E+04  0.25500000920E-02 0.  1.
    10030    2    1    2    0    0  0.00000000000E+00  0.00000000000E+00 -0.63347167098E+03  0.33506427983E+04  0.32902159205E+04 0.  0.
        1    1    3    3  502    0  0.16083793857E+03 -0.97460449045E+03  0.10229695080E+04  0.14220370493E+04  0.50400001928E-02 0. -1.
       -1    1    3    3    0  502 -0.16083793857E+03  0.97460449045E+03 -0.16564411790E+04  0.19286057489E+04  0.50400001928E-02 0.  1.
</event>
<event>
 5   0  0.7084130E-08  0.3299411E+04  0.7818609E-02  0.8163045E-01
        2   -1    0    0  501    0  0.00000000000E+00  0.00000000000E+00  0.17261573143E+04  0.17261573143E+04  0.25500000920E-02 0.  1.
       -2   -1    0    0    0  501  0.00000000000E+00  0.00000000000E+00 -0.15766393351E+04  0.15766393351E+04  0.25500000920E-02 0. -1.
    10030    2    1    2    0    0  0.00000000000E+00  0.00000000000E+00  0.14951797927E+03  0.33027966494E+04  0.32994105657E+04 0.  0.
        3    1    3    3  502    0 -0.88218435840E+03  0.41814791620E+03  0.14059472643E+04  0.17116613690E+04  0.10100000352E+00 0.  1.
       -3    1    3    3    0  502  0.88218435840E+03 -0.41814791620E+03 -0.12564292850E+04  0.15911352804E+04  0.10100000352E+00 0. -1.
</event>
<event>
 5   0  0.6603516E-08  0.3300278E+04  0.7818609E-02  0.8162825E-01
       -2   -1    0    0    0  501  0.00000000000E+00  0.00000000000E+00  0.87861395011E+03  0.87861395011E+03  0.25500000920E-02 0.  1.
        2   -1    0    0  501    0  0.00000000000E+00  0.00000000000E+00 -0.30991518907E+04  0.30991518907E+04  0.25500000920E-02 0. -1.
    10030    2    1    2    0    0  0.00000000000E+00  0.00000000000E+00 -0.22205379406E+04  0.39777658408E+04  0.33002776154E+04 0.  0.
        1    1    3    3  502    0  0.50300953353E+03 -0.66165804453E+03  0.60790217271E+03  0.10297354079E+04  0.50400001928E-02 0.  1.
       -1    1    3    3    0  502 -0.50300953353E+03  0.66165804453E+03 -0.28284401133E+04  0.29480304329E+04  0.50400001928E-02 0. -1.
</event>
<event>
 5   0  0.7084130E-08  0.3299409E+04  0.7818609E-02  0.8163046E-01
        2   -1    0    0  501    0  0.00000000000E+00  0.00000000000E+00  0.23364065929E+04  0.23364065929E+04  0.25500000920E-02 0.  1.
       -2   -1    0    0    0  501  0.00000000000E+00  0.00000000000E+00 -0.11648337647E+04  0.11648337647E+04  0.25500000920E-02 0. -1.
    10030    2    1    2    0    0  0.00000000000E+00  0.00000000000E+00  0.11715728282E+04  0.35012403576E+04  0.32994092123E+04 0.  0.
        3    1    3    3  502    0  0.29218690396E+03 -0.48727121498E+03 -0.10577351907E+04  0.12006707157E+04  0.10100000352E+00 0. -1.
       -3    1    3    3    0  502 -0.29218690396E+03  0.48727121498E+03  0.22293080189E+04  0.23005696419E+04  0.10100000352E+00 0.  1.
</event>
<event>
 5   0  0.2244093E-08  0.3298478E+04  0.7818609E-02  0.8163283E-01
       -1   -1    0    0    0  501  0.00000000000E+00  0.00000000000E+00  0.11335690710E+04  0.11335690710E+04  0.50400001928E-02 0.  1.
        1   -1    0    0  501    0  0.00000000000E+00  0.00000000000E+00 -0.23994920029E+04  0.23994920029E+04  0.50400001928E-02 0. -1.
    10030    2    1    2    0    0  0.00000000000E+00  0.00000000000E+00 -0.12659229320E+04  0.35330610739E+04  0.32984783889E+04 0.  0.
        1    1    3    3  502    0 -0.12891850040E+02 -0.10017919530E+04  0.77025955502E+03  0.12637456623E+04  0.50400001928E-02 0.  1.
       -1    1    3    3    0  502  0.12891850040E+02  0.10017919530E+04 -0.20361824870E+04  0.22693154116E+04  0.50400001928E-02 0. -1.
</event>
<event>
 5   0  0.2279938E-08  0.3302541E+04  0.7818609E-02  0.8162249E-01
        1   -1    0    0  501    0  0.00000000000E+00  0.00000000000E+00  0.13265724156E+04  0.13265724156E+04  0.50400001928E-02 0.  1.
       -1   -1    0    0    0  501  0.00000000000E+00  0.00000000000E+00 -0.20554428475E+04  0.20554428475E+04  0.50400001928E-02 0. -1.
    10030    2    1    2    0    0  0.00000000000E+00  0.00000000000E+00 -0.72887043186E+03  0.33820152632E+04  0.33025407089E+04 0.  0.
        3    1    3    3  502    0 -0.52778696900E+03  0.60486887417E+03 -0.18421673959E+04  0.20094790779E+04  0.10100000352E+00 0. -1.
       -3    1    3    3    0  502  0.52778696900E+03 -0.60486887417E+03  0.11132969641E+04  0.13725361853E+04  0.10100000352E+00 0.  1.
</event>
<event>
 5   0  0.6603516E-08  0.3297625E+04  0.7818609E-02  0.8163500E-01
       -2   -1    0    0    0  501  0.00000000000E+00  0.00000000000E+00  0.12882654362E+04  0.12882654362E+04  0.25500000920E-02 0. -1.
        2   -1    0    0  501    0  0.00000000000E+00  0.00000000000E+00 -0.21102665668E+04  0.21102665668E+04  0.25500000920E-02 0.  1.
    10030    2    1    2    0    0  0.00000000000E+00  0.00000000000E+00 -0.82200113055E+03  0.33985320030E+04  0.32976254968E+04 0.  0.
        1    1    3    3  502    0 -0.83907024549E+03  0.25828539836E+03 -0.18493550099E+04  0.20471600271E+04  0.50400001928E-02 0.  1.
       -1    1    3    3    0  502  0.83907024549E+03 -0.25828539836E+03  0.10273538793E+04  0.13513719759E+04  0.50400001928E-02 0. -1.
</event>
<event>
 5   0  0.2291682E-08  0.3304186E+04  0.7818609E-02  0.8161831E-01
        1   -1    0    0  501    0  0.00000000000E+00  0.00000000000E+00  0.23736338873E+04  0.23736338873E+04  0.50400001928E-02 0.  1.
       -1   -1    0    0    0  501  0.00000000000E+00  0.00000000000E+00 -0.11498873894E+04  0.11498873894E+04  0.50400001928E-02 0. -1.
    10030    2    1    2    0    0  0.00000000000E+00  0.00000000000E+00  0.12237464979E+04  0.35235212766E+04  0.33041862381E+04 0.  0.
        2    1    3    3  502    0  0.11373356901E+04 -0.63579887258E+03  0.16949924509E+04  0.21379364086E+04  0.25500000920E-02 0.  1.
       -2    1    3    3    0  502 -0.11373356901E+04  0.63579887258E+03 -0.47124595302E+03  0.13855848681E+04  0.25500000920E-02 0. -1.
</event>
<event>
 5   0  0.6603516E-08  0.3299780E+04  0.7818609E-02  0.8162951E-01
        2   -1    0    0  501    0  0.00000000000E+00  0.00000000000E+00  0.12151522428E+04  0.12151522428E+04  0.25500000920E-02 0. -1.
       -2   -1    0    0    0  501  0.00000000000E+00  0.00000000000E+00 -0.22401617650E+04  0.22401617650E+04  0.25500000920E-02 0.  1.
    10030    2    1    2    0    0  0.00000000000E+00  0.00000000000E+00 -0.10250095223E+04  0.34553140078E+04  0.32997803520E+04 0.  0.
        1    1    3    3  502    0  0.24596385527E+01 -0.62269786012E+03  0.10873780215E+04  0.12530561187E+04  0.50400001928E-02 0. -1.
       -1    1    3    3    0  502 -0.24596385527E+01  0.62269786012E+03 -0.21123875438E+04  0.22022578891E+04  0.50400001928E-02 0.  1.
</event>
<event>
 5   0  0.2200750E-08  0.3299978E+04  0.7818609E-02  0.8162901E-01
       -4   -1    0    0    0  501  0.00000000000E+00  0.00000000000E+00  0.13127742185E+04  0.13127748328E+04  0.12699999809E+01 0.  1.
        4   -1    0    0  501    0  0.00000000000E+00  0.00000000000E+00 -0.20738238934E+04  0.20738242823E+04  0.12699999809E+01 0. -1.
    10030    2    1    2    0    0  0.00000000000E+00  0.00000000000E+00 -0.76104967489E+03  0.33865991151E+04  0.32999783270E+04 0.  0.
        1    1    3    3  502    0  0.15098117649E+04 -0.65230621876E+03 -0.51601018134E+03  0.17237463490E+04  0.50400001928E-02 0.  1.
       -1    1    3    3    0  502 -0.15098117649E+04  0.65230621876E+03 -0.24503949355E+03  0.16628527661E+04  0.50400001928E-02 0. -1.
</event>
<event>
 5   0  0.6821287E-08  0.3300658E+04  0.7818609E-02  0.8162728E-01
       -2   -1    0    0    0  501  0.00000000000E+00  0.00000000000E+00  0.24832224726E+04  0.24832224726E+04  0.25500000920E-02 0.  1.
        2   -1    0    0  501    0  0.00000000000E+00  0.00000000000E+00 -0.10967952560E+04  0.10967952560E+04  0.25500000920E-02 0. -1.
    10030    2    1    2    0    0  0.00000000000E+00  0.00000000000E+00  0.13864272166E+04  0.35800177286E+04  0.33006584964E+04 0.  0.
        5    1    3    3  502    0 -0.54201318646E+03  0.69154429889E+02 -0.99582978221E+03  0.11358959788E+04  0.46999998093E+01 0. -1.
       -5    1    3    3    0  502  0.54201318646E+03 -0.69154429889E+02  0.23822569988E+04  0.24441217498E+04  0.46999998093E+01 0.  1.
</event>
<event>
 5   0  0.2383270E-08  0.3288175E+04  0.7818609E-02  0.8165911E-01
       -1   -1    0    0    0  501  0.00000000000E+00  0.00000000000E+00  0.20408474055E+04  0.20408474055E+04  0.50400001928E-02 0. -1.
        1   -1    0    0  501    0  0.00000000000E+00  0.00000000000E+00 -0.13244615500E+04  0.13244615501E+04  0.50400001928E-02 0.  1.
    10030    2    1    2    0    0  0.00000000000E+00  0.00000000000E+00  0.71638585547E+03  0.33653089556E+04  0.32881751280E+04 0.  0.
        5    1    3    3  502    0  0.14264932713E+04  0.26929043746E+03 -0.43166297693E+03  0.15145149086E+04  0.46999998093E+01 0.  1.
       -5    1    3    3    0  502 -0.14264932713E+04 -0.26929043746E+03  0.11480488324E+04  0.18507940470E+04  0.46999998093E+01 0. -1.
</event>
<event>
 5   0  0.2244093E-08  0.3302359E+04  0.7818609E-02  0.8162295E-01
        1   -1    0    0  501    0  0.00000000000E+00  0.00000000000E+00  0.19545398693E+04  0.19545398693E+04  0.50400001928E-02 0.  1.
       -1   -1    0    0    0  501  0.00000000000E+00  0.00000000000E+00 -0.13949029997E+04  0.13949029997E+04  0.50400001928E-02 0. -1.
    10030    2    1    2    0    0  0.00000000000E+00  0.00000000000E+00  0.55963686960E+03  0.33494428691E+04  0.33023588702E+04 0.  0.
        1    1    3    3  502    0 -0.20798119968E+03  0.15059154714E+04 -0.37385151595E+03  0.15655039260E+04  0.50400001928E-02 0.  1.
       -1    1    3    3    0  502  0.20798119968E+03 -0.15059154714E+04  0.93348838555E+03  0.17839389430E+04  0.50400001928E-02 0. -1.
</event>
<event>
 5   0  0.2279938E-08  0.3300356E+04  0.7818609E-02  0.8162805E-01
       -1   -1    0    0    0  501  0.00000000000E+00  0.00000000000E+00  0.16593767453E+04  0.16593767453E+04  0.50400001928E-02 0. -1.
        1   -1    0    0  501    0  0.00000000000E+00  0.00000000000E+00 -0.16410303198E+04  0.16410303198E+04  0.50400001928E-02 0.  1.
    10030    2    1    2    0    0  0.00000000000E+00  0.00000000000E+00  0.18346425504E+02  0.33004070651E+04  0.33003560723E+04 0.  0.
        3    1    3    3  502    0  0.53980301388E+03 -0.11373173288E+04 -0.10577123074E+04  0.16442728897E+04  0.10100000352E+00 0.  1.
       -3    1    3    3    0  502 -0.53980301388E+03  0.11373173288E+04  0.10760587329E+04  0.16561341754E+04  0.10100000352E+00 0. -1.
</event>
<event>
 5   0  0.2279938E-08  0.3300003E+04  0.7818609E-02  0.8162895E-01
        1   -1    0    0  501    0  0.00000000000E+00  0.00000000000E+00  0.13714245272E+04  0.13714245272E+04  0.50400001928E-02 0.  1.
       -1   -1    0    0    0  501  0.00000000000E+00  0.00000000000E+00 -0.19851651610E+04  0.19851651610E+04  0.50400001928E-02 0. -1.
    10030    2    1    2    0    0  0.00000000000E+00  0.00000000000E+00 -0.61374063378E+03  0.33565896882E+04  0.33000025408E+04 0.  0.
        3    1    3    3  502    0  0.12932881151E+04  0.37002773728E+03 -0.12787597828E+04  0.18560014190E+04  0.10100000352E+00 0. -1.
       -3    1    3    3    0  502 -0.12932881151E+04 -0.37002773728E+03  0.66501914898E+03  0.15005882692E+04  0.10100000352E+00 0.  1.
</event>
<event>
 5   0  0.6603516E-08  0.3303490E+04  0.7818609E-02  0.8162008E-01
        2   -1    0    0  501    0  0.00000000000E+00  0.00000000000E+00  0.18910676077E+04  0.18910676077E+04  0.25500000920E-02 0. -1.
       -2   -1    0    0    0  501  0.00000000000E+00  0.00000000000E+00 -0.14427098985E+04  0.14427098985E+04  0.25500000920E-02 0.  1.
    10030    2    1    2    0    0  0.00000000000E+00  0.00000000000E+00  0.44835770916E+03  0.33337775062E+04  0.33034902490E+04 0.  0.
        1    1    3    3  502    0  0.11249674694E+04 -0.24965642978E+03 -0.97004794839E+03  0.15062779167E+04  0.50400001928E-02 0.  1.
       -1    1    3    3    0  502 -0.11249674694E+04  0.24965642978E+03  0.14184056575E+04  0.18274995895E+04  0.50400001928E-02 0. -1.
</event>
<event>
 5   0  0.2309822E-08  0.3298529E+04  0.7818609E-02  0.8163270E-01
        1   -1    0    0  501    0  0.00000000000E+00  0.00000000000E+00  0.13603462614E+04  0.13603462614E+04  0.50400001928E-02 0.  1.
       -1   -1    0    0    0  501  0.00000000000E+00  0.00000000000E+00 -0.19995448284E+04  0.19995448284E+04  0.50400001928E-02 0. -1.
    10030    2    1    2    0    0  0.00000000000E+00  0.00000000000E+00 -0.63919856707E+03  0.33598910898E+04  0.32985289641E+04 0.  0.
        4    1    3    3  502    0  0.74241894921E+03  0.43824904540E+03 -0.17517504345E+04  0.19524034726E+04  0.12699999809E+01 0. -1.
       -4    1    3    3    0  502 -0.74241894921E+03 -0.43824904540E+03  0.11125518675E+04  0.14074876172E+04  0.12699999809E+01 0.  1.
</event>
<event>
 5   0  0.2244093E-08  0.3299841E+04  0.7818609E-02  0.8162936E-01
       -1   -1    0    0    0  501  0.00000000000E+00  0.00000000000E+00  0.93158535981E+03  0.93158535983E+03  0.50400001928E-02 0. -1.
        1   -1    0    0  501    0  0.00000000000E+00  0.00000000000E+00 -0.29221561404E+04  0.29221561404E+04  0.50400001928E-02 0.  1.
    10030    2    1    2    0    0  0.00000000000E+00  0.00000000000E+00 -0.19905707806E+04  0.38537415003E+04  0.32998411353E+04 0.  0.
        1    1    3    3  502    0 -0.14694581075E+04  0.39851774851E+03 -0.25287902618E+03  0.15433960371E+04  0.50400001928E-02 0. -1.
       -1    1    3    3    0  502  0.14694581075E+04 -0.39851774851E+03 -0.17376917544E+04  0.23103454631E+04  0.50400001928E-02 0.  1.
</event>
<event>
 5   0  0.6765252E-08  0.3282766E+04  0.7818609E-02  0.8167294E-01
       -2   -1    0    0    0  501  0.00000000000E+00  0.00000000000E+00  0.10636098945E+04  0.10636098945E+04  0.25500000920E-02 0.  1.
        2   -1    0    0  501    0  0.00000000000E+00  0.00000000000E+00 -0.25330138169E+04  0.25330138169E+04  0.25500000920E-02 0. -1.
    10030    2    1    2    0    0  0.00000000000E+00  0.00000000000E+00 -0.14694039224E+04  0.35966237115E+04  0.32827662473E+04 0.  0.
        2    1    3    3  502    0 -0.84029082054E+03  0.63572016578E+03 -0.21135622434E+04  0.23616464911E+04  0.25500000920E-02 0. -1.
       -2    1    3    3    0  502  0.84029082054E+03 -0.63572016578E+03  0.64415832099E+03  0.12349772203E+04  0.25500000920E-02 0.  1.
</event>
<event>
 5   0  0.2279938E-08  0.3302552E+04  0.7818609E-02  0.8162246E-01
       -1   -1    0    0    0  501  0.00000000000E+00  0.00000000000E+00  0.12512145704E+04  0.12512145704E+04  0.50400001928E-02 0.  1.
        1   -1    0    0  501    0  0.00000000000E+00  0.00000000000E+00 -0.21792522670E+04  0.21792522670E+04  0.50400001928E-02 0. -1.
    10030    2    1    2    0    0  0.00000000000E+00  0.00000000000E+00 -0.92803769657E+03  0.34304668374E+04  0.33025518552E+04 0.  0.
        3    1    3    3  502    0  0.83937236142E+03  0.12914574053E+04 -0.10823079626E+04  0.18824980018E+04  0.10100000352E+00 0. -1.
       -3    1    3    3    0  502 -0.83937236142E+03 -0.12914574053E+04  0.15427026604E+03  0.15479688356E+04  0.10100000352E+00 0.  1.
</event>
<event>
 5   0  0.7084130E-08  0.3299759E+04  0.7818609E-02  0.8162957E-01
       -2   -1    0    0    0  501  0.00000000000E+00  0.00000000000E+00  0.18481034978E+04  0.18481034978E+04  0.25500000920E-02 0. -1.
        2   -1    0    0  501    0  0.00000000000E+00  0.00000000000E+00 -0.14729166462E+04  0.14729166462E+04  0.25500000920E-02 0.  1.
    10030    2    1    2    0    0  0.00000000000E+00  0.00000000000E+00  0.37518685154E+03  0.33210201440E+04  0.32997590250E+04 0.  0.
        3    1    3    3  502    0  0.44094588633E+02 -0.14185735650E+04  0.10343269268E+04  0.17561684127E+04  0.10100000352E+00 0. -1.
       -3    1    3    3    0  502 -0.44094588633E+02  0.14185735650E+04 -0.65914007527E+03  0.15648517313E+04  0.10100000352E+00 0.  1.
</event>
<event>
 5   0  0.2244093E-08  0.3299996E+04  0.7818609E-02  0.8162896E-01
       -1   -1    0    0    0  501  0.00000000000E+00  0.00000000000E+00  0.17038616439E+04  0.17038616439E+04  0.50400001928E-02 0.  1.
        1   -1    0    0  501    0  0.00000000000E+00  0.00000000000E+00 -0.15978370944E+04  0.15978370944E+04  0.50400001928E-02 0. -1.
    10030    2    1    2    0    0  0.00000000000E+00  0.00000000000E+00  0.10602454948E+03  0.33016987383E+04  0.32999959627E+04 0.  0.
        1    1    3    3  502    0  0.13380745825E+03  0.12434385988E+03  0.16937143703E+04  0.17035357934E+04  0.50400001928E-02 0.  1.
       -1    1    3    3    0  502 -0.13380745825E+03 -0.12434385988E+03 -0.15876898208E+04  0.15981629449E+04  0.50400001928E-02 0. -1.
</event>
<event>
 5   0  0.6765252E-08  0.3300599E+04  0.7818609E-02  0.8162743E-01
        2   -1    0    0  501    0  0.00000000000E+00  0.00000000000E+00  0.21929770614E+04  0.21929770614E+04  0.25500000920E-02 0.  1.
       -2   -1    0    0    0  501  0.00000000000E+00  0.00000000000E+00 -0.12419135848E+04  0.12419135848E+04  0.25500000920E-02 0. -1.
    10030    2    1    2    0    0  0.00000000000E+00  0.00000000000E+00  0.95106347658E+03  0.34348906462E+04  0.33005987358E+04 0.  0.
        2    1    3    3  502    0  0.41973671882E+03  0.10825610193E+04 -0.74494659845E+03  0.13795153889E+04  0.25500000920E-02 0. -1.
       -2    1    3    3    0  502 -0.41973671882E+03 -0.10825610193E+04  0.16960100750E+04  0.20553752573E+04  0.25500000920E-02 0.  1.
</event>
<event>
 5   0  0.2291682E-08  0.3295570E+04  0.7818609E-02  0.8164023E-01
        1   -1    0    0  501    0  0.00000000000E+00  0.00000000000E+00  0.14828599992E+04  0.14828599992E+04  0.50400001928E-02 0.  1.
       -1   -1    0    0    0  501  0.00000000000E+00  0.00000000000E+00 -0.18310532378E+04  0.18310532378E+04  0.50400001928E-02 0. -1.
    10030    2    1    2    0    0  0.00000000000E+00  0.00000000000E+00 -0.34819323860E+03  0.33139132370E+04  0.32955701192E+04 0.  0.
        2    1    3    3  502    0 -0.79651926771E+03  0.10728908198E+04  0.79545775589E+03  0.15550854306E+04  0.25500000920E-02 0.  1.
       -2    1    3    3    0  502  0.79651926771E+03 -0.10728908198E+04 -0.11436509945E+04  0.17588278063E+04  0.25500000920E-02 0. -1.
</event>
<event>
 5   0  0.7084130E-08  0.3298251E+04  0.7818609E-02  0.8163340E-01
        2   -1    0    0  501    0  0.00000000000E+00  0.00000000000E+00  0.24498870370E+04  0.24498870370E+04  0.25500000920E-02 0. -1.
       -2   -1    0    0    0  501  0.00000000000E+00  0.00000000000E+00 -0.11100983387E+04  0.11100983387E+04  0.25500000920E-02 0.  1.
    10030    2    1    2    0    0  0.00000000000E+00  0.00000000000E+00  0.13397886982E+04  0.35599853757E+04  0.32982513730E+04 0.  0.
        3    1    3    3  502    0 -0.51103719749E+02  0.12008271990E+04 -0.54887806128E+03  0.13213117303E+04  0.10100000352E+00 0.  1.
       -3    1    3    3    0  502  0.51103719749E+02 -0.12008271990E+04  0.18886667595E+04  0.22386736454E+04  0.10100000352E+00 0. -1.
</event>
<event>
 5   0  0.6821287E-08  0.3300499E+04  0.7818609E-02  0.8162768E-01
        2   -1    0    0  501    0  0.00000000000E+00  0.00000000000E+00  0.22233996517E+04  0.22233996517E+04  0.25500000920E-02 0.  1.
       -2   -1    0    0    0  501  0.00000000000E+00  0.00000000000E+00 -0.12248464735E+04  0.12248464735E+04  0.25500000920E-02 0. -1.
    10030    2    1    2    0    0  0.00000000000E+00  0.00000000000E+00  0.99855317819E+03  0.34482461252E+04  0.33004988851E+04 0.  0.
        5    1    3    3  502    0 -0.20411115767E+03 -0.16312031403E+04  0.65001300090E+03  0.17677737527E+04  0.46999998093E+01 0. -1.
       -5    1    3    3    0  502  0.20411115767E+03  0.16312031403E+04  0.34854017730E+03  0.16804723725E+04  0.46999998093E+01 0.  1.
</event>
<event>
 5   0  0.2291682E-08  0.3294005E+04  0.7818609E-02  0.8164422E-01
       -1   -1    0    0    0  501  0.00000000000E+00  0.00000000000E+00  0.10950607317E+04  0.10950607317E+04  0.50400001928E-02 0.  1.
        1   -1    0    0  501    0  0.00000000000E+00  0.00000000000E+00 -0.24771393502E+04  0.24771393502E+04  0.50400001928E-02 0. -1.
    10030    2    1    2    0    0  0.00000000000E+00  0.00000000000E+00 -0.13820786185E+04  0.35722000819E+04  0.32940054823E+04 0.  0.
        2    1    3    3  502    0  0.15817784723E+04 -0.28391783654E+03 -0.10820233282E+04  0.19373711457E+04  0.25500000920E-02 0.  1.
       -2    1    3    3    0  502 -0.15817784723E+04  0.28391783654E+03 -0.30005529036E+03  0.16348289362E+04  0.25500000920E-02 0. -1.
</event>
<event>
 5   0  0.7084130E-08  0.3303275E+04  0.7818609E-02  0.8162063E-01
        2   -1    0    0  501    0  0.00000000000E+00  0.00000000000E+00  0.11376277914E+04  0.11376277914E+04  0.25500000920E-02 0. -1.
       -2   -1    0    0    0  501  0.00000000000E+00  0.00000000000E+00 -0.23978901447E+04  0.23978901447E+04  0.25500000920E-02 0.  1.
    10030    2    1    2    0    0  0.00000000000E+00  0.00000000000E+00 -0.12602623532E+04  0.35355179361E+04  0.33032750230E+04 0.  0.
        3    1    3    3  502    0 -0.18853138371E+03  0.14779806805E+03 -0.23791966819E+04  0.23912267172E+04  0.10100000352E+00 0.  1.
       -3    1    3    3    0  502  0.18853138371E+03 -0.14779806805E+03  0.11189343287E+04  0.11442912189E+04  0.10100000352E+00 0. -1.
</event>
<event>
 5   0  0.6603516E-08  0.3301889E+04  0.7818609E-02  0.8162415E-01
        2   -1    0    0  501    0  0.00000000000E+00  0.00000000000E+00  0.19784813885E+04  0.19784813885E+04  0.25500000920E-02 0. -1.
       -2   -1    0    0    0  501  0.00000000000E+00  0.00000000000E+00 -0.13776309949E+04  0.13776309950E+04  0.25500000920E-02 0.  1.
    10030    2    1    2    0    0  0.00000000000E+00  0.00000000000E+00  0.60085039353E+03  0.33561123834E+04  0.33018887224E+04 0.  0.
        1    1    3    3  502    0 -0.11256515355E+04  0.41460537964E+02  0.15272288524E+04  0.18976928949E+04  0.50400001928E-02 0. -1.
       -1    1    3    3    0  502  0.11256515355E+04 -0.41460537964E+02 -0.92637845887E+03  0.14584194886E+04  0.50400001928E-02 0.  1.
</event>
<event>
 5   0  0.2383270E-08  0.3299320E+04  0.7818609E-02  0.8163068E-01
       -1   -1    0    0    0  501  0.00000000000E+00  0.00000000000E+00  0.15800074901E+04  0.15800074901E+04  0.50400001928E-02 0. -1.
        1   -1    0    0  501    0  0.00000000000E+00  0.00000000000E+00 -0.17223834578E+04  0.17223834578E+04  0.50400001928E-02 0.  1.
    10030    2    1    2    0    0  0.00000000000E+00  0.00000000000E+00 -0.14237596769E+03  0.33023909479E+04  0.32993203931E+04 0.  0.
        5    1    3    3  502    0  0.61117501373E+03 -0.15318163509E+04 -0.10810650702E+03  0.16527871421E+04  0.46999998093E+01 0.  1.
       -5    1    3    3    0  502 -0.61117501373E+03  0.15318163509E+04 -0.34269460675E+02  0.16496038058E+04  0.46999998093E+01 0. -1.
</event>
<event>
 5   0  0.7084130E-08  0.3301312E+04  0.7818609E-02  0.8162562E-01
        2   -1    0    0  501    0  0.00000000000E+00  0.00000000000E+00  0.16235290651E+04  0.16235290651E+04  0.25500000920E-02 0.  1.
       -2   -1    0    0    0  501  0.00000000000E+00  0.00000000000E+00 -0.16782362270E+04  0.16782362270E+04  0.25500000920E-02 0. -1.
    10030    2    1    2    0    0  0.00000000000E+00  0.00000000000E+00 -0.54707161905E+02  0.33017652922E+04  0.33013120378E+04 0.  0.
        3    1    3    3  502    0  0.10794327703E+04 -0.18789593809E+03  0.12073949152E+04  0.16304240187E+04  0.10100000352E+00 0.  1.
       -3    1    3    3    0  502 -0.10794327703E+04  0.18789593809E+03 -0.12621020771E+04  0.16713412735E+04  0.10100000352E+00 0. -1.
</event>
<event>
 5   0  0.2309822E-08  0.3299637E+04  0.7818609E-02  0.8162988E-01
        1   -1    0    0  501    0  0.00000000000E+00  0.00000000000E+00  0.14048753615E+04  0.14048753616E+04  0.50400001928E-02 0.  1.
       -1   -1    0    0    0  501  0.00000000000E+00  0.00000000000E+00 -0.19374685452E+04  0.19374685452E+04  0.50400001928E-02 0. -1.
    10030    2    1    2    0    0  0.00000000000E+00  0.00000000000E+00 -0.53259318361E+03  0.33423439067E+04  0.32996374485E+04 0.  0.
        4    1    3    3  502    0 -0.61321564322E+03 -0.11526474361E+04  0.75535583838E+03  0.15083744868E+04  0.12699999809E+01 0.  1.
       -4    1    3    3    0  502  0.61321564322E+03  0.11526474361E+04 -0.12879490220E+04  0.18339694199E+04  0.12699999809E+01 0. -1.
</event>
<event>
 5   0  0.2244093E-08  0.3298770E+04  0.7818609E-02  0.8163208E-01
        1   -1    0    0  501    0  0.00000000000E+00  0.00000000000E+00  0.14371044015E+04  0.14371044015E+04  0.50400001928E-02 0. -1.
       -1   -1    0    0    0  501  0.00000000000E+00  0.00000000000E+00 -0.18930223648E+04  0.18930223648E+04  0.50400001928E-02 0.  1.
    10030    2    1    2    0    0  0.00000000000E+00  0.00000000000E+00 -0.45591796333E+03  0.33301267663E+04  0.32987699360E+04 0.  0.
        1    1    3    3  502    0  0.37638923651E+03  0.10134040366E+04 -0.14855186346E+04  0.18372322151E+04  0.50400001928E-02 0.  1.
       -1    1    3    3    0  502 -0.37638923651E+03 -0.10134040366E+04  0.10296006712E+04  0.14928945512E+04  0.50400001928E-02 0. -1.
</event>
<event>
 5   0  0.2279938E-08  0.3301491E+04  0.7818609E-02  0.8162516E-01
       -1   -1    0    0    0  501  0.00000000000E+00  0.00000000000E+00  0.15115995376E+04  0.15115995376E+04  0.50400001928E-02 0.  1.
        1   -1    0    0  501    0  0.00000000000E+00  0.00000000000E+00 -0.18027001011E+04  0.18027001011E+04  0.50400001928E-02 0. -1.
    10030    2    1    2    0    0  0.00000000000E+00  0.00000000000E+00 -0.29110056350E+03  0.33142996388E+04  0.33014909598E+04 0.  0.
        3    1    3    3  502    0  0.65240020054E+03  0.38079923197E+03  0.13279065753E+04  0.15277336024E+04  0.10100000352E+00 0.  1.
       -3    1    3    3    0  502 -0.65240020054E+03 -0.38079923197E+03 -0.16190071388E+04  0.17865660364E+04  0.10100000352E+00 0. -1.
</event>
<event>
 5   0  0.6706080E-08  0.3299565E+04  0.7818609E-02  0.8163006E-01
        2   -1    0    0  501    0  0.00000000000E+00  0.00000000000E+00  0.19146693893E+04  0.19146693893E+04  0.25500000920E-02 0.  1.
       -2   -1    0    0    0  501  0.00000000000E+00  0.00000000000E+00 -0.14215413004E+04  0.14215413004E+04  0.25500000920E-02 0. -1.
    10030    2    1    2    0    0  0.00000000000E+00  0.00000000000E+00  0.49312808886E+03  0.33362106897E+04  0.32995645855E+04 0.  0.
        4    1    3    3  502    0  0.72898572560E+03  0.19898433436E+03  0.17294007264E+04  0.18872846735E+04  0.12699999809E+01 0.  1.
       -4    1    3    3    0  502 -0.72898572560E+03 -0.19898433436E+03 -0.12362726375E+04  0.14489260162E+04  0.12699999809E+01 0. -1.
</event>
<event>
 5   0  0.6706080E-08  0.3306261E+04  0.7818609E-02  0.8161304E-01
       -2   -1    0    0    0  501  0.00000000000E+00  0.00000000000E+00  0.22224263275E+04  0.22224263275E+04  0.25500000920E-02 0.  1.
        2   -1    0    0  501    0  0.00000000000E+00  0.00000000000E+00 -0.12296654628E+04  0.12296654628E+04  0.25500000920E-02 0. -1.
    10030    2    1    2    0    0  0.00000000000E+00  0.00000000000E+00  0.99276086479E+03  0.34520917903E+04  0.33062612713E+04 0.  0.
        4    1    3    3  502    0  0.18825287230E+03  0.11275995933E+04  0.17431685038E+04  0.20846002092E+04  0.12699999809E+01 0.  1.
       -4    1    3    3    0  502 -0.18825287230E+03 -0.11275995933E+04 -0.75040763903E+03  0.13674915811E+04  0.12699999809E+01 0. -1.
</event>
<event>
 5   0  0.2291682E-08  0.3300764E+04  0.7818609E-02  0.8162701E-01
        1   -1    0    0  501    0  0.00000000000E+00  0.00000000000E+00  0.27089243219E+04  0.27089243219E+04  0.50400001928E-02 0. -1.
       -1   -1    0    0    0  501  0.00000000000E+00  0.00000000000E+00 -0.10054766941E+04  0.10054766941E+04  0.50400001928E-02 0.  1.
    10030    2    1    2    0    0  0.00000000000E+00  0.00000000000E+00  0.17034476278E+04  0.37144010160E+04  0.33007637127E+04 0.  0.
        2    1    3    3  502    0  0.96292992337E+03  0.54380261894E+03  0.22303181168E+04  0.24894325112E+04  0.25500000920E-02 0. -1.
       -2    1    3    3    0  502 -0.96292992337E+03 -0.54380261894E+03 -0.52687048896E+03  0.12249685048E+04  0.25500000920E-02 0.  1.
</event>
<event>
 5   0  0.2279938E-08  0.3303755E+04  0.7818609E-02  0.8161940E-01
       -1   -1    0    0    0  501  0.00000000000E+00  0.00000000000E+00  0.27310394654E+04  0.27310394654E+04  0.50400001928E-02 0.  1.
        1   -1    0    0  501    0  0.00000000000E+00  0.00000000000E+00 -0.99914341481E+03  0.99914341482E+03  0.50400001928E-02 0. -1.
    10030    2    1    2    0    0  0.00000000000E+00  0.00000000000E+00  0.17318960506E+04  0.37301828802E+04  0.33037554979E+04 0.  0.
        3    1    3    3  502    0  0.90859066339E+03 -0.34232890907E+03 -0.64294966307E+03  0.11645215133E+04  0.10100000352E+00 0. -1.
       -3    1    3    3    0  502 -0.90859066339E+03  0.34232890907E+03  0.23748457136E+04  0.25656613668E+04  0.10100000352E+00 0.  1.
</event>
<event>
 5   0  0.2383270E-08  0.3299798E+04  0.7818609E-02  0.8162947E-01
        1   -1    0    0  501    0  0.00000000000E+00  0.00000000000E+00  0.30197818225E+04  0.30197818225E+04  0.50400001928E-02 0.  1.
       -1   -1    0    0    0  501  0.00000000000E+00  0.00000000000E+00 -0.90144480946E+03  0.90144480948E+03  0.50400001928E-02 0. -1.
    10030    2    1    2    0    0  0.00000000000E+00  0.00000000000E+00  0.21183370130E+04  0.39212266320E+04  0.32997979633E+04 0.  0.
        5    1    3    3  502    0 -0.10018861590E+04  0.11025257511E+03 -0.49304416177E+03  0.11220722532E+04  0.46999998093E+01 0. -1.
       -5    1    3    3    0  502  0.10018861590E+04 -0.11025257511E+03  0.26113811748E+04  0.27991543788E+04  0.46999998093E+01 0.  1.
</event>
<event>
 5   0  0.6765252E-08  0.3306627E+04  0.7818609E-02  0.8161211E-01
        2   -1    0    0  501    0  0.00000000000E+00  0.00000000000E+00  0.17160617164E+04  0.17160617164E+04  0.25500000920E-02 0.  1.
       -2   -1    0    0    0  501  0.00000000000E+00  0.00000000000E+00 -0.15928596114E+04  0.15928596114E+04  0.25500000920E-02 0. -1.
    10030    2    1    2    0    0  0.00000000000E+00  0.00000000000E+00  0.12320210504E+03  0.33089213278E+04  0.33066269210E+04 0.  0.
        2    1    3    3  502    0 -0.13360214526E+04 -0.71096528295E+03 -0.60445860238E+03  0.16296610560E+04  0.25500000920E-02 0. -1.
       -2    1    3    3    0  502  0.13360214526E+04  0.71096528295E+03  0.72766070742E+03  0.16792602718E+04  0.25500000920E-02 0.  1.
</event>
<event>
 5   0  0.7084130E-08  0.3300312E+04  0.7818609E-02  0.8162816E-01
        2   -1    0    0  501    0  0.00000000000E+00  0.00000000000E+00  0.17743486836E+04  0.17743486836E+04  0.25500000920E-02 0. -1.
       -2   -1    0    0    0  501  0.00000000000E+00  0.00000000000E+00 -0.15346557532E+04  0.15346557532E+04  0.25500000920E-02 0.  1.
    10030    2    1    2    0    0  0.00000000000E+00  0.00000000000E+00  0.23969293042E+03  0.33090044368E+04  0.33003117522E+04 0.  0.
        3    1    3    3  502    0 -0.14432711802E+04 -0.46573152478E+03  0.77200324862E+03  0.17017422187E+04  0.10100000352E+00 0.  1.
       -3    1    3    3    0  502  0.14432711802E+04  0.46573152478E+03 -0.53231031820E+03  0.16072622181E+04  0.10100000352E+00 0. -1.
</event>
<event>
 5   0  0.6603516E-08  0.3282882E+04  0.7818609E-02  0.8167265E-01
        2   -1    0    0  501    0  0.00000000000E+00  0.00000000000E+00  0.24483575114E+04  0.24483575114E+04  0.25500000920E-02 0.  1.
       -2   -1    0    0    0  501  0.00000000000E+00  0.00000000000E+00 -0.11004633732E+04  0.11004633732E+04  0.25500000920E-02 0. -1.
    10030    2    1    2    0    0  0.00000000000E+00  0.00000000000E+00  0.13478941382E+04  0.35488208846E+04  0.32828815183E+04 0.  0.
        1    1    3    3  502    0 -0.59598442777E+03  0.89147482519E+03  0.20173589489E+04  0.22846579461E+04  0.50400001928E-02 0.  1.
       -1    1    3    3    0  502  0.59598442777E+03 -0.89147482519E+03 -0.66946481070E+03  0.12641629384E+04  0.50400001928E-02 0. -1.
</event>
<event>
 5   0  0.6765252E-08  0.3299016E+04  0.7818609E-02  0.8163146E-01
        2   -1    0    0  501    0  0.00000000000E+00  0.00000000000E+00  0.15168126632E+04  0.15168126632E+04  0.25500000920E-02 0. -1.
       -2   -1    0    0    0  501  0.00000000000E+00  0.00000000000E+00 -0.17938123473E+04  0.17938123473E+04  0.25500000920E-02 0.  1.
    10030    2    1    2    0    0  0.00000000000E+00  0.00000000000E+00 -0.27699968410E+03  0.33106250105E+04  0.32990163890E+04 0.  0.
        2    1    3    3  502    0  0.16192193196E+04  0.25636993714E+03  0.44571625554E+02  0.16399949327E+04  0.25500000920E-02 0. -1.
       -2    1    3    3    0  502 -0.16192193196E+04 -0.25636993714E+03 -0.32157130965E+03  0.16706300777E+04  0.25500000920E-02 0.  1.
</event>
<event>
 5   0  0.7084130E-08  0.3296921E+04  0.7818609E-02  0.8163679E-01
       -2   -1    0    0    0  501  0.00000000000E+00  0.00000000000E+00  0.12230441865E+04  0.12230441865E+04  0.25500000920E-02 0. -1.
        2   -1    0    0  501    0  0.00000000000E+00  0.00000000000E+00 -0.22218515340E+04  0.22218515340E+04  0.25500000920E-02 0.  1.
    10030    2    1    2    0    0  0.00000000000E+00  0.00000000000E+00 -0.99880734755E+03  0.34448957205E+04  0.32969213530E+04 0.  0.
        3    1    3    3  502    0  0.15084405264E+04  0.54887106326E+03 -0.10737029025E+03  0.16087823517E+04  0.10100000352E+00 0. -1.
       -3    1    3    3    0  502 -0.15084405264E+04 -0.54887106326E+03 -0.89143705731E+03  0.18361133688E+04  0.10100000352E+00 0.  1.
</event>
<event>
 5   0  0.2279938E-08  0.3300259E+04  0.7818609E-02  0.8162829E-01
       -1   -1    0    0    0  501  0.00000000000E+00  0.00000000000E+00  0.12437452700E+04  0.12437452700E+04  0.50400001928E-02 0.  1.
        1   -1    0    0  501    0  0.00000000000E+00  0.00000000000E+00 -0.21892966866E+04  0.21892966867E+04  0.50400001928E-02 0. -1.
    10030    2    1    2    0    0  0.00000000000E+00  0.00000000000E+00 -0.94555141661E+03  0.34330419567E+04  0.33002590194E+04 0.  0.
        3    1    3    3  502    0 -0.95268512380E+03 -0.13434563454E+04 -0.36647064660E+03  0.16872417260E+04  0.10100000352E+00 0.  1.
       -3    1    3    3    0  502  0.95268512380E+03  0.13434563454E+04 -0.57908077001E+03  0.17458002307E+04  0.10100000352E+00 0. -1.
</event>
<event>
 5   0  0.6821287E-08  0.3298870E+04  0.7818609E-02  0.8163183E-01
       -2   -1    0    0    0  501  0.00000000000E+00  0.00000000000E+00  0.20628063123E+04  0.20628063123E+04  0.25500000920E-02 0. -1.
        2   -1    0    0  501    0  0.00000000000E+00  0.00000000000E+00 -0.13188999501E+04  0.13188999501E+04  0.25500000920E-02 0.  1.
    10030    2    1    2    0    0  0.00000000000E+00  0.00000000000E+00  0.74390636223E+03  0.33817062625E+04  0.32988695897E+04 0.  0.
        5    1    3    3  502    0 -0.14584907999E+04  0.68472483455E+03  0.10146431393E+02  0.16112630302E+04  0.46999998093E+01 0. -1.
       -5    1    3    3    0  502  0.14584907999E+04 -0.68472483455E+03  0.73375993084E+03  0.17704432322E+04  0.46999998093E+01 0.  1.
</event>
<event>
 5   0  0.2383270E-08  0.3300162E+04  0.7818609E-02  0.8162854E-01
        1   -1    0    0  501    0  0.00000000000E+00  0.00000000000E+00  0.17984168831E+04  0.17984168831E+04  0.50400001928E-02 0. -1.
       -1   -1    0    0    0  501  0.00000000000E+00  0.00000000000E+00 -0.15139801452E+04  0.15139801452E+04  0.50400001928E-02 0.  1.
    10030    2    1    2    0    0  0.00000000000E+00  0.00000000000E+00  0.28443673791E+03  0.33123970283E+04  0.33001620892E+04 0.  0.
        5    1    3    3  502    0 -0.17708537703E+03  0.55751171853E+03 -0.14064103294E+04  0.15232172044E+04  0.46999998093E+01 0.  1.
       -5    1    3    3    0  502  0.17708537703E+03 -0.55751171853E+03  0.16908470673E+04  0.17891798239E+04  0.46999998093E+01 0. -1.
</event>
<event>
 5   0  0.2279938E-08  0.3300622E+04  0.7818609E-02  0.8162737E-01
        1   -1    0    0  501    0  0.00000000000E+00  0.00000000000E+00  0.22024092425E+04  0.22024092425E+04  0.50400001928E-02 0.  1.
       -1   -1    0    0    0  501  0.00000000000E+00  0.00000000000E+00 -0.12366120956E+04  0.12366120957E+04  0.50400001928E-02 0. -1.
    10030    2    1    2    0    0  0.00000000000E+00  0.00000000000E+00  0.96579714683E+03  0.34390213381E+04  0.33006217044E+04 0.  0.
        3    1    3    3  502    0  0.13067359219E+04 -0.58901308355E+03  0.13351390327E+04  0.19588495167E+04  0.10100000352E+00 0.  1.
       -3    1    3    3    0  502 -0.13067359219E+04  0.58901308355E+03 -0.36934188587E+03  0.14801718215E+04  0.10100000352E+00 0. -1.
</event>
<event>
 5   0  0.7084130E-08  0.3300031E+04  0.7818609E-02  0.8162887E-01
        2   -1    0    0  501    0  0.00000000000E+00  0.00000000000E+00  0.18644002036E+04  0.18644002036E+04  0.25500000920E-02 0.  1.
       -2   -1    0    0    0  501  0.00000000000E+00  0.00000000000E+00 -0.14602828970E+04  0.14602828970E+04  0.25500000920E-02 0. -1.
    10030    2    1    2    0    0  0.00000000000E+00  0.00000000000E+00  0.40411730658E+03  0.33246831006E+04  0.33000313517E+04 0.  0.
        3    1    3    3  502    0 -0.11581278120E+04  0.46457386567E+03  0.12896892106E+04  0.17945437236E+04  0.10100000352E+00 0.  1.
       -3    1    3    3    0  502  0.11581278120E+04 -0.46457386567E+03 -0.88557190404E+03  0.15301393770E+04  0.10100000352E+00 0. -1.
</event>
<event>
 5   0  0.2244093E-08  0.3301178E+04  0.7818609E-02  0.8162596E-01
        1   -1    0    0  501    0  0.00000000000E+00  0.00000000000E+00  0.21843226300E+04  0.21843226300E+04  0.50400001928E-02 0.  1.
       -1   -1    0    0    0  501  0.00000000000E+00  0.00000000000E+00 -0.12472718671E+04  0.12472718671E+04  0.50400001928E-02 0. -1.
    10030    2    1    2    0    0  0.00000000000E+00  0.00000000000E+00  0.93705076299E+03  0.34315944971E+04  0.33011780716E+04 0.  0.
        1    1    3    3  502    0  0.14102053881E+04  0.85766756024E+03  0.45492077428E+03  0.17120822969E+04  0.50400001928E-02 0. -1.
       -1    1    3    3    0  502 -0.14102053881E+04 -0.85766756024E+03  0.48212998870E+03  0.17195122002E+04  0.50400001928E-02 0.  1.
</event>
<event>
 5   0  0.2279938E-08  0.3300544E+04  0.7818609E-02  0.8162757E-01
        1   -1    0    0  501    0  0.00000000000E+00  0.00000000000E+00  0.23164221307E+04  0.23164221307E+04  0.50400001928E-02 0.  1.
       -1   -1    0    0    0  501  0.00000000000E+00  0.00000000000E+00 -0.11756916981E+04  0.11756916981E+04  0.50400001928E-02 0. -1.
    10030    2    1    2    0    0  0.00000000000E+00  0.00000000000E+00  0.11407304326E+04  0.34921138289E+04  0.33005443602E+04 0.  0.
        3    1    3    3  502    0 -0.74166806381E+02 -0.12446420196E+04 -0.57347718290E+03  0.13724104932E+04  0.10100000352E+00 0. -1.
       -3    1    3    3    0  502  0.74166806381E+02  0.12446420196E+04  0.17142076155E+04  0.21197033357E+04  0.10100000352E+00 0.  1.
</event>
<event>
 5   0  0.2291682E-08  0.3299836E+04  0.7818609E-02  0.8162937E-01
        1   -1    0    0  501    0  0.00000000000E+00  0.00000000000E+00  0.16362577592E+04  0.16362577592E+04  0.50400001928E-02 0.  1.
       -1   -1    0    0    0  501  0.00000000000E+00  0.00000000000E+00 -0.16636924366E+04  0.16636924366E+04  0.50400001928E-02 0. -1.
    10030    2    1    2    0    0  0.00000000000E+00  0.00000000000E+00 -0.27434677316E+02  0.32999501958E+04  0.32998361525E+04 0.  0.
        2    1    3    3  502    0 -0.13648554846E+04 -0.73897592776E+03  0.54604636104E+03  0.16453214106E+04  0.25500000920E-02 0.  1.
       -2    1    3    3    0  502  0.13648554846E+04  0.73897592776E+03 -0.57348103835E+03  0.16546287852E+04  0.25500000920E-02 0. -1.
</event>
<event>
 5   0  0.2383270E-08  0.3297867E+04  0.7818609E-02  0.8163438E-01
       -1   -1    0    0    0  501  0.00000000000E+00  0.00000000000E+00  0.14016631084E+04  0.14016631084E+04  0.50400001928E-02 0. -1.
        1   -1    0    0  501    0  0.00000000000E+00  0.00000000000E+00 -0.19398258454E+04  0.19398258454E+04  0.50400001928E-02 0.  1.
    10030    2    1    2    0    0  0.00000000000E+00  0.00000000000E+00 -0.53816273706E+03  0.33414889538E+04  0.32978673862E+04 0.  0.
        5    1    3    3  502    0  0.60145616698E+01 -0.84307577848E+03  0.11667539235E+04  0.14394963533E+04  0.46999998093E+01 0. -1.
       -5    1    3    3    0  502 -0.60145616698E+01  0.84307577848E+03 -0.17049166605E+04  0.19019926005E+04  0.46999998093E+01 0.  1.
</event>
<event>
 5   0  0.6706080E-08  0.3298461E+04  0.7818609E-02  0.8163287E-01
       -2   -1    0    0    0  501  0.00000000000E+00  0.00000000000E+00  0.13809361205E+04  0.13809361205E+04  0.25500000920E-02 0.  1.
        2   -1    0    0  501    0  0.00000000000E+00  0.00000000000E+00 -0.19696503065E+04  0.19696503065E+04  0.25500000920E-02 0. -1.
    10030    2    1    2    0    0  0.00000000000E+00  0.00000000000E+00 -0.58871418608E+03  0.33505864270E+04  0.32984610066E+04 0.  0.
        4    1    3    3  502    0  0.13566650096E+04 -0.35089952014E+03  0.58903483209E+03  0.15200769940E+04  0.12699999809E+01 0.  1.
       -4    1    3    3    0  502 -0.13566650096E+04  0.35089952014E+03 -0.11777490182E+04  0.18305094330E+04  0.12699999809E+01 0. -1.
</event>
<event>
 5   0  0.6603516E-08  0.3301127E+04  0.7818609E-02  0.8162609E-01
        2   -1    0    0  501    0  0.00000000000E+00  0.00000000000E+00  0.14180577940E+04  0.14180577940E+04  0.25500000920E-02 0.  1.
       -2   -1    0    0    0  501  0.00000000000E+00  0.00000000000E+00 -0.19211912995E+04  0.19211912995E+04  0.25500000920E-02 0. -1.
    10030    2    1    2    0    0  0.00000000000E+00  0.00000000000E+00 -0.50313350548E+03  0.33392490934E+04  0.33011272595E+04 0.  0.
        1    1    3    3  502    0 -0.35271287377E+03 -0.16039852529E+04 -0.41835025144E+03  0.16947542582E+04  0.50400001928E-02 0. -1.
       -1    1    3    3    0  502  0.35271287377E+03  0.16039852529E+04 -0.84783254042E+02  0.16444948352E+04  0.50400001928E-02 0.  1.
</event>
<event>
 5   0  0.2309822E-08  0.3300640E+04  0.7818609E-02  0.8162733E-01
       -1   -1    0    0    0  501  0.00000000000E+00  0.00000000000E+00  0.16737684051E+04  0.16737684051E+04  0.50400001928E-02 0.  1.
        1   -1    0    0  501    0  0.00000000000E+00  0.00000000000E+00 -0.16271997979E+04  0.16271997979E+04  0.50400001928E-02 0. -1.
    10030    2    1    2    0    0  0.00000000000E+00  0.00000000000E+00  0.46568607243E+02  0.33009682030E+04  0.33006397020E+04 0.  0.
        4    1    3    3  502    0  0.13863784951E+03 -0.77501059389E+03  0.14738396768E+04  0.16709478986E+04  0.12699999809E+01 0.  1.
       -4    1    3    3    0  502 -0.13863784951E+03  0.77501059389E+03 -0.14272710696E+04  0.16300203044E+04  0.12699999809E+01 0. -1.
</event>
<event>
 5   0  0.6765252E-08  0.3300804E+04  0.7818609E-02  0.8162691E-01
       -2   -1    0    0    0  501  0.00000000000E+00  0.00000000000E+00  0.11994602542E+04  0.11994602542E+04  0.25500000920E-02 0. -1.
        2   -1    0    0  501    0  0.00000000000E+00  0.00000000000E+00 -0.22708763695E+04  0.22708763695E+04  0.25500000920E-02 0.  1.
    10030    2    1    2    0    0  0.00000000000E+00  0.00000000000E+00 -0.10714161153E+04  0.34703366237E+04  0.33008035066E+04 0.  0.
        2    1    3    3  502    0 -0.13628526824E+04  0.62211037849E+03  0.19226916553E+03  0.15104158993E+04  0.25500000920E-02 0. -1.
       -2    1    3    3    0  502  0.13628526824E+04 -0.62211037849E+03 -0.12636852808E+04  0.19599207244E+04  0.25500000920E-02 0.  1.
</event>
<event>
 5   0  0.2383270E-08  0.3295634E+04  0.7818609E-02  0.8164007E-01
       -1   -1    0    0    0  501  0.00000000000E+00  0.00000000000E+00  0.16798656764E+04  0.16798656764E+04  0.50400001928E-02 0.  1.
        1   -1    0    0  501    0  0.00000000000E+00  0.00000000000E+00 -0.16163800909E+04  0.16163800909E+04  0.50400001928E-02 0. -1.
    10030    2    1    2    0    0  0.00000000000E+00  0.00000000000E+00  0.63485585441E+02  0.32962457673E+04  0.32956343454E+04 0.  0.
        5    1    3    3  502    0 -0.10452024527E+03 -0.16250868879E+04 -0.22019175073E+03  0.16432706326E+04  0.46999998093E+01 0. -1.
       -5    1    3    3    0  502  0.10452024527E+03  0.16250868879E+04  0.28367733617E+03  0.16529751347E+04  0.46999998093E+01 0.  1.
</event>
<event>
 5   0  0.6765252E-08  0.3300358E+04  0.7818609E-02  0.8162804E-01
        2   -1    0    0  501    0  0.00000000000E+00  0.00000000000E+00  0.21031239990E+04  0.21031239990E+04  0.25500000920E-02 0.  1.
       -2   -1    0    0    0  501  0.00000000000E+00  0.00000000000E+00 -0.12947838812E+04  0.12947838812E+04  0.25500000920E-02 0. -1.
    10030    2    1    2    0    0  0.00000000000E+00  0.00000000000E+00  0.80834011780E+03  0.33979078802E+04  0.33003581951E+04 0.  0.
        2    1    3    3  502    0  0.15554671001E+04  0.40541762641E+03  0.78836147873E+03  0.17903505725E+04  0.25500000920E-02 0.  1.
       -2    1    3    3    0  502 -0.15554671001E+04 -0.40541762641E+03  0.19978639070E+02  0.16075573076E+04  0.25500000920E-02 0. -1.
</event>
<event>
 5   0  0.2309822E-08  0.3300814E+04  0.7818609E-02  0.8162688E-01
        1   -1    0    0  501    0  0.00000000000E+00  0.00000000000E+00  0.25934290424E+04  0.25934290424E+04  0.50400001928E-02 0.  1.
       -1   -1    0    0    0  501  0.00000000000E+00  0.00000000000E+00 -0.10502866320E+04  0.10502866320E+04  0.50400001928E-02 0. -1.
    10030    2    1    2    0    0  0.00000000000E+00  0.00000000000E+00  0.15431424104E+04  0.36437156744E+04  0.33008143566E+04 0.  0.
        4    1    3    3  502    0  0.10661972563E+04  0.11052022735E+04  0.10411516797E+03  0.15391849257E+04  0.12699999809E+01 0. -1.
       -4    1    3    3    0  502 -0.10661972563E+04 -0.11052022735E+04  0.14390272424E+04  0.21045307486E+04  0.12699999809E+01 0.  1.
</event>
<event>
 5   0  0.2309822E-08  0.3298999E+04  0.7818609E-02  0.8163150E-01
        1   -1    0    0  501    0  0.00000000000E+00  0.00000000000E+00  0.16329823730E+04  0.16329823730E+04  0.50400001928E-02 0.  1.
       -1   -1    0    0    0  501  0.00000000000E+00  0.00000000000E+00 -0.16661834687E+04  0.16661834687E+04  0.50400001928E-02 0. -1.
    10030    2    1    2    0    0  0.00000000000E+00  0.00000000000E+00 -0.33201095650E+02  0.32991658417E+04  0.32989987781E+04 0.  0.
        4    1    3    3  502    0  0.15501460369E+04  0.22304732698E+03 -0.53445278022E+03  0.16547943174E+04  0.12699999809E+01 0. -1.
       -4    1    3    3    0  502 -0.15501460369E+04 -0.22304732698E+03  0.50125168457E+03  0.16443715243E+04  0.12699999809E+01 0.  1.
</event>
<event>
 5   0  0.2291682E-08  0.3298560E+04  0.7818609E-02  0.8163262E-01
        1   -1    0    0  501    0  0.00000000000E+00  0.00000000000E+00  0.23904580526E+04  0.23904580526E+04  0.50400001928E-02 0.  1.
       -1   -1    0    0    0  501  0.00000000000E+00  0.00000000000E+00 -0.11379096233E+04  0.11379096233E+04  0.50400001928E-02 0. -1.
    10030    2    1    2    0    0  0.00000000000E+00  0.00000000000E+00  0.12525484293E+04  0.35283676759E+04  0.32985604267E+04 0.  0.
        2    1    3    3  502    0 -0.11754810795E+04  0.17811879145E+03  0.18489966708E+04  0.21982426528E+04  0.25500000920E-02 0.  1.
       -2    1    3    3    0  502  0.11754810795E+04 -0.17811879145E+03 -0.59644824149E+03  0.13301250230E+04  0.25500000920E-02 0. -1.
</event>
<event>
 5   0  0.6765252E-08  0.3298862E+04  0.7818609E-02  0.8163185E-01
       -2   -1    0    0    0  501  0.00000000000E+00  0.00000000000E+00  0.12302499016E+04  0.12302499016E+04  0.25500000920E-02 0. -1.
        2   -1    0    0  501    0  0.00000000000E+00  0.00000000000E+00 -0.22114386081E+04  0.22114386081E+04  0.25500000920E-02 0.  1.
    10030    2    1    2    0    0  0.00000000000E+00  0.00000000000E+00 -0.98118870655E+03  0.34416885097E+04  0.32988617006E+04 0.  0.
        2    1    3    3  502    0  0.43911448220E+03  0.80921080433E+03 -0.19184156201E+04  0.21279008778E+04  0.25500000920E-02 0.  1.
       -2    1    3    3    0  502 -0.43911448220E+03 -0.80921080433E+03  0.93722691352E+03  0.13137876319E+04  0.25500000920E-02 0. -1.
</event>
<event>
 5   0  0.2200750E-08  0.3298979E+04  0.7818609E-02  0.8163155E-01
        3   -1    0    0  501    0  0.00000000000E+00  0.00000000000E+00  0.23808968155E+04  0.23808968176E+04  0.10100000352E+00 0.  1.
       -3   -1    0    0    0  501  0.00000000000E+00  0.00000000000E+00 -0.11427692980E+04  0.11427693025E+04  0.10100000352E+00 0. -1.
    10030    2    1    2    0    0  0.00000000000E+00  0.00000000000E+00  0.12381275175E+04  0.35236661201E+04  0.32989791112E+04 0.  0.
        4    1    3    3  502    0  0.16307529383E+04 -0.18133449977E+03  0.43850346805E+03  0.16983887220E+04  0.12699999809E+01 0.  1.
       -4    1    3    3    0  502 -0.16307529383E+04  0.18133449977E+03  0.79962404943E+03  0.18252773981E+04  0.12699999809E+01 0. -1.
</event>
<event>
 5   0  0.6821287E-08  0.3304655E+04  0.7818609E-02  0.8161712E-01
       -2   -1    0    0    0  501  0.00000000000E+00  0.00000000000E+00  0.18991043232E+04  0.18991043232E+04  0.25500000920E-02 0. -1.
        2   -1    0    0  501    0  0.00000000000E+00  0.00000000000E+00 -0.14376175500E+04  0.14376175500E+04  0.25500000920E-02 0.  1.
    10030    2    1    2    0    0  0.00000000000E+00  0.00000000000E+00  0.46148677326E+03  0.33367218732E+04  0.33046547198E+04 0.  0.
        5    1    3    3  502    0  0.78396588603E+02 -0.14357477705E+04 -0.59118633550E+03  0.15546835881E+04  0.46999998093E+01 0.  1.
       -5    1    3    3    0  502 -0.78396588603E+02  0.14357477705E+04  0.10526731088E+04  0.17820382851E+04  0.46999998093E+01 0. -1.
</event>
<event>
 5   0  0.6821287E-08  0.3298816E+04  0.7818609E-02  0.8163197E-01
       -2   -1    0    0    0  501  0.00000000000E+00  0.00000000000E+00  0.14958504593E+04  0.14958504593E+04  0.25500000920E-02 0.  1.
        2   -1    0    0  501    0  0.00000000000E+00  0.00000000000E+00 -0.18187291957E+04  0.18187291958E+04  0.25500000920E-02 0. -1.
    10030    2    1    2    0    0  0.00000000000E+00  0.00000000000E+00 -0.32287873648E+03  0.33145796550E+04  0.32988160923E+04 0.  0.
        5    1    3    3  502    0  0.13935464452E+04  0.16676389559E+03  0.70915525114E+03  0.15724837525E+04  0.46999998093E+01 0.  1.
       -5    1    3    3    0  502 -0.13935464452E+04 -0.16676389559E+03 -0.10320339876E+04  0.17420959025E+04  0.46999998093E+01 0. -1.
</event>
<event>
 5   0  0.6706080E-08  0.3296418E+04  0.7818609E-02  0.8163807E-01
        2   -1    0    0  501    0  0.00000000000E+00  0.00000000000E+00  0.21654184684E+04  0.21654184684E+04  0.25500000920E-02 0. -1.
       -2   -1    0    0    0  501  0.00000000000E+00  0.00000000000E+00 -0.12545347022E+04  0.12545347022E+04  0.25500000920E-02 0.  1.
    10030    2    1    2    0    0  0.00000000000E+00  0.00000000000E+00  0.91088376621E+03  0.34199531706E+04  0.32964178214E+04 0.  0.
        4    1    3    3  502    0 -0.14017676512E+04 -0.32249516051E+03 -0.37947485952E+03  0.14876015792E+04  0.12699999809E+01 0.  1.
       -4    1    3    3    0  502  0.14017676512E+04  0.32249516051E+03  0.12903586257E+04  0.19323515913E+04  0.12699999809E+01 0. -1.
</event>
<event>
 5   0  0.2309822E-08  0.3299752E+04  0.7818609E-02  0.8162959E-01
        1   -1    0    0  501    0  0.00000000000E+00  0.00000000000E+00  0.21620805339E+04  0.21620805339E+04  0.50400001928E-02 0.  1.
       -1   -1    0    0    0  501  0.00000000000E+00  0.00000000000E+00 -0.12590144088E+04  0.12590144088E+04  0.50400001928E-02 0. -1.
    10030    2    1    2    0    0  0.00000000000E+00  0.00000000000E+00  0.90306612503E+03  0.34210949427E+04  0.32997518362E+04 0.  0.
        4    1    3    3  502    0 -0.89167459341E+03 -0.11337002633E+04 -0.37900530993E+03  0.14913103317E+04  0.12699999809E+01 0. -1.
       -4    1    3    3    0  502  0.89167459341E+03  0.11337002633E+04  0.12820714350E+04  0.19297846110E+04  0.12699999809E+01 0.  1.
</event>
<event>
 5   0  0.2291682E-08  0.3323994E+04  0.7818609E-02  0.8156817E-01
        1   -1    0    0  501    0  0.00000000000E+00  0.00000000000E+00  0.15523483903E+04  0.15523483903E+04  0.50400001928E-02 0. -1.
       -1   -1    0    0    0  501  0.00000000000E+00  0.00000000000E+00 -0.17793905702E+04  0.17793905702E+04  0.50400001928E-02 0.  1.
    10030    2    1    2    0    0  0.00000000000E+00  0.00000000000E+00 -0.22704217983E+03  0.33317389605E+04  0.33239940357E+04 0.  0.
        2    1    3    3  502    0  0.70320520077E+02  0.12736327554E+03 -0.17729957041E+04  0.17789547904E+04  0.25500000920E-02 0.  1.
       -2    1    3    3    0  502 -0.70320520077E+02 -0.12736327554E+03  0.15459535243E+04  0.15527841701E+04  0.25500000920E-02 0. -1.
</event>
<event>
 5   0  0.6765252E-08  0.3300397E+04  0.7818609E-02  0.8162794E-01
        2   -1    0    0  501    0  0.00000000000E+00  0.00000000000E+00  0.25507249375E+04  0.25507249375E+04  0.25500000920E-02 0. -1.
       -2   -1    0    0    0  501  0.00000000000E+00  0.00000000000E+00 -0.10676001998E+04  0.10676001998E+04  0.25500000920E-02 0.  1.
    10030    2    1    2    0    0  0.00000000000E+00  0.00000000000E+00  0.14831247377E+04  0.36183251372E+04  0.33003966142E+04 0.  0.
        2    1    3    3  502    0 -0.45161466634E+03  0.11631683390E+04  0.19255170032E+04  0.22944568249E+04  0.25500000920E-02 0. -1.
       -2    1    3    3    0  502  0.45161466634E+03 -0.11631683390E+04 -0.44239226547E+03  0.13238683123E+04  0.25500000920E-02 0.  1.
</event>
<event>
 5   0  0.2291682E-08  0.3299728E+04  0.7818609E-02  0.8162965E-01
        1   -1    0    0  501    0  0.00000000000E+00  0.00000000000E+00  0.14929965872E+04  0.14929965872E+04  0.50400001928E-02 0. -1.
       -1   -1    0    0    0  501  0.00000000000E+00  0.00000000000E+00 -0.18232133652E+04  0.18232133652E+04  0.50400001928E-02 0.  1.
    10030    2    1    2    0    0  0.00000000000E+00  0.00000000000E+00 -0.33021677796E+03  0.33162099524E+04  0.32997280688E+04 0.  0.
        2    1    3    3  502    0  0.12159871168E+04 -0.40002053594E+03 -0.12111773942E+04  0.17622689288E+04  0.25500000920E-02 0.  1.
       -2    1    3    3    0  502 -0.12159871168E+04  0.40002053594E+03  0.88096061621E+03  0.15539410236E+04  0.25500000920E-02 0. -1.
</event>
<event>
 5   0  0.7084130E-08  0.3299281E+04  0.7818609E-02  0.8163078E-01
        2   -1    0    0  501    0  0.00000000000E+00  0.00000000000E+00  0.16831356652E+04  0.16831356652E+04  0.25500000920E-02 0. -1.
       -2   -1    0    0    0  501  0.00000000000E+00  0.00000000000E+00 -0.16168122548E+04  0.16168122548E+04  0.25500000920E-02 0.  1.
    10030    2    1    2    0    0  0.00000000000E+00  0.00000000000E+00  0.66323410353E+02  0.32999479200E+04  0.32992813581E+04 0.  0.
        3    1    3    3  502    0  0.14589794888E+04  0.27588338814E+03 -0.68571959286E+03  0.16355256534E+04  0.10100000352E+00 0.  1.
       -3    1    3    3    0  502 -0.14589794888E+04 -0.27588338814E+03  0.75204300321E+03  0.16644222666E+04  0.10100000352E+00 0. -1.
</event>
<event>
 5   0  0.6821287E-08  0.3299533E+04  0.7818609E-02  0.8163014E-01
        2   -1    0    0  501    0  0.00000000000E+00  0.00000000000E+00  0.28033636561E+04  0.28033636561E+04  0.25500000920E-02 0. -1.
       -2   -1    0    0    0  501  0.00000000000E+00  0.00000000000E+00 -0.97087973411E+03  0.97087973412E+03  0.25500000920E-02 0.  1.
    10030    2    1    2    0    0  0.00000000000E+00  0.00000000000E+00  0.18324839220E+04  0.37742433902E+04  0.32995326706E+04 0.  0.
        5    1    3    3  502    0 -0.10451846253E+04  0.10649133685E+04  0.17212349880E+04  0.22779647401E+04  0.46999998093E+01 0. -1.
       -5    1    3    3    0  502  0.10451846253E+04 -0.10649133685E+04  0.11124893398E+03  0.14962786501E+04  0.46999998093E+01 0.  1.
</event>
<event>
 5   0  0.2383270E-08  0.3297562E+04  0.7818609E-02  0.8163516E-01
        1   -1    0    0  501    0  0.00000000000E+00  0.00000000000E+00  0.18707645456E+04  0.18707645456E+04  0.50400001928E-02 0.  1.
       -1   -1    0    0    0  501  0.00000000000E+00  0.00000000000E+00 -0.14531375328E+04  0.14531375328E+04  0.50400001928E-02 0. -1.
    10030    2    1    2    0    0  0.00000000000E+00  0.00000000000E+00  0.41762701282E+03  0.33239020784E+04  0.32975616302E+04 0.  0.
        5    1    3    3  502    0  0.34628617196E+03 -0.74783444867E+03 -0.12306290140E+04  0.14810943034E+04  0.46999998093E+01 0. -1.
       -5    1    3    3    0  502 -0.34628617196E+03  0.74783444867E+03  0.16482560268E+04  0.18428077750E+04  0.46999998093E+01 0.  1.
</event>
<event>
 5   0  0.2279938E-08  0.3298152E+04  0.7818609E-02  0.8163366E-01
       -1   -1    0    0    0  501  0.00000000000E+00  0.00000000000E+00  0.13283493550E+04  0.13283493550E+04  0.50400001928E-02 0.  1.
        1   -1    0    0  501    0  0.00000000000E+00  0.00000000000E+00 -0.20472410307E+04  0.20472410307E+04  0.50400001928E-02 0. -1.
    10030    2    1    2    0    0  0.00000000000E+00  0.00000000000E+00 -0.71889167572E+03  0.33755903857E+04  0.32981517870E+04 0.  0.
        3    1    3    3  502    0  0.30716614872E+03  0.16053869581E+04 -0.13560323338E+03  0.16401239512E+04  0.10100000352E+00 0.  1.
       -3    1    3    3    0  502 -0.30716614872E+03 -0.16053869581E+04 -0.58328844234E+03  0.17354664345E+04  0.10100000352E+00 0. -1.
</event>
<event>
 5   0  0.7084130E-08  0.3300105E+04  0.7818609E-02  0.8162869E-01
        2   -1    0    0  501    0  0.00000000000E+00  0.00000000000E+00  0.99088213277E+03  0.99088213277E+03  0.25500000920E-02 0. -1.
       -2   -1    0    0    0  501  0.00000000000E+00  0.00000000000E+00 -0.27477273452E+04  0.27477273452E+04  0.25500000920E-02 0.  1.
    10030    2    1    2    0    0  0.00000000000E+00  0.00000000000E+00 -0.17568452124E+04  0.37386094780E+04  0.33001054117E+04 0.  0.
        3    1    3    3  502    0  0.14828405134E+04  0.46560959279E+03 -0.25065644466E+03  0.15743052259E+04  0.10100000352E+00 0. -1.
       -3    1    3    3    0  502 -0.14828405134E+04 -0.46560959279E+03 -0.15061887678E+04  0.21643042520E+04  0.10100000352E+00 0.  1.
</event>
<event>
 5   0  0.6603516E-08  0.3298297E+04  0.7818609E-02  0.8163329E-01
        2   -1    0    0  501    0  0.00000000000E+00  0.00000000000E+00  0.25626759019E+04  0.25626759019E+04  0.25500000920E-02 0.  1.
       -2   -1    0    0    0  501  0.00000000000E+00  0.00000000000E+00 -0.10612696773E+04  0.10612696773E+04  0.25500000920E-02 0. -1.
    10030    2    1    2    0    0  0.00000000000E+00  0.00000000000E+00  0.15014062246E+04  0.36239455792E+04  0.32982966679E+04 0.  0.
        1    1    3    3  502    0  0.39855704167E+02  0.23928266057E+03 -0.10415600774E+04  0.10694353948E+04  0.50400001928E-02 0. -1.
       -1    1    3    3    0  502 -0.39855704167E+02 -0.23928266057E+03  0.25429663020E+04  0.25545101844E+04  0.50400001928E-02 0.  1.
</event>
<event>
 5   0  0.6603516E-08  0.3300960E+04  0.7818609E-02  0.8162651E-01
        2   -1    0    0  501    0  0.00000000000E+00  0.00000000000E+00  0.22915215651E+04  0.22915215651E+04  0.25500000920E-02 0. -1.
       -2   -1    0    0    0  501  0.00000000000E+00  0.00000000000E+00 -0.11887665292E+04  0.11887665292E+04  0.25500000920E-02 0.  1.
    10030    2    1    2    0    0  0.00000000000E+00  0.00000000000E+00  0.11027550359E+04  0.34802880944E+04  0.33009599438E+04 0.  0.
        1    1    3    3  502    0 -0.37773418030E+03 -0.10891459682E+04 -0.69396057995E+03  0.13455494557E+04  0.50400001928E-02 0.  1.
       -1    1    3    3    0  502  0.37773418030E+03  0.10891459682E+04  0.17967156159E+04  0.21347386387E+04  0.50400001928E-02 0. -1.
</event>
<event>
 5   0  0.6765252E-08  0.3299717E+04  0.7818609E-02  0.8162967E-01
       -2   -1    0    0    0  501  0.00000000000E+00  0.00000000000E+00  0.95939487132E+03  0.95939487132E+03  0.25500000920E-02 0.  1.
        2   -1    0    0  501    0  0.00000000000E+00  0.00000000000E+00 -0.28372392245E+04  0.28372392245E+04  0.25500000920E-02 0. -1.
    10030    2    1    2    0    0  0.00000000000E+00  0.00000000000E+00 -0.18778443532E+04  0.37966340958E+04  0.32997168125E+04 0.  0.
        2    1    3    3  502    0  0.30188969725E+02  0.80229845797E+03  0.71946591075E+03  0.10780655761E+04  0.25500000920E-02 0.  1.
       -2    1    3    3    0  502 -0.30188969725E+02 -0.80229845797E+03 -0.25973102639E+04  0.27185685198E+04  0.25500000920E-02 0. -1.
</event>
<event>
 5   0  0.2244093E-08  0.3299616E+04  0.7818609E-02  0.8162993E-01
       -1   -1    0    0    0  501  0.00000000000E+00  0.00000000000E+00  0.14760691239E+04  0.14760691240E+04  0.50400001928E-02 0. -1.
        1   -1    0    0  501    0  0.00000000000E+00  0.00000000000E+00 -0.18439962419E+04  0.18439962419E+04  0.50400001928E-02 0.  1.
    10030    2    1    2    0    0  0.00000000000E+00  0.00000000000E+00 -0.36792711799E+03  0.33200653659E+04  0.32996156852E+04 0.  0.
        1    1    3    3  502    0 -0.15300724934E+04 -0.48744679848E+03  0.19671930473E+03  0.16178456976E+04  0.50400001928E-02 0. -1.
       -1    1    3    3    0  502  0.15300724934E+04  0.48744679848E+03 -0.56464642272E+03  0.17022196683E+04  0.50400001928E-02 0.  1.
</event>
<event>
 5   0  0.6603516E-08  0.3299495E+04  0.7818609E-02  0.8163024E-01
        2   -1    0    0  501    0  0.00000000000E+00  0.00000000000E+00  0.12910324090E+04  0.12910324090E+04  0.25500000920E-02 0.  1.
       -2   -1    0    0    0  501  0.00000000000E+00  0.00000000000E+00 -0.21081320640E+04  0.21081320640E+04  0.25500000920E-02 0. -1.
    10030    2    1    2    0    0  0.00000000000E+00  0.00000000000E+00 -0.81709965503E+03  0.33991644730E+04  0.32994950020E+04 0.  0.
        1    1    3    3  502    0  0.64625080244E+03 -0.15142544865E+02 -0.19722261067E+04  0.20754626502E+04  0.50400001928E-02 0. -1.
       -1    1    3    3    0  502 -0.64625080244E+03  0.15142544865E+02  0.11551264517E+04  0.13237018228E+04  0.50400001928E-02 0.  1.
</event>
<event>
 5   0  0.6706080E-08  0.3299513E+04  0.7818609E-02  0.8163019E-01
       -2   -1    0    0    0  501  0.00000000000E+00  0.00000000000E+00  0.20551897192E+04  0.20551897192E+04  0.25500000920E-02 0.  1.
        2   -1    0    0  501    0  0.00000000000E+00  0.00000000000E+00 -0.13243043333E+04  0.13243043333E+04  0.25500000920E-02 0. -1.
    10030    2    1    2    0    0  0.00000000000E+00  0.00000000000E+00  0.73088538588E+03  0.33794940525E+04  0.32995130859E+04 0.  0.
        4    1    3    3  502    0 -0.26895453737E+03 -0.10616895935E+04 -0.89822807325E+03  0.14164521244E+04  0.12699999809E+01 0. -1.
       -4    1    3    3    0  502  0.26895453737E+03  0.10616895935E+04  0.16291134591E+04  0.19630419282E+04  0.12699999809E+01 0.  1.
</event>
<event>
 5   0  0.7084130E-08  0.3300303E+04  0.7818609E-02  0.8162818E-01
       -2   -1    0    0    0  501  0.00000000000E+00  0.00000000000E+00  0.13783196929E+04  0.13783196929E+04  0.25500000920E-02 0. -1.
        2   -1    0    0  501    0  0.00000000000E+00  0.00000000000E+00 -0.19755941732E+04  0.19755941732E+04  0.25500000920E-02 0.  1.
    10030    2    1    2    0    0  0.00000000000E+00  0.00000000000E+00 -0.59727448038E+03  0.33539138661E+04  0.33003032309E+04 0.  0.
        3    1    3    3  502    0  0.11331038298E+04 -0.25949240366E+03 -0.14888755424E+04  0.18889179409E+04  0.10100000352E+00 0. -1.
       -3    1    3    3    0  502 -0.11331038298E+04  0.25949240366E+03  0.89160106200E+03  0.14649959251E+04  0.10100000352E+00 0.  1.
</event>
<event>
 5   0  0.2383270E-08  0.3300681E+04  0.7818609E-02  0.8162722E-01
        1   -1    0    0  501    0  0.00000000000E+00  0.00000000000E+00  0.25857640616E+04  0.25857640616E+04  0.50400001928E-02 0.  1.
       -1   -1    0    0    0  501  0.00000000000E+00  0.00000000000E+00 -0.10533150931E+04  0.10533150931E+04  0.50400001928E-02 0. -1.
    10030    2    1    2    0    0  0.00000000000E+00  0.00000000000E+00  0.15324489685E+04  0.36390791547E+04  0.33006813316E+04 0.  0.
        5    1    3    3  502    0  0.32168349198E+03  0.74777070291E+03  0.23490126146E+04  0.24860658975E+04  0.46999998093E+01 0.  1.
       -5    1    3    3    0  502 -0.32168349198E+03 -0.74777070291E+03 -0.81656364610E+03  0.11530132572E+04  0.46999998093E+01 0. -1.
</event>
<event>
 5   0  0.2291682E-08  0.3299479E+04  0.7818609E-02  0.8163028E-01
        1   -1    0    0  501    0  0.00000000000E+00  0.00000000000E+00  0.26484328764E+04  0.26484328764E+04  0.50400001928E-02 0.  1.
       -1   -1    0    0    0  501  0.00000000000E+00  0.00000000000E+00 -0.10276417399E+04  0.10276417399E+04  0.50400001928E-02 0. -1.
    10030    2    1    2    0    0  0.00000000000E+00  0.00000000000E+00  0.16207911365E+04  0.36760746163E+04  0.32994788492E+04 0.  0.
        2    1    3    3  502    0  0.33611451714E+03 -0.15569947802E+04  0.12888713907E+04  0.20489985788E+04  0.25500000920E-02 0.  1.
       -2    1    3    3    0  502 -0.33611451714E+03  0.15569947802E+04  0.33191974584E+03  0.16270760375E+04  0.25500000920E-02 0. -1.
</event>
<event>
 5   0  0.6603516E-08  0.3301041E+04  0.7818609E-02  0.8162630E-01
        2   -1    0    0  501    0  0.00000000000E+00  0.00000000000E+00  0.13062487756E+04  0.13062487756E+04  0.25500000920E-02 0.  1.
       -2   -1    0    0    0  501  0.00000000000E+00  0.00000000000E+00 -0.20855279799E+04  0.20855279799E+04  0.25500000920E-02 0. -1.
    10030    2    1    2    0    0  0.00000000000E+00  0.00000000000E+00 -0.77927920426E+03  0.33917767555E+04  0.33010412722E+04 0.  0.
        1    1    3    3  502    0 -0.99665585582E+03 -0.82728703611E+01 -0.17414106494E+04  0.20064651468E+04  0.50400001928E-02 0. -1.
       -1    1    3    3    0  502  0.99665585582E+03  0.82728703611E+01  0.96213144518E+03  0.13853116087E+04  0.50400001928E-02 0.  1.
</event>
<event>
 5   0  0.6706080E-08  0.3284056E+04  0.7818609E-02  0.8166964E-01
       -2   -1    0    0    0  501  0.00000000000E+00  0.00000000000E+00  0.11170001877E+04  0.11170001877E+04  0.25500000920E-02 0. -1.
        2   -1    0    0  501    0  0.00000000000E+00  0.00000000000E+00 -0.24138372002E+04  0.24138372002E+04  0.25500000920E-02 0.  1.
    10030    2    1    2    0    0  0.00000000000E+00  0.00000000000E+00 -0.12968370125E+04  0.35308373879E+04  0.32840563976E+04 0.  0.
        4    1    3    3  502    0  0.28977951859E+03  0.10740830436E+04  0.65007400213E+03  0.12884969441E+04  0.12699999809E+01 0. -1.
       -4    1    3    3    0  502 -0.28977951859E+03 -0.10740830436E+04 -0.19469110146E+04  0.22423404438E+04  0.12699999809E+01 0.  1.
</event>
<event>
 5   0  0.7084130E-08  0.3301300E+04  0.7818609E-02  0.8162565E-01
       -2   -1    0    0    0  501  0.00000000000E+00  0.00000000000E+00  0.86852316139E+03  0.86852316139E+03  0.25500000920E-02 0.  1.
        2   -1    0    0  501    0  0.00000000000E+00  0.00000000000E+00 -0.31371009517E+04  0.31371009517E+04  0.25500000920E-02 0. -1.
    10030    2    1    2    0    0  0.00000000000E+00  0.00000000000E+00 -0.22685777903E+04  0.40056241131E+04  0.33012996448E+04 0.  0.
        3    1    3    3  502    0  0.17275008874E+03 -0.16252557983E+04 -0.14145323359E+04  0.21615274096E+04  0.10100000352E+00 0. -1.
       -3    1    3    3    0  502 -0.17275008874E+03  0.16252557983E+04 -0.85404545442E+03  0.18440967034E+04  0.10100000352E+00 0.  1.
</event>
<event>
 5   0  0.2244093E-08  0.3296865E+04  0.7818609E-02  0.8163694E-01
       -1   -1    0    0    0  501  0.00000000000E+00  0.00000000000E+00  0.18256205516E+04  0.18256205516E+04  0.50400001928E-02 0.  1.
        1   -1    0    0  501    0  0.00000000000E+00  0.00000000000E+00 -0.14884413523E+04  0.14884413523E+04  0.50400001928E-02 0. -1.
    10030    2    1    2    0    0  0.00000000000E+00  0.00000000000E+00  0.33717919929E+03  0.33140619038E+04  0.32968646454E+04 0.  0.
        1    1    3    3  502    0 -0.39629035384E+03  0.38895199240E+03 -0.13916016841E+04  0.14982940113E+04  0.50400001928E-02 0. -1.
       -1    1    3    3    0  502  0.39629035384E+03 -0.38895199240E+03  0.17287808834E+04  0.18157678926E+04  0.50400001928E-02 0.  1.
</event>
<event>
 5   0  0.6765252E-08  0.3300106E+04  0.7818609E-02  0.8162868E-01
       -2   -1    0    0    0  501  0.00000000000E+00  0.00000000000E+00  0.10259992376E+04  0.10259992376E+04  0.25500000920E-02 0.  1.
        2   -1    0    0  501    0  0.00000000000E+00  0.00000000000E+00 -0.26536816457E+04  0.26536816457E+04  0.25500000920E-02 0. -1.
    10030    2    1    2    0    0  0.00000000000E+00  0.00000000000E+00 -0.16276824081E+04  0.36796808832E+04  0.33001062681E+04 0.  0.
        2    1    3    3  502    0  0.14824630137E+03 -0.42998617817E+03 -0.25824068066E+04  0.26221536938E+04  0.25500000920E-02 0. -1.
       -2    1    3    3    0  502 -0.14824630137E+03  0.42998617817E+03  0.95472439850E+03  0.10575271894E+04  0.25500000920E-02 0.  1.
</event>
<event>
 5   0  0.2244093E-08  0.3300273E+04  0.7818609E-02  0.8162826E-01
        1   -1    0    0  501    0  0.00000000000E+00  0.00000000000E+00  0.19628062946E+04  0.19628062946E+04  0.50400001928E-02 0. -1.
       -1   -1    0    0    0  501  0.00000000000E+00  0.00000000000E+00 -0.13872744480E+04  0.13872744480E+04  0.50400001928E-02 0.  1.
    10030    2    1    2    0    0  0.00000000000E+00  0.00000000000E+00  0.57553184665E+03  0.33500807426E+04  0.33002733334E+04 0.  0.
        1    1    3    3  502    0  0.27608745956E+03 -0.13501299919E+04  0.12091404923E+04  0.18333292150E+04  0.50400001928E-02 0. -1.
       -1    1    3    3    0  502 -0.27608745956E+03  0.13501299919E+04 -0.63360864569E+03  0.15167515275E+04  0.50400001928E-02 0.  1.
</event>
<event>
 5   0  0.2291682E-08  0.3299967E+04  0.7818609E-02  0.8162904E-01
        1   -1    0    0  501    0  0.00000000000E+00  0.00000000000E+00  0.13397593836E+04  0.13397593837E+04  0.50400001928E-02 0.  1.
       -1   -1    0    0    0  501  0.00000000000E+00  0.00000000000E+00 -0.20320405632E+04  0.20320405632E+04  0.50400001928E-02 0. -1.
    10030    2    1    2    0    0  0.00000000000E+00  0.00000000000E+00 -0.69228117953E+03  0.33717999468E+04  0.32999669165E+04 0.  0.
        2    1    3    3  502    0 -0.67875489885E+03  0.11010808041E+04 -0.13928210262E+04  0.19007991900E+04  0.25500000920E-02 0. -1.
       -2    1    3    3    0  502  0.67875489885E+03 -0.11010808041E+04  0.70053984664E+03  0.14710007568E+04  0.25500000920E-02 0.  1.
</event>
<event>
 5   0  0.6821287E-08  0.3323274E+04  0.7818609E-02  0.8156999E-01
        2   -1    0    0  501    0  0.00000000000E+00  0.00000000000E+00  0.20114610187E+04  0.20114610187E+04  0.25500000920E-02 0. -1.
       -2   -1    0    0    0  501  0.00000000000E+00  0.00000000000E+00 -0.13726524477E+04  0.13726524477E+04  0.25500000920E-02 0.  1.
    10030    2    1    2    0    0  0.00000000000E+00  0.00000000000E+00  0.63880857102E+03  0.33841134664E+04  0.33232736215E+04 0.  0.
        5    1    3    3  502    0  0.18179000020E+03  0.32222256452E+03  0.19689801784E+04  0.20034420427E+04  0.46999998093E+01 0. -1.
       -5    1    3    3    0  502 -0.18179000020E+03 -0.32222256452E+03 -0.13301716074E+04  0.13806714238E+04  0.46999998093E+01 0.  1.
</event>
<event>
 5   0  0.2244093E-08  0.3298232E+04  0.7818609E-02  0.8163345E-01
        1   -1    0    0  501    0  0.00000000000E+00  0.00000000000E+00  0.20522196421E+04  0.20522196421E+04  0.50400001928E-02 0. -1.
       -1   -1    0    0    0  501  0.00000000000E+00  0.00000000000E+00 -0.13251913154E+04  0.13251913154E+04  0.50400001928E-02 0.  1.
    10030    2    1    2    0    0  0.00000000000E+00  0.00000000000E+00  0.72702832667E+03  0.33774109575E+04  0.32982320397E+04 0.  0.
        1    1    3    3  502    0 -0.67439288862E+03  0.96075131323E+03  0.15496544116E+04  0.19440364322E+04  0.50400001928E-02 0. -1.
       -1    1    3    3    0  502  0.67439288862E+03 -0.96075131323E+03 -0.82262608498E+03  0.14333745253E+04  0.50400001928E-02 0.  1.
</event>
<event>
 5   0  0.6706080E-08  0.3302826E+04  0.7818609E-02  0.8162177E-01
        2   -1    0    0  501    0  0.00000000000E+00  0.00000000000E+00  0.13980247035E+04  0.13980247035E+04  0.25500000920E-02 0. -1.
       -2   -1    0    0    0  501  0.00000000000E+00  0.00000000000E+00 -0.19507272610E+04  0.19507272610E+04  0.25500000920E-02 0.  1.
    10030    2    1    2    0    0  0.00000000000E+00  0.00000000000E+00 -0.55270255748E+03  0.33487519645E+04  0.33028260025E+04 0.  0.
        4    1    3    3  502    0 -0.16682409380E+02  0.11349349867E+04  0.93983091912E+03  0.14736483625E+04  0.12699999809E+01 0. -1.
       -4    1    3    3    0  502  0.16682409380E+02 -0.11349349867E+04 -0.14925334766E+04  0.18751036021E+04  0.12699999809E+01 0.  1.
</event>
<event>
 5   0  0.2200750E-08  0.3298435E+04  0.7818609E-02  0.8163294E-01
       -3   -1    0    0    0  501  0.00000000000E+00  0.00000000000E+00  0.11583988775E+04  0.11583988819E+04  0.10100000352E+00 0. -1.
        3   -1    0    0  501    0  0.00000000000E+00  0.00000000000E+00 -0.23479985096E+04  0.23479985117E+04  0.10100000352E+00 0.  1.
    10030    2    1    2    0    0  0.00000000000E+00  0.00000000000E+00 -0.11895996321E+04  0.35063973936E+04  0.32984352953E+04 0.  0.
        4    1    3    3  502    0 -0.45932716481E+03  0.86099892996E+03 -0.20081416233E+04  0.22326967985E+04  0.12699999809E+01 0.  1.
       -4    1    3    3    0  502  0.45932716481E+03 -0.86099892996E+03  0.81854199126E+03  0.12737005951E+04  0.12699999809E+01 0. -1.
</event>
<event>
 5   0  0.7084130E-08  0.3299978E+04  0.7818609E-02  0.8162901E-01
        2   -1    0    0  501    0  0.00000000000E+00  0.00000000000E+00  0.23913812118E+04  0.23913812118E+04  0.25500000920E-02 0. -1.
       -2   -1    0    0    0  501  0.00000000000E+00  0.00000000000E+00 -0.11384483310E+04  0.11384483310E+04  0.25500000920E-02 0.  1.
    10030    2    1    2    0    0  0.00000000000E+00  0.00000000000E+00  0.12529328808E+04  0.35298295428E+04  0.32999781511E+04 0.  0.
        3    1    3    3  502    0  0.54970306582E+03  0.41472081569E+03  0.22303377607E+04  0.23342179316E+04  0.10100000352E+00 0. -1.
       -3    1    3    3    0  502 -0.54970306582E+03 -0.41472081569E+03 -0.97740487982E+03  0.11956116112E+04  0.10100000352E+00 0.  1.
</event>
<event>
 5   0  0.7084130E-08  0.3309247E+04  0.7818609E-02  0.8160547E-01
       -2   -1    0    0    0  501  0.00000000000E+00  0.00000000000E+00  0.15599317662E+04  0.15599317662E+04  0.25500000920E-02 0. -1.
        2   -1    0    0  501    0  0.00000000000E+00  0.00000000000E+00 -0.17550627319E+04  0.17550627319E+04  0.25500000920E-02 0.  1.
    10030    2    1    2    0    0  0.00000000000E+00  0.00000000000E+00 -0.19513096578E+03  0.33149944981E+04  0.33092465047E+04 0.  0.
        3    1    3    3  502    0 -0.10273392241E+04 -0.51749810374E+03 -0.12889790097E+04  0.17276275833E+04  0.10100000352E+00 0.  1.
       -3    1    3    3    0  502  0.10273392241E+04  0.51749810374E+03  0.10938480440E+04  0.15873669148E+04  0.10100000352E+00 0. -1.
</event>
<event>
 5   0  0.2279938E-08  0.3299841E+04  0.7818609E-02  0.8162936E-01
        1   -1    0    0  501    0  0.00000000000E+00  0.00000000000E+00  0.11560998891E+04  0.11560998892E+04  0.50400001928E-02 0.  1.
       -1   -1    0    0    0  501  0.00000000000E+00  0.00000000000E+00 -0.23546729791E+04  0.23546729791E+04  0.50400001928E-02 0. -1.
    10030    2    1    2    0    0  0.00000000000E+00  0.00000000000E+00 -0.11985730899E+04  0.35107728683E+04  0.32998407053E+04 0.  0.
        3    1    3    3  502    0 -0.13969066416E+04  0.18418792826E+03 -0.15126272981E+04  0.20671997270E+04  0.10100000352E+00 0. -1.
       -3    1    3    3    0  502  0.13969066416E+04 -0.18418792826E+03  0.31405420815E+03  0.14435731412E+04  0.10100000352E+00 0.  1.
</event>
<event>
 5   0  0.6765252E-08  0.3302066E+04  0.7818609E-02  0.8162370E-01
       -2   -1    0    0    0  501  0.00000000000E+00  0.00000000000E+00  0.11227804141E+04  0.11227804141E+04  0.25500000920E-02 0.  1.
        2   -1    0    0  501    0  0.00000000000E+00  0.00000000000E+00 -0.24278212691E+04  0.24278212691E+04  0.25500000920E-02 0. -1.
    10030    2    1    2    0    0  0.00000000000E+00  0.00000000000E+00 -0.13050408550E+04  0.35506016832E+04  0.33020661228E+04 0.  0.
        2    1    3    3  502    0 -0.18476144002E+03 -0.14610685908E+04  0.15001467929E+03  0.14803251740E+04  0.25500000920E-02 0.  1.
       -2    1    3    3    0  502  0.18476144002E+03  0.14610685908E+04 -0.14550555343E+04  0.20702765092E+04  0.25500000920E-02 0. -1.
</event>
<event>
 5   0  0.6706080E-08  0.3297870E+04  0.7818609E-02  0.8163438E-01
       -2   -1    0    0    0  501  0.00000000000E+00  0.00000000000E+00  0.18428658387E+04  0.18428658387E+04  0.25500000920E-02 0. -1.
        2   -1    0    0  501    0  0.00000000000E+00  0.00000000000E+00 -0.14754120364E+04  0.14754120364E+04  0.25500000920E-02 0.  1.
    10030    2    1    2    0    0  0.00000000000E+00  0.00000000000E+00  0.36745380227E+03  0.33182778751E+04  0.32978698822E+04 0.  0.
        4    1    3    3  502    0 -0.15799533099E+04  0.46809390954E+03  0.12318431571E+03  0.16524346759E+04  0.12699999809E+01 0. -1.
       -4    1    3    3    0  502  0.15799533099E+04 -0.46809390954E+03  0.24426948655E+03  0.16658431992E+04  0.12699999809E+01 0.  1.
</event>
<event>
 5   0  0.6706080E-08  0.3299897E+04  0.7818609E-02  0.8162922E-01
       -2   -1    0    0    0  501  0.00000000000E+00  0.00000000000E+00  0.10585604294E+04  0.10585604294E+04  0.25500000920E-02 0. -1.
        2   -1    0    0  501    0  0.00000000000E+00  0.00000000000E+00 -0.25717285644E+04  0.25717285644E+04  0.25500000920E-02 0.  1.
    10030    2    1    2    0    0  0.00000000000E+00  0.00000000000E+00 -0.15131681350E+04  0.36302889937E+04  0.32998970246E+04 0.  0.
        4    1    3    3  502    0  0.12501443778E+04  0.12276771869E+03  0.42028704126E+03  0.13246039741E+04  0.12699999809E+01 0. -1.
       -4    1    3    3    0  502 -0.12501443778E+04 -0.12276771869E+03 -0.19334551763E+04  0.23056850196E+04  0.12699999809E+01 0.  1.
</event>
<event>
 5   0  0.2309822E-08  0.3299212E+04  0.7818609E-02  0.8163096E-01
        1   -1    0    0  501    0  0.00000000000E+00  0.00000000000E+00  0.17334941570E+04  0.17334941570E+04  0.50400001928E-02 0. -1.
       -1   -1    0    0    0  501  0.00000000000E+00  0.00000000000E+00 -0.15697771509E+04  0.15697771509E+04  0.50400001928E-02 0.  1.
    10030    2    1    2    0    0  0.00000000000E+00  0.00000000000E+00  0.16371700608E+03  0.33032713080E+04  0.32992117355E+04 0.  0.
        4    1    3    3  502    0  0.12573147652E+04 -0.53571439797E+03  0.10067741451E+04  0.16974763996E+04  0.12699999809E+01 0. -1.
       -4    1    3    3    0  502 -0.12573147652E+04  0.53571439797E+03 -0.84305713906E+03  0.16057949083E+04  0.12699999809E+01 0.  1.
</event>
<event>
 5   0  0.2279938E-08  0.3300317E+04  0.7818609E-02  0.8162815E-01
       -1   -1    0    0    0  501  0.00000000000E+00  0.00000000000E+00  0.12932773008E+04  0.12932773008E+04  0.50400001928E-02 0. -1.
        1   -1    0    0  501    0  0.00000000000E+00  0.00000000000E+00 -0.21055209920E+04  0.21055209920E+04  0.50400001928E-02 0.  1.
    10030    2    1    2    0    0  0.00000000000E+00  0.00000000000E+00 -0.81224369124E+03  0.33987982928E+04  0.33003166547E+04 0.  0.
        3    1    3    3  502    0 -0.84506253716E+03 -0.11067185216E+04 -0.13180194365E+04  0.19173241309E+04  0.10100000352E+00 0.  1.
       -3    1    3    3    0  502  0.84506253716E+03  0.11067185216E+04  0.50577574523E+03  0.14814741619E+04  0.10100000352E+00 0. -1.
</event>
<event>
 5   0  0.2244093E-08  0.3298937E+04  0.7818609E-02  0.8163166E-01
        1   -1    0    0  501    0  0.00000000000E+00  0.00000000000E+00  0.16631541888E+04  0.16631541888E+04  0.50400001928E-02 0. -1.
       -1   -1    0    0    0  501  0.00000000000E+00  0.00000000000E+00 -0.16358953535E+04  0.16358953535E+04  0.50400001928E-02 0.  1.
    10030    2    1    2    0    0  0.00000000000E+00  0.00000000000E+00  0.27258835343E+02  0.32990495423E+04  0.32989369255E+04 0.  0.
        1    1    3    3  502    0 -0.12193601456E+04 -0.10021306356E+04  0.49285474379E+03  0.16534844341E+04  0.50400001928E-02 0. -1.
       -1    1    3    3    0  502  0.12193601456E+04  0.10021306356E+04 -0.46559590844E+03  0.16455651082E+04  0.50400001928E-02 0.  1.
</event>
<event>
 5   0  0.2309822E-08  0.3299949E+04  0.7818609E-02  0.8162908E-01
        1   -1    0    0  501    0  0.00000000000E+00  0.00000000000E+00  0.20998240041E+04  0.20998240041E+04  0.50400001928E-02 0. -1.
       -1   -1    0    0    0  501  0.00000000000E+00  0.00000000000E+00 -0.12964975126E+04  0.12964975126E+04  0.50400001928E-02 0.  1.
    10030    2    1    2    0    0  0.00000000000E+00  0.00000000000E+00  0.80332649152E+03  0.33963215168E+04  0.32999494532E+04 0.  0.
        4    1    3    3  502    0  0.27313208902E+03  0.76106742700E+03 -0.10785992718E+04  0.13480366347E+04  0.12699999809E+01 0.  1.
       -4    1    3    3    0  502 -0.27313208902E+03 -0.76106742700E+03  0.18819257633E+04  0.20482848821E+04  0.12699999809E+01 0. -1.
</event>
<event>
 5   0  0.2244093E-08  0.3302241E+04  0.7818609E-02  0.8162326E-01
       -1   -1    0    0    0  501  0.00000000000E+00  0.00000000000E+00  0.10547951953E+04  0.10547951953E+04  0.50400001928E-02 0.  1.
        1   -1    0    0  501    0  0.00000000000E+00  0.00000000000E+00 -0.25845758919E+04  0.25845758919E+04  0.50400001928E-02 0. -1.
    10030    2    1    2    0    0  0.00000000000E+00  0.00000000000E+00 -0.15297806966E+04  0.36393710872E+04  0.33022405925E+04 0.  0.
        1    1    3    3  502    0 -0.14616294661E+04 -0.97406075745E+01 -0.16112382074E+04  0.21754411361E+04  0.50400001928E-02 0. -1.
       -1    1    3    3    0  502  0.14616294661E+04  0.97406075745E+01  0.81457510793E+02  0.14639299511E+04  0.50400001928E-02 0.  1.
</event>
<event>
 5   0  0.6765252E-08  0.3300752E+04  0.7818609E-02  0.8162704E-01
       -2   -1    0    0    0  501  0.00000000000E+00  0.00000000000E+00  0.23887694315E+04  0.23887694315E+04  0.25500000920E-02 0. -1.
        2   -1    0    0  501    0  0.00000000000E+00  0.00000000000E+00 -0.11402278981E+04  0.11402278981E+04  0.25500000920E-02 0.  1.
    10030    2    1    2    0    0  0.00000000000E+00  0.00000000000E+00  0.12485415334E+04  0.35289973296E+04  0.33007523675E+04 0.  0.
        2    1    3    3  502    0 -0.11098081526E+04 -0.95218778776E+03 -0.19375485670E+03  0.14750853071E+04  0.25500000920E-02 0.  1.
       -2    1    3    3    0  502  0.11098081526E+04  0.95218778776E+03  0.14422963901E+04  0.20539120224E+04  0.25500000920E-02 0. -1.
</event>
<event>
 5   0  0.2309822E-08  0.3292486E+04  0.7818609E-02  0.8164810E-01
        1   -1    0    0  501    0  0.00000000000E+00  0.00000000000E+00  0.22023533656E+04  0.22023533656E+04  0.50400001928E-02 0. -1.
       -1   -1    0    0    0  501  0.00000000000E+00  0.00000000000E+00 -0.12305543281E+04  0.12305543281E+04  0.50400001928E-02 0.  1.
    10030    2    1    2    0    0  0.00000000000E+00  0.00000000000E+00  0.97179903748E+03  0.34329076937E+04  0.32924856665E+04 0.  0.
        4    1    3    3  502    0 -0.16155205414E+04  0.29560144860E+03  0.36781279595E+03  0.16830254608E+04  0.12699999809E+01 0.  1.
       -4    1    3    3    0  502  0.16155205414E+04 -0.29560144860E+03  0.60398624153E+03  0.17498822329E+04  0.12699999809E+01 0. -1.
</event>
<event>
 5   0  0.6765252E-08  0.3306472E+04  0.7818609E-02  0.8161251E-01
       -2   -1    0    0    0  501  0.00000000000E+00  0.00000000000E+00  0.21442830758E+04  0.21442830758E+04  0.25500000920E-02 0. -1.
        2   -1    0    0  501    0  0.00000000000E+00  0.00000000000E+00 -0.12746398975E+04  0.12746398975E+04  0.25500000920E-02 0.  1.
    10030    2    1    2    0    0  0.00000000000E+00  0.00000000000E+00  0.86964317828E+03  0.34189229733E+04  0.33064716905E+04 0.  0.
        2    1    3    3  502    0  0.75670953443E+03  0.90391144896E+03  0.16333467252E+04  0.20143204193E+04  0.25500000920E-02 0. -1.
       -2    1    3    3    0  502 -0.75670953443E+03 -0.90391144896E+03 -0.76370354692E+03  0.14046025540E+04  0.25500000920E-02 0.  1.
</event>
<event>
 5   0  0.2244093E-08  0.3298912E+04  0.7818609E-02  0.8163172E-01
        1   -1    0    0  501    0  0.00000000000E+00  0.00000000000E+00  0.25041425119E+04  0.25041425119E+04  0.50400001928E-02 0. -1.
       -1   -1    0    0    0  501  0.00000000000E+00  0.00000000000E+00 -0.10864817881E+04  0.10864817881E+04  0.50400001928E-02 0.  1.
    10030    2    1    2    0    0  0.00000000000E+00  0.00000000000E+00  0.14176607238E+04  0.35906243000E+04  0.32989120837E+04 0.  0.
        1    1    3    3  502    0 -0.11509027714E+04 -0.97633743145E+03 -0.15520134178E+02  0.15093219815E+04  0.50400001928E-02 0.  1.
       -1    1    3    3    0  502  0.11509027714E+04  0.97633743145E+03  0.14331808580E+04  0.20813023185E+04  0.50400001928E-02 0. -1.
</event>
<event>
 5   0  0.2279938E-08  0.3298764E+04  0.7818609E-02  0.8163210E-01
       -1   -1    0    0    0  501  0.00000000000E+00  0.00000000000E+00  0.19598956370E+04  0.19598956370E+04  0.50400001928E-02 0.  1.
        1   -1    0    0  501    0  0.00000000000E+00  0.00000000000E+00 -0.13880638719E+04  0.13880638719E+04  0.50400001928E-02 0. -1.
    10030    2    1    2    0    0  0.00000000000E+00  0.00000000000E+00  0.57183176513E+03  0.33479595090E+04  0.32987636026E+04 0.  0.
        3    1    3    3  502    0  0.35404931042E+03  0.10284490758E+04  0.15443274730E+04  0.18889165597E+04  0.10100000352E+00 0.  1.
       -3    1    3    3    0  502 -0.35404931042E+03 -0.10284490758E+04 -0.97249570786E+03  0.14590429492E+04  0.10100000352E+00 0. -1.
</event>
<event>
 5   0  0.6765252E-08  0.3299386E+04  0.7818609E-02  0.8163052E-01
        2   -1    0    0  501    0  0.00000000000E+00  0.00000000000E+00  0.17474621838E+04  0.17474621838E+04  0.25500000920E-02 0. -1.
       -2   -1    0    0    0  501  0.00000000000E+00  0.00000000000E+00 -0.15573940194E+04  0.15573940195E+04  0.25500000920E-02 0.  1.
    10030    2    1    2    0    0  0.00000000000E+00  0.00000000000E+00  0.19006816431E+03  0.33048562032E+04  0.32993860970E+04 0.  0.
        2    1    3    3  502    0  0.10171288266E+04 -0.11255388978E+04  0.74425856134E+03  0.16897661573E+04  0.25500000920E-02 0. -1.
       -2    1    3    3    0  502 -0.10171288266E+04  0.11255388978E+04 -0.55419039703E+03  0.16150900459E+04  0.25500000920E-02 0.  1.
</event>
<event>
 5   0  0.6603516E-08  0.3298751E+04  0.7818609E-02  0.8163213E-01
       -2   -1    0    0    0  501  0.00000000000E+00  0.00000000000E+00  0.14062967422E+04  0.14062967422E+04  0.25500000920E-02 0. -1.
        2   -1    0    0  501    0  0.00000000000E+00  0.00000000000E+00 -0.19344706106E+04  0.19344706106E+04  0.25500000920E-02 0.  1.
    10030    2    1    2    0    0  0.00000000000E+00  0.00000000000E+00 -0.52817386843E+03  0.33407673528E+04  0.32987511077E+04 0.  0.
        1    1    3    3  502    0  0.35139528612E+03  0.11315228032E+04 -0.14261413055E+04  0.18541039681E+04  0.50400001928E-02 0.  1.
       -1    1    3    3    0  502 -0.35139528612E+03 -0.11315228032E+04  0.89796743708E+03  0.14866633847E+04  0.50400001928E-02 0. -1.
</event>
<event>
 5   0  0.6821287E-08  0.3299495E+04  0.7818609E-02  0.8163024E-01
       -2   -1    0    0    0  501  0.00000000000E+00  0.00000000000E+00  0.14260077532E+04  0.14260077532E+04  0.25500000920E-02 0.  1.
        2   -1    0    0  501    0  0.00000000000E+00  0.00000000000E+00 -0.19085921163E+04  0.19085921163E+04  0.25500000920E-02 0. -1.
    10030    2    1    2    0    0  0.00000000000E+00  0.00000000000E+00 -0.48258436312E+03  0.33345998696E+04  0.32994952073E+04 0.  0.
        5    1    3    3  502    0  0.15861262296E+04 -0.44967151950E+03 -0.18028291933E+03  0.16584706548E+04  0.46999998093E+01 0. -1.
       -5    1    3    3    0  502 -0.15861262296E+04  0.44967151950E+03 -0.30230144379E+03  0.16761292148E+04  0.46999998093E+01 0.  1.
</event>
<event>
 5   0  0.2309822E-08  0.3299783E+04  0.7818609E-02  0.8162951E-01
       -1   -1    0    0    0  501  0.00000000000E+00  0.00000000000E+00  0.17374570920E+04  0.17374570920E+04  0.50400001928E-02 0.  1.
        1   -1    0    0  501    0  0.00000000000E+00  0.00000000000E+00 -0.15667389671E+04  0.15667389671E+04  0.50400001928E-02 0. -1.
    10030    2    1    2    0    0  0.00000000000E+00  0.00000000000E+00  0.17071812492E+03  0.33041960591E+04  0.32997828594E+04 0.  0.
        4    1    3    3  502    0  0.81248904650E+03 -0.14359384160E+04  0.94455906477E+02  0.16525680368E+04  0.12699999809E+01 0.  1.
       -4    1    3    3    0  502 -0.81248904650E+03  0.14359384160E+04  0.76262218446E+02  0.16516280223E+04  0.12699999809E+01 0. -1.
</event>
<event>
 5   0  0.2244093E-08  0.3305687E+04  0.7818609E-02  0.8161450E-01
        1   -1    0    0  501    0  0.00000000000E+00  0.00000000000E+00  0.26939199775E+04  0.26939199775E+04  0.50400001928E-02 0. -1.
       -1   -1    0    0    0  501  0.00000000000E+00  0.00000000000E+00 -0.10140952784E+04  0.10140952784E+04  0.50400001928E-02 0.  1.
    10030    2    1    2    0    0  0.00000000000E+00  0.00000000000E+00  0.16798246991E+04  0.37080152559E+04  0.33056869359E+04 0.  0.
        1    1    3    3  502    0  0.10909013743E+04  0.83343974686E+03 -0.19254891370E+03  0.13862765613E+04  0.50400001928E-02 0.  1.
       -1    1    3    3    0  502 -0.10909013743E+04 -0.83343974686E+03  0.18723736128E+04  0.23217386947E+04  0.50400001928E-02 0. -1.
</event>
<event>
 5   0  0.2279938E-08  0.3301806E+04  0.7818609E-02  0.8162436E-01
        1   -1    0    0  501    0  0.00000000000E+00  0.00000000000E+00  0.11951320005E+04  0.11951320005E+04  0.50400001928E-02 0.  1.
       -1   -1    0    0    0  501  0.00000000000E+00  0.00000000000E+00 -0.22804852332E+04  0.22804852332E+04  0.50400001928E-02 0. -1.
    10030    2    1    2    0    0  0.00000000000E+00  0.00000000000E+00 -0.10853532327E+04  0.34756172337E+04  0.33018060990E+04 0.  0.
        3    1    3    3  502    0 -0.43556572283E+03  0.15686861250E+04 -0.83092970993E+03  0.18278232548E+04  0.10100000352E+00 0. -1.
       -3    1    3    3    0  502  0.43556572283E+03 -0.15686861250E+04 -0.25442352282E+03  0.16477939789E+04  0.10100000352E+00 0.  1.
</event>
<event>
 5   0  0.7084130E-08  0.3299096E+04  0.7818609E-02  0.8163125E-01
        2   -1    0    0  501    0  0.00000000000E+00  0.00000000000E+00  0.21618486757E+04  0.21618486757E+04  0.25500000920E-02 0.  1.
       -2   -1    0    0    0  501  0.00000000000E+00  0.00000000000E+00 -0.12586489673E+04  0.12586489673E+04  0.25500000920E-02 0. -1.
    10030    2    1    2    0    0  0.00000000000E+00  0.00000000000E+00  0.90319970842E+03  0.34204976430E+04  0.32990959992E+04 0.  0.
        3    1    3    3  502    0 -0.22466206562E+03  0.12512951208E+04  0.15413712457E+04  0.19980084710E+04  0.10100000352E+00 0.  1.
       -3    1    3    3    0  502  0.22466206562E+03 -0.12512951208E+04 -0.63817153731E+03  0.14224891719E+04  0.10100000352E+00 0. -1.
</event>
<event>
 5   0  0.6765252E-08  0.3300328E+04  0.7818609E-02  0.8162812E-01
        2   -1    0    0  501    0  0.00000000000E+00  0.00000000000E+00  0.19929605722E+04  0.19929605722E+04  0.25500000920E-02 0.  1.
       -2   -1    0    0    0  501  0.00000000000E+00  0.00000000000E+00 -0.13663293970E+04  0.13663293970E+04  0.25500000920E-02 0. -1.
    10030    2    1    2    0    0  0.00000000000E+00  0.00000000000E+00  0.62663117513E+03  0.33592899692E+04  0.33003276303E+04 0.  0.
        2    1    3    3  502    0 -0.70732254047E+03  0.90821496577E+02 -0.12013857022E+04  0.13970974648E+04  0.25500000920E-02 0. -1.
       -2    1    3    3    0  502  0.70732254047E+03 -0.90821496577E+02  0.18280168774E+04  0.19621925044E+04  0.25500000920E-02 0.  1.
</event>
<event>
 5   0  0.2291682E-08  0.3299556E+04  0.7818609E-02  0.8163008E-01
       -1   -1    0    0    0  501  0.00000000000E+00  0.00000000000E+00  0.16867194452E+04  0.16867194452E+04  0.50400001928E-02 0. -1.
        1   -1    0    0  501    0  0.00000000000E+00  0.00000000000E+00 -0.16136460691E+04  0.16136460691E+04  0.50400001928E-02 0.  1.
    10030    2    1    2    0    0  0.00000000000E+00  0.00000000000E+00  0.73073376124E+02  0.33003655143E+04  0.32995564565E+04 0.  0.
        2    1    3    3  502    0 -0.82978912692E+03  0.14221173077E+04  0.14048796386E+03  0.16524843418E+04  0.25500000920E-02 0. -1.
       -2    1    3    3    0  502  0.82978912692E+03 -0.14221173077E+04 -0.67414587733E+02  0.16478811725E+04  0.25500000920E-02 0.  1.
</event>
<event>
 5   0  0.2291682E-08  0.3300412E+04  0.7818609E-02  0.8162791E-01
        1   -1    0    0  501    0  0.00000000000E+00  0.00000000000E+00  0.29526893254E+04  0.29526893254E+04  0.50400001928E-02 0. -1.
       -1   -1    0    0    0  501  0.00000000000E+00  0.00000000000E+00 -0.92227109527E+03  0.92227109528E+03  0.50400001928E-02 0.  1.
    10030    2    1    2    0    0  0.00000000000E+00  0.00000000000E+00  0.20304182301E+04  0.38749604206E+04  0.33004121065E+04 0.  0.
        2    1    3    3  502    0 -0.69757254717E+03 -0.59799602895E+03  0.26245920978E+04  0.27807715456E+04  0.25500000920E-02 0. -1.
       -2    1    3    3    0  502  0.69757254717E+03  0.59799602895E+03 -0.59417386768E+03  0.10941888750E+04  0.25500000920E-02 0.  1.
</event>
<event>
 5   0  0.6706080E-08  0.3300835E+04  0.7818609E-02  0.8162683E-01
       -2   -1    0    0    0  501  0.00000000000E+00  0.00000000000E+00  0.98649676736E+03  0.98649676736E+03  0.25500000920E-02 0.  1.
        2   -1    0    0  501    0  0.00000000000E+00  0.00000000000E+00 -0.27611627012E+04  0.27611627012E+04  0.25500000920E-02 0. -1.
    10030    2    1    2    0    0  0.00000000000E+00  0.00000000000E+00 -0.17746659338E+04  0.37476594685E+04  0.33008350937E+04 0.  0.
        4    1    3    3  502    0 -0.66571676025E+03 -0.12747158327E+04  0.32102124653E+02  0.14384406203E+04  0.12699999809E+01 0.  1.
       -4    1    3    3    0  502  0.66571676025E+03  0.12747158327E+04 -0.18067680585E+04  0.23092188482E+04  0.12699999809E+01 0. -1.
</event>
<event>
 5   0  0.2279938E-08  0.3299729E+04  0.7818609E-02  0.8162964E-01
       -1   -1    0    0    0  501  0.00000000000E+00  0.00000000000E+00  0.13180660593E+04  0.13180660593E+04  0.50400001928E-02 0. -1.
        1   -1    0    0  501    0  0.00000000000E+00  0.00000000000E+00 -0.20651873619E+04  0.20651873619E+04  0.50400001928E-02 0.  1.
    10030    2    1    2    0    0  0.00000000000E+00  0.00000000000E+00 -0.74712130253E+03  0.33832534212E+04  0.32997293027E+04 0.  0.
        3    1    3    3  502    0 -0.95132094731E+03 -0.12494631835E+04  0.14509296847E+03  0.15770928227E+04  0.10100000352E+00 0. -1.
       -3    1    3    3    0  502  0.95132094731E+03  0.12494631835E+04 -0.89221427100E+03  0.18061605985E+04  0.10100000352E+00 0.  1.
</event>
<event>
 5   0  0.6603516E-08  0.3296198E+04  0.7818609E-02  0.8163864E-01
       -2   -1    0    0    0  501  0.00000000000E+00  0.00000000000E+00  0.16764480881E+04  0.16764480881E+04  0.25500000920E-02 0.  1.
        2   -1    0    0  501    0  0.00000000000E+00  0.00000000000E+00 -0.16202289454E+04  0.16202289454E+04  0.25500000920E-02 0. -1.
    10030    2    1    2    0    0  0.00000000000E+00  0.00000000000E+00  0.56219142677E+02  0.32966770335E+04  0.32961976384E+04 0.  0.
        1    1    3    3  502    0  0.16040216718E+04 -0.35258539167E+03 -0.10985154935E+03  0.16459858277E+04  0.50400001928E-02 0. -1.
       -1    1    3    3    0  502 -0.16040216718E+04  0.35258539167E+03  0.16607069203E+03  0.16506912058E+04  0.50400001928E-02 0.  1.
</event>
<event>
 5   0  0.2291682E-08  0.3301326E+04  0.7818609E-02  0.8162558E-01
       -1   -1    0    0    0  501  0.00000000000E+00  0.00000000000E+00  0.84154905134E+03  0.84154905136E+03  0.50400001928E-02 0. -1.
        1   -1    0    0  501    0  0.00000000000E+00  0.00000000000E+00 -0.32377062925E+04  0.32377062925E+04  0.50400001928E-02 0.  1.
    10030    2    1    2    0    0  0.00000000000E+00  0.00000000000E+00 -0.23961572411E+04  0.40792553438E+04  0.33013261935E+04 0.  0.
        2    1    3    3  502    0 -0.70115360892E+03 -0.56567746160E+02 -0.30432319285E+04  0.31234719247E+04  0.25500000920E-02 0.  1.
       -2    1    3    3    0  502  0.70115360892E+03  0.56567746160E+02  0.64707468744E+03  0.95578341916E+03  0.25500000920E-02 0. -1.
</event>
<event>
 5   0  0.2309822E-08  0.3300092E+04  0.7818609E-02  0.8162872E-01
        1   -1    0    0  501    0  0.00000000000E+00  0.00000000000E+00  0.12139627226E+04  0.12139627226E+04  0.50400001928E-02 0. -1.
       -1   -1    0    0    0  501  0.00000000000E+00  0.00000000000E+00 -0.22427800557E+04  0.22427800557E+04  0.50400001928E-02 0.  1.
    10030    2    1    2    0    0  0.00000000000E+00  0.00000000000E+00 -0.10288173331E+04  0.34567427783E+04  0.33000917457E+04 0.  0.
        4    1    3    3  502    0  0.36614733653E+03 -0.36955731233E+03  0.11258126822E+04  0.12401984871E+04  0.12699999809E+01 0. -1.
       -4    1    3    3    0  502 -0.36614733653E+03  0.36955731233E+03 -0.21546300153E+04  0.22165442912E+04  0.12699999809E+01 0.  1.
</event>
<event>
 5   0  0.6706080E-08  0.3300660E+04  0.7818609E-02  0.8162728E-01
       -2   -1    0    0    0  501  0.00000000000E+00  0.00000000000E+00  0.15261779308E+04  0.15261779308E+04  0.25500000920E-02 0. -1.
        2   -1    0    0  501    0  0.00000000000E+00  0.00000000000E+00 -0.17845811169E+04  0.17845811169E+04  0.25500000920E-02 0.  1.
    10030    2    1    2    0    0  0.00000000000E+00  0.00000000000E+00 -0.25840318611E+03  0.33107590476E+04  0.33006595197E+04 0.  0.
        4    1    3    3  502    0  0.10407356162E+04  0.10552701110E+04  0.59887136989E+03  0.15985537716E+04  0.12699999809E+01 0. -1.
       -4    1    3    3    0  502 -0.10407356162E+04 -0.10552701110E+04 -0.85727455600E+03  0.17122052760E+04  0.12699999809E+01 0.  1.
</event>
<event>
 5   0  0.6765252E-08  0.3301003E+04  0.7818609E-02  0.8162640E-01
       -2   -1    0    0    0  501  0.00000000000E+00  0.00000000000E+00  0.13515512394E+04  0.13515512394E+04  0.25500000920E-02 0. -1.
        2   -1    0    0  501    0  0.00000000000E+00  0.00000000000E+00 -0.20155762795E+04  0.20155762795E+04  0.25500000920E-02 0.  1.
    10030    2    1    2    0    0  0.00000000000E+00  0.00000000000E+00 -0.66402504010E+03  0.33671275190E+04  0.33010026470E+04 0.  0.
        2    1    3    3  502    0  0.13249965937E+04  0.39095261424E+03  0.58923750267E+03  0.15018857328E+04  0.25500000920E-02 0. -1.
       -2    1    3    3    0  502 -0.13249965937E+04 -0.39095261424E+03 -0.12532625428E+04  0.18652417862E+04  0.25500000920E-02 0.  1.
</event>
<event>
 5   0  0.2383270E-08  0.3299766E+04  0.7818609E-02  0.8162955E-01
        1   -1    0    0  501    0  0.00000000000E+00  0.00000000000E+00  0.28760885778E+04  0.28760885778E+04  0.50400001928E-02 0. -1.
       -1   -1    0    0    0  501  0.00000000000E+00  0.00000000000E+00 -0.94646384046E+03  0.94646384047E+03  0.50400001928E-02 0.  1.
    10030    2    1    2    0    0  0.00000000000E+00  0.00000000000E+00  0.19296247373E+04  0.38225524183E+04  0.32997659559E+04 0.  0.
        5    1    3    3  502    0  0.42344864449E+02  0.13568798026E+03 -0.93934982364E+03  0.95005499668E+03  0.46999998093E+01 0.  1.
       -5    1    3    3    0  502 -0.42344864449E+02 -0.13568798026E+03  0.28689745610E+04  0.28724974216E+04  0.46999998093E+01 0. -1.
</event>
<event>
 5   0  0.6821287E-08  0.3301709E+04  0.7818609E-02  0.8162461E-01
        2   -1    0    0  501    0  0.00000000000E+00  0.00000000000E+00  0.92299263782E+03  0.92299263782E+03  0.25500000920E-02 0.  1.
       -2   -1    0    0    0  501  0.00000000000E+00  0.00000000000E+00 -0.29526995113E+04  0.29526995113E+04  0.25500000920E-02 0. -1.
    10030    2    1    2    0    0  0.00000000000E+00  0.00000000000E+00 -0.20297068735E+04  0.38756921491E+04  0.33017085944E+04 0.  0.
        5    1    3    3  502    0 -0.12535871449E+04  0.10676341497E+04 -0.11536176011E+04  0.20105171143E+04  0.46999998093E+01 0. -1.
       -5    1    3    3    0  502  0.12535871449E+04 -0.10676341497E+04 -0.87608927245E+03  0.18651750349E+04  0.46999998093E+01 0.  1.
</event>
<event>
 5   0  0.6765252E-08  0.3299350E+04  0.7818609E-02  0.8163061E-01
        2   -1    0    0  501    0  0.00000000000E+00  0.00000000000E+00  0.19815612946E+04  0.19815612946E+04  0.25500000920E-02 0.  1.
       -2   -1    0    0    0  501  0.00000000000E+00  0.00000000000E+00 -0.13733751975E+04  0.13733751975E+04  0.25500000920E-02 0. -1.
    10030    2    1    2    0    0  0.00000000000E+00  0.00000000000E+00  0.60818609706E+03  0.33549364921E+04  0.32993497143E+04 0.  0.
        2    1    3    3  502    0 -0.11140341803E+04  0.11752453875E+04 -0.16098193152E+02  0.16194236714E+04  0.25500000920E-02 0. -1.
       -2    1    3    3    0  502  0.11140341803E+04 -0.11752453875E+04  0.62428429021E+03  0.17355128207E+04  0.25500000920E-02 0.  1.
</event>
<event>
 5   0  0.6821287E-08  0.3294256E+04  0.7818609E-02  0.8164359E-01
       -2   -1    0    0    0  501  0.00000000000E+00  0.00000000000E+00  0.15234434048E+04  0.15234434048E+04  0.25500000920E-02 0. -1.
        2   -1    0    0  501    0  0.00000000000E+00  0.00000000000E+00 -0.17808539556E+04  0.17808539556E+04  0.25500000920E-02 0.  1.
    10030    2    1    2    0    0  0.00000000000E+00  0.00000000000E+00 -0.25741055082E+03  0.33042973603E+04  0.32942557359E+04 0.  0.
        5    1    3    3  502    0  0.13536621090E+04  0.80766543695E+03  0.35054142461E+03  0.16148145230E+04  0.46999998093E+01 0. -1.
       -5    1    3    3    0  502 -0.13536621090E+04 -0.80766543695E+03 -0.60795197543E+03  0.16894828373E+04  0.46999998093E+01 0.  1.
</event>
<event>
 5   0  0.2279938E-08  0.3297797E+04  0.7818609E-02  0.8163456E-01
        1   -1    0    0  501    0  0.00000000000E+00  0.00000000000E+00  0.11319958662E+04  0.11319958662E+04  0.50400001928E-02 0. -1.
       -1   -1    0    0    0  501  0.00000000000E+00  0.00000000000E+00 -0.24018346626E+04  0.24018346626E+04  0.50400001928E-02 0.  1.
    10030    2    1    2    0    0  0.00000000000E+00  0.00000000000E+00 -0.12698387964E+04  0.35338305288E+04  0.32977973918E+04 0.  0.
        3    1    3    3  502    0 -0.89267449237E+03 -0.11199667710E+04 -0.15105155503E+04  0.20815500367E+04  0.10100000352E+00 0.  1.
       -3    1    3    3    0  502  0.89267449237E+03  0.11199667710E+04  0.24067675386E+03  0.14522804921E+04  0.10100000352E+00 0. -1.
</event>
<event>
 5   0  0.6603516E-08  0.3301297E+04  0.7818609E-02  0.8162565E-01
        2   -1    0    0  501    0  0.00000000000E+00  0.00000000000E+00  0.28520093436E+04  0.28520093436E+04  0.25500000920E-02 0. -1.
       -2   -1    0    0    0  501  0.00000000000E+00  0.00000000000E+00 -0.95534070460E+03  0.95534070460E+03  0.25500000920E-02 0.  1.
    10030    2    1    2    0    0  0.00000000000E+00  0.00000000000E+00  0.18966686390E+04  0.38073500482E+04  0.33012970880E+04 0.  0.
        1    1    3    3  502    0 -0.87321973101E+03 -0.52175397572E+02  0.25626942754E+04  0.27078842147E+04  0.50400001928E-02 0. -1.
       -1    1    3    3    0  502  0.87321973101E+03  0.52175397572E+02 -0.66602563641E+03  0.10994658335E+04  0.50400001928E-02 0.  1.
</event>
<event>
 5   0  0.2279938E-08  0.3303132E+04  0.7818609E-02  0.8162099E-01
        1   -1    0    0  501    0  0.00000000000E+00  0.00000000000E+00  0.27074681604E+04  0.27074681604E+04  0.50400001928E-02 0.  1.
       -1   -1    0    0    0  501  0.00000000000E+00  0.00000000000E+00 -0.10074616850E+04  0.10074616850E+04  0.50400001928E-02 0. -1.
    10030    2    1    2    0    0  0.00000000000E+00  0.00000000000E+00  0.17000064754E+04  0.37149298455E+04  0.33031321106E+04 0.  0.
        3    1    3    3  502    0 -0.94826899308E+02  0.45226524032E+03  0.26332807015E+04  0.26735188893E+04  0.10100000352E+00 0.  1.
       -3    1    3    3    0  502  0.94826899308E+02 -0.45226524032E+03 -0.93327422604E+03  0.10414109562E+04  0.10100000352E+00 0. -1.
</event>
<event>
 5   0  0.6765252E-08  0.3299179E+04  0.7818609E-02  0.8163104E-01
        2   -1    0    0  501    0  0.00000000000E+00  0.00000000000E+00  0.25652398134E+04  0.25652398134E+04  0.25500000920E-02 0. -1.
       -2   -1    0    0    0  501  0.00000000000E+00  0.00000000000E+00 -0.10607763191E+04  0.10607763191E+04  0.25500000920E-02 0.  1.
    10030    2    1    2    0    0  0.00000000000E+00  0.00000000000E+00  0.15044634943E+04  0.36260161326E+04  0.32991790779E+04 0.  0.
        2    1    3    3  502    0 -0.15068633830E+04  0.21149170946E+02  0.14895578062E+04  0.21189306266E+04  0.25500000920E-02 0. -1.
       -2    1    3    3    0  502  0.15068633830E+04 -0.21149170946E+02  0.14905688079E+02  0.15070855059E+04  0.25500000920E-02 0.  1.
</event>
<event>
 5   0  0.7084130E-08  0.3295002E+04  0.7818609E-02  0.8164168E-01
       -2   -1    0    0    0  501  0.00000000000E+00  0.00000000000E+00  0.11510620696E+04  0.11510620696E+04  0.25500000920E-02 0. -1.
        2   -1    0    0  501    0  0.00000000000E+00  0.00000000000E+00 -0.23580484570E+04  0.23580484570E+04  0.25500000920E-02 0.  1.
    10030    2    1    2    0    0  0.00000000000E+00  0.00000000000E+00 -0.12069863875E+04  0.35091105266E+04  0.32950023594E+04 0.  0.
        3    1    3    3  502    0 -0.34674218924E+03 -0.31384896249E+03 -0.22858674398E+04  0.23332212239E+04  0.10100000352E+00 0.  1.
       -3    1    3    3    0  502  0.34674218924E+03  0.31384896249E+03  0.10788810523E+04  0.11758893027E+04  0.10100000352E+00 0. -1.
</event>
<event>
 5   0  0.6603516E-08  0.3300008E+04  0.7818609E-02  0.8162893E-01
       -2   -1    0    0    0  501  0.00000000000E+00  0.00000000000E+00  0.18035389419E+04  0.18035389419E+04  0.25500000920E-02 0.  1.
        2   -1    0    0  501    0  0.00000000000E+00  0.00000000000E+00 -0.15095394298E+04  0.15095394298E+04  0.25500000920E-02 0. -1.
    10030    2    1    2    0    0  0.00000000000E+00  0.00000000000E+00  0.29399951209E+03  0.33130783717E+04  0.33000079672E+04 0.  0.
        1    1    3    3  502    0 -0.96294997330E+03 -0.89680970787E+03  0.11464187465E+04  0.17452267032E+04  0.50400001928E-02 0.  1.
       -1    1    3    3    0  502  0.96294997330E+03  0.89680970787E+03 -0.85241923440E+03  0.15678516685E+04  0.50400001928E-02 0. -1.
</event>
<event>
 5   0  0.6821287E-08  0.3295801E+04  0.7818609E-02  0.8163965E-01
        2   -1    0    0  501    0  0.00000000000E+00  0.00000000000E+00  0.17138919662E+04  0.17138919662E+04  0.25500000920E-02 0. -1.
       -2   -1    0    0    0  501  0.00000000000E+00  0.00000000000E+00 -0.15844501319E+04  0.15844501319E+04  0.25500000920E-02 0.  1.
    10030    2    1    2    0    0  0.00000000000E+00  0.00000000000E+00  0.12944183430E+03  0.32983420982E+04  0.32958011785E+04 0.  0.
        5    1    3    3  502    0 -0.19085644807E+02 -0.10956542060E+04 -0.11669723671E+04  0.16008338441E+04  0.46999998093E+01 0.  1.
       -5    1    3    3    0  502  0.19085644807E+02  0.10956542060E+04  0.12964142014E+04  0.16975082540E+04  0.46999998093E+01 0. -1.
</event>
<event>
 5   0  0.2309822E-08  0.3300496E+04  0.7818609E-02  0.8162769E-01
        1   -1    0    0  501    0  0.00000000000E+00  0.00000000000E+00  0.17439904254E+04  0.17439904254E+04  0.50400001928E-02 0. -1.
       -1   -1    0    0    0  501  0.00000000000E+00  0.00000000000E+00 -0.15615442407E+04  0.15615442407E+04  0.50400001928E-02 0.  1.
    10030    2    1    2    0    0  0.00000000000E+00  0.00000000000E+00  0.18244618471E+03  0.33055346661E+04  0.33004958444E+04 0.  0.
        4    1    3    3  502    0 -0.13203924436E+04  0.20427295714E+03 -0.87883858758E+03  0.15992256007E+04  0.12699999809E+01 0.  1.
       -4    1    3    3    0  502  0.13203924436E+04 -0.20427295714E+03  0.10612847723E+04  0.17063090654E+04  0.12699999809E+01 0. -1.
</event>
<event>
 5   0  0.2383270E-08  0.3300020E+04  0.7818609E-02  0.8162890E-01
       -1   -1    0    0    0  501  0.00000000000E+00  0.00000000000E+00  0.17848482275E+04  0.17848482275E+04  0.50400001928E-02 0.  1.
        1   -1    0    0  501    0  0.00000000000E+00  0.00000000000E+00 -0.15253581580E+04  0.15253581580E+04  0.50400001928E-02 0. -1.
    10030    2    1    2    0    0  0.00000000000E+00  0.00000000000E+00  0.25949006949E+03  0.33102063855E+04  0.33000198815E+04 0.  0.
        5    1    3    3  502    0 -0.64572689009E+03 -0.12629925104E+04  0.97519751487E+03  0.17213789766E+04  0.46999998093E+01 0.  1.
       -5    1    3    3    0  502  0.64572689009E+03  0.12629925104E+04 -0.71570744538E+03  0.15888274089E+04  0.46999998093E+01 0. -1.
</event>
<event>
 5   0  0.6706080E-08  0.3298994E+04  0.7818609E-02  0.8163151E-01
        2   -1    0    0  501    0  0.00000000000E+00  0.00000000000E+00  0.18392470579E+04  0.18392470579E+04  0.25500000920E-02 0.  1.
       -2   -1    0    0    0  501  0.00000000000E+00  0.00000000000E+00 -0.14793230596E+04  0.14793230596E+04  0.25500000920E-02 0. -1.
    10030    2    1    2    0    0  0.00000000000E+00  0.00000000000E+00  0.35992399836E+03  0.33185701175E+04  0.32989941407E+04 0.  0.
        4    1    3    3  502    0 -0.38438708502E+03 -0.13422852857E+04  0.10634421882E+04  0.17551051592E+04  0.12699999809E+01 0.  1.
       -4    1    3    3    0  502  0.38438708502E+03  0.13422852857E+04 -0.70351818987E+03  0.15634649583E+04  0.12699999809E+01 0. -1.
</event>
<event>
 5   0  0.2309822E-08  0.3300474E+04  0.7818609E-02  0.8162775E-01
       -1   -1    0    0    0  501  0.00000000000E+00  0.00000000000E+00  0.31622096492E+04  0.31622096492E+04  0.50400001928E-02 0.  1.
        1   -1    0    0  501    0  0.00000000000E+00  0.00000000000E+00 -0.86119570308E+03  0.86119570310E+03  0.50400001928E-02 0. -1.
    10030    2    1    2    0    0  0.00000000000E+00  0.00000000000E+00  0.23010139461E+04  0.40234053523E+04  0.33004735189E+04 0.  0.
        4    1    3    3  502    0 -0.10127459729E+04 -0.62611156224E+03 -0.24240673786E+03  0.12150854840E+04  0.12699999809E+01 0. -1.
       -4    1    3    3    0  502  0.10127459729E+04  0.62611156224E+03  0.25434206840E+04  0.28083198683E+04  0.12699999809E+01 0.  1.
</event>
<event>
 5   0  0.2244093E-08  0.3300312E+04  0.7818609E-02  0.8162816E-01
        1   -1    0    0  501    0  0.00000000000E+00  0.00000000000E+00  0.17774451972E+04  0.17774451972E+04  0.50400001928E-02 0. -1.
       -1   -1    0    0    0  501  0.00000000000E+00  0.00000000000E+00 -0.15319825680E+04  0.15319825680E+04  0.50400001928E-02 0.  1.
    10030    2    1    2    0    0  0.00000000000E+00  0.00000000000E+00  0.24546262925E+03  0.33094277652E+04  0.33003121414E+04 0.  0.
        1    1    3    3  502    0  0.58945067992E+03 -0.95217392771E+03 -0.10926095726E+04  0.15645711780E+04  0.50400001928E-02 0.  1.
       -1    1    3    3    0  502 -0.58945067992E+03  0.95217392771E+03  0.13380722019E+04  0.17448565873E+04  0.50400001928E-02 0. -1.
</event>
<event>
 5   0  0.6603516E-08  0.3300674E+04  0.7818609E-02  0.8162724E-01
        2   -1    0    0  501    0  0.00000000000E+00  0.00000000000E+00  0.28878430008E+04  0.28878430008E+04  0.25500000920E-02 0.  1.
       -2   -1    0    0    0  501  0.00000000000E+00  0.00000000000E+00 -0.94313043406E+03  0.94313043406E+03  0.25500000920E-02 0. -1.
    10030    2    1    2    0    0  0.00000000000E+00  0.00000000000E+00  0.19447125667E+04  0.38309734349E+04  0.33006742480E+04 0.  0.
        1    1    3    3  502    0 -0.18185839237E+03  0.11557452094E+04 -0.37860521836E+03  0.12296997094E+04  0.50400001928E-02 0. -1.
       -1    1    3    3    0  502  0.18185839237E+03 -0.11557452094E+04  0.23233177851E+04  0.26012737254E+04  0.50400001928E-02 0.  1.
</event>
<event>
 5   0  0.2383270E-08  0.3300251E+04  0.7818609E-02  0.8162831E-01
        1   -1    0    0  501    0  0.00000000000E+00  0.00000000000E+00  0.16100432546E+04  0.16100432547E+04  0.50400001928E-02 0.  1.
       -1   -1    0    0    0  501  0.00000000000E+00  0.00000000000E+00 -0.16912058950E+04  0.16912058950E+04  0.50400001928E-02 0. -1.
    10030    2    1    2    0    0  0.00000000000E+00  0.00000000000E+00 -0.81162640341E+02  0.33012491496E+04  0.33002512895E+04 0.  0.
        5    1    3    3  502    0  0.62925843176E+02 -0.13600770529E+02 -0.16899424796E+04  0.16911748334E+04  0.46999998093E+01 0. -1.
       -5    1    3    3    0  502 -0.62925843176E+02  0.13600770529E+02  0.16087798393E+04  0.16100743163E+04  0.46999998093E+01 0.  1.
</event>
<event>
 5   0  0.6706080E-08  0.3302770E+04  0.7818609E-02  0.8162191E-01
       -2   -1    0    0    0  501  0.00000000000E+00  0.00000000000E+00  0.13694574762E+04  0.13694574762E+04  0.25500000920E-02 0. -1.
        2   -1    0    0  501    0  0.00000000000E+00  0.00000000000E+00 -0.19913517976E+04  0.19913517976E+04  0.25500000920E-02 0.  1.
    10030    2    1    2    0    0  0.00000000000E+00  0.00000000000E+00 -0.62189432141E+03  0.33608092738E+04  0.33027695088E+04 0.  0.
        4    1    3    3  502    0  0.93021315097E+03 -0.10837842136E+04  0.53258669908E+03  0.15243145781E+04  0.12699999809E+01 0. -1.
       -4    1    3    3    0  502 -0.93021315097E+03  0.10837842136E+04 -0.11544810205E+04  0.18364946957E+04  0.12699999809E+01 0.  1.
</event>
<event>
 5   0  0.6603516E-08  0.3298173E+04  0.7818609E-02  0.8163360E-01
       -2   -1    0    0    0  501  0.00000000000E+00  0.00000000000E+00  0.14415479845E+04  0.14415479845E+04  0.25500000920E-02 0. -1.
        2   -1    0    0  501    0  0.00000000000E+00  0.00000000000E+00 -0.18865045491E+04  0.18865045491E+04  0.25500000920E-02 0.  1.
    10030    2    1    2    0    0  0.00000000000E+00  0.00000000000E+00 -0.44495656458E+03  0.33280525336E+04  0.32981733311E+04 0.  0.
        1    1    3    3  502    0  0.63616564857E+03  0.93010531408E+03  0.99245771680E+03  0.15015908056E+04  0.50400001928E-02 0. -1.
       -1    1    3    3    0  502 -0.63616564857E+03 -0.93010531408E+03 -0.14374142814E+04  0.18264617280E+04  0.50400001928E-02 0.  1.
</event>
<event>
 5   0  0.7084130E-08  0.3303266E+04  0.7818609E-02  0.8162065E-01
        2   -1    0    0  501    0  0.00000000000E+00  0.00000000000E+00  0.14626312776E+04  0.14626312776E+04  0.25500000920E-02 0.  1.
       -2   -1    0    0    0  501  0.00000000000E+00  0.00000000000E+00 -0.18650576475E+04  0.18650576475E+04  0.25500000920E-02 0. -1.
    10030    2    1    2    0    0  0.00000000000E+00  0.00000000000E+00 -0.40242636987E+03  0.33276889251E+04  0.33032660503E+04 0.  0.
        3    1    3    3  502    0  0.10218156145E+04 -0.18561268413E+03  0.10925454621E+04  0.15073867505E+04  0.10100000352E+00 0.  1.
       -3    1    3    3    0  502 -0.10218156145E+04  0.18561268413E+03 -0.14949718320E+04  0.18203021747E+04  0.10100000352E+00 0. -1.
</event>
<event>
 5   0  0.6765252E-08  0.3300291E+04  0.7818609E-02  0.8162821E-01
       -2   -1    0    0    0  501  0.00000000000E+00  0.00000000000E+00  0.89364741924E+03  0.89364741925E+03  0.25500000920E-02 0.  1.
        2   -1    0    0  501    0  0.00000000000E+00  0.00000000000E+00 -0.30470399874E+04  0.30470399874E+04  0.25500000920E-02 0. -1.
    10030    2    1    2    0    0  0.00000000000E+00  0.00000000000E+00 -0.21533925681E+04  0.39406874066E+04  0.33002905454E+04 0.  0.
        2    1    3    3  502    0 -0.44983970262E+03 -0.15787009094E+04 -0.12776614942E+04  0.20801613431E+04  0.25500000920E-02 0.  1.
       -2    1    3    3    0  502  0.44983970262E+03  0.15787009094E+04 -0.87573107394E+03  0.18605260636E+04  0.25500000920E-02 0. -1.
</event>
<event>
 5   0  0.6603516E-08  0.3300664E+04  0.7818609E-02  0.8162727E-01
       -2   -1    0    0    0  501  0.00000000000E+00  0.00000000000E+00  0.98088056402E+03  0.98088056402E+03  0.25500000920E-02 0. -1.
        2   -1    0    0  501    0  0.00000000000E+00  0.00000000000E+00 -0.27766836900E+04  0.27766836900E+04  0.25500000920E-02 0.  1.
    10030    2    1    2    0    0  0.00000000000E+00  0.00000000000E+00 -0.17958031259E+04  0.37575642540E+04  0.33006636084E+04 0.  0.
        1    1    3    3  502    0  0.70675158971E+03  0.14721763459E+04 -0.11692058225E+04  0.20084429936E+04  0.50400001928E-02 0.  1.
       -1    1    3    3    0  502 -0.70675158971E+03 -0.14721763459E+04 -0.62659730343E+03  0.17491212604E+04  0.50400001928E-02 0. -1.
</event>
<event>
 5   0  0.6821287E-08  0.3300187E+04  0.7818609E-02  0.8162848E-01
        2   -1    0    0  501    0  0.00000000000E+00  0.00000000000E+00  0.18602892805E+04  0.18602892805E+04  0.25500000920E-02 0. -1.
       -2   -1    0    0    0  501  0.00000000000E+00  0.00000000000E+00 -0.14636475358E+04  0.14636475358E+04  0.25500000920E-02 0.  1.
    10030    2    1    2    0    0  0.00000000000E+00  0.00000000000E+00  0.39664174474E+03  0.33239368163E+04  0.33001865531E+04 0.  0.
        5    1    3    3  502    0  0.66792518336E+03  0.53205460723E+03 -0.12237821429E+04  0.14922704108E+04  0.46999998093E+01 0.  1.
       -5    1    3    3    0  502 -0.66792518336E+03 -0.53205460723E+03  0.16204238876E+04  0.18316664055E+04  0.46999998093E+01 0. -1.
</event>
<event>
 5   0  0.6765252E-08  0.3299993E+04  0.7818609E-02  0.8162897E-01
       -2   -1    0    0    0  501  0.00000000000E+00  0.00000000000E+00  0.14126757552E+04  0.14126757553E+04  0.25500000920E-02 0.  1.
        2   -1    0    0  501    0  0.00000000000E+00  0.00000000000E+00 -0.19271857324E+04  0.19271857324E+04  0.25500000920E-02 0. -1.
    10030    2    1    2    0    0  0.00000000000E+00  0.00000000000E+00 -0.51450997716E+03  0.33398614877E+04  0.32999930667E+04 0.  0.
        2    1    3    3  502    0  0.14340300194E+04 -0.78408149046E+03 -0.28106983101E+02  0.16346301975E+04  0.25500000920E-02 0.  1.
       -2    1    3    3    0  502 -0.14340300194E+04  0.78408149046E+03 -0.48640299406E+03  0.17052312901E+04  0.25500000920E-02 0. -1.
</event>
<event>
 5   0  0.2279938E-08  0.3299925E+04  0.7818609E-02  0.8162915E-01
       -1   -1    0    0    0  501  0.00000000000E+00  0.00000000000E+00  0.18488852656E+04  0.18488852656E+04  0.50400001928E-02 0. -1.
        1   -1    0    0  501    0  0.00000000000E+00  0.00000000000E+00 -0.14724417562E+04  0.14724417562E+04  0.50400001928E-02 0.  1.
    10030    2    1    2    0    0  0.00000000000E+00  0.00000000000E+00  0.37644350946E+03  0.33213270218E+04  0.32999247673E+04 0.  0.
        3    1    3    3  502    0 -0.12660189174E+04  0.52193453348E+03 -0.73815867702E+03  0.15556663521E+04  0.10100000352E+00 0.  1.
       -3    1    3    3    0  502  0.12660189174E+04 -0.52193453348E+03  0.11146021865E+04  0.17656606697E+04  0.10100000352E+00 0. -1.
</event>
<event>
 5   0  0.2244093E-08  0.3300229E+04  0.7818609E-02  0.8162837E-01
        1   -1    0    0  501    0  0.00000000000E+00  0.00000000000E+00  0.11044388745E+04  0.11044388745E+04  0.50400001928E-02 0. -1.
       -1   -1    0    0    0  501  0.00000000000E+00  0.00000000000E+00 -0.24653955450E+04  0.24653955451E+04  0.50400001928E-02 0.  1.
    10030    2    1    2    0    0  0.00000000000E+00  0.00000000000E+00 -0.13609566705E+04  0.35698344196E+04  0.33002294957E+04 0.  0.
        1    1    3    3  502    0  0.11685752990E+04  0.10105892396E+04 -0.53451119211E+02  0.15458705841E+04  0.50400001928E-02 0. -1.
       -1    1    3    3    0  502 -0.11685752990E+04 -0.10105892396E+04 -0.13075055513E+04  0.20239638355E+04  0.50400001928E-02 0.  1.
</event>
<event>
 5   0  0.6765252E-08  0.3299690E+04  0.7818609E-02  0.8162974E-01
        2   -1    0    0  501    0  0.00000000000E+00  0.00000000000E+00  0.14026366426E+04  0.14026366426E+04  0.25500000920E-02 0.  1.
       -2   -1    0    0    0  501  0.00000000000E+00  0.00000000000E+00 -0.19406224040E+04  0.19406224040E+04  0.25500000920E-02 0. -1.
    10030    2    1    2    0    0  0.00000000000E+00  0.00000000000E+00 -0.53798576136E+03  0.33432590466E+04  0.32996897390E+04 0.  0.
        2    1    3    3  502    0 -0.13157351602E+04 -0.77820006567E+03  0.35987451709E+03  0.15704343419E+04  0.25500000920E-02 0.  1.
       -2    1    3    3    0  502  0.13157351602E+04  0.77820006567E+03 -0.89786027846E+03  0.17728247047E+04  0.25500000920E-02 0. -1.
</event>
<event>
 5   0  0.6821287E-08  0.3303045E+04  0.7818609E-02  0.8162121E-01
        2   -1    0    0  501    0  0.00000000000E+00  0.00000000000E+00  0.25416856851E+04  0.25416856851E+04  0.25500000920E-02 0. -1.
       -2   -1    0    0    0  501  0.00000000000E+00  0.00000000000E+00 -0.10731174140E+04  0.10731174140E+04  0.25500000920E-02 0.  1.
    10030    2    1    2    0    0  0.00000000000E+00  0.00000000000E+00  0.14685682711E+04  0.36148030991E+04  0.33030453643E+04 0.  0.
        5    1    3    3  502    0  0.16248746382E+04 -0.20264147123E+03  0.49899411234E+03  0.17118114294E+04  0.46999998093E+01 0.  1.
       -5    1    3    3    0  502 -0.16248746382E+04  0.20264147123E+03  0.96957415876E+03  0.19029916697E+04  0.46999998093E+01 0. -1.
</event>
<event>
 5   0  0.6821287E-08  0.3297848E+04  0.7818609E-02  0.8163443E-01
        2   -1    0    0  501    0  0.00000000000E+00  0.00000000000E+00  0.15181252436E+04  0.15181252436E+04  0.25500000920E-02 0.  1.
       -2   -1    0    0    0  501  0.00000000000E+00  0.00000000000E+00 -0.17909916935E+04  0.17909916935E+04  0.25500000920E-02 0. -1.
    10030    2    1    2    0    0  0.00000000000E+00  0.00000000000E+00 -0.27286644992E+03  0.33091169371E+04  0.32978476017E+04 0.  0.
        5    1    3    3  502    0  0.11725747261E+04  0.95280434376E+03 -0.79911412250E+03  0.17092024680E+04  0.46999998093E+01 0. -1.
       -5    1    3    3    0  502 -0.11725747261E+04 -0.95280434376E+03  0.52624767258E+03  0.15999144691E+04  0.46999998093E+01 0.  1.
</event>
<event>
 5   0  0.2309822E-08  0.3300531E+04  0.7818609E-02  0.8162760E-01
       -1   -1    0    0    0  501  0.00000000000E+00  0.00000000000E+00  0.12184326798E+04  0.12184326799E+04  0.50400001928E-02 0. -1.
        1   -1    0    0  501    0  0.00000000000E+00  0.00000000000E+00 -0.22351476424E+04  0.22351476424E+04  0.50400001928E-02 0.  1.
    10030    2    1    2    0    0  0.00000000000E+00  0.00000000000E+00 -0.10167149626E+04  0.34535803223E+04  0.33005314310E+04 0.  0.
        4    1    3    3  502    0  0.92638066572E+03  0.32144192135E+03 -0.18972624415E+04  0.21356761064E+04  0.12699999809E+01 0.  1.
       -4    1    3    3    0  502 -0.92638066572E+03 -0.32144192135E+03  0.88054747894E+03  0.13179042159E+04  0.12699999809E+01 0. -1.
</event>
<event>
 5   0  0.2383270E-08  0.3300465E+04  0.7818609E-02  0.8162777E-01
        1   -1    0    0  501    0  0.00000000000E+00  0.00000000000E+00  0.22837703244E+04  0.22837703244E+04  0.50400001928E-02 0. -1.
       -1   -1    0    0    0  501  0.00000000000E+00  0.00000000000E+00 -0.11924436666E+04  0.11924436666E+04  0.50400001928E-02 0.  1.
    10030    2    1    2    0    0  0.00000000000E+00  0.00000000000E+00  0.10913266578E+04  0.34762139910E+04  0.33004650940E+04 0.  0.
        5    1    3    3  502    0 -0.53790865382E+03  0.68094978761E+03  0.20240474595E+04  0.22022326265E+04  0.46999998093E+01 0. -1.
       -5    1    3    3    0  502  0.53790865382E+03 -0.68094978761E+03 -0.93272080168E+03  0.12739813645E+04  0.46999998093E+01 0.  1.
</event>
<event>
 5   0  0.6603516E-08  0.3299116E+04  0.7818609E-02  0.8163120E-01
        2   -1    0    0  501    0  0.00000000000E+00  0.00000000000E+00  0.22921082268E+04  0.22921082268E+04  0.25500000920E-02 0. -1.
       -2   -1    0    0    0  501  0.00000000000E+00  0.00000000000E+00 -0.11871347417E+04  0.11871347417E+04  0.25500000920E-02 0.  1.
    10030    2    1    2    0    0  0.00000000000E+00  0.00000000000E+00  0.11049734850E+04  0.34792429685E+04  0.32991158257E+04 0.  0.
        1    1    3    3  502    0  0.66137884182E+03  0.15010210542E+03 -0.10333044238E+04  0.12359897438E+04  0.50400001928E-02 0.  1.
       -1    1    3    3    0  502 -0.66137884182E+03 -0.15010210542E+03  0.21382779089E+04  0.22432532247E+04  0.50400001928E-02 0. -1.
</event>
<event>
 5   0  0.6706080E-08  0.3304285E+04  0.7818609E-02  0.8161806E-01
        2   -1    0    0  501    0  0.00000000000E+00  0.00000000000E+00  0.23830492846E+04  0.23830492846E+04  0.25500000920E-02 0. -1.
       -2   -1    0    0    0  501  0.00000000000E+00  0.00000000000E+00 -0.11454125399E+04  0.11454125399E+04  0.25500000920E-02 0.  1.
    10030    2    1    2    0    0  0.00000000000E+00  0.00000000000E+00  0.12376367447E+04  0.35284618245E+04  0.33042848144E+04 0.  0.
        4    1    3    3  502    0 -0.14942035264E+04  0.47807720162E+03  0.11720101109E+04  0.19582674235E+04  0.12699999809E+01 0. -1.
       -4    1    3    3    0  502  0.14942035264E+04 -0.47807720162E+03  0.65626633818E+02  0.15701944010E+04  0.12699999809E+01 0.  1.
</event>
<event>
 5   0  0.6765252E-08  0.3289355E+04  0.7818609E-02  0.8165609E-01
        2   -1    0    0  501    0  0.00000000000E+00  0.00000000000E+00  0.20695189679E+04  0.20695189679E+04  0.25500000920E-02 0.  1.
       -2   -1    0    0    0  501  0.00000000000E+00  0.00000000000E+00 -0.13070498059E+04  0.13070498059E+04  0.25500000920E-02 0. -1.
    10030    2    1    2    0    0  0.00000000000E+00  0.00000000000E+00  0.76246916197E+03  0.33765687738E+04  0.32893551741E+04 0.  0.
        2    1    3    3  502    0 -0.50899323750E+03 -0.26529317987E+03 -0.12008993378E+04  0.13310198370E+04  0.25500000920E-02 0. -1.
       -2    1    3    3    0  502  0.50899323750E+03  0.26529317987E+03  0.19633684997E+04  0.20455489368E+04  0.25500000920E-02 0.  1.
</event>
<event>
 5   0  0.6765252E-08  0.3297621E+04  0.7818609E-02  0.8163501E-01
        2   -1    0    0  501    0  0.00000000000E+00  0.00000000000E+00  0.24481840957E+04  0.24481840957E+04  0.25500000920E-02 0. -1.
       -2   -1    0    0    0  501  0.00000000000E+00  0.00000000000E+00 -0.11104462285E+04  0.11104462285E+04  0.25500000920E-02 0.  1.
    10030    2    1    2    0    0  0.00000000000E+00  0.00000000000E+00  0.13377378672E+04  0.35586303242E+04  0.32976214433E+04 0.  0.
        2    1    3    3  502    0 -0.13001622701E+04 -0.92860785984E+03  0.11083394517E+04  0.19445181476E+04  0.25500000920E-02 0. -1.
       -2    1    3    3    0  502  0.13001622701E+04  0.92860785984E+03  0.22939841550E+03  0.16141121767E+04  0.25500000920E-02 0.  1.
</event>
<event>
 5   0  0.2291682E-08  0.3299578E+04  0.7818609E-02  0.8163003E-01
        1   -1    0    0  501    0  0.00000000000E+00  0.00000000000E+00  0.15555261797E+04  0.15555261797E+04  0.50400001928E-02 0.  1.
       -1   -1    0    0    0  501  0.00000000000E+00  0.00000000000E+00 -0.17497640412E+04  0.17497640412E+04  0.50400001928E-02 0. -1.
    10030    2    1    2    0    0  0.00000000000E+00  0.00000000000E+00 -0.19423786145E+03  0.33052902209E+04  0.32995780181E+04 0.  0.
        2    1    3    3  502    0  0.87416940788E+03 -0.14078812958E+03  0.12973435371E+04  0.15706984766E+04  0.25500000920E-02 0.  1.
       -2    1    3    3    0  502 -0.87416940788E+03  0.14078812958E+03 -0.14915813985E+04  0.17345917443E+04  0.25500000920E-02 0. -1.
</event>
<event>
 5   0  0.2279938E-08  0.3300370E+04  0.7818609E-02  0.8162801E-01
       -1   -1    0    0    0  501  0.00000000000E+00  0.00000000000E+00  0.21150732509E+04  0.21150732509E+04  0.50400001928E-02 0.  1.
        1   -1    0    0  501    0  0.00000000000E+00  0.00000000000E+00 -0.12874784263E+04  0.12874784263E+04  0.50400001928E-02 0. -1.
    10030    2    1    2    0    0  0.00000000000E+00  0.00000000000E+00  0.82759482459E+03  0.34025516771E+04  0.33003703916E+04 0.  0.
        3    1    3    3  502    0 -0.15564025422E+04 -0.53802469712E+03  0.52315566177E+03  0.17278747943E+04  0.10100000352E+00 0. -1.
       -3    1    3    3    0  502  0.15564025422E+04  0.53802469712E+03  0.30443916282E+03  0.16746768829E+04  0.10100000352E+00 0.  1.
</event>
<event>
 5   0  0.6821287E-08  0.3300416E+04  0.7818609E-02  0.8162790E-01
       -2   -1    0    0    0  501  0.00000000000E+00  0.00000000000E+00  0.18587373350E+04  0.18587373350E+04  0.25500000920E-02 0.  1.
        2   -1    0    0  501    0  0.00000000000E+00  0.00000000000E+00 -0.14650732018E+04  0.14650732018E+04  0.25500000920E-02 0. -1.
    10030    2    1    2    0    0  0.00000000000E+00  0.00000000000E+00  0.39366413319E+03  0.33238105368E+04  0.33004158881E+04 0.  0.
        5    1    3    3  502    0  0.12062615261E+04 -0.67920654355E+03 -0.70774175375E+03  0.15547697187E+04  0.46999998093E+01 0. -1.
       -5    1    3    3    0  502 -0.12062615261E+04  0.67920654355E+03  0.11014058869E+04  0.17690408181E+04  0.46999998093E+01 0.  1.
</event>
<event>
 5   0  0.6603516E-08  0.3299908E+04  0.7818609E-02  0.8162919E-01
       -2   -1    0    0    0  501  0.00000000000E+00  0.00000000000E+00  0.14454534878E+04  0.14454534878E+04  0.25500000920E-02 0. -1.
        2   -1    0    0  501    0  0.00000000000E+00  0.00000000000E+00 -0.18833869844E+04  0.18833869844E+04  0.25500000920E-02 0.  1.
    10030    2    1    2    0    0  0.00000000000E+00  0.00000000000E+00 -0.43793349667E+03  0.33288404722E+04  0.32999080505E+04 0.  0.
        1    1    3    3  502    0  0.37373835636E+03 -0.10050206674E+04 -0.14839957178E+04  0.18308441199E+04  0.50400001928E-02 0.  1.
       -1    1    3    3    0  502 -0.37373835636E+03  0.10050206674E+04  0.10460622212E+04  0.14979963523E+04  0.50400001928E-02 0. -1.
</event>
<event>
 5   0  0.2309822E-08  0.3299946E+04  0.7818609E-02  0.8162909E-01
        1   -1    0    0  501    0  0.00000000000E+00  0.00000000000E+00  0.20271896337E+04  0.20271896337E+04  0.50400001928E-02 0. -1.
       -1   -1    0    0    0  501  0.00000000000E+00  0.00000000000E+00 -0.13429485672E+04  0.13429485672E+04  0.50400001928E-02 0.  1.
    10030    2    1    2    0    0  0.00000000000E+00  0.00000000000E+00  0.68424106650E+03  0.33701382010E+04  0.32999463112E+04 0.  0.
        4    1    3    3  502    0  0.47098182127E+03 -0.60304428961E+03  0.18350363699E+04  0.19881766478E+04  0.12699999809E+01 0. -1.
       -4    1    3    3    0  502 -0.47098182127E+03  0.60304428961E+03 -0.11507953034E+04  0.13819615532E+04  0.12699999809E+01 0.  1.
</event>
<event>
 5   0  0.2279938E-08  0.3299766E+04  0.7818609E-02  0.8162955E-01
       -1   -1    0    0    0  501  0.00000000000E+00  0.00000000000E+00  0.15368135099E+04  0.15368135099E+04  0.50400001928E-02 0. -1.
        1   -1    0    0  501    0  0.00000000000E+00  0.00000000000E+00 -0.17712713032E+04  0.17712713032E+04  0.50400001928E-02 0.  1.
    10030    2    1    2    0    0  0.00000000000E+00  0.00000000000E+00 -0.23445779328E+03  0.33080848131E+04  0.32997658514E+04 0.  0.
        3    1    3    3  502    0 -0.77454534545E+02 -0.26935370664E+03 -0.17472316834E+04  0.17695675149E+04  0.10100000352E+00 0.  1.
       -3    1    3    3    0  502  0.77454534545E+02  0.26935370664E+03  0.15127738901E+04  0.15385172982E+04  0.10100000352E+00 0. -1.
</event>
<event>
 5   0  0.6821287E-08  0.3291501E+04  0.7818609E-02  0.8165061E-01
        2   -1    0    0  501    0  0.00000000000E+00  0.00000000000E+00  0.22125354959E+04  0.22125354959E+04  0.25500000920E-02 0. -1.
       -2   -1    0    0    0  501  0.00000000000E+00  0.00000000000E+00 -0.12241585806E+04  0.12241585806E+04  0.25500000920E-02 0.  1.
    10030    2    1    2    0    0  0.00000000000E+00  0.00000000000E+00  0.98837691532E+03  0.34366940765E+04  0.32915007593E+04 0.  0.
        5    1    3    3  502    0 -0.37807102274E+03  0.86956929390E+03 -0.91028087177E+03  0.13144283208E+04  0.46999998093E+01 0.  1.
       -5    1    3    3    0  502  0.37807102274E+03 -0.86956929390E+03  0.18986577871E+04  0.21222657556E+04  0.46999998093E+01 0. -1.
</event>
<event>
 5   0  0.6821287E-08  0.3300874E+04  0.7818609E-02  0.8162673E-01
       -2   -1    0    0    0  501  0.00000000000E+00  0.00000000000E+00  0.21368762700E+04  0.21368762700E+04  0.25500000920E-02 0. -1.
        2   -1    0    0  501    0  0.00000000000E+00  0.00000000000E+00 -0.12747305972E+04  0.12747305972E+04  0.25500000920E-02 0.  1.
    10030    2    1    2    0    0  0.00000000000E+00  0.00000000000E+00  0.86214567273E+03  0.34116068672E+04  0.33008735594E+04 0.  0.
        5    1    3    3  502    0  0.32723041823E+03  0.20364001547E+03 -0.12275588083E+04  0.12866513593E+04  0.46999998093E+01 0.  1.
       -5    1    3    3    0  502 -0.32723041823E+03 -0.20364001547E+03  0.20897044810E+04  0.21249555079E+04  0.46999998093E+01 0. -1.
</event>
<event>
 5   0  0.6765252E-08  0.3300457E+04  0.7818609E-02  0.8162779E-01
       -2   -1    0    0    0  501  0.00000000000E+00  0.00000000000E+00  0.16914401345E+04  0.16914401345E+04  0.25500000920E-02 0. -1.
        2   -1    0    0  501    0  0.00000000000E+00  0.00000000000E+00 -0.16100207178E+04  0.16100207178E+04  0.25500000920E-02 0.  1.
    10030    2    1    2    0    0  0.00000000000E+00  0.00000000000E+00  0.81419416702E+02  0.33014608523E+04  0.33004567317E+04 0.  0.
        2    1    3    3  502    0  0.70817516103E+03 -0.14480885376E+04  0.39406098659E+03  0.16594446458E+04  0.25500000920E-02 0. -1.
       -2    1    3    3    0  502 -0.70817516103E+03  0.14480885376E+04 -0.31264156989E+03  0.16420162065E+04  0.25500000920E-02 0.  1.
</event>
<event>
 5   0  0.6706080E-08  0.3300013E+04  0.7818609E-02  0.8162892E-01
        2   -1    0    0  501    0  0.00000000000E+00  0.00000000000E+00  0.17905197072E+04  0.17905197072E+04  0.25500000920E-02 0.  1.
       -2   -1    0    0    0  501  0.00000000000E+00  0.00000000000E+00 -0.15205203012E+04  0.15205203012E+04  0.25500000920E-02 0. -1.
    10030    2    1    2    0    0  0.00000000000E+00  0.00000000000E+00  0.26999940607E+03  0.33110400084E+04  0.33000130693E+04 0.  0.
        4    1    3    3  502    0  0.16101176933E+04  0.67277207184E+02  0.49046412455E+03  0.16845064201E+04  0.12699999809E+01 0.  1.
       -4    1    3    3    0  502 -0.16101176933E+04 -0.67277207184E+02 -0.22046471848E+03  0.16265335883E+04  0.12699999809E+01 0. -1.
</event>
<event>
 5   0  0.2244093E-08  0.3300504E+04  0.7818609E-02  0.8162767E-01
       -1   -1    0    0    0  501  0.00000000000E+00  0.00000000000E+00  0.19818135806E+04  0.19818135806E+04  0.50400001928E-02 0. -1.
        1   -1    0    0  501    0  0.00000000000E+00  0.00000000000E+00 -0.13741616612E+04  0.13741616612E+04  0.50400001928E-02 0.  1.
    10030    2    1    2    0    0  0.00000000000E+00  0.00000000000E+00  0.60765191941E+03  0.33559752419E+04  0.33005043507E+04 0.  0.
        1    1    3    3  502    0 -0.31906999149E+03 -0.15231554696E+04  0.86216678006E+03  0.17790839780E+04  0.50400001928E-02 0. -1.
       -1    1    3    3    0  502  0.31906999149E+03  0.15231554696E+04 -0.25451486065E+03  0.15768912639E+04  0.50400001928E-02 0.  1.
</event>
<event>
 5   0  0.2244093E-08  0.3298437E+04  0.7818609E-02  0.8163293E-01
        1   -1    0    0  501    0  0.00000000000E+00  0.00000000000E+00  0.19318604879E+04  0.19318604879E+04  0.50400001928E-02 0. -1.
       -1   -1    0    0    0  501  0.00000000000E+00  0.00000000000E+00 -0.14079287184E+04  0.14079287184E+04  0.50400001928E-02 0.  1.
    10030    2    1    2    0    0  0.00000000000E+00  0.00000000000E+00  0.52393176948E+03  0.33397892063E+04  0.32984371213E+04 0.  0.
        1    1    3    3  502    0 -0.11214839220E+04  0.43293254735E+03  0.14051756537E+04  0.18492364358E+04  0.50400001928E-02 0. -1.
       -1    1    3    3    0  502  0.11214839220E+04 -0.43293254735E+03 -0.88124388423E+03  0.14905527704E+04  0.50400001928E-02 0.  1.
</event>
<event>
 5   0  0.2279938E-08  0.3299285E+04  0.7818609E-02  0.8163077E-01
       -1   -1    0    0    0  501  0.00000000000E+00  0.00000000000E+00  0.18113892494E+04  0.18113892494E+04  0.50400001928E-02 0.  1.
        1   -1    0    0  501    0  0.00000000000E+00  0.00000000000E+00 -0.15023386995E+04  0.15023386995E+04  0.50400001928E-02 0. -1.
    10030    2    1    2    0    0  0.00000000000E+00  0.00000000000E+00  0.30905054992E+03  0.33137279489E+04  0.32992848736E+04 0.  0.
        3    1    3    3  502    0 -0.11829341270E+04  0.95766110674E+03 -0.48455589504E+03  0.15972608960E+04  0.10100000352E+00 0. -1.
       -3    1    3    3    0  502  0.11829341270E+04 -0.95766110674E+03  0.79360644497E+03  0.17164670529E+04  0.10100000352E+00 0.  1.
</event>
<event>
 5   0  0.6603516E-08  0.3295085E+04  0.7818609E-02  0.8164147E-01
       -2   -1    0    0    0  501  0.00000000000E+00  0.00000000000E+00  0.11541404952E+04  0.11541404952E+04  0.25500000920E-02 0. -1.
        2   -1    0    0  501    0  0.00000000000E+00  0.00000000000E+00 -0.23518767509E+04  0.23518767509E+04  0.25500000920E-02 0.  1.
    10030    2    1    2    0    0  0.00000000000E+00  0.00000000000E+00 -0.11977362557E+04  0.35060172461E+04  0.32950849445E+04 0.  0.
        1    1    3    3  502    0  0.13164963789E+03 -0.16365683820E+04 -0.74440295668E+03  0.18027266731E+04  0.50400001928E-02 0.  1.
       -1    1    3    3    0  502 -0.13164963789E+03  0.16365683820E+04 -0.45333329902E+03  0.17032905730E+04  0.50400001928E-02 0. -1.
</event>
<event>
 5   0  0.6706080E-08  0.3296339E+04  0.7818609E-02  0.8163827E-01
        2   -1    0    0  501    0  0.00000000000E+00  0.00000000000E+00  0.30422247369E+04  0.30422247369E+04  0.25500000920E-02 0.  1.
       -2   -1    0    0    0  501  0.00000000000E+00  0.00000000000E+00 -0.89291999939E+03  0.89291999939E+03  0.25500000920E-02 0. -1.
    10030    2    1    2    0    0  0.00000000000E+00  0.00000000000E+00  0.21493047375E+04  0.39351447363E+04  0.32963393698E+04 0.  0.
        4    1    3    3  502    0 -0.11371290683E+04  0.78885906111E+03  0.61578196156E+01  0.13839800100E+04  0.12699999809E+01 0. -1.
       -4    1    3    3    0  502  0.11371290683E+04 -0.78885906111E+03  0.21431469179E+04  0.25511647264E+04  0.12699999809E+01 0.  1.
</event>
<event>
 5   0  0.2309822E-08  0.3297524E+04  0.7818609E-02  0.8163526E-01
       -1   -1    0    0    0  501  0.00000000000E+00  0.00000000000E+00  0.11401715622E+04  0.11401715622E+04  0.50400001928E-02 0. -1.
        1   -1    0    0  501    0  0.00000000000E+00  0.00000000000E+00 -0.23842168081E+04  0.23842168081E+04  0.50400001928E-02 0.  1.
    10030    2    1    2    0    0  0.00000000000E+00  0.00000000000E+00 -0.12440452459E+04  0.35243883702E+04  0.32975240424E+04 0.  0.
        4    1    3    3  502    0 -0.94562465911E+03  0.11908489218E+04  0.59069044465E+02  0.15217811654E+04  0.12699999809E+01 0.  1.
       -4    1    3    3    0  502  0.94562465911E+03 -0.11908489218E+04 -0.13031142904E+04  0.20026072049E+04  0.12699999809E+01 0. -1.
</event>
<event>
 5   0  0.2383270E-08  0.3300675E+04  0.7818609E-02  0.8162724E-01
        1   -1    0    0  501    0  0.00000000000E+00  0.00000000000E+00  0.22543726719E+04  0.22543726719E+04  0.50400001928E-02 0.  1.
       -1   -1    0    0    0  501  0.00000000000E+00  0.00000000000E+00 -0.12081470008E+04  0.12081470008E+04  0.50400001928E-02 0. -1.
    10030    2    1    2    0    0  0.00000000000E+00  0.00000000000E+00  0.10462256711E+04  0.34625196726E+04  0.33006748293E+04 0.  0.
        5    1    3    3  502    0 -0.55205054781E+03 -0.43634292087E+03 -0.10428795420E+04  0.12580837735E+04  0.46999998093E+01 0. -1.
       -5    1    3    3    0  502  0.55205054781E+03  0.43634292087E+03  0.20891052131E+04  0.22044358991E+04  0.46999998093E+01 0.  1.
</event>
<event>
 5   0  0.6603516E-08  0.3300164E+04  0.7818609E-02  0.8162854E-01
       -2   -1    0    0    0  501  0.00000000000E+00  0.00000000000E+00  0.17231468040E+04  0.17231468040E+04  0.25500000920E-02 0. -1.
        2   -1    0    0  501    0  0.00000000000E+00  0.00000000000E+00 -0.15801151392E+04  0.15801151392E+04  0.25500000920E-02 0.  1.
    10030    2    1    2    0    0  0.00000000000E+00  0.00000000000E+00  0.14303166478E+03  0.33032619432E+04  0.33001638456E+04 0.  0.
        1    1    3    3  502    0  0.15102759229E+04  0.36842261609E+03  0.62529986373E+03  0.16756098910E+04  0.50400001928E-02 0. -1.
       -1    1    3    3    0  502 -0.15102759229E+04 -0.36842261609E+03 -0.48226819895E+03  0.16276520522E+04  0.50400001928E-02 0.  1.
</event>
<event>
 5   0  0.2279938E-08  0.3296570E+04  0.7818609E-02  0.8163769E-01
        1   -1    0    0  501    0  0.00000000000E+00  0.00000000000E+00  0.23653958717E+04  0.23653958717E+04  0.50400001928E-02 0. -1.
       -1   -1    0    0    0  501  0.00000000000E+00  0.00000000000E+00 -0.11485790776E+04  0.11485790776E+04  0.50400001928E-02 0.  1.
    10030    2    1    2    0    0  0.00000000000E+00  0.00000000000E+00  0.12168167941E+04  0.35139749493E+04  0.32965704655E+04 0.  0.
        3    1    3    3  502    0 -0.14812942326E+04  0.42063127510E+02  0.13776972096E+04  0.20233762680E+04  0.10100000352E+00 0.  1.
       -3    1    3    3    0  502  0.14812942326E+04 -0.42063127510E+02 -0.16088041551E+03  0.14905986813E+04  0.10100000352E+00 0. -1.
</event>
<event>
 5   0  0.6765252E-08  0.3299359E+04  0.7818609E-02  0.8163058E-01
        2   -1    0    0  501    0  0.00000000000E+00  0.00000000000E+00  0.20784415106E+04  0.20784415106E+04  0.25500000920E-02 0.  1.
       -2   -1    0    0    0  501  0.00000000000E+00  0.00000000000E+00 -0.13093670650E+04  0.13093670650E+04  0.25500000920E-02 0. -1.
    10030    2    1    2    0    0  0.00000000000E+00  0.00000000000E+00  0.76907444565E+03  0.33878085756E+04  0.32993592471E+04 0.  0.
        2    1    3    3  502    0 -0.13930791219E+04 -0.15175067655E+03  0.12783588127E+04  0.18968128431E+04  0.25500000920E-02 0.  1.
       -2    1    3    3    0  502  0.13930791219E+04  0.15175067655E+03 -0.50928436701E+03  0.14909957325E+04  0.25500000920E-02 0. -1.
</event>
<event>
 5   0  0.6765252E-08  0.3303627E+04  0.7818609E-02  0.8161973E-01
       -2   -1    0    0    0  501  0.00000000000E+00  0.00000000000E+00  0.20872407238E+04  0.20872407238E+04  0.25500000920E-02 0.  1.
        2   -1    0    0  501    0  0.00000000000E+00  0.00000000000E+00 -0.13072221388E+04  0.13072221388E+04  0.25500000920E-02 0. -1.
    10030    2    1    2    0    0  0.00000000000E+00  0.00000000000E+00  0.78001858508E+03  0.33944628626E+04  0.33036266636E+04 0.  0.
        2    1    3    3  502    0  0.48518290258E+03 -0.69345820668E+02 -0.12307905042E+04  0.13247854758E+04  0.25500000920E-02 0. -1.
       -2    1    3    3    0  502 -0.48518290258E+03  0.69345820668E+02  0.20108090893E+04  0.20696773868E+04  0.25500000920E-02 0.  1.
</event>
<event>
 5   0  0.6706080E-08  0.3287590E+04  0.7818609E-02  0.8166060E-01
        2   -1    0    0  501    0  0.00000000000E+00  0.00000000000E+00  0.20864774376E+04  0.20864774376E+04  0.25500000920E-02 0.  1.
       -2   -1    0    0    0  501  0.00000000000E+00  0.00000000000E+00 -0.12950354220E+04  0.12950354220E+04  0.25500000920E-02 0. -1.
    10030    2    1    2    0    0  0.00000000000E+00  0.00000000000E+00  0.79144201562E+03  0.33815128596E+04  0.32875901137E+04 0.  0.
        4    1    3    3  502    0 -0.16259011038E+04  0.18679239625E+03  0.23765979660E+03  0.16537622533E+04  0.12699999809E+01 0. -1.
       -4    1    3    3    0  502  0.16259011038E+04 -0.18679239625E+03  0.55378221902E+03  0.17277506063E+04  0.12699999809E+01 0.  1.
</event>
<event>
 5   0  0.7084130E-08  0.3298187E+04  0.7818609E-02  0.8163357E-01
       -2   -1    0    0    0  501  0.00000000000E+00  0.00000000000E+00  0.19456456696E+04  0.19456456696E+04  0.25500000920E-02 0.  1.
        2   -1    0    0  501    0  0.00000000000E+00  0.00000000000E+00 -0.13977414318E+04  0.13977414318E+04  0.25500000920E-02 0. -1.
    10030    2    1    2    0    0  0.00000000000E+00  0.00000000000E+00  0.54790423776E+03  0.33433871014E+04  0.32981871166E+04 0.  0.
        3    1    3    3  502    0 -0.96412356428E+03 -0.13116288790E+04  0.65089187006E+01  0.16278657622E+04  0.10100000352E+00 0. -1.
       -3    1    3    3    0  502  0.96412356428E+03  0.13116288790E+04  0.54139531906E+03  0.17155213392E+04  0.10100000352E+00 0.  1.
</event>
<event>
 5   0  0.6603516E-08  0.3298901E+04  0.7818609E-02  0.8163175E-01
        2   -1    0    0  501    0  0.00000000000E+00  0.00000000000E+00  0.21793197995E+04  0.21793197995E+04  0.25500000920E-02 0.  1.
       -2   -1    0    0    0  501  0.00000000000E+00  0.00000000000E+00 -0.12484110900E+04  0.12484110900E+04  0.25500000920E-02 0. -1.
    10030    2    1    2    0    0  0.00000000000E+00  0.00000000000E+00  0.93090870951E+03  0.34277308895E+04  0.32989010330E+04 0.  0.
        1    1    3    3  502    0 -0.56997591025E+03  0.11552147495E+04  0.15358766666E+04  0.20045724708E+04  0.50400001928E-02 0.  1.
       -1    1    3    3    0  502  0.56997591025E+03 -0.11552147495E+04 -0.60496795710E+03  0.14231584187E+04  0.50400001928E-02 0. -1.
</event>
<event>
 5   0  0.6821287E-08  0.3300386E+04  0.7818609E-02  0.8162797E-01
       -2   -1    0    0    0  501  0.00000000000E+00  0.00000000000E+00  0.14157562561E+04  0.14157562561E+04  0.25500000920E-02 0.  1.
        2   -1    0    0  501    0  0.00000000000E+00  0.00000000000E+00 -0.19234503653E+04  0.19234503653E+04  0.25500000920E-02 0. -1.
    10030    2    1    2    0    0  0.00000000000E+00  0.00000000000E+00 -0.50769410917E+03  0.33392066214E+04  0.33003859702E+04 0.  0.
        5    1    3    3  502    0 -0.58041016935E+02  0.15522707034E+04  0.30966167528E+03  0.15839272520E+04  0.46999998093E+01 0.  1.
       -5    1    3    3    0  502  0.58041016935E+02 -0.15522707034E+04 -0.81735578445E+03  0.17552793694E+04  0.46999998093E+01 0. -1.
</event>
<event>
 5   0  0.2309822E-08  0.3300599E+04  0.7818609E-02  0.8162743E-01
       -1   -1    0    0    0  501  0.00000000000E+00  0.00000000000E+00  0.11682360971E+04  0.11682360971E+04  0.50400001928E-02 0. -1.
        1   -1    0    0  501    0  0.00000000000E+00  0.00000000000E+00 -0.23312825772E+04  0.23312825772E+04  0.50400001928E-02 0.  1.
    10030    2    1    2    0    0  0.00000000000E+00  0.00000000000E+00 -0.11630464801E+04  0.34995186743E+04  0.33005990119E+04 0.  0.
        4    1    3    3  502    0  0.12211337850E+03  0.16280132803E+04 -0.32585153172E+03  0.16647882002E+04  0.12699999809E+01 0. -1.
       -4    1    3    3    0  502 -0.12211337850E+03 -0.16280132803E+04 -0.83719494834E+03  0.18347304741E+04  0.12699999809E+01 0.  1.
</event>
<event>
 5   0  0.2383270E-08  0.3299994E+04  0.7818609E-02  0.8162897E-01
       -1   -1    0    0    0  501  0.00000000000E+00  0.00000000000E+00  0.91509571898E+03  0.91509571899E+03  0.50400001928E-02 0.  1.
        1   -1    0    0  501    0  0.00000000000E+00  0.00000000000E+00 -0.29750881472E+04  0.29750881472E+04  0.50400001928E-02 0. -1.
    10030    2    1    2    0    0  0.00000000000E+00  0.00000000000E+00 -0.20599924282E+04  0.38901838662E+04  0.32999941982E+04 0.  0.
        5    1    3    3  502    0 -0.26059169037E+03 -0.24081124244E+03  0.86958117187E+03  0.93919731049E+03  0.46999998093E+01 0.  1.
       -5    1    3    3    0  502  0.26059169037E+03  0.24081124244E+03 -0.29295736001E+04  0.29509865557E+04  0.46999998093E+01 0. -1.
</event>
<event>
 5   0  0.6706080E-08  0.3299211E+04  0.7818609E-02  0.8163096E-01
       -2   -1    0    0    0  501  0.00000000000E+00  0.00000000000E+00  0.14245983415E+04  0.14245983415E+04  0.25500000920E-02 0. -1.
        2   -1    0    0  501    0  0.00000000000E+00  0.00000000000E+00 -0.19101516838E+04  0.19101516838E+04  0.25500000920E-02 0.  1.
    10030    2    1    2    0    0  0.00000000000E+00  0.00000000000E+00 -0.48555334230E+03  0.33347500253E+04  0.32992113729E+04 0.  0.
        4    1    3    3  502    0 -0.19189106337E+03  0.97187311511E+03 -0.15760141752E+04  0.18614998860E+04  0.12699999809E+01 0.  1.
       -4    1    3    3    0  502  0.19189106337E+03 -0.97187311511E+03  0.10904608329E+04  0.14732501394E+04  0.12699999809E+01 0. -1.
</event>
<event>
 5   0  0.6765252E-08  0.3300248E+04  0.7818609E-02  0.8162832E-01
       -2   -1    0    0    0  501  0.00000000000E+00  0.00000000000E+00  0.15122801542E+04  0.15122801542E+04  0.25500000920E-02 0.  1.
        2   -1    0    0  501    0  0.00000000000E+00  0.00000000000E+00 -0.18005320224E+04  0.18005320224E+04  0.25500000920E-02 0. -1.
    10030    2    1    2    0    0  0.00000000000E+00  0.00000000000E+00 -0.28825186816E+03  0.33128121766E+04  0.33002477752E+04 0.  0.
        2    1    3    3  502    0 -0.15055258241E+04 -0.42636016462E+03 -0.67006515560E+03  0.17021687078E+04  0.25500000920E-02 0. -1.
       -2    1    3    3    0  502  0.15055258241E+04  0.42636016462E+03  0.38181328743E+03  0.16106434688E+04  0.25500000920E-02 0.  1.
</event>
<event>
 5   0  0.2383270E-08  0.3299525E+04  0.7818609E-02  0.8163016E-01
        1   -1    0    0  501    0  0.00000000000E+00  0.00000000000E+00  0.25773112762E+04  0.25773112762E+04  0.50400001928E-02 0. -1.
       -1   -1    0    0    0  501  0.00000000000E+00  0.00000000000E+00 -0.10560294342E+04  0.10560294343E+04  0.50400001928E-02 0.  1.
    10030    2    1    2    0    0  0.00000000000E+00  0.00000000000E+00  0.15212818420E+04  0.36333407105E+04  0.32995251591E+04 0.  0.
        5    1    3    3  502    0 -0.83891129431E+03 -0.20923641964E+03 -0.78655005347E+03  0.11688606057E+04  0.46999998093E+01 0.  1.
       -5    1    3    3    0  502  0.83891129431E+03  0.20923641964E+03  0.23078318955E+04  0.24644801048E+04  0.46999998093E+01 0. -1.
</event>
<event>
 5   0  0.2309822E-08  0.3304252E+04  0.7818609E-02  0.8161814E-01
        1   -1    0    0  501    0  0.00000000000E+00  0.00000000000E+00  0.15927776258E+04  0.15927776258E+04  0.50400001928E-02 0.  1.
       -1   -1    0    0    0  501  0.00000000000E+00  0.00000000000E+00 -0.17136854186E+04  0.17136854186E+04  0.50400001928E-02 0. -1.
    10030    2    1    2    0    0  0.00000000000E+00  0.00000000000E+00 -0.12090779281E+03  0.33064630445E+04  0.33042516808E+04 0.  0.
        4    1    3    3  502    0 -0.16106790388E+04 -0.14969230333E+03  0.27566288696E+03  0.16409407034E+04  0.12699999809E+01 0. -1.
       -4    1    3    3    0  502  0.16106790388E+04  0.14969230333E+03 -0.39657067976E+03  0.16655223411E+04  0.12699999809E+01 0.  1.
</event>
<event>
 5   0  0.6821287E-08  0.3297464E+04  0.7818609E-02  0.8163541E-01
       -2   -1    0    0    0  501  0.00000000000E+00  0.00000000000E+00  0.11510253086E+04  0.11510253086E+04  0.25500000920E-02 0.  1.
        2   -1    0    0  501    0  0.00000000000E+00  0.00000000000E+00 -0.23616484923E+04  0.23616484923E+04  0.25500000920E-02 0. -1.
    10030    2    1    2    0    0  0.00000000000E+00  0.00000000000E+00 -0.12106231838E+04  0.35126738009E+04  0.32974639859E+04 0.  0.
        5    1    3    3  502    0  0.25504564426E+03  0.19239538952E+03 -0.23283532993E+04  0.23501734921E+04  0.46999998093E+01 0. -1.
       -5    1    3    3    0  502 -0.25504564426E+03 -0.19239538952E+03  0.11177301156E+04  0.11625003087E+04  0.46999998093E+01 0.  1.
</event>
<event>
 5   0  0.2291682E-08  0.3300237E+04  0.7818609E-02  0.8162835E-01
        1   -1    0    0  501    0  0.00000000000E+00  0.00000000000E+00  0.17626550335E+04  0.17626550335E+04  0.50400001928E-02 0.  1.
       -1   -1    0    0    0  501  0.00000000000E+00  0.00000000000E+00 -0.15447667489E+04  0.15447667489E+04  0.50400001928E-02 0. -1.
    10030    2    1    2    0    0  0.00000000000E+00  0.00000000000E+00  0.21788828459E+03  0.33074217824E+04  0.33002368918E+04 0.  0.
        2    1    3    3  502    0 -0.15902259771E+04  0.35199918533E+03 -0.15652649639E+03  0.16362220597E+04  0.25500000920E-02 0. -1.
       -2    1    3    3    0  502  0.15902259771E+04 -0.35199918533E+03  0.37441478098E+03  0.16711997226E+04  0.25500000920E-02 0.  1.
</event>
<event>
 5   0  0.2279938E-08  0.3299902E+04  0.7818609E-02  0.8162920E-01
        1   -1    0    0  501    0  0.00000000000E+00  0.00000000000E+00  0.91362557263E+03  0.91362557264E+03  0.50400001928E-02 0. -1.
       -1   -1    0    0    0  501  0.00000000000E+00  0.00000000000E+00 -0.29797090823E+04  0.29797090823E+04  0.50400001928E-02 0.  1.
    10030    2    1    2    0    0  0.00000000000E+00  0.00000000000E+00 -0.20660835097E+04  0.38933346549E+04  0.32999020692E+04 0.  0.
        3    1    3    3  502    0 -0.84186045835E+03  0.13328829443E+04 -0.45862834510E+03  0.16418422408E+04  0.10100000352E+00 0. -1.
       -3    1    3    3    0  502  0.84186045835E+03 -0.13328829443E+04 -0.16074551646E+04  0.22514924141E+04  0.10100000352E+00 0.  1.
</event>
<event>
 5   0  0.2244093E-08  0.3298202E+04  0.7818609E-02  0.8163353E-01
        1   -1    0    0  501    0  0.00000000000E+00  0.00000000000E+00  0.25080265143E+04  0.25080265143E+04  0.50400001928E-02 0. -1.
       -1   -1    0    0    0  501  0.00000000000E+00  0.00000000000E+00 -0.10843322099E+04  0.10843322099E+04  0.50400001928E-02 0.  1.
    10030    2    1    2    0    0  0.00000000000E+00  0.00000000000E+00  0.14236943044E+04  0.35923587242E+04  0.32982018936E+04 0.  0.
        1    1    3    3  502    0  0.48154126850E+03 -0.91057649281E+03 -0.69083900785E+03  0.12402782258E+04  0.50400001928E-02 0.  1.
       -1    1    3    3    0  502 -0.48154126850E+03  0.91057649281E+03  0.21145333123E+04  0.23520804985E+04  0.50400001928E-02 0. -1.
</event>
<event>
 5   0  0.6603516E-08  0.3276371E+04  0.7818609E-02  0.8168934E-01
       -2   -1    0    0    0  501  0.00000000000E+00  0.00000000000E+00  0.12304338372E+04  0.12304338372E+04  0.25500000920E-02 0. -1.
        2   -1    0    0  501    0  0.00000000000E+00  0.00000000000E+00 -0.21810619984E+04  0.21810619984E+04  0.25500000920E-02 0.  1.
    10030    2    1    2    0    0  0.00000000000E+00  0.00000000000E+00 -0.95062816118E+03  0.34114958356E+04  0.32763714587E+04 0.  0.
        1    1    3    3  502    0 -0.17933076754E+03  0.16240404133E+04 -0.59845254902E+03  0.17400609879E+04  0.50400001928E-02 0.  1.
       -1    1    3    3    0  502  0.17933076754E+03 -0.16240404133E+04 -0.35217561216E+03  0.16714348477E+04  0.50400001928E-02 0. -1.
</event>
<event>
 5   0  0.7084130E-08  0.3301588E+04  0.7818609E-02  0.8162491E-01
       -2   -1    0    0    0  501  0.00000000000E+00  0.00000000000E+00  0.13442545416E+04  0.13442545416E+04  0.25500000920E-02 0.  1.
        2   -1    0    0  501    0  0.00000000000E+00  0.00000000000E+00 -0.20272357966E+04  0.20272357966E+04  0.25500000920E-02 0. -1.
    10030    2    1    2    0    0  0.00000000000E+00  0.00000000000E+00 -0.68298125498E+03  0.33714903383E+04  0.33015880583E+04 0.  0.
        3    1    3    3  502    0 -0.16343189829E+03 -0.60113062275E+03  0.12196186560E+04  0.13695027153E+04  0.10100000352E+00 0.  1.
       -3    1    3    3    0  502  0.16343189829E+03  0.60113062275E+03 -0.19025999110E+04  0.20019876230E+04  0.10100000352E+00 0. -1.
</event>
<event>
 5   0  0.6821287E-08  0.3315848E+04  0.7818609E-02  0.8158875E-01
       -2   -1    0    0    0  501  0.00000000000E+00  0.00000000000E+00  0.11183757270E+04  0.11183757270E+04  0.25500000920E-02 0. -1.
        2   -1    0    0  501    0  0.00000000000E+00  0.00000000000E+00 -0.24577713656E+04  0.24577713656E+04  0.25500000920E-02 0.  1.
    10030    2    1    2    0    0  0.00000000000E+00  0.00000000000E+00 -0.13393956386E+04  0.35761470926E+04  0.33158479084E+04 0.  0.
        5    1    3    3  502    0 -0.15790717925E+04 -0.36020195631E+02 -0.12623087688E+03  0.15845256403E+04  0.46999998093E+01 0.  1.
       -5    1    3    3    0  502  0.15790717925E+04  0.36020195631E+02 -0.12131647617E+04  0.19916214524E+04  0.46999998093E+01 0. -1.
</event>
<event>
 5   0  0.6706080E-08  0.3300107E+04  0.7818609E-02  0.8162868E-01
       -2   -1    0    0    0  501  0.00000000000E+00  0.00000000000E+00  0.10041134502E+04  0.10041134502E+04  0.25500000920E-02 0.  1.
        2   -1    0    0  501    0  0.00000000000E+00  0.00000000000E+00 -0.27115234020E+04  0.27115234020E+04  0.25500000920E-02 0. -1.
    10030    2    1    2    0    0  0.00000000000E+00  0.00000000000E+00 -0.17074099518E+04  0.37156368522E+04  0.33001073427E+04 0.  0.
        4    1    3    3  502    0 -0.72418338169E+03  0.38084673096E+03 -0.24670220644E+04  0.25991701141E+04  0.12699999809E+01 0. -1.
       -4    1    3    3    0  502  0.72418338169E+03 -0.38084673096E+03  0.75961211258E+03  0.11164667381E+04  0.12699999809E+01 0.  1.
</event>
<event>
 5   0  0.6603516E-08  0.3298921E+04  0.7818609E-02  0.8163170E-01
        2   -1    0    0  501    0  0.00000000000E+00  0.00000000000E+00  0.23201376413E+04  0.23201376413E+04  0.25500000920E-02 0.  1.
       -2   -1    0    0    0  501  0.00000000000E+00  0.00000000000E+00 -0.11726543383E+04  0.11726543383E+04  0.25500000920E-02 0. -1.
    10030    2    1    2    0    0  0.00000000000E+00  0.00000000000E+00  0.11474833029E+04  0.34927919796E+04  0.32989207148E+04 0.  0.
        1    1    3    3  502    0 -0.14515632635E+04  0.21068395321E+03  0.13726001252E+04  0.20088441303E+04  0.50400001928E-02 0. -1.
       -1    1    3    3    0  502  0.14515632635E+04 -0.21068395321E+03 -0.22511682224E+03  0.14839478494E+04  0.50400001928E-02 0.  1.
</event>
<event>
 5   0  0.2291682E-08  0.3298681E+04  0.7818609E-02  0.8163231E-01
       -1   -1    0    0    0  501  0.00000000000E+00  0.00000000000E+00  0.13457135424E+04  0.13457135424E+04  0.50400001928E-02 0. -1.
        1   -1    0    0  501    0  0.00000000000E+00  0.00000000000E+00 -0.20214737705E+04  0.20214737705E+04  0.50400001928E-02 0.  1.
    10030    2    1    2    0    0  0.00000000000E+00  0.00000000000E+00 -0.67576022809E+03  0.33671873129E+04  0.32986813296E+04 0.  0.
        2    1    3    3  502    0  0.75894748116E+03 -0.52866280861E+00 -0.18326420258E+04  0.19835771610E+04  0.25500000920E-02 0.  1.
       -2    1    3    3    0  502 -0.75894748116E+03  0.52866280861E+00  0.11568817978E+04  0.13836101520E+04  0.25500000920E-02 0. -1.
</event>
<event>
 5   0  0.2279938E-08  0.3299376E+04  0.7818609E-02  0.8163054E-01
       -1   -1    0    0    0  501  0.00000000000E+00  0.00000000000E+00  0.13874076241E+04  0.13874076241E+04  0.50400001928E-02 0.  1.
        1   -1    0    0  501    0  0.00000000000E+00  0.00000000000E+00 -0.19615504272E+04  0.19615504272E+04  0.50400001928E-02 0. -1.
    10030    2    1    2    0    0  0.00000000000E+00  0.00000000000E+00 -0.57414280304E+03  0.33489580513E+04  0.32993757093E+04 0.  0.
        3    1    3    3  502    0  0.85823461891E+03  0.12527960271E+04  0.36713386456E+03  0.15623225759E+04  0.10100000352E+00 0.  1.
       -3    1    3    3    0  502 -0.85823461891E+03 -0.12527960271E+04 -0.94127666759E+03  0.17866354753E+04  0.10100000352E+00 0. -1.
</event>
<event>
 5   0  0.7084130E-08  0.3300434E+04  0.7818609E-02  0.8162785E-01
       -2   -1    0    0    0  501  0.00000000000E+00  0.00000000000E+00  0.10937211964E+04  0.10937211964E+04  0.25500000920E-02 0.  1.
        2   -1    0    0  501    0  0.00000000000E+00  0.00000000000E+00 -0.24898626626E+04  0.24898626626E+04  0.25500000920E-02 0. -1.
    10030    2    1    2    0    0  0.00000000000E+00  0.00000000000E+00 -0.13961414662E+04  0.35835838591E+04  0.33004336505E+04 0.  0.
        3    1    3    3  502    0 -0.12608441975E+04 -0.51086041434E+03  0.31614781730E+03  0.13966588366E+04  0.10100000352E+00 0.  1.
       -3    1    3    3    0  502  0.12608441975E+04  0.51086041434E+03 -0.17122892835E+04  0.21869250224E+04  0.10100000352E+00 0. -1.
</event>
<event>
 5   0  0.7084130E-08  0.3300878E+04  0.7818609E-02  0.8162672E-01
        2   -1    0    0  501    0  0.00000000000E+00  0.00000000000E+00  0.25087062886E+04  0.25087062886E+04  0.25500000920E-02 0.  1.
       -2   -1    0    0    0  501  0.00000000000E+00  0.00000000000E+00 -0.10857980793E+04  0.10857980793E+04  0.25500000920E-02 0. -1.
    10030    2    1    2    0    0  0.00000000000E+00  0.00000000000E+00  0.14229082093E+04  0.35945043678E+04  0.33008777436E+04 0.  0.
        3    1    3    3  502    0  0.14018073963E+04 -0.44029679557E+02  0.16588728826E+04  0.21722941421E+04  0.10100000352E+00 0.  1.
       -3    1    3    3    0  502 -0.14018073963E+04  0.44029679557E+02 -0.23596467329E+03  0.14222102257E+04  0.10100000352E+00 0. -1.
</event>
<event>
 5   0  0.2291682E-08  0.3300458E+04  0.7818609E-02  0.8162779E-01
        1   -1    0    0  501    0  0.00000000000E+00  0.00000000000E+00  0.16347331091E+04  0.16347331091E+04  0.50400001928E-02 0. -1.
       -1   -1    0    0    0  501  0.00000000000E+00  0.00000000000E+00 -0.16658715488E+04  0.16658715489E+04  0.50400001928E-02 0.  1.
    10030    2    1    2    0    0  0.00000000000E+00  0.00000000000E+00 -0.31138439767E+02  0.33006046579E+04  0.33004577721E+04 0.  0.
        2    1    3    3  502    0 -0.72796302698E+03  0.10037421423E+04 -0.11045744869E+04  0.16605761813E+04  0.25500000920E-02 0.  1.
       -2    1    3    3    0  502  0.72796302698E+03 -0.10037421423E+04  0.10734360472E+04  0.16400284766E+04  0.25500000920E-02 0. -1.
</event>
<event>
 5   0  0.2244093E-08  0.3300244E+04  0.7818609E-02  0.8162833E-01
        1   -1    0    0  501    0  0.00000000000E+00  0.00000000000E+00  0.16152078991E+04  0.16152078991E+04  0.50400001928E-02 0. -1.
       -1   -1    0    0    0  501  0.00000000000E+00  0.00000000000E+00 -0.16857908861E+04  0.16857908861E+04  0.50400001928E-02 0.  1.
    10030    2    1    2    0    0  0.00000000000E+00  0.00000000000E+00 -0.70582986987E+02  0.33009987853E+04  0.33002440853E+04 0.  0.
        1    1    3    3  502    0  0.58646391001E+03 -0.12934304677E+04  0.80513898937E+03  0.16325290456E+04  0.50400001928E-02 0. -1.
       -1    1    3    3    0  502 -0.58646391001E+03  0.12934304677E+04 -0.87572197636E+03  0.16684697397E+04  0.50400001928E-02 0.  1.
</event>
<event>
 5   0  0.6821287E-08  0.3300501E+04  0.7818609E-02  0.8162768E-01
        2   -1    0    0  501    0  0.00000000000E+00  0.00000000000E+00  0.16081299879E+04  0.16081299879E+04  0.25500000920E-02 0.  1.
       -2   -1    0    0    0  501  0.00000000000E+00  0.00000000000E+00 -0.16934743968E+04  0.16934743968E+04  0.25500000920E-02 0. -1.
    10030    2    1    2    0    0  0.00000000000E+00  0.00000000000E+00 -0.85344408936E+02  0.33016043847E+04  0.33005011506E+04 0.  0.
        5    1    3    3  502    0  0.50145451298E+03 -0.62472313801E+03 -0.14859189116E+04  0.16881092173E+04  0.46999998093E+01 0. -1.
       -5    1    3    3    0  502 -0.50145451298E+03  0.62472313801E+03  0.14005745026E+04  0.16134951674E+04  0.46999998093E+01 0.  1.
</event>
<event>
 5   0  0.2309822E-08  0.3300011E+04  0.7818609E-02  0.8162892E-01
        1   -1    0    0  501    0  0.00000000000E+00  0.00000000000E+00  0.18752572852E+04  0.18752572852E+04  0.50400001928E-02 0. -1.
       -1   -1    0    0    0  501  0.00000000000E+00  0.00000000000E+00 -0.14518108740E+04  0.14518108740E+04  0.50400001928E-02 0.  1.
    10030    2    1    2    0    0  0.00000000000E+00  0.00000000000E+00  0.42344641116E+03  0.33270681592E+04  0.33000114656E+04 0.  0.
        4    1    3    3  502    0  0.15035610253E+04 -0.44705182951E+03  0.72774600212E+03  0.17292099212E+04  0.12699999809E+01 0. -1.
       -4    1    3    3    0  502 -0.15035610253E+04  0.44705182951E+03 -0.30429959096E+03  0.15978582381E+04  0.12699999809E+01 0.  1.
</event>
<event>
 5   0  0.2244093E-08  0.3298998E+04  0.7818609E-02  0.8163150E-01
       -1   -1    0    0    0  501  0.00000000000E+00  0.00000000000E+00  0.99060145669E+03  0.99060145671E+03  0.50400001928E-02 0.  1.
        1   -1    0    0  501    0  0.00000000000E+00  0.00000000000E+00 -0.27466621584E+04  0.27466621584E+04  0.50400001928E-02 0. -1.
    10030    2    1    2    0    0  0.00000000000E+00  0.00000000000E+00 -0.17560607017E+04  0.37372636151E+04  0.32989983542E+04 0.  0.
        1    1    3    3  502    0  0.25666706578E+03  0.36670005040E+03 -0.26765493859E+04  0.27137176575E+04  0.50400001928E-02 0. -1.
       -1    1    3    3    0  502 -0.25666706578E+03 -0.36670005040E+03  0.92048868417E+03  0.10235459576E+04  0.50400001928E-02 0.  1.
</event>
<event>
 5   0  0.6706080E-08  0.3298454E+04  0.7818609E-02  0.8163289E-01
       -2   -1    0    0    0  501  0.00000000000E+00  0.00000000000E+00  0.13212581035E+04  0.13212581035E+04  0.25500000920E-02 0.  1.
        2   -1    0    0  501    0  0.00000000000E+00  0.00000000000E+00 -0.20586054496E+04  0.20586054496E+04  0.25500000920E-02 0. -1.
    10030    2    1    2    0    0  0.00000000000E+00  0.00000000000E+00 -0.73734734615E+03  0.33798635531E+04  0.32984536572E+04 0.  0.
        4    1    3    3  502    0  0.15407605645E+03  0.12318276055E+04  0.74385310465E+03  0.14472241482E+04  0.12699999809E+01 0.  1.
       -4    1    3    3    0  502 -0.15407605645E+03 -0.12318276055E+04 -0.14812004508E+04  0.19326394049E+04  0.12699999809E+01 0. -1.
</event>
<event>
 5   0  0.2279938E-08  0.3301574E+04  0.7818609E-02  0.8162495E-01
        1   -1    0    0  501    0  0.00000000000E+00  0.00000000000E+00  0.24548927482E+04  0.24548927482E+04  0.50400001928E-02 0. -1.
       -1   -1    0    0    0  501  0.00000000000E+00  0.00000000000E+00 -0.11100679670E+04  0.11100679670E+04  0.50400001928E-02 0.  1.
    10030    2    1    2    0    0  0.00000000000E+00  0.00000000000E+00  0.13448247812E+04  0.35649607152E+04  0.33015740502E+04 0.  0.
        3    1    3    3  502    0 -0.32837635290E+03  0.11488716404E+04  0.19022961815E+04  0.22464344744E+04  0.10100000352E+00 0. -1.
       -3    1    3    3    0  502  0.32837635290E+03 -0.11488716404E+04 -0.55747140034E+03  0.13185262408E+04  0.10100000352E+00 0.  1.
</event>
<event>
 5   0  0.2244093E-08  0.3299540E+04  0.7818609E-02  0.8163012E-01
       -1   -1    0    0    0  501  0.00000000000E+00  0.00000000000E+00  0.18860992076E+04  0.18860992076E+04  0.50400001928E-02 0. -1.
        1   -1    0    0  501    0  0.00000000000E+00  0.00000000000E+00 -0.14430531178E+04  0.14430531178E+04  0.50400001928E-02 0.  1.
    10030    2    1    2    0    0  0.00000000000E+00  0.00000000000E+00  0.44304608976E+03  0.33291523254E+04  0.32995401753E+04 0.  0.
        1    1    3    3  502    0 -0.83810567543E+03  0.57036526597E+03  0.15347428416E+04  0.18393404387E+04  0.50400001928E-02 0. -1.
       -1    1    3    3    0  502  0.83810567543E+03 -0.57036526597E+03 -0.10916967518E+04  0.14898118867E+04  0.50400001928E-02 0.  1.
</event>
<event>
 5   0  0.2244093E-08  0.3300994E+04  0.7818609E-02  0.8162643E-01
        1   -1    0    0  501    0  0.00000000000E+00  0.00000000000E+00  0.18284477591E+04  0.18284477591E+04  0.50400001928E-02 0. -1.
       -1   -1    0    0    0  501  0.00000000000E+00  0.00000000000E+00 -0.14898649233E+04  0.14898649233E+04  0.50400001928E-02 0.  1.
    10030    2    1    2    0    0  0.00000000000E+00  0.00000000000E+00  0.33858283583E+03  0.33183126824E+04  0.33009938991E+04 0.  0.
        1    1    3    3  502    0 -0.87436062894E+03 -0.80032597254E+03 -0.98526038083E+03  0.15413520655E+04  0.50400001928E-02 0.  1.
       -1    1    3    3    0  502  0.87436062894E+03  0.80032597254E+03  0.13238432167E+04  0.17769606169E+04  0.50400001928E-02 0. -1.
</event>
<event>
 5   0  0.2383270E-08  0.3298408E+04  0.7818609E-02  0.8163301E-01
       -1   -1    0    0    0  501  0.00000000000E+00  0.00000000000E+00  0.19782289274E+04  0.19782289274E+04  0.50400001928E-02 0. -1.
        1   -1    0    0  501    0  0.00000000000E+00  0.00000000000E+00 -0.13749032079E+04  0.13749032079E+04  0.50400001928E-02 0.  1.
    10030    2    1    2    0    0  0.00000000000E+00  0.00000000000E+00  0.60332571949E+03  0.33531321354E+04  0.32984076755E+04 0.  0.
        5    1    3    3  502    0  0.42019169648E+03 -0.14170848462E+04  0.10453468563E+04  0.18103763872E+04  0.46999998093E+01 0. -1.
       -5    1    3    3    0  502 -0.42019169648E+03  0.14170848462E+04 -0.44202113680E+03  0.15427557482E+04  0.46999998093E+01 0.  1.
</event>
<event>
 5   0  0.2383270E-08  0.3300911E+04  0.7818609E-02  0.8162664E-01
        1   -1    0    0  501    0  0.00000000000E+00  0.00000000000E+00  0.21170012392E+04  0.21170012392E+04  0.50400001928E-02 0.  1.
       -1   -1    0    0    0  501  0.00000000000E+00  0.00000000000E+00 -0.12867273234E+04  0.12867273234E+04  0.50400001928E-02 0. -1.
    10030    2    1    2    0    0  0.00000000000E+00  0.00000000000E+00  0.83027391577E+03  0.34037285626E+04  0.33009109883E+04 0.  0.
        5    1    3    3  502    0  0.85429032548E+03 -0.14013257544E+04  0.59508759424E+03  0.17457597673E+04  0.46999998093E+01 0. -1.
       -5    1    3    3    0  502 -0.85429032548E+03  0.14013257544E+04  0.23518632153E+03  0.16579687953E+04  0.46999998093E+01 0.  1.
</event>
<event>
 5   0  0.2291682E-08  0.3300177E+04  0.7818609E-02  0.8162850E-01
       -1   -1    0    0    0  501  0.00000000000E+00  0.00000000000E+00  0.10364428961E+04  0.10364428961E+04  0.50400001928E-02 0.  1.
        1   -1    0    0  501    0  0.00000000000E+00  0.00000000000E+00 -0.26270540918E+04  0.26270540918E+04  0.50400001928E-02 0. -1.
    10030    2    1    2    0    0  0.00000000000E+00  0.00000000000E+00 -0.15906111957E+04  0.36634969878E+04  0.33001766929E+04 0.  0.
        2    1    3    3  502    0 -0.50311327422E+03 -0.13057391917E+04 -0.17660571527E+04  0.22532278336E+04  0.25500000920E-02 0. -1.
       -2    1    3    3    0  502  0.50311327422E+03  0.13057391917E+04  0.17544595703E+03  0.14102691542E+04  0.25500000920E-02 0.  1.
</event>
<event>
 5   0  0.2291682E-08  0.3300160E+04  0.7818609E-02  0.8162855E-01
        1   -1    0    0  501    0  0.00000000000E+00  0.00000000000E+00  0.22032949024E+04  0.22032949024E+04  0.50400001928E-02 0.  1.
       -1   -1    0    0    0  501  0.00000000000E+00  0.00000000000E+00 -0.12357695078E+04  0.12357695078E+04  0.50400001928E-02 0. -1.
    10030    2    1    2    0    0  0.00000000000E+00  0.00000000000E+00  0.96752539457E+03  0.34390644103E+04  0.33001603944E+04 0.  0.
        2    1    3    3  502    0 -0.39714277371E+03  0.10907197265E+04 -0.73836185753E+03  0.13757071408E+04  0.25500000920E-02 0. -1.
       -2    1    3    3    0  502  0.39714277371E+03 -0.10907197265E+04  0.17058872521E+04  0.20633572695E+04  0.25500000920E-02 0.  1.
</event>
<event>
 5   0  0.2291682E-08  0.3302675E+04  0.7818609E-02  0.8162215E-01
       -1   -1    0    0    0  501  0.00000000000E+00  0.00000000000E+00  0.11593499708E+04  0.11593499708E+04  0.50400001928E-02 0. -1.
        1   -1    0    0  501    0  0.00000000000E+00  0.00000000000E+00 -0.23521077018E+04  0.23521077018E+04  0.50400001928E-02 0.  1.
    10030    2    1    2    0    0  0.00000000000E+00  0.00000000000E+00 -0.11927577310E+04  0.35114576726E+04  0.33026752764E+04 0.  0.
        2    1    3    3  502    0 -0.40542254115E+03 -0.26693056494E+03  0.10817846804E+04  0.11856970347E+04  0.25500000920E-02 0. -1.
       -2    1    3    3    0  502  0.40542254115E+03  0.26693056494E+03 -0.22745424114E+04  0.23257606379E+04  0.25500000920E-02 0.  1.
</event>
<event>
 5   0  0.6821287E-08  0.3298883E+04  0.7818609E-02  0.8163180E-01
        2   -1    0    0  501    0  0.00000000000E+00  0.00000000000E+00  0.22705118777E+04  0.22705118777E+04  0.25500000920E-02 0.  1.
       -2   -1    0    0    0  501  0.00000000000E+00  0.00000000000E+00 -0.11982575212E+04  0.11982575212E+04  0.25500000920E-02 0. -1.
    10030    2    1    2    0    0  0.00000000000E+00  0.00000000000E+00  0.10722543565E+04  0.34687693989E+04  0.32988834077E+04 0.  0.
        5    1    3    3  502    0 -0.62872956921E+03  0.69212775002E+02 -0.10656548599E+04  0.12392472109E+04  0.46999998093E+01 0. -1.
       -5    1    3    3    0  502  0.62872956921E+03 -0.69212775002E+02  0.21379092164E+04  0.22295221880E+04  0.46999998093E+01 0.  1.
</event>
<event>
 5   0  0.2244093E-08  0.3297946E+04  0.7818609E-02  0.8163418E-01
       -1   -1    0    0    0  501  0.00000000000E+00  0.00000000000E+00  0.15590935024E+04  0.15590935024E+04  0.50400001928E-02 0. -1.
        1   -1    0    0  501    0  0.00000000000E+00  0.00000000000E+00 -0.17440343539E+04  0.17440343539E+04  0.50400001928E-02 0.  1.
    10030    2    1    2    0    0  0.00000000000E+00  0.00000000000E+00 -0.18494085149E+03  0.33031278563E+04  0.32979464090E+04 0.  0.
        1    1    3    3  502    0  0.12230639751E+04  0.10648636274E+04 -0.39175857277E+03  0.16683209558E+04  0.50400001928E-02 0. -1.
       -1    1    3    3    0  502 -0.12230639751E+04 -0.10648636274E+04  0.20681772128E+03  0.16348069005E+04  0.50400001928E-02 0.  1.
</event>
<event>
 5   0  0.2200750E-08  0.3300249E+04  0.7818609E-02  0.8162832E-01
       -3   -1    0    0    0  501  0.00000000000E+00  0.00000000000E+00  0.12469491704E+04  0.12469491745E+04  0.10100000352E+00 0.  1.
        3   -1    0    0  501    0  0.00000000000E+00  0.00000000000E+00 -0.21836581180E+04  0.21836581203E+04  0.10100000352E+00 0. -1.
    10030    2    1    2    0    0  0.00000000000E+00  0.00000000000E+00 -0.93670894756E+03  0.34306072948E+04  0.33002488934E+04 0.  0.
        3    1    3    3  502    0  0.10209520866E+04  0.77421470916E+03 -0.15492136570E+04  0.20104264583E+04  0.10100000352E+00 0. -1.
       -3    1    3    3    0  502 -0.10209520866E+04 -0.77421470916E+03  0.61250470947E+03  0.14201808365E+04  0.10100000352E+00 0.  1.
</event>
<event>
 5   0  0.7084130E-08  0.3301844E+04  0.7818609E-02  0.8162426E-01
        2   -1    0    0  501    0  0.00000000000E+00  0.00000000000E+00  0.20402554074E+04  0.20402554074E+04  0.25500000920E-02 0. -1.
       -2   -1    0    0    0  501  0.00000000000E+00  0.00000000000E+00 -0.13358837095E+04  0.13358837096E+04  0.25500000920E-02 0.  1.
    10030    2    1    2    0    0  0.00000000000E+00  0.00000000000E+00  0.70437169785E+03  0.33761391170E+04  0.33018443101E+04 0.  0.
        3    1    3    3  502    0  0.12971339874E+04  0.70519863282E+03 -0.40313880363E+03  0.15304844325E+04  0.10100000352E+00 0.  1.
       -3    1    3    3    0  502 -0.12971339874E+04 -0.70519863282E+03  0.11075105015E+04  0.18456546844E+04  0.10100000352E+00 0. -1.
</event>
<event>
 5   0  0.2309822E-08  0.3301935E+04  0.7818609E-02  0.8162403E-01
        1   -1    0    0  501    0  0.00000000000E+00  0.00000000000E+00  0.19867013962E+04  0.19867013962E+04  0.50400001928E-02 0. -1.
       -1   -1    0    0    0  501  0.00000000000E+00  0.00000000000E+00 -0.13719694570E+04  0.13719694570E+04  0.50400001928E-02 0.  1.
    10030    2    1    2    0    0  0.00000000000E+00  0.00000000000E+00  0.61473193919E+03  0.33586708531E+04  0.33019349695E+04 0.  0.
        4    1    3    3  502    0  0.61542912398E+03  0.28035616350E+03  0.18393454612E+04  0.19597310845E+04  0.12699999809E+01 0. -1.
       -4    1    3    3    0  502 -0.61542912398E+03 -0.28035616350E+03 -0.12246135220E+04  0.13989397686E+04  0.12699999809E+01 0.  1.
</event>
<event>
 5   0  0.6706080E-08  0.3300216E+04  0.7818609E-02  0.8162840E-01
        2   -1    0    0  501    0  0.00000000000E+00  0.00000000000E+00  0.22027598099E+04  0.22027598099E+04  0.25500000920E-02 0. -1.
       -2   -1    0    0    0  501  0.00000000000E+00  0.00000000000E+00 -0.12361111801E+04  0.12361111801E+04  0.25500000920E-02 0.  1.
    10030    2    1    2    0    0  0.00000000000E+00  0.00000000000E+00  0.96664862978E+03  0.34388709900E+04  0.33002157675E+04 0.  0.
        4    1    3    3  502    0  0.22218067680E+03 -0.15106699982E+04 -0.16855210554E+03  0.15361964463E+04  0.12699999809E+01 0.  1.
       -4    1    3    3    0  502 -0.22218067680E+03  0.15106699982E+04  0.11352007353E+04  0.19026745436E+04  0.12699999809E+01 0. -1.
</event>
<event>
 5   0  0.6603516E-08  0.3300218E+04  0.7818609E-02  0.8162840E-01
        2   -1    0    0  501    0  0.00000000000E+00  0.00000000000E+00  0.25705507572E+04  0.25705507572E+04  0.25500000920E-02 0. -1.
       -2   -1    0    0    0  501  0.00000000000E+00  0.00000000000E+00 -0.10592513097E+04  0.10592513097E+04  0.25500000920E-02 0.  1.
    10030    2    1    2    0    0  0.00000000000E+00  0.00000000000E+00  0.15112994475E+04  0.36298020669E+04  0.33002177239E+04 0.  0.
        1    1    3    3  502    0  0.30298671509E+03  0.15429631600E+04  0.13059385866E+04  0.20440185553E+04  0.50400001928E-02 0. -1.
       -1    1    3    3    0  502 -0.30298671509E+03 -0.15429631600E+04  0.20536086096E+03  0.15857835116E+04  0.50400001928E-02 0.  1.
</event>
<event>
 5   0  0.2279938E-08  0.3299707E+04  0.7818609E-02  0.8162970E-01
       -1   -1    0    0    0  501  0.00000000000E+00  0.00000000000E+00  0.15430305659E+04  0.15430305659E+04  0.50400001928E-02 0.  1.
        1   -1    0    0  501    0  0.00000000000E+00  0.00000000000E+00 -0.17640720082E+04  0.17640720082E+04  0.50400001928E-02 0. -1.
    10030    2    1    2    0    0  0.00000000000E+00  0.00000000000E+00 -0.22104144235E+03  0.33071025741E+04  0.32997072774E+04 0.  0.
        3    1    3    3  502    0 -0.20694134397E+03 -0.43455422215E+03 -0.16921433664E+04  0.17592644129E+04  0.10100000352E+00 0. -1.
       -3    1    3    3    0  502  0.20694134397E+03  0.43455422215E+03  0.14711019241E+04  0.15478381612E+04  0.10100000352E+00 0.  1.
</event>
<event>
 5   0  0.7084130E-08  0.3300111E+04  0.7818609E-02  0.8162867E-01
       -2   -1    0    0    0  501  0.00000000000E+00  0.00000000000E+00  0.28094729641E+04  0.28094729641E+04  0.25500000920E-02 0.  1.
        2   -1    0    0  501    0  0.00000000000E+00  0.00000000000E+00 -0.96910787236E+03  0.96910787236E+03  0.25500000920E-02 0. -1.
    10030    2    1    2    0    0  0.00000000000E+00  0.00000000000E+00  0.18403650917E+04  0.37785808364E+04  0.33001105234E+04 0.  0.
        3    1    3    3  502    0  0.62182981221E+02 -0.16127395777E+04  0.13133093135E+04  0.20807635694E+04  0.10100000352E+00 0.  1.
       -3    1    3    3    0  502 -0.62182981221E+02  0.16127395777E+04  0.52705577820E+03  0.16978172670E+04  0.10100000352E+00 0. -1.
</event>
<event>
 5   0  0.2309822E-08  0.3299998E+04  0.7818609E-02  0.8162896E-01
        1   -1    0    0  501    0  0.00000000000E+00  0.00000000000E+00  0.29910204979E+04  0.29910204979E+04  0.50400001928E-02 0. -1.
       -1   -1    0    0    0  501  0.00000000000E+00  0.00000000000E+00 -0.91022361534E+03  0.91022361536E+03  0.50400001928E-02 0.  1.
    10030    2    1    2    0    0  0.00000000000E+00  0.00000000000E+00  0.20807968825E+04  0.39012441132E+04  0.32999984795E+04 0.  0.
        4    1    3    3  502    0 -0.53206756369E+03 -0.26144769291E+03 -0.77996998024E+03  0.97969667318E+03  0.12699999809E+01 0.  1.
       -4    1    3    3    0  502  0.53206756369E+03  0.26144769291E+03  0.28607668628E+04  0.29215474401E+04  0.12699999809E+01 0. -1.
</event>
<event>
 5   0  0.6765252E-08  0.3299632E+04  0.7818609E-02  0.8162989E-01
       -2   -1    0    0    0  501  0.00000000000E+00  0.00000000000E+00  0.12303392180E+04  0.12303392181E+04  0.25500000920E-02 0. -1.
        2   -1    0    0  501    0  0.00000000000E+00  0.00000000000E+00 -0.22123109873E+04  0.22123109873E+04  0.25500000920E-02 0.  1.
    10030    2    1    2    0    0  0.00000000000E+00  0.00000000000E+00 -0.98197176922E+03  0.34426502053E+04  0.32996320826E+04 0.  0.
        2    1    3    3  502    0  0.36198147690E+03 -0.13535657022E+04 -0.13997868846E+04  0.19805489194E+04  0.25500000920E-02 0.  1.
       -2    1    3    3    0  502 -0.36198147690E+03  0.13535657022E+04  0.41781511538E+03  0.14621012859E+04  0.25500000920E-02 0. -1.
</event>
<event>
 5   0  0.2309822E-08  0.3300907E+04  0.7818609E-02  0.8162665E-01
       -1   -1    0    0    0  501  0.00000000000E+00  0.00000000000E+00  0.15141340732E+04  0.15141340732E+04  0.50400001928E-02 0.  1.
        1   -1    0    0  501    0  0.00000000000E+00  0.00000000000E+00 -0.17990457621E+04  0.17990457621E+04  0.50400001928E-02 0. -1.
    10030    2    1    2    0    0  0.00000000000E+00  0.00000000000E+00 -0.28491168895E+03  0.33131798353E+04  0.33009068376E+04 0.  0.
        4    1    3    3  502    0  0.48629158337E+02 -0.12298131870E+04  0.96126423780E+03  0.15616772451E+04  0.12699999809E+01 0.  1.
       -4    1    3    3    0  502 -0.48629158337E+02  0.12298131870E+04 -0.12461759267E+04  0.17515025902E+04  0.12699999809E+01 0. -1.
</event>
<event>
 5   0  0.2309822E-08  0.3298434E+04  0.7818609E-02  0.8163294E-01
       -1   -1    0    0    0  501  0.00000000000E+00  0.00000000000E+00  0.12110031005E+04  0.12110031005E+04  0.50400001928E-02 0. -1.
        1   -1    0    0  501    0  0.00000000000E+00  0.00000000000E+00 -0.22460028647E+04  0.22460028647E+04  0.50400001928E-02 0.  1.
    10030    2    1    2    0    0  0.00000000000E+00  0.00000000000E+00 -0.10349997642E+04  0.34570059652E+04  0.32984338301E+04 0.  0.
        4    1    3    3  502    0 -0.52676406341E+03  0.10226461275E+04 -0.17561051803E+04  0.20993314407E+04  0.12699999809E+01 0.  1.
       -4    1    3    3    0  502  0.52676406341E+03 -0.10226461275E+04  0.72110541606E+03  0.13576745246E+04  0.12699999809E+01 0. -1.
</event>
<event>
 5   0  0.2291682E-08  0.3299376E+04  0.7818609E-02  0.8163054E-01
       -1   -1    0    0    0  501  0.00000000000E+00  0.00000000000E+00  0.14536962305E+04  0.14536962305E+04  0.50400001928E-02 0. -1.
        1   -1    0    0  501    0  0.00000000000E+00  0.00000000000E+00 -0.18721038527E+04  0.18721038527E+04  0.50400001928E-02 0.  1.
    10030    2    1    2    0    0  0.00000000000E+00  0.00000000000E+00 -0.41840762215E+03  0.33258000832E+04  0.32993758887E+04 0.  0.
        2    1    3    3  502    0  0.12244097337E+04  0.79402290857E+03  0.56625493662E+03  0.15653422081E+04  0.25500000920E-02 0. -1.
       -2    1    3    3    0  502 -0.12244097337E+04 -0.79402290857E+03 -0.98466255877E+03  0.17604578751E+04  0.25500000920E-02 0.  1.
</event>
<event>
 5   0  0.6765252E-08  0.3300065E+04  0.7818609E-02  0.8162879E-01
        2   -1    0    0  501    0  0.00000000000E+00  0.00000000000E+00  0.20201926160E+04  0.20201926160E+04  0.25500000920E-02 0.  1.
       -2   -1    0    0    0  501  0.00000000000E+00  0.00000000000E+00 -0.13476965849E+04  0.13476965849E+04  0.25500000920E-02 0. -1.
    10030    2    1    2    0    0  0.00000000000E+00  0.00000000000E+00  0.67249603108E+03  0.33678892010E+04  0.33000646597E+04 0.  0.
        2    1    3    3  502    0 -0.25599863738E+03  0.12994113846E+04 -0.66815475363E+03  0.14833866737E+04  0.25500000920E-02 0. -1.
       -2    1    3    3    0  502  0.25599863738E+03 -0.12994113846E+04  0.13406507847E+04  0.18845025273E+04  0.25500000920E-02 0.  1.
</event>
<event>
 5   0  0.6603516E-08  0.3298796E+04  0.7818609E-02  0.8163202E-01
        2   -1    0    0  501    0  0.00000000000E+00  0.00000000000E+00  0.16410507108E+04  0.16410507108E+04  0.25500000920E-02 0.  1.
       -2   -1    0    0    0  501  0.00000000000E+00  0.00000000000E+00 -0.16577873292E+04  0.16577873292E+04  0.25500000920E-02 0. -1.
    10030    2    1    2    0    0  0.00000000000E+00  0.00000000000E+00 -0.16736618410E+02  0.32988380399E+04  0.32987955831E+04 0.  0.
        1    1    3    3  502    0 -0.15497123218E+04 -0.18417467898E+03  0.52547794010E+03  0.16467105569E+04  0.50400001928E-02 0.  1.
       -1    1    3    3    0  502  0.15497123218E+04  0.18417467898E+03 -0.54221455851E+03  0.16521274830E+04  0.50400001928E-02 0. -1.
</event>
<event>
 5   0  0.6821287E-08  0.3300931E+04  0.7818609E-02  0.8162659E-01
       -2   -1    0    0    0  501  0.00000000000E+00  0.00000000000E+00  0.16603389663E+04  0.16603389663E+04  0.25500000920E-02 0.  1.
        2   -1    0    0  501    0  0.00000000000E+00  0.00000000000E+00 -0.16406506237E+04  0.16406506237E+04  0.25500000920E-02 0. -1.
    10030    2    1    2    0    0  0.00000000000E+00  0.00000000000E+00  0.19688342514E+02  0.33009895900E+04  0.33009308751E+04 0.  0.
        5    1    3    3  502    0  0.73716777902E+03  0.71612148863E+03 -0.12815996257E+04  0.16427921388E+04  0.46999998093E+01 0. -1.
       -5    1    3    3    0  502 -0.73716777902E+03 -0.71612148863E+03  0.13012879682E+04  0.16581974512E+04  0.46999998093E+01 0.  1.
</event>
<event>
 5   0  0.6603516E-08  0.3301061E+04  0.7818609E-02  0.8162625E-01
       -2   -1    0    0    0  501  0.00000000000E+00  0.00000000000E+00  0.12763940697E+04  0.12763940697E+04  0.25500000920E-02 0. -1.
        2   -1    0    0  501    0  0.00000000000E+00  0.00000000000E+00 -0.21343338769E+04  0.21343338769E+04  0.25500000920E-02 0.  1.
    10030    2    1    2    0    0  0.00000000000E+00  0.00000000000E+00 -0.85793980720E+03  0.34107279466E+04  0.33010611041E+04 0.  0.
        1    1    3    3  502    0 -0.59430656171E+03 -0.23390691808E+03 -0.20014838895E+04  0.21009165847E+04  0.50400001928E-02 0.  1.
       -1    1    3    3    0  502  0.59430656171E+03  0.23390691808E+03  0.11435440823E+04  0.13098113620E+04  0.50400001928E-02 0. -1.
</event>
<event>
 5   0  0.2244093E-08  0.3280200E+04  0.7818609E-02  0.8167952E-01
       -1   -1    0    0    0  501  0.00000000000E+00  0.00000000000E+00  0.13539881982E+04  0.13539881982E+04  0.50400001928E-02 0.  1.
        1   -1    0    0  501    0  0.00000000000E+00  0.00000000000E+00 -0.19866706802E+04  0.19866706802E+04  0.50400001928E-02 0. -1.
    10030    2    1    2    0    0  0.00000000000E+00  0.00000000000E+00 -0.63268248206E+03  0.33406588784E+04  0.32802003931E+04 0.  0.
        1    1    3    3  502    0  0.25454409059E+02  0.11975067896E+04 -0.14573744680E+04  0.18864280474E+04  0.50400001928E-02 0. -1.
       -1    1    3    3    0  502 -0.25454409059E+02 -0.11975067896E+04  0.82469198594E+03  0.14542308310E+04  0.50400001928E-02 0.  1.
</event>
<event>
 5   0  0.6821287E-08  0.3300327E+04  0.7818609E-02  0.8162812E-01
       -2   -1    0    0    0  501  0.00000000000E+00  0.00000000000E+00  0.14096904597E+04  0.14096904597E+04  0.25500000920E-02 0.  1.
        2   -1    0    0  501    0  0.00000000000E+00  0.00000000000E+00 -0.19316576589E+04  0.19316576589E+04  0.25500000920E-02 0. -1.
    10030    2    1    2    0    0  0.00000000000E+00  0.00000000000E+00 -0.52196719920E+03  0.33413481187E+04  0.33003268767E+04 0.  0.
        5    1    3    3  502    0 -0.12211907391E+03  0.15718774312E+04 -0.75417866479E+03  0.17477183055E+04  0.46999998093E+01 0. -1.
       -5    1    3    3    0  502  0.12211907391E+03 -0.15718774312E+04  0.23221146559E+03  0.15936298132E+04  0.46999998093E+01 0.  1.
</event>
<event>
 5   0  0.6706080E-08  0.3300093E+04  0.7818609E-02  0.8162872E-01
       -2   -1    0    0    0  501  0.00000000000E+00  0.00000000000E+00  0.18369123733E+04  0.18369123733E+04  0.25500000920E-02 0. -1.
        2   -1    0    0  501    0  0.00000000000E+00  0.00000000000E+00 -0.14821898930E+04  0.14821898930E+04  0.25500000920E-02 0.  1.
    10030    2    1    2    0    0  0.00000000000E+00  0.00000000000E+00  0.35472248033E+03  0.33191022664E+04  0.33000926982E+04 0.  0.
        4    1    3    3  502    0  0.84418697580E+03 -0.80210192423E+03 -0.99840319213E+03  0.15338936384E+04  0.12699999809E+01 0.  1.
       -4    1    3    3    0  502 -0.84418697580E+03  0.80210192423E+03  0.13531256725E+04  0.17852086280E+04  0.12699999809E+01 0. -1.
</event>
<event>
 5   0  0.6706080E-08  0.3298627E+04  0.7818609E-02  0.8163245E-01
        2   -1    0    0  501    0  0.00000000000E+00  0.00000000000E+00  0.16731273843E+04  0.16731273843E+04  0.25500000920E-02 0.  1.
       -2   -1    0    0    0  501  0.00000000000E+00  0.00000000000E+00 -0.16258386360E+04  0.16258386360E+04  0.25500000920E-02 0. -1.
    10030    2    1    2    0    0  0.00000000000E+00  0.00000000000E+00  0.47288748342E+02  0.32989660203E+04  0.32986270746E+04 0.  0.
        4    1    3    3  502    0  0.14757656277E+04 -0.13864222127E+03 -0.69970560333E+03  0.16391142113E+04  0.12699999809E+01 0. -1.
       -4    1    3    3    0  502 -0.14757656277E+04  0.13864222127E+03  0.74699435168E+03  0.16598518090E+04  0.12699999809E+01 0.  1.
</event>
<event>
 5   0  0.2291682E-08  0.3300178E+04  0.7818609E-02  0.8162850E-01
       -1   -1    0    0    0  501  0.00000000000E+00  0.00000000000E+00  0.10725580416E+04  0.10725580416E+04  0.50400001928E-02 0.  1.
        1   -1    0    0  501    0  0.00000000000E+00  0.00000000000E+00 -0.25385980087E+04  0.25385980087E+04  0.50400001928E-02 0. -1.
    10030    2    1    2    0    0  0.00000000000E+00  0.00000000000E+00 -0.14660399671E+04  0.36111560503E+04  0.33001780004E+04 0.  0.
        2    1    3    3  502    0 -0.84382839331E+03 -0.14117822943E+04 -0.87826073478E+03  0.18645421749E+04  0.25500000920E-02 0. -1.
       -2    1    3    3    0  502  0.84382839331E+03  0.14117822943E+04 -0.58777923235E+03  0.17466138754E+04  0.25500000920E-02 0.  1.
</event>
<event>
 5   0  0.2279938E-08  0.3297392E+04  0.7818609E-02  0.8163559E-01
       -1   -1    0    0    0  501  0.00000000000E+00  0.00000000000E+00  0.13197171079E+04  0.13197171079E+04  0.50400001928E-02 0. -1.
        1   -1    0    0  501    0  0.00000000000E+00  0.00000000000E+00 -0.20596829851E+04  0.20596829851E+04  0.50400001928E-02 0.  1.
    10030    2    1    2    0    0  0.00000000000E+00  0.00000000000E+00 -0.73996587724E+03  0.33794000930E+04  0.32973922255E+04 0.  0.
        3    1    3    3  502    0 -0.65937804203E+03  0.13765528563E+04 -0.10088001942E+04  0.18295778230E+04  0.10100000352E+00 0.  1.
       -3    1    3    3    0  502  0.65937804203E+03 -0.13765528563E+04  0.26883431693E+03  0.15498222700E+04  0.10100000352E+00 0. -1.
</event>
<event>
 5   0  0.2383270E-08  0.3300922E+04  0.7818609E-02  0.8162661E-01
        1   -1    0    0  501    0  0.00000000000E+00  0.00000000000E+00  0.26942319815E+04  0.26942319815E+04  0.50400001928E-02 0.  1.
       -1   -1    0    0    0  501  0.00000000000E+00  0.00000000000E+00 -0.10110568851E+04  0.10110568851E+04  0.50400001928E-02 0. -1.
    10030    2    1    2    0    0  0.00000000000E+00  0.00000000000E+00  0.16831750963E+04  0.37052888666E+04  0.33009221712E+04 0.  0.
        5    1    3    3  502    0  0.82442614392E+03 -0.10588954199E+04 -0.23686777674E+03  0.13627422392E+04  0.46999998093E+01 0. -1.
       -5    1    3    3    0  502 -0.82442614392E+03  0.10588954199E+04  0.19200428731E+04  0.23425466274E+04  0.46999998093E+01 0.  1.
</event>
<event>
 5   0  0.6706080E-08  0.3300164E+04  0.7818609E-02  0.8162854E-01
        2   -1    0    0  501    0  0.00000000000E+00  0.00000000000E+00  0.20834357574E+04  0.20834357574E+04  0.25500000920E-02 0. -1.
       -2   -1    0    0    0  501  0.00000000000E+00  0.00000000000E+00 -0.13068658763E+04  0.13068658763E+04  0.25500000920E-02 0.  1.
    10030    2    1    2    0    0  0.00000000000E+00  0.00000000000E+00  0.77656988104E+03  0.33903016337E+04  0.33001642970E+04 0.  0.
        4    1    3    3  502    0  0.85434680270E+03  0.35972172459E+03  0.17906560847E+04  0.20163727346E+04  0.12699999809E+01 0. -1.
       -4    1    3    3    0  502 -0.85434680270E+03 -0.35972172459E+03 -0.10140862036E+04  0.13739288991E+04  0.12699999809E+01 0.  1.
</event>
<event>
 5   0  0.6821287E-08  0.3298932E+04  0.7818609E-02  0.8163167E-01
       -2   -1    0    0    0  501  0.00000000000E+00  0.00000000000E+00  0.15995513190E+04  0.15995513190E+04  0.25500000920E-02 0.  1.
        2   -1    0    0  501    0  0.00000000000E+00  0.00000000000E+00 -0.17009384974E+04  0.17009384974E+04  0.25500000920E-02 0. -1.
    10030    2    1    2    0    0  0.00000000000E+00  0.00000000000E+00 -0.10138717848E+03  0.33004898164E+04  0.32989322012E+04 0.  0.
        5    1    3    3  502    0 -0.69105422045E+03  0.10261779243E+04  0.10407473719E+04  0.16167171212E+04  0.46999998093E+01 0.  1.
       -5    1    3    3    0  502  0.69105422045E+03 -0.10261779243E+04 -0.11421345503E+04  0.16837726952E+04  0.46999998093E+01 0. -1.
</event>
<event>
 5   0  0.6603516E-08  0.3299696E+04  0.7818609E-02  0.8162973E-01
        2   -1    0    0  501    0  0.00000000000E+00  0.00000000000E+00  0.12170320776E+04  0.12170320776E+04  0.25500000920E-02 0.  1.
       -2   -1    0    0    0  501  0.00000000000E+00  0.00000000000E+00 -0.22365874029E+04  0.22365874029E+04  0.25500000920E-02 0. -1.
    10030    2    1    2    0    0  0.00000000000E+00  0.00000000000E+00 -0.10195553253E+04  0.34536194805E+04  0.32996961155E+04 0.  0.
        1    1    3    3  502    0 -0.75487422021E+03 -0.57858164060E+03  0.90122104319E+03  0.13102637795E+04  0.50400001928E-02 0.  1.
       -1    1    3    3    0  502  0.75487422021E+03  0.57858164060E+03 -0.19207763684E+04  0.21433557009E+04  0.50400001928E-02 0. -1.
</event>
<event>
 5   0  0.6603516E-08  0.3300640E+04  0.7818609E-02  0.8162733E-01
       -2   -1    0    0    0  501  0.00000000000E+00  0.00000000000E+00  0.11606186064E+04  0.11606186064E+04  0.25500000920E-02 0. -1.
        2   -1    0    0  501    0  0.00000000000E+00  0.00000000000E+00 -0.23466412052E+04  0.23466412052E+04  0.25500000920E-02 0.  1.
    10030    2    1    2    0    0  0.00000000000E+00  0.00000000000E+00 -0.11860225988E+04  0.35072598116E+04  0.33006396019E+04 0.  0.
        1    1    3    3  502    0 -0.71081746924E+03 -0.53390546455E+03  0.88443804019E+03  0.12540124268E+04  0.50400001928E-02 0. -1.
       -1    1    3    3    0  502  0.71081746924E+03  0.53390546455E+03 -0.20704606389E+04  0.22532473848E+04  0.50400001928E-02 0.  1.
</event>
<event>
 5   0  0.2200750E-08  0.3303238E+04  0.7818609E-02  0.8162072E-01
       -3   -1    0    0    0  501  0.00000000000E+00  0.00000000000E+00  0.14134598703E+04  0.14134598739E+04  0.10100000352E+00 0. -1.
        3   -1    0    0  501    0  0.00000000000E+00  0.00000000000E+00 -0.19299062643E+04  0.19299062670E+04  0.10100000352E+00 0.  1.
    10030    2    1    2    0    0  0.00000000000E+00  0.00000000000E+00 -0.51644639401E+03  0.33433661409E+04  0.33032378471E+04 0.  0.
        2    1    3    3  502    0  0.39991760271E+03  0.76304893774E+03 -0.16844787090E+04  0.18919953202E+04  0.25500000920E-02 0.  1.
       -2    1    3    3    0  502 -0.39991760271E+03 -0.76304893774E+03  0.11680323150E+04  0.14513708207E+04  0.25500000920E-02 0. -1.
</event>
<event>
 5   0  0.2200750E-08  0.3298188E+04  0.7818609E-02  0.8163357E-01
        3   -1    0    0  501    0  0.00000000000E+00  0.00000000000E+00  0.16175467140E+04  0.16175467172E+04  0.10100000352E+00 0. -1.
       -3   -1    0    0    0  501  0.00000000000E+00  0.00000000000E+00 -0.16812565435E+04  0.16812565465E+04  0.10100000352E+00 0.  1.
    10030    2    1    2    0    0  0.00000000000E+00  0.00000000000E+00 -0.63709829439E+02  0.32988032637E+04  0.32981879919E+04 0.  0.
        4    1    3    3  502    0  0.55875976604E+03  0.32800110782E+03 -0.15486180100E+04  0.16786948968E+04  0.12699999809E+01 0.  1.
       -4    1    3    3    0  502 -0.55875976604E+03 -0.32800110782E+03  0.14849081805E+04  0.16201083669E+04  0.12699999809E+01 0. -1.
</event>
<event>
 5   0  0.6706080E-08  0.3304076E+04  0.7818609E-02  0.8161859E-01
        2   -1    0    0  501    0  0.00000000000E+00  0.00000000000E+00  0.19563485800E+04  0.19563485800E+04  0.25500000920E-02 0.  1.
       -2   -1    0    0    0  501  0.00000000000E+00  0.00000000000E+00 -0.13950628130E+04  0.13950628130E+04  0.25500000920E-02 0. -1.
    10030    2    1    2    0    0  0.00000000000E+00  0.00000000000E+00  0.56128576694E+03  0.33514113930E+04  0.33040757577E+04 0.  0.
        4    1    3    3  502    0  0.11066663569E+04  0.10128664308E+03 -0.95926824812E+03  0.14680485668E+04  0.12699999809E+01 0. -1.
       -4    1    3    3    0  502 -0.11066663569E+04 -0.10128664308E+03  0.15205540151E+04  0.18833628262E+04  0.12699999809E+01 0.  1.
</event>
<event>
 5   0  0.2309822E-08  0.3300209E+04  0.7818609E-02  0.8162842E-01
       -1   -1    0    0    0  501  0.00000000000E+00  0.00000000000E+00  0.10596628549E+04  0.10596628549E+04  0.50400001928E-02 0.  1.
        1   -1    0    0  501    0  0.00000000000E+00  0.00000000000E+00 -0.25695383695E+04  0.25695383695E+04  0.50400001928E-02 0. -1.
    10030    2    1    2    0    0  0.00000000000E+00  0.00000000000E+00 -0.15098755146E+04  0.36292012244E+04  0.33002086991E+04 0.  0.
        4    1    3    3  502    0  0.21332648148E+02 -0.25449447867E+03  0.10377972720E+04  0.10687597074E+04  0.12699999809E+01 0.  1.
       -4    1    3    3    0  502 -0.21332648148E+02  0.25449447867E+03 -0.25476727866E+04  0.25604415170E+04  0.12699999809E+01 0. -1.
</event>
<event>
 5   0  0.6706080E-08  0.3296876E+04  0.7818609E-02  0.8163691E-01
       -2   -1    0    0    0  501  0.00000000000E+00  0.00000000000E+00  0.10656576062E+04  0.10656576062E+04  0.25500000920E-02 0. -1.
        2   -1    0    0  501    0  0.00000000000E+00  0.00000000000E+00 -0.25499255306E+04  0.25499255306E+04  0.25500000920E-02 0.  1.
    10030    2    1    2    0    0  0.00000000000E+00  0.00000000000E+00 -0.14842679244E+04  0.36155831367E+04  0.32968758162E+04 0.  0.
        4    1    3    3  502    0 -0.10266974264E+04 -0.61365508312E+03 -0.19861003187E+04  0.23184642018E+04  0.12699999809E+01 0.  1.
       -4    1    3    3    0  502  0.10266974264E+04  0.61365508312E+03  0.50183239435E+03  0.12971189349E+04  0.12699999809E+01 0. -1.
</event>
<event>
 5   0  0.2279938E-08  0.3299479E+04  0.7818609E-02  0.8163028E-01
       -1   -1    0    0    0  501  0.00000000000E+00  0.00000000000E+00  0.28045293270E+04  0.28045293270E+04  0.50400001928E-02 0. -1.
        1   -1    0    0  501    0  0.00000000000E+00  0.00000000000E+00 -0.97044446025E+03  0.97044446026E+03  0.50400001928E-02 0.  1.
    10030    2    1    2    0    0  0.00000000000E+00  0.00000000000E+00  0.18340848668E+04  0.37749737873E+04  0.32994787158E+04 0.  0.
        3    1    3    3  502    0 -0.12806417092E+04  0.89664335981E+02  0.21024867939E+04  0.24634393862E+04  0.10100000352E+00 0. -1.
       -3    1    3    3    0  502  0.12806417092E+04 -0.89664335981E+02 -0.26840192718E+03  0.13115344011E+04  0.10100000352E+00 0.  1.
</event>
<event>
 5   0  0.2309822E-08  0.3301122E+04  0.7818609E-02  0.8162610E-01
       -1   -1    0    0    0  501  0.00000000000E+00  0.00000000000E+00  0.12192979936E+04  0.12192979936E+04  0.50400001928E-02 0.  1.
        1   -1    0    0  501    0  0.00000000000E+00  0.00000000000E+00 -0.22343608211E+04  0.22343608211E+04  0.50400001928E-02 0. -1.
    10030    2    1    2    0    0  0.00000000000E+00  0.00000000000E+00 -0.10150628275E+04  0.34536588147E+04  0.33011220312E+04 0.  0.
        4    1    3    3  502    0  0.10605100391E+04  0.10267303689E+04 -0.12802343223E+04  0.19539340639E+04  0.12699999809E+01 0. -1.
       -4    1    3    3    0  502 -0.10605100391E+04 -0.10267303689E+04  0.26517149479E+03  0.14997247507E+04  0.12699999809E+01 0.  1.
</event>
<event>
 5   0  0.2291682E-08  0.3299100E+04  0.7818609E-02  0.8163124E-01
        1   -1    0    0  501    0  0.00000000000E+00  0.00000000000E+00  0.14179017380E+04  0.14179017380E+04  0.50400001928E-02 0. -1.
       -1   -1    0    0    0  501  0.00000000000E+00  0.00000000000E+00 -0.19190434751E+04  0.19190434751E+04  0.50400001928E-02 0.  1.
    10030    2    1    2    0    0  0.00000000000E+00  0.00000000000E+00 -0.50114173710E+03  0.33369452131E+04  0.32990999249E+04 0.  0.
        2    1    3    3  502    0  0.11336230053E+04 -0.79078222564E+03  0.66007780742E+03  0.15317115781E+04  0.25500000920E-02 0. -1.
       -2    1    3    3    0  502 -0.11336230053E+04  0.79078222564E+03 -0.11612195445E+04  0.18052336351E+04  0.25500000920E-02 0.  1.
</event>
<event>
 5   0  0.6603516E-08  0.3301116E+04  0.7818609E-02  0.8162611E-01
        2   -1    0    0  501    0  0.00000000000E+00  0.00000000000E+00  0.26952637035E+04  0.26952637035E+04  0.25500000920E-02 0. -1.
       -2   -1    0    0    0  501  0.00000000000E+00  0.00000000000E+00 -0.10107885647E+04  0.10107885647E+04  0.25500000920E-02 0.  1.
    10030    2    1    2    0    0  0.00000000000E+00  0.00000000000E+00  0.16844751387E+04  0.37060522682E+04  0.33011160116E+04 0.  0.
        1    1    3    3  502    0 -0.93240853428E+03  0.42168136478E+03 -0.61166574227E+03  0.11921978982E+04  0.50400001928E-02 0.  1.
       -1    1    3    3    0  502  0.93240853428E+03 -0.42168136478E+03  0.22961408810E+04  0.25138543700E+04  0.50400001928E-02 0. -1.
</event>
<event>
 5   0  0.2244093E-08  0.3299014E+04  0.7818609E-02  0.8163146E-01
       -1   -1    0    0    0  501  0.00000000000E+00  0.00000000000E+00  0.19850435982E+04  0.19850435982E+04  0.50400001928E-02 0. -1.
        1   -1    0    0  501    0  0.00000000000E+00  0.00000000000E+00 -0.13706869070E+04  0.13706869070E+04  0.50400001928E-02 0.  1.
    10030    2    1    2    0    0  0.00000000000E+00  0.00000000000E+00  0.61435669122E+03  0.33557305053E+04  0.32990139557E+04 0.  0.
        1    1    3    3  502    0  0.20436197996E+03  0.10455564013E+04 -0.97380573938E+03  0.14433466753E+04  0.50400001928E-02 0.  1.
       -1    1    3    3    0  502 -0.20436197996E+03 -0.10455564013E+04  0.15881624306E+04  0.19123838300E+04  0.50400001928E-02 0. -1.
</event>
<event>
 5   0  0.6603516E-08  0.3296001E+04  0.7818609E-02  0.8163914E-01
        2   -1    0    0  501    0  0.00000000000E+00  0.00000000000E+00  0.24013418721E+04  0.24013418721E+04  0.25500000920E-02 0.  1.
       -2   -1    0    0    0  501  0.00000000000E+00  0.00000000000E+00 -0.11309949644E+04  0.11309949644E+04  0.25500000920E-02 0. -1.
    10030    2    1    2    0    0  0.00000000000E+00  0.00000000000E+00  0.12703469077E+04  0.35323368365E+04  0.32960009497E+04 0.  0.
        1    1    3    3  502    0  0.28186361070E+02  0.14410984889E+04 -0.22108117895E+03  0.14582305077E+04  0.50400001928E-02 0. -1.
       -1    1    3    3    0  502 -0.28186361070E+02 -0.14410984889E+04  0.14914280867E+04  0.20741063289E+04  0.50400001928E-02 0.  1.
</event>
<event>
 5   0  0.6765252E-08  0.3301593E+04  0.7818609E-02  0.8162490E-01
        2   -1    0    0  501    0  0.00000000000E+00  0.00000000000E+00  0.13215346833E+04  0.13215346833E+04  0.25500000920E-02 0. -1.
       -2   -1    0    0    0  501  0.00000000000E+00  0.00000000000E+00 -0.20620939640E+04  0.20620939640E+04  0.25500000920E-02 0.  1.
    10030    2    1    2    0    0  0.00000000000E+00  0.00000000000E+00 -0.74055928069E+03  0.33836286473E+04  0.33015927633E+04 0.  0.
        2    1    3    3  502    0  0.25912066963E+03 -0.39173016221E+03 -0.19921739060E+04  0.20467908816E+04  0.25500000920E-02 0.  1.
       -2    1    3    3    0  502 -0.25912066963E+03  0.39173016221E+03  0.12516146253E+04  0.13368377656E+04  0.25500000920E-02 0. -1.
</event>
<event>
 5   0  0.6706080E-08  0.3298695E+04  0.7818609E-02  0.8163228E-01
        2   -1    0    0  501    0  0.00000000000E+00  0.00000000000E+00  0.14893746737E+04  0.14893746737E+04  0.25500000920E-02 0. -1.
       -2   -1    0    0    0  501  0.00000000000E+00  0.00000000000E+00 -0.18265029959E+04  0.18265029959E+04  0.25500000920E-02 0.  1.
    10030    2    1    2    0    0  0.00000000000E+00  0.00000000000E+00 -0.33712832221E+03  0.33158776696E+04  0.32986950775E+04 0.  0.
        4    1    3    3  502    0  0.54548839408E+03  0.15506314747E+04 -0.32470114779E+02  0.16441020284E+04  0.12699999809E+01 0. -1.
       -4    1    3    3    0  502 -0.54548839408E+03 -0.15506314747E+04 -0.30465820743E+03  0.16717756413E+04  0.12699999809E+01 0.  1.
</event>
<event>
 5   0  0.2309822E-08  0.3299482E+04  0.7818609E-02  0.8163027E-01
       -1   -1    0    0    0  501  0.00000000000E+00  0.00000000000E+00  0.14505769661E+04  0.14505769661E+04  0.50400001928E-02 0.  1.
        1   -1    0    0  501    0  0.00000000000E+00  0.00000000000E+00 -0.18762502796E+04  0.18762502796E+04  0.50400001928E-02 0. -1.
    10030    2    1    2    0    0  0.00000000000E+00  0.00000000000E+00 -0.42567331354E+03  0.33268272457E+04  0.32994820431E+04 0.  0.
        4    1    3    3  502    0 -0.13400440310E+03 -0.16034680451E+04 -0.57996538289E+03  0.17103883798E+04  0.12699999809E+01 0. -1.
       -4    1    3    3    0  502  0.13400440310E+03  0.16034680451E+04  0.15429206936E+03  0.16164388659E+04  0.12699999809E+01 0.  1.
</event>
<event>
 5   0  0.2244093E-08  0.3299830E+04  0.7818609E-02  0.8162939E-01
        1   -1    0    0  501    0  0.00000000000E+00  0.00000000000E+00  0.16326639654E+04  0.16326639654E+04  0.50400001928E-02 0. -1.
       -1   -1    0    0    0  501  0.00000000000E+00  0.00000000000E+00 -0.16673478998E+04  0.16673478998E+04  0.50400001928E-02 0.  1.
    10030    2    1    2    0    0  0.00000000000E+00  0.00000000000E+00 -0.34683934383E+02  0.33000118652E+04  0.32998295918E+04 0.  0.
        1    1    3    3  502    0 -0.15937198578E+04 -0.40452219607E+03  0.11918532164E+03  0.16485709973E+04  0.50400001928E-02 0. -1.
       -1    1    3    3    0  502  0.15937198578E+04  0.40452219607E+03 -0.15386925602E+03  0.16514408679E+04  0.50400001928E-02 0.  1.
</event>
<event>
 5   0  0.6706080E-08  0.3299306E+04  0.7818609E-02  0.8163072E-01
       -2   -1    0    0    0  501  0.00000000000E+00  0.00000000000E+00  0.15068922235E+04  0.15068922235E+04  0.25500000920E-02 0. -1.
        2   -1    0    0  501    0  0.00000000000E+00  0.00000000000E+00 -0.18059382312E+04  0.18059382312E+04  0.25500000920E-02 0.  1.
    10030    2    1    2    0    0  0.00000000000E+00  0.00000000000E+00 -0.29904600764E+03  0.33128304547E+04  0.32993055492E+04 0.  0.
        4    1    3    3  502    0 -0.12161515917E+04 -0.63137904400E+03 -0.10718134930E+04  0.17396694996E+04  0.12699999809E+01 0.  1.
       -4    1    3    3    0  502  0.12161515917E+04  0.63137904400E+03  0.77276748536E+03  0.15731609551E+04  0.12699999809E+01 0. -1.
</event>
<event>
 5   0  0.6821287E-08  0.3299316E+04  0.7818609E-02  0.8163070E-01
       -2   -1    0    0    0  501  0.00000000000E+00  0.00000000000E+00  0.12871261880E+04  0.12871261880E+04  0.25500000920E-02 0.  1.
        2   -1    0    0  501    0  0.00000000000E+00  0.00000000000E+00 -0.21143002069E+04  0.21143002069E+04  0.25500000920E-02 0. -1.
    10030    2    1    2    0    0  0.00000000000E+00  0.00000000000E+00 -0.82717401891E+03  0.34014263949E+04  0.32993157870E+04 0.  0.
        5    1    3    3  502    0 -0.56426400238E+03 -0.82595078068E+03 -0.17659628662E+04  0.20295899811E+04  0.46999998093E+01 0. -1.
       -5    1    3    3    0  502  0.56426400238E+03  0.82595078068E+03  0.93878884728E+03  0.13718364138E+04  0.46999998093E+01 0.  1.
</event>
<event>
 5   0  0.2291682E-08  0.3299390E+04  0.7818609E-02  0.8163051E-01
       -1   -1    0    0    0  501  0.00000000000E+00  0.00000000000E+00  0.97447270593E+03  0.97447270595E+03  0.50400001928E-02 0.  1.
        1   -1    0    0  501    0  0.00000000000E+00  0.00000000000E+00 -0.27927866256E+04  0.27927866256E+04  0.50400001928E-02 0. -1.
    10030    2    1    2    0    0  0.00000000000E+00  0.00000000000E+00 -0.18183139196E+04  0.37672593315E+04  0.32993904529E+04 0.  0.
        2    1    3    3  502    0  0.11188997015E+04 -0.11990625336E+04 -0.11127917876E+04  0.19819165129E+04  0.25500000920E-02 0.  1.
       -2    1    3    3    0  502 -0.11188997015E+04  0.11990625336E+04 -0.70552213200E+03  0.17853428187E+04  0.25500000920E-02 0. -1.
</event>
<event>
 5   0  0.2279938E-08  0.3299236E+04  0.7818609E-02  0.8163090E-01
       -1   -1    0    0    0  501  0.00000000000E+00  0.00000000000E+00  0.12495882921E+04  0.12495882921E+04  0.50400001928E-02 0. -1.
        1   -1    0    0  501    0  0.00000000000E+00  0.00000000000E+00 -0.21777094930E+04  0.21777094930E+04  0.50400001928E-02 0.  1.
    10030    2    1    2    0    0  0.00000000000E+00  0.00000000000E+00 -0.92812120089E+03  0.34272977851E+04  0.32992364486E+04 0.  0.
        3    1    3    3  502    0 -0.15069802468E+04  0.46280179654E+03 -0.96878521319E+03  0.18503296373E+04  0.10100000352E+00 0.  1.
       -3    1    3    3    0  502  0.15069802468E+04 -0.46280179654E+03  0.40664012301E+02  0.15769681478E+04  0.10100000352E+00 0. -1.
</event>
<event>
 5   0  0.6765252E-08  0.3298950E+04  0.7818609E-02  0.8163163E-01
        2   -1    0    0  501    0  0.00000000000E+00  0.00000000000E+00  0.18048931939E+04  0.18048931939E+04  0.25500000920E-02 0. -1.
       -2   -1    0    0    0  501  0.00000000000E+00  0.00000000000E+00 -0.15074398396E+04  0.15074398396E+04  0.25500000920E-02 0.  1.
    10030    2    1    2    0    0  0.00000000000E+00  0.00000000000E+00  0.29745335428E+03  0.33123330336E+04  0.32989500795E+04 0.  0.
        2    1    3    3  502    0 -0.48350366025E+03  0.10872605062E+04  0.12956639418E+04  0.17591635080E+04  0.25500000920E-02 0. -1.
       -2    1    3    3    0  502  0.48350366025E+03 -0.10872605062E+04 -0.99821058753E+03  0.15531695255E+04  0.25500000920E-02 0.  1.
</event>
<event>
 5   0  0.6706080E-08  0.3305682E+04  0.7818609E-02  0.8161451E-01
       -2   -1    0    0    0  501  0.00000000000E+00  0.00000000000E+00  0.22895367467E+04  0.22895367468E+04  0.25500000920E-02 0. -1.
        2   -1    0    0  501    0  0.00000000000E+00  0.00000000000E+00 -0.11932035072E+04  0.11932035072E+04  0.25500000920E-02 0.  1.
    10030    2    1    2    0    0  0.00000000000E+00  0.00000000000E+00  0.10963332395E+04  0.34827402540E+04  0.33056819424E+04 0.  0.
        4    1    3    3  502    0  0.26707012568E+03  0.80967748065E+03 -0.94364773370E+03  0.12717612720E+04  0.12699999809E+01 0.  1.
       -4    1    3    3    0  502 -0.26707012568E+03 -0.80967748065E+03  0.20399809732E+04  0.22109789820E+04  0.12699999809E+01 0. -1.
</event>
<event>
 5   0  0.2244093E-08  0.3301252E+04  0.7818609E-02  0.8162577E-01
       -1   -1    0    0    0  501  0.00000000000E+00  0.00000000000E+00  0.14114348068E+04  0.14114348068E+04  0.50400001928E-02 0.  1.
        1   -1    0    0  501    0  0.00000000000E+00  0.00000000000E+00 -0.19303520747E+04  0.19303520747E+04  0.50400001928E-02 0. -1.
    10030    2    1    2    0    0  0.00000000000E+00  0.00000000000E+00 -0.51891726792E+03  0.33417868815E+04  0.33012519489E+04 0.  0.
        1    1    3    3  502    0 -0.11630878334E+04  0.99541994874E+03  0.36531654105E+03  0.15738774914E+04  0.50400001928E-02 0.  1.
       -1    1    3    3    0  502  0.11630878334E+04 -0.99541994874E+03 -0.88423380896E+03  0.17679093901E+04  0.50400001928E-02 0. -1.
</event>
<event>
 5   0  0.2244093E-08  0.3302980E+04  0.7818609E-02  0.8162137E-01
       -1   -1    0    0    0  501  0.00000000000E+00  0.00000000000E+00  0.10480818787E+04  0.10480818787E+04  0.50400001928E-02 0. -1.
        1   -1    0    0  501    0  0.00000000000E+00  0.00000000000E+00 -0.26022962033E+04  0.26022962033E+04  0.50400001928E-02 0.  1.
    10030    2    1    2    0    0  0.00000000000E+00  0.00000000000E+00 -0.15542143246E+04  0.36503780820E+04  0.33029801656E+04 0.  0.
        1    1    3    3  502    0  0.15086957708E+04  0.38329186391E+03 -0.16740997502E+03  0.15655994640E+04  0.50400001928E-02 0. -1.
       -1    1    3    3    0  502 -0.15086957708E+04 -0.38329186391E+03 -0.13868043496E+04  0.20847786180E+04  0.50400001928E-02 0.  1.
</event>
<event>
 5   0  0.7084130E-08  0.3300610E+04  0.7818609E-02  0.8162740E-01
        2   -1    0    0  501    0  0.00000000000E+00  0.00000000000E+00  0.21200333470E+04  0.21200333470E+04  0.25500000920E-02 0.  1.
       -2   -1    0    0    0  501  0.00000000000E+00  0.00000000000E+00 -0.12846525921E+04  0.12846525921E+04  0.25500000920E-02 0. -1.
    10030    2    1    2    0    0  0.00000000000E+00  0.00000000000E+00  0.83538075499E+03  0.34046859391E+04  0.33006098434E+04 0.  0.
        3    1    3    3  502    0 -0.13525475060E+04  0.70828951806E+02  0.13903465583E+04  0.19409958936E+04  0.10100000352E+00 0.  1.
       -3    1    3    3    0  502  0.13525475060E+04 -0.70828951806E+02 -0.55496580334E+03  0.14636900455E+04  0.10100000352E+00 0. -1.
</event>
<event>
 5   0  0.2309822E-08  0.3300080E+04  0.7818609E-02  0.8162875E-01
       -1   -1    0    0    0  501  0.00000000000E+00  0.00000000000E+00  0.11030025750E+04  0.11030025750E+04  0.50400001928E-02 0.  1.
        1   -1    0    0  501    0  0.00000000000E+00  0.00000000000E+00 -0.24683819867E+04  0.24683819867E+04  0.50400001928E-02 0. -1.
    10030    2    1    2    0    0  0.00000000000E+00  0.00000000000E+00 -0.13653794117E+04  0.35713845617E+04  0.33000798096E+04 0.  0.
        4    1    3    3  502    0  0.12893067193E+04 -0.97279690228E+03 -0.31731795305E+03  0.16460066603E+04  0.12699999809E+01 0. -1.
       -4    1    3    3    0  502 -0.12893067193E+04  0.97279690228E+03 -0.10480614586E+04  0.19253779015E+04  0.12699999809E+01 0.  1.
</event>
<event>
 5   0  0.2244093E-08  0.3300894E+04  0.7818609E-02  0.8162668E-01
       -1   -1    0    0    0  501  0.00000000000E+00  0.00000000000E+00  0.25949654159E+04  0.25949654159E+04  0.50400001928E-02 0. -1.
        1   -1    0    0  501    0  0.00000000000E+00  0.00000000000E+00 -0.10497152281E+04  0.10497152281E+04  0.50400001928E-02 0.  1.
    10030    2    1    2    0    0  0.00000000000E+00  0.00000000000E+00  0.15452501879E+04  0.36446806440E+04  0.33008936447E+04 0.  0.
        1    1    3    3  502    0  0.15165241562E+04  0.61749618583E+01  0.53577709176E+02  0.15174828558E+04  0.50400001928E-02 0.  1.
       -1    1    3    3    0  502 -0.15165241562E+04 -0.61749618583E+01  0.14916724787E+04  0.21271977882E+04  0.50400001928E-02 0. -1.
</event>
<event>
 5   0  0.2244093E-08  0.3296993E+04  0.7818609E-02  0.8163661E-01
        1   -1    0    0  501    0  0.00000000000E+00  0.00000000000E+00  0.15425649149E+04  0.15425649149E+04  0.50400001928E-02 0. -1.
       -1   -1    0    0    0  501  0.00000000000E+00  0.00000000000E+00 -0.17617027260E+04  0.17617027260E+04  0.50400001928E-02 0.  1.
    10030    2    1    2    0    0  0.00000000000E+00  0.00000000000E+00 -0.21913781109E+03  0.33042676409E+04  0.32969930637E+04 0.  0.
        1    1    3    3  502    0 -0.13296678872E+03 -0.14691430906E+04 -0.84704523317E+03  0.17010429784E+04  0.50400001928E-02 0.  1.
       -1    1    3    3    0  502  0.13296678872E+03  0.14691430906E+04  0.62790742207E+03  0.16032246624E+04  0.50400001928E-02 0. -1.
</event>
<event>
 5   0  0.2279938E-08  0.3299159E+04  0.7818609E-02  0.8163109E-01
        1   -1    0    0  501    0  0.00000000000E+00  0.00000000000E+00  0.25340568230E+04  0.25340568230E+04  0.50400001928E-02 0.  1.
       -1   -1    0    0    0  501  0.00000000000E+00  0.00000000000E+00 -0.10738169741E+04  0.10738169741E+04  0.50400001928E-02 0. -1.
    10030    2    1    2    0    0  0.00000000000E+00  0.00000000000E+00  0.14602398489E+04  0.36078737971E+04  0.32991594262E+04 0.  0.
        3    1    3    3  502    0  0.12137864083E+03 -0.95368208384E+03 -0.73578726938E+03  0.12106300870E+04  0.10100000352E+00 0. -1.
       -3    1    3    3    0  502 -0.12137864083E+03  0.95368208384E+03  0.21960271183E+04  0.23972437102E+04  0.10100000352E+00 0.  1.
</event>
<event>
 5   0  0.6821287E-08  0.3300197E+04  0.7818609E-02  0.8162845E-01
        2   -1    0    0  501    0  0.00000000000E+00  0.00000000000E+00  0.22852537348E+04  0.22852537348E+04  0.25500000920E-02 0. -1.
       -2   -1    0    0    0  501  0.00000000000E+00  0.00000000000E+00 -0.11914761162E+04  0.11914761162E+04  0.25500000920E-02 0.  1.
    10030    2    1    2    0    0  0.00000000000E+00  0.00000000000E+00  0.10937776185E+04  0.34767298510E+04  0.33001971120E+04 0.  0.
        5    1    3    3  502    0  0.46917123096E+03  0.28379814686E+02 -0.11194525178E+04  0.12141347073E+04  0.46999998093E+01 0.  1.
       -5    1    3    3    0  502 -0.46917123096E+03 -0.28379814686E+02  0.22132301363E+04  0.22625951437E+04  0.46999998093E+01 0. -1.
</event>
<event>
 5   0  0.2309822E-08  0.3318121E+04  0.7818609E-02  0.8158300E-01
       -1   -1    0    0    0  501  0.00000000000E+00  0.00000000000E+00  0.21833584650E+04  0.21833584651E+04  0.50400001928E-02 0.  1.
        1   -1    0    0  501    0  0.00000000000E+00  0.00000000000E+00 -0.12606643760E+04  0.12606643761E+04  0.50400001928E-02 0. -1.
    10030    2    1    2    0    0  0.00000000000E+00  0.00000000000E+00  0.92269408900E+03  0.34440228411E+04  0.33181212980E+04 0.  0.
        4    1    3    3  502    0  0.57388695671E+03  0.11930590121E+04 -0.57646401338E+03  0.14439696732E+04  0.12699999809E+01 0. -1.
       -4    1    3    3    0  502 -0.57388695671E+03 -0.11930590121E+04  0.14991581024E+04  0.20000531679E+04  0.12699999809E+01 0.  1.
</event>
<event>
 5   0  0.2244093E-08  0.3301103E+04  0.7818609E-02  0.8162615E-01
       -1   -1    0    0    0  501  0.00000000000E+00  0.00000000000E+00  0.20196093349E+04  0.20196093349E+04  0.50400001928E-02 0.  1.
        1   -1    0    0  501    0  0.00000000000E+00  0.00000000000E+00 -0.13489341122E+04  0.13489341122E+04  0.50400001928E-02 0. -1.
    10030    2    1    2    0    0  0.00000000000E+00  0.00000000000E+00  0.67067522273E+03  0.33685434471E+04  0.33011028007E+04 0.  0.
        1    1    3    3  502    0  0.10360194638E+04 -0.10677274028E+04 -0.39406752357E+03  0.15390475461E+04  0.50400001928E-02 0. -1.
       -1    1    3    3    0  502 -0.10360194638E+04  0.10677274028E+04  0.10647427463E+04  0.18294959010E+04  0.50400001928E-02 0.  1.
</event>
<event>
 5   0  0.2244093E-08  0.3295137E+04  0.7818609E-02  0.8164134E-01
       -1   -1    0    0    0  501  0.00000000000E+00  0.00000000000E+00  0.90875235281E+03  0.90875235283E+03  0.50400001928E-02 0.  1.
        1   -1    0    0  501    0  0.00000000000E+00  0.00000000000E+00 -0.29870428114E+04  0.29870428114E+04  0.50400001928E-02 0. -1.
    10030    2    1    2    0    0  0.00000000000E+00  0.00000000000E+00 -0.20782904586E+04  0.38957951642E+04  0.32951371339E+04 0.  0.
        1    1    3    3  502    0  0.11978766870E+03 -0.56104377198E+02  0.90246440458E+03  0.91210678556E+03  0.50400001928E-02 0.  1.
       -1    1    3    3    0  502 -0.11978766870E+03  0.56104377198E+02 -0.29807548632E+04  0.29836883787E+04  0.50400001928E-02 0. -1.
</event>
<event>
 5   0  0.6821287E-08  0.3300474E+04  0.7818609E-02  0.8162775E-01
       -2   -1    0    0    0  501  0.00000000000E+00  0.00000000000E+00  0.14500417026E+04  0.14500417026E+04  0.25500000920E-02 0.  1.
        2   -1    0    0  501    0  0.00000000000E+00  0.00000000000E+00 -0.18780719405E+04  0.18780719405E+04  0.25500000920E-02 0. -1.
    10030    2    1    2    0    0  0.00000000000E+00  0.00000000000E+00 -0.42803023799E+03  0.33281136431E+04  0.33004742897E+04 0.  0.
        5    1    3    3  502    0  0.16742855564E+03 -0.12388746686E+04  0.87223285746E+03  0.15243539659E+04  0.46999998093E+01 0.  1.
       -5    1    3    3    0  502 -0.16742855564E+03  0.12388746686E+04 -0.13002630954E+04  0.18037596772E+04  0.46999998093E+01 0. -1.
</event>
<event>
 5   0  0.6706080E-08  0.3300939E+04  0.7818609E-02  0.8162657E-01
        2   -1    0    0  501    0  0.00000000000E+00  0.00000000000E+00  0.25230119020E+04  0.25230119020E+04  0.25500000920E-02 0.  1.
       -2   -1    0    0    0  501  0.00000000000E+00  0.00000000000E+00 -0.10796814121E+04  0.10796814121E+04  0.25500000920E-02 0. -1.
    10030    2    1    2    0    0  0.00000000000E+00  0.00000000000E+00  0.14433304899E+04  0.36026933141E+04  0.33009386866E+04 0.  0.
        4    1    3    3  502    0 -0.10365039302E+04  0.97496886263E+03 -0.19091858298E+03  0.14357423859E+04  0.12699999809E+01 0. -1.
       -4    1    3    3    0  502  0.10365039302E+04 -0.97496886263E+03  0.16342490728E+04  0.21669509282E+04  0.12699999809E+01 0.  1.
</event>
<event>
 5   0  0.2383270E-08  0.3301562E+04  0.7818609E-02  0.8162498E-01
        1   -1    0    0  501    0  0.00000000000E+00  0.00000000000E+00  0.15573034677E+04  0.15573034677E+04  0.50400001928E-02 0. -1.
       -1   -1    0    0    0  501  0.00000000000E+00  0.00000000000E+00 -0.17498690667E+04  0.17498690667E+04  0.50400001928E-02 0.  1.
    10030    2    1    2    0    0  0.00000000000E+00  0.00000000000E+00 -0.19256559894E+03  0.33071725344E+04  0.33015615491E+04 0.  0.
        5    1    3    3  502    0  0.84733496224E+03 -0.72247564989E+03  0.11244381456E+04  0.15825077681E+04  0.46999998093E+01 0. -1.
       -5    1    3    3    0  502 -0.84733496224E+03  0.72247564989E+03 -0.13170037445E+04  0.17246647663E+04  0.46999998093E+01 0.  1.
</event>
<event>
 5   0  0.6706080E-08  0.3299960E+04  0.7818609E-02  0.8162906E-01
       -2   -1    0    0    0  501  0.00000000000E+00  0.00000000000E+00  0.10513468325E+04  0.10513468325E+04  0.25500000920E-02 0. -1.
        2   -1    0    0  501    0  0.00000000000E+00  0.00000000000E+00 -0.25894721193E+04  0.25894721193E+04  0.25500000920E-02 0.  1.
    10030    2    1    2    0    0  0.00000000000E+00  0.00000000000E+00 -0.15381252868E+04  0.36408189519E+04  0.32999595819E+04 0.  0.
        4    1    3    3  502    0 -0.55912013427E+02 -0.14286555320E+04  0.13956305662E+03  0.14365452454E+04  0.12699999809E+01 0. -1.
       -4    1    3    3    0  502  0.55912013427E+02  0.14286555320E+04 -0.16776883434E+04  0.22042737065E+04  0.12699999809E+01 0.  1.
</event>
<event>
 5   0  0.2279938E-08  0.3300368E+04  0.7818609E-02  0.8162802E-01
       -1   -1    0    0    0  501  0.00000000000E+00  0.00000000000E+00  0.11586356695E+04  0.11586356695E+04  0.50400001928E-02 0. -1.
        1   -1    0    0  501    0  0.00000000000E+00  0.00000000000E+00 -0.23502700395E+04  0.23502700395E+04  0.50400001928E-02 0.  1.
    10030    2    1    2    0    0  0.00000000000E+00  0.00000000000E+00 -0.11916343700E+04  0.35089057090E+04  0.33003676769E+04 0.  0.
        3    1    3    3  502    0 -0.52574254909E+03  0.73737298697E+03  0.87083378852E+03  0.12563740077E+04  0.10100000352E+00 0. -1.
       -3    1    3    3    0  502  0.52574254909E+03 -0.73737298697E+03 -0.20624681586E+04  0.22525317013E+04  0.10100000352E+00 0.  1.
</event>
<event>
 5   0  0.6765252E-08  0.3300836E+04  0.7818609E-02  0.8162683E-01
        2   -1    0    0  501    0  0.00000000000E+00  0.00000000000E+00  0.17565187577E+04  0.17565187577E+04  0.25500000920E-02 0.  1.
       -2   -1    0    0    0  501  0.00000000000E+00  0.00000000000E+00 -0.15507262041E+04  0.15507262041E+04  0.25500000920E-02 0. -1.
    10030    2    1    2    0    0  0.00000000000E+00  0.00000000000E+00  0.20579255353E+03  0.33072449618E+04  0.33008360550E+04 0.  0.
        2    1    3    3  502    0 -0.29802768364E+03 -0.70795354649E+03  0.15665066071E+04  0.17446952955E+04  0.25500000920E-02 0.  1.
       -2    1    3    3    0  502  0.29802768364E+03  0.70795354649E+03 -0.13607140535E+04  0.15625496663E+04  0.25500000920E-02 0. -1.
</event>
<event>
 5   0  0.6603516E-08  0.3300570E+04  0.7818609E-02  0.8162750E-01
       -2   -1    0    0    0  501  0.00000000000E+00  0.00000000000E+00  0.29583243196E+04  0.29583243196E+04  0.25500000920E-02 0.  1.
        2   -1    0    0  501    0  0.00000000000E+00  0.00000000000E+00 -0.92060267509E+03  0.92060267509E+03  0.25500000920E-02 0. -1.
    10030    2    1    2    0    0  0.00000000000E+00  0.00000000000E+00  0.20377216445E+04  0.38789269947E+04  0.33005704249E+04 0.  0.
        1    1    3    3  502    0 -0.19350245409E+02 -0.16496810387E+04  0.10661529709E+04  0.19643075418E+04  0.50400001928E-02 0.  1.
       -1    1    3    3    0  502  0.19350245409E+02  0.16496810387E+04  0.97156867360E+03  0.19146194528E+04  0.50400001928E-02 0. -1.
</event>
<event>
 5   0  0.2309822E-08  0.3299269E+04  0.7818609E-02  0.8163081E-01
        1   -1    0    0  501    0  0.00000000000E+00  0.00000000000E+00  0.28276322515E+04  0.28276322515E+04  0.50400001928E-02 0. -1.
       -1   -1    0    0    0  501  0.00000000000E+00  0.00000000000E+00 -0.96239337907E+03  0.96239337908E+03  0.50400001928E-02 0.  1.
    10030    2    1    2    0    0  0.00000000000E+00  0.00000000000E+00  0.18652388724E+04  0.37900256306E+04  0.32992693478E+04 0.  0.
        4    1    3    3  502    0  0.10265536802E+04 -0.80555425579E+03  0.20919793657E+04  0.24655850009E+04  0.12699999809E+01 0. -1.
       -4    1    3    3    0  502 -0.10265536802E+04  0.80555425579E+03 -0.22674049329E+03  0.13244406297E+04  0.12699999809E+01 0.  1.
</event>
<event>
 5   0  0.6603516E-08  0.3298764E+04  0.7818609E-02  0.8163210E-01
       -2   -1    0    0    0  501  0.00000000000E+00  0.00000000000E+00  0.12035880958E+04  0.12035880958E+04  0.25500000920E-02 0. -1.
        2   -1    0    0  501    0  0.00000000000E+00  0.00000000000E+00 -0.22602922872E+04  0.22602922872E+04  0.25500000920E-02 0.  1.
    10030    2    1    2    0    0  0.00000000000E+00  0.00000000000E+00 -0.10567041914E+04  0.34638803831E+04  0.32987639443E+04 0.  0.
        1    1    3    3  502    0 -0.38297279677E+03  0.39934734532E+03 -0.21599328047E+04  0.22296762514E+04  0.50400001928E-02 0.  1.
       -1    1    3    3    0  502  0.38297279677E+03 -0.39934734532E+03  0.11032286133E+04  0.12342041316E+04  0.50400001928E-02 0. -1.
</event>
<event>
 5   0  0.2291682E-08  0.3301189E+04  0.7818609E-02  0.8162593E-01
       -1   -1    0    0    0  501  0.00000000000E+00  0.00000000000E+00  0.14349138134E+04  0.14349138134E+04  0.50400001928E-02 0.  1.
        1   -1    0    0  501    0  0.00000000000E+00  0.00000000000E+00 -0.18986935130E+04  0.18986935130E+04  0.50400001928E-02 0. -1.
    10030    2    1    2    0    0  0.00000000000E+00  0.00000000000E+00 -0.46377969955E+03  0.33336073264E+04  0.33011886037E+04 0.  0.
        2    1    3    3  502    0  0.14293823414E+04 -0.78123760932E+03  0.37176521204E+02  0.16293704839E+04  0.25500000920E-02 0.  1.
       -2    1    3    3    0  502 -0.14293823414E+04  0.78123760932E+03 -0.50095622076E+03  0.17042368425E+04  0.25500000920E-02 0. -1.
</event>
<event>
 5   0  0.6706080E-08  0.3302618E+04  0.7818609E-02  0.8162230E-01
        2   -1    0    0  501    0  0.00000000000E+00  0.00000000000E+00  0.11049778825E+04  0.11049778825E+04  0.25500000920E-02 0.  1.
       -2   -1    0    0    0  501  0.00000000000E+00  0.00000000000E+00 -0.24677608789E+04  0.24677608789E+04  0.25500000920E-02 0. -1.
    10030    2    1    2    0    0  0.00000000000E+00  0.00000000000E+00 -0.13627829965E+04  0.35727387614E+04  0.33026178649E+04 0.  0.
        4    1    3    3  502    0 -0.14149718076E+04 -0.71773287911E+03 -0.18620355880E+03  0.15974852364E+04  0.12699999809E+01 0. -1.
       -4    1    3    3    0  502  0.14149718076E+04  0.71773287911E+03 -0.11765794377E+04  0.19752535250E+04  0.12699999809E+01 0.  1.
</event>
<event>
 5   0  0.7084130E-08  0.3299825E+04  0.7818609E-02  0.8162940E-01
       -2   -1    0    0    0  501  0.00000000000E+00  0.00000000000E+00  0.11655626011E+04  0.11655626011E+04  0.25500000920E-02 0. -1.
        2   -1    0    0  501    0  0.00000000000E+00  0.00000000000E+00 -0.23355347287E+04  0.23355347287E+04  0.25500000920E-02 0.  1.
    10030    2    1    2    0    0  0.00000000000E+00  0.00000000000E+00 -0.11699721276E+04  0.35010973298E+04  0.32998254095E+04 0.  0.
        3    1    3    3  502    0  0.38671742336E+03  0.67125132644E+03  0.96060439064E+03  0.12340540970E+04  0.10100000352E+00 0. -1.
       -3    1    3    3    0  502 -0.38671742336E+03 -0.67125132644E+03 -0.21305765183E+04  0.22670432328E+04  0.10100000352E+00 0.  1.
</event>
<event>
 5   0  0.2291682E-08  0.3299463E+04  0.7818609E-02  0.8163032E-01
        1   -1    0    0  501    0  0.00000000000E+00  0.00000000000E+00  0.20087644197E+04  0.20087644197E+04  0.50400001928E-02 0. -1.
       -1   -1    0    0    0  501  0.00000000000E+00  0.00000000000E+00 -0.13548700435E+04  0.13548700435E+04  0.50400001928E-02 0.  1.
    10030    2    1    2    0    0  0.00000000000E+00  0.00000000000E+00  0.65389437616E+03  0.33636344632E+04  0.32994634331E+04 0.  0.
        2    1    3    3  502    0  0.10005207273E+04 -0.82724818301E+03 -0.71080648356E+03  0.14800767342E+04  0.25500000920E-02 0. -1.
       -2    1    3    3    0  502 -0.10005207273E+04  0.82724818301E+03  0.13647008597E+04  0.18835577290E+04  0.25500000920E-02 0.  1.
</event>
<event>
 5   0  0.2309822E-08  0.3299449E+04  0.7818609E-02  0.8163035E-01
       -1   -1    0    0    0  501  0.00000000000E+00  0.00000000000E+00  0.18381969241E+04  0.18381969241E+04  0.50400001928E-02 0.  1.
        1   -1    0    0  501    0  0.00000000000E+00  0.00000000000E+00 -0.14805767540E+04  0.14805767540E+04  0.50400001928E-02 0. -1.
    10030    2    1    2    0    0  0.00000000000E+00  0.00000000000E+00  0.35762017010E+03  0.33187736781E+04  0.32994494299E+04 0.  0.
        4    1    3    3  502    0  0.39126136203E+03  0.15108300168E+04 -0.35901509813E+03  0.16014325607E+04  0.12699999809E+01 0.  1.
       -4    1    3    3    0  502 -0.39126136203E+03 -0.15108300168E+04  0.71663526823E+03  0.17173411174E+04  0.12699999809E+01 0. -1.
</event>
<event>
 5   0  0.2279938E-08  0.3299930E+04  0.7818609E-02  0.8162913E-01
        1   -1    0    0  501    0  0.00000000000E+00  0.00000000000E+00  0.21194270017E+04  0.21194270017E+04  0.50400001928E-02 0. -1.
       -1   -1    0    0    0  501  0.00000000000E+00  0.00000000000E+00 -0.12844905212E+04  0.12844905213E+04  0.50400001928E-02 0.  1.
    10030    2    1    2    0    0  0.00000000000E+00  0.00000000000E+00  0.83493648046E+03  0.34039175230E+04  0.32999296321E+04 0.  0.
        3    1    3    3  502    0  0.14909457584E+04 -0.51874940270E+03 -0.77618573871E+02  0.15805204366E+04  0.10100000352E+00 0.  1.
       -3    1    3    3    0  502 -0.14909457584E+04  0.51874940270E+03  0.91255505433E+03  0.18233970864E+04  0.10100000352E+00 0. -1.
</event>
<event>
 5   0  0.2279938E-08  0.3299813E+04  0.7818609E-02  0.8162943E-01
       -1   -1    0    0    0  501  0.00000000000E+00  0.00000000000E+00  0.10378612340E+04  0.10378612340E+04  0.50400001928E-02 0. -1.
        1   -1    0    0  501    0  0.00000000000E+00  0.00000000000E+00 -0.26228864266E+04  0.26228864266E+04  0.50400001928E-02 0.  1.
    10030    2    1    2    0    0  0.00000000000E+00  0.00000000000E+00 -0.15850251926E+04  0.36607476606E+04  0.32998134150E+04 0.  0.
        3    1    3    3  502    0  0.66260364035E+03  0.92664157644E+03 -0.21165772376E+04  0.24036654111E+04  0.10100000352E+00 0.  1.
       -3    1    3    3    0  502 -0.66260364035E+03 -0.92664157644E+03  0.53155204503E+03  0.12570822496E+04  0.10100000352E+00 0. -1.
</event>
<event>
 5   0  0.6603516E-08  0.3298244E+04  0.7818609E-02  0.8163342E-01
        2   -1    0    0  501    0  0.00000000000E+00  0.00000000000E+00  0.18783333158E+04  0.18783333158E+04  0.25500000920E-02 0.  1.
       -2   -1    0    0    0  501  0.00000000000E+00  0.00000000000E+00 -0.14478812475E+04  0.14478812475E+04  0.25500000920E-02 0. -1.
    10030    2    1    2    0    0  0.00000000000E+00  0.00000000000E+00  0.43045206828E+03  0.33262145633E+04  0.32982441295E+04 0.  0.
        1    1    3    3  502    0 -0.13728927097E+04 -0.50846795750E+03 -0.55030925849E+03  0.15640378308E+04  0.50400001928E-02 0.  1.
       -1    1    3    3    0  502  0.13728927097E+04  0.50846795750E+03  0.98076132677E+03  0.17621767324E+04  0.50400001928E-02 0. -1.
</event>
<event>
 5   0  0.6821287E-08  0.3300665E+04  0.7818609E-02  0.8162726E-01
        2   -1    0    0  501    0  0.00000000000E+00  0.00000000000E+00  0.16893325059E+04  0.16893325059E+04  0.25500000920E-02 0.  1.
       -2   -1    0    0    0  501  0.00000000000E+00  0.00000000000E+00 -0.16122326911E+04  0.16122326911E+04  0.25500000920E-02 0. -1.
    10030    2    1    2    0    0  0.00000000000E+00  0.00000000000E+00  0.77099814876E+02  0.33015651970E+04  0.33006648373E+04 0.  0.
        5    1    3    3  502    0 -0.49049837367E+03  0.12721395783E+04 -0.89156784017E+03  0.16290620200E+04  0.46999998093E+01 0. -1.
       -5    1    3    3    0  502  0.49049837367E+03 -0.12721395783E+04  0.96866765505E+03  0.16725031770E+04  0.46999998093E+01 0.  1.
</event>
<event>
 5   0  0.6765252E-08  0.3298945E+04  0.7818609E-02  0.8163164E-01
        2   -1    0    0  501    0  0.00000000000E+00  0.00000000000E+00  0.20628363575E+04  0.20628363575E+04  0.25500000920E-02 0.  1.
       -2   -1    0    0    0  501  0.00000000000E+00  0.00000000000E+00 -0.13189412628E+04  0.13189412628E+04  0.25500000920E-02 0. -1.
    10030    2    1    2    0    0  0.00000000000E+00  0.00000000000E+00  0.74389509473E+03  0.33817776202E+04  0.32989452801E+04 0.  0.
        2    1    3    3  502    0 -0.14613984130E+03  0.12350973388E+04  0.14826365171E+04  0.19352088598E+04  0.25500000920E-02 0.  1.
       -2    1    3    3    0  502  0.14613984130E+03 -0.12350973388E+04 -0.73874142232E+03  0.14465687604E+04  0.25500000920E-02 0. -1.
</event>
<event>
 5   0  0.2244093E-08  0.3299800E+04  0.7818609E-02  0.8162946E-01
        1   -1    0    0  501    0  0.00000000000E+00  0.00000000000E+00  0.13929479549E+04  0.13929479550E+04  0.50400001928E-02 0. -1.
       -1   -1    0    0    0  501  0.00000000000E+00  0.00000000000E+00 -0.19542511002E+04  0.19542511002E+04  0.50400001928E-02 0.  1.
    10030    2    1    2    0    0  0.00000000000E+00  0.00000000000E+00 -0.56130314523E+03  0.33471990551E+04  0.32998000385E+04 0.  0.
        1    1    3    3  502    0 -0.14178529963E+04  0.42249249396E+03  0.46015594106E+03  0.15493710068E+04  0.50400001928E-02 0. -1.
       -1    1    3    3    0  502  0.14178529963E+04 -0.42249249396E+03 -0.10214590863E+04  0.17978280484E+04  0.50400001928E-02 0.  1.
</event>
<event>
 5   0  0.6765252E-08  0.3296858E+04  0.7818609E-02  0.8163695E-01
        2   -1    0    0  501    0  0.00000000000E+00  0.00000000000E+00  0.15989574995E+04  0.15989574995E+04  0.25500000920E-02 0.  1.
       -2   -1    0    0    0  501  0.00000000000E+00  0.00000000000E+00 -0.16994308392E+04  0.16994308392E+04  0.25500000920E-02 0. -1.
    10030    2    1    2    0    0  0.00000000000E+00  0.00000000000E+00 -0.10047333974E+03  0.32983883387E+04  0.32968577071E+04 0.  0.
        2    1    3    3  502    0  0.20678861351E+03 -0.45787110352E+03  0.15204954860E+04  0.16013475578E+04  0.25500000920E-02 0.  1.
       -2    1    3    3    0  502 -0.20678861351E+03  0.45787110352E+03 -0.16209688257E+04  0.16970407809E+04  0.25500000920E-02 0. -1.
</event>
<event>
 5   0  0.2244093E-08  0.3300079E+04  0.7818609E-02  0.8162875E-01
       -1   -1    0    0    0  501  0.00000000000E+00  0.00000000000E+00  0.20535867235E+04  0.20535867235E+04  0.50400001928E-02 0. -1.
        1   -1    0    0  501    0  0.00000000000E+00  0.00000000000E+00 -0.13257924985E+04  0.13257924985E+04  0.50400001928E-02 0.  1.
    10030    2    1    2    0    0  0.00000000000E+00  0.00000000000E+00  0.72779422502E+03  0.33793792220E+04  0.33000787100E+04 0.  0.
        1    1    3    3  502    0  0.81849064249E+03  0.43229326171E+03 -0.10348787860E+04  0.13884446325E+04  0.50400001928E-02 0.  1.
       -1    1    3    3    0  502 -0.81849064249E+03 -0.43229326171E+03  0.17626730110E+04  0.19909345895E+04  0.50400001928E-02 0. -1.
</event>
<event>
 5   0  0.2383270E-08  0.3300154E+04  0.7818609E-02  0.8162856E-01
        1   -1    0    0  501    0  0.00000000000E+00  0.00000000000E+00  0.19639831057E+04  0.19639831057E+04  0.50400001928E-02 0. -1.
       -1   -1    0    0    0  501  0.00000000000E+00  0.00000000000E+00 -0.13863427530E+04  0.13863427530E+04  0.50400001928E-02 0.  1.
    10030    2    1    2    0    0  0.00000000000E+00  0.00000000000E+00  0.57764035273E+03  0.33503258587E+04  0.33001537816E+04 0.  0.
        5    1    3    3  502    0  0.18834614431E+03  0.10278598562E+03  0.19497531488E+04  0.19615296735E+04  0.46999998093E+01 0. -1.
       -5    1    3    3    0  502 -0.18834614431E+03 -0.10278598562E+03 -0.13721127961E+04  0.13887961852E+04  0.46999998093E+01 0.  1.
</event>
<event>
 5   0  0.6706080E-08  0.3301626E+04  0.7818609E-02  0.8162482E-01
       -2   -1    0    0    0  501  0.00000000000E+00  0.00000000000E+00  0.18342349133E+04  0.18342349133E+04  0.25500000920E-02 0.  1.
        2   -1    0    0  501    0  0.00000000000E+00  0.00000000000E+00 -0.14857334872E+04  0.14857334872E+04  0.25500000920E-02 0. -1.
    10030    2    1    2    0    0  0.00000000000E+00  0.00000000000E+00  0.34850142609E+03  0.33199684006E+04  0.33016264078E+04 0.  0.
        4    1    3    3  502    0  0.26769167114E+03 -0.13381433317E+04  0.11083333565E+04  0.17580360773E+04  0.12699999809E+01 0.  1.
       -4    1    3    3    0  502 -0.26769167114E+03  0.13381433317E+04 -0.75983193040E+03  0.15619323233E+04  0.12699999809E+01 0. -1.
</event>
<event>
 5   0  0.2279938E-08  0.3301006E+04  0.7818609E-02  0.8162639E-01
       -1   -1    0    0    0  501  0.00000000000E+00  0.00000000000E+00  0.89190368410E+03  0.89190368412E+03  0.50400001928E-02 0. -1.
        1   -1    0    0  501    0  0.00000000000E+00  0.00000000000E+00 -0.30543218682E+04  0.30543218682E+04  0.50400001928E-02 0.  1.
    10030    2    1    2    0    0  0.00000000000E+00  0.00000000000E+00 -0.21624181841E+04  0.39462255523E+04  0.33010064688E+04 0.  0.
        3    1    3    3  502    0 -0.10788278657E+04 -0.38442432866E+03  0.33958513930E+03  0.11945583725E+04  0.10100000352E+00 0. -1.
       -3    1    3    3    0  502  0.10788278657E+04  0.38442432866E+03 -0.25020033234E+04  0.27516671799E+04  0.10100000352E+00 0.  1.
</event>
<event>
 5   0  0.2200750E-08  0.3301361E+04  0.7818609E-02  0.8162549E-01
       -3   -1    0    0    0  501  0.00000000000E+00  0.00000000000E+00  0.14406408313E+04  0.14406408349E+04  0.10100000352E+00 0. -1.
        3   -1    0    0  501    0  0.00000000000E+00  0.00000000000E+00 -0.18913434899E+04  0.18913434926E+04  0.10100000352E+00 0.  1.
    10030    2    1    2    0    0  0.00000000000E+00  0.00000000000E+00 -0.45070265862E+03  0.33319843275E+04  0.33013613362E+04 0.  0.
        3    1    3    3  502    0  0.20254479969E+03 -0.11356152746E+04 -0.14170237421E+04  0.18271843759E+04  0.10100000352E+00 0. -1.
       -3    1    3    3    0  502 -0.20254479969E+03  0.11356152746E+04  0.96632108350E+03  0.15047999516E+04  0.10100000352E+00 0.  1.
</event>
<event>
 5   0  0.2244093E-08  0.3296994E+04  0.7818609E-02  0.8163661E-01
       -1   -1    0    0    0  501  0.00000000000E+00  0.00000000000E+00  0.99473354755E+03  0.99473354756E+03  0.50400001928E-02 0. -1.
        1   -1    0    0  501    0  0.00000000000E+00  0.00000000000E+00 -0.27319299050E+04  0.27319299050E+04  0.50400001928E-02 0.  1.
    10030    2    1    2    0    0  0.00000000000E+00  0.00000000000E+00 -0.17371963574E+04  0.37266634525E+04  0.32969939800E+04 0.  0.
        1    1    3    3  502    0 -0.19829230472E+03 -0.14718639533E+04 -0.59933073192E+02  0.14863698424E+04  0.50400001928E-02 0. -1.
       -1    1    3    3    0  502  0.19829230472E+03  0.14718639533E+04 -0.16772632842E+04  0.22402936101E+04  0.50400001928E-02 0.  1.
</event>
<event>
 5   0  0.2291682E-08  0.3296326E+04  0.7818609E-02  0.8163831E-01
       -1   -1    0    0    0  501  0.00000000000E+00  0.00000000000E+00  0.16346792020E+04  0.16346792020E+04  0.50400001928E-02 0.  1.
        1   -1    0    0  501    0  0.00000000000E+00  0.00000000000E+00 -0.16617577703E+04  0.16617577703E+04  0.50400001928E-02 0. -1.
    10030    2    1    2    0    0  0.00000000000E+00  0.00000000000E+00 -0.27078568352E+02  0.32964369723E+04  0.32963257521E+04 0.  0.
        2    1    3    3  502    0 -0.12200728477E+04 -0.51553252277E+03  0.96735533518E+03  0.16401609312E+04  0.25500000920E-02 0.  1.
       -2    1    3    3    0  502  0.12200728477E+04  0.51553252277E+03 -0.99443390353E+03  0.16562760411E+04  0.25500000920E-02 0. -1.
</event>
<event>
 5   0  0.2309822E-08  0.3299062E+04  0.7818609E-02  0.8163134E-01
        1   -1    0    0  501    0  0.00000000000E+00  0.00000000000E+00  0.20682415179E+04  0.20682415179E+04  0.50400001928E-02 0. -1.
       -1   -1    0    0    0  501  0.00000000000E+00  0.00000000000E+00 -0.13155875652E+04  0.13155875652E+04  0.50400001928E-02 0.  1.
    10030    2    1    2    0    0  0.00000000000E+00  0.00000000000E+00  0.75265395271E+03  0.33838290832E+04  0.32990621836E+04 0.  0.
        4    1    3    3  502    0  0.16098288192E+04  0.34327133673E+03  0.26601275137E+03  0.16673777120E+04  0.12699999809E+01 0. -1.
       -4    1    3    3    0  502 -0.16098288192E+04 -0.34327133673E+03  0.48664120134E+03  0.17164513711E+04  0.12699999809E+01 0.  1.
</event>
<event>
 5   0  0.2200750E-08  0.3309356E+04  0.7818609E-02  0.8160519E-01
       -3   -1    0    0    0  501  0.00000000000E+00  0.00000000000E+00  0.14902515382E+04  0.14902515416E+04  0.10100000352E+00 0.  1.
        3   -1    0    0  501    0  0.00000000000E+00  0.00000000000E+00 -0.18372469345E+04  0.18372469373E+04  0.10100000352E+00 0. -1.
    10030    2    1    2    0    0  0.00000000000E+00  0.00000000000E+00 -0.34699539633E+03  0.33274984790E+04  0.33093564816E+04 0.  0.
        2    1    3    3  502    0  0.24675767513E+03  0.16296933192E+04 -0.27199490181E+02  0.16484930929E+04  0.25500000920E-02 0.  1.
       -2    1    3    3    0  502 -0.24675767513E+03 -0.16296933192E+04 -0.31979590615E+03  0.16790053861E+04  0.25500000920E-02 0. -1.
</event>
<event>
 5   0  0.6603516E-08  0.3293123E+04  0.7818609E-02  0.8164647E-01
       -2   -1    0    0    0  501  0.00000000000E+00  0.00000000000E+00  0.11231328422E+04  0.11231328422E+04  0.25500000920E-02 0. -1.
        2   -1    0    0  501    0  0.00000000000E+00  0.00000000000E+00 -0.24139307577E+04  0.24139307577E+04  0.25500000920E-02 0.  1.
    10030    2    1    2    0    0  0.00000000000E+00  0.00000000000E+00 -0.12907979155E+04  0.35370636000E+04  0.32931230848E+04 0.  0.
        1    1    3    3  502    0  0.14505614527E+04  0.72648403133E+03 -0.94778005847E+03  0.18788812137E+04  0.50400001928E-02 0.  1.
       -1    1    3    3    0  502 -0.14505614527E+04 -0.72648403133E+03 -0.34301785701E+03  0.16581823863E+04  0.50400001928E-02 0. -1.
</event>
<event>
 5   0  0.2291682E-08  0.3299633E+04  0.7818609E-02  0.8162989E-01
       -1   -1    0    0    0  501  0.00000000000E+00  0.00000000000E+00  0.13538070558E+04  0.13538070558E+04  0.50400001928E-02 0. -1.
        1   -1    0    0  501    0  0.00000000000E+00  0.00000000000E+00 -0.20105481426E+04  0.20105481426E+04  0.50400001928E-02 0.  1.
    10030    2    1    2    0    0  0.00000000000E+00  0.00000000000E+00 -0.65674108681E+03  0.33643551985E+04  0.32996328654E+04 0.  0.
        2    1    3    3  502    0  0.49496585765E+03 -0.70809120328E+03  0.11047272477E+04  0.14024288375E+04  0.25500000920E-02 0.  1.
       -2    1    3    3    0  502 -0.49496585765E+03  0.70809120328E+03 -0.17614683345E+04  0.19619263610E+04  0.25500000920E-02 0. -1.
</event>
<event>
 5   0  0.7084130E-08  0.3300693E+04  0.7818609E-02  0.8162719E-01
        2   -1    0    0  501    0  0.00000000000E+00  0.00000000000E+00  0.20715949997E+04  0.20715949997E+04  0.25500000920E-02 0. -1.
       -2   -1    0    0    0  501  0.00000000000E+00  0.00000000000E+00 -0.13147570148E+04  0.13147570148E+04  0.25500000920E-02 0.  1.
    10030    2    1    2    0    0  0.00000000000E+00  0.00000000000E+00  0.75683798491E+03  0.33863520145E+04  0.33006932955E+04 0.  0.
        3    1    3    3  502    0 -0.59345010424E+03  0.15393442937E+04  0.42290517396E+03  0.17031185153E+04  0.10100000352E+00 0.  1.
       -3    1    3    3    0  502  0.59345010424E+03 -0.15393442937E+04  0.33393281095E+03  0.16832334993E+04  0.10100000352E+00 0. -1.
</event>
<event>
 5   0  0.2309822E-08  0.3299197E+04  0.7818609E-02  0.8163100E-01
        1   -1    0    0  501    0  0.00000000000E+00  0.00000000000E+00  0.23335001055E+04  0.23335001055E+04  0.50400001928E-02 0. -1.
       -1   -1    0    0    0  501  0.00000000000E+00  0.00000000000E+00 -0.11661344085E+04  0.11661344085E+04  0.50400001928E-02 0.  1.
    10030    2    1    2    0    0  0.00000000000E+00  0.00000000000E+00  0.11673656970E+04  0.34996345140E+04  0.32991967297E+04 0.  0.
        4    1    3    3  502    0 -0.59010462435E+03 -0.16673198582E+03  0.22081083657E+04  0.22916734476E+04  0.12699999809E+01 0. -1.
       -4    1    3    3    0  502  0.59010462435E+03  0.16673198582E+03 -0.10407426687E+04  0.12079610665E+04  0.12699999809E+01 0.  1.
</event>
<event>
 5   0  0.6603516E-08  0.3300924E+04  0.7818609E-02  0.8162660E-01
        2   -1    0    0  501    0  0.00000000000E+00  0.00000000000E+00  0.28956013594E+04  0.28956013594E+04  0.25500000920E-02 0.  1.
       -2   -1    0    0    0  501  0.00000000000E+00  0.00000000000E+00 -0.94074557134E+03  0.94074557134E+03  0.25500000920E-02 0. -1.
    10030    2    1    2    0    0  0.00000000000E+00  0.00000000000E+00  0.19548557881E+04  0.38363469308E+04  0.33009236012E+04 0.  0.
        1    1    3    3  502    0 -0.78619938781E+03  0.98270633705E+03  0.22184327438E+04  0.25505421113E+04  0.50400001928E-02 0.  1.
       -1    1    3    3    0  502  0.78619938781E+03 -0.98270633705E+03 -0.26357695577E+03  0.12858048195E+04  0.50400001928E-02 0. -1.
</event>
<event>
 5   0  0.2279938E-08  0.3300690E+04  0.7818609E-02  0.8162720E-01
        1   -1    0    0  501    0  0.00000000000E+00  0.00000000000E+00  0.16079743370E+04  0.16079743370E+04  0.50400001928E-02 0.  1.
       -1   -1    0    0    0  501  0.00000000000E+00  0.00000000000E+00 -0.16938322620E+04  0.16938322620E+04  0.50400001928E-02 0. -1.
    10030    2    1    2    0    0  0.00000000000E+00  0.00000000000E+00 -0.85857924983E+02  0.33018065989E+04  0.33006901147E+04 0.  0.
        3    1    3    3  502    0 -0.92807679228E+03 -0.66217190731E+03 -0.12365805215E+04  0.16819421998E+04  0.10100000352E+00 0. -1.
       -3    1    3    3    0  502  0.92807679228E+03  0.66217190731E+03  0.11507225965E+04  0.16198643991E+04  0.10100000352E+00 0.  1.
</event>
<event>
 5   0  0.6706080E-08  0.3300883E+04  0.7818609E-02  0.8162671E-01
       -2   -1    0    0    0  501  0.00000000000E+00  0.00000000000E+00  0.25078224198E+04  0.25078224198E+04  0.25500000920E-02 0.  1.
        2   -1    0    0  501    0  0.00000000000E+00  0.00000000000E+00 -0.10861845432E+04  0.10861845432E+04  0.25500000920E-02 0. -1.
    10030    2    1    2    0    0  0.00000000000E+00  0.00000000000E+00  0.14216378766E+04  0.35940069630E+04  0.33008834875E+04 0.  0.
        4    1    3    3  502    0  0.65966887610E+03  0.52754499272E+03  0.22546494984E+04  0.24076778686E+04  0.12699999809E+01 0.  1.
       -4    1    3    3    0  502 -0.65966887610E+03 -0.52754499272E+03 -0.83301162173E+03  0.11863290944E+04  0.12699999809E+01 0. -1.
</event>
<event>
 5   0  0.6706080E-08  0.3296292E+04  0.7818609E-02  0.8163839E-01
        2   -1    0    0  501    0  0.00000000000E+00  0.00000000000E+00  0.15116615629E+04  0.15116615629E+04  0.25500000920E-02 0.  1.
       -2   -1    0    0    0  501  0.00000000000E+00  0.00000000000E+00 -0.17969536836E+04  0.17969536836E+04  0.25500000920E-02 0. -1.
    10030    2    1    2    0    0  0.00000000000E+00  0.00000000000E+00 -0.28529212075E+03  0.33086152465E+04  0.32962923498E+04 0.  0.
        4    1    3    3  502    0  0.26458340875E+03  0.14695096248E+04  0.55776004493E+03  0.15939136734E+04  0.12699999809E+01 0.  1.
       -4    1    3    3    0  502 -0.26458340875E+03 -0.14695096248E+04 -0.84305216567E+03  0.17147015731E+04  0.12699999809E+01 0. -1.
</event>
<event>
 5   0  0.6821287E-08  0.3300321E+04  0.7818609E-02  0.8162814E-01
        2   -1    0    0  501    0  0.00000000000E+00  0.00000000000E+00  0.28925574706E+04  0.28925574706E+04  0.25500000920E-02 0.  1.
       -2   -1    0    0    0  501  0.00000000000E+00  0.00000000000E+00 -0.94139199721E+03  0.94139199721E+03  0.25500000920E-02 0. -1.
    10030    2    1    2    0    0  0.00000000000E+00  0.00000000000E+00  0.19511654734E+04  0.38339494678E+04  0.33003214718E+04 0.  0.
        5    1    3    3  502    0 -0.12452946730E+04 -0.66974939802E+03 -0.12663139429E+02  0.14140387279E+04  0.46999998093E+01 0. -1.
       -5    1    3    3    0  502  0.12452946730E+04  0.66974939802E+03  0.19638286128E+04  0.24199107399E+04  0.46999998093E+01 0.  1.
</event>
<event>
 5   0  0.6765252E-08  0.3299273E+04  0.7818609E-02  0.8163080E-01
        2   -1    0    0  501    0  0.00000000000E+00  0.00000000000E+00  0.20488676808E+04  0.20488676808E+04  0.25500000920E-02 0.  1.
       -2   -1    0    0    0  501  0.00000000000E+00  0.00000000000E+00 -0.13281970879E+04  0.13281970879E+04  0.25500000920E-02 0. -1.
    10030    2    1    2    0    0  0.00000000000E+00  0.00000000000E+00  0.72067059287E+03  0.33770647687E+04  0.32992727000E+04 0.  0.
        2    1    3    3  502    0  0.11602861186E+04 -0.10885017408E+04 -0.86067213233E+02  0.15932694317E+04  0.25500000920E-02 0. -1.
       -2    1    3    3    0  502 -0.11602861186E+04  0.10885017408E+04  0.80673780610E+03  0.17837953371E+04  0.25500000920E-02 0.  1.
</event>
<event>
 5   0  0.7084130E-08  0.3301010E+04  0.7818609E-02  0.8162638E-01
        2   -1    0    0  501    0  0.00000000000E+00  0.00000000000E+00  0.15788650191E+04  0.15788650191E+04  0.25500000920E-02 0.  1.
       -2   -1    0    0    0  501  0.00000000000E+00  0.00000000000E+00 -0.17253958545E+04  0.17253958545E+04  0.25500000920E-02 0. -1.
    10030    2    1    2    0    0  0.00000000000E+00  0.00000000000E+00 -0.14653083544E+03  0.33042608736E+04  0.33010102446E+04 0.  0.
        3    1    3    3  502    0  0.14264879707E+04  0.77223091222E+03 -0.37845684296E+03  0.16656644634E+04  0.10100000352E+00 0. -1.
       -3    1    3    3    0  502 -0.14264879707E+04 -0.77223091222E+03  0.23192600753E+03  0.16385964102E+04  0.10100000352E+00 0.  1.
</event>
<event>
 5   0  0.7084130E-08  0.3299211E+04  0.7818609E-02  0.8163096E-01
        2   -1    0    0  501    0  0.00000000000E+00  0.00000000000E+00  0.16270888679E+04  0.16270888679E+04  0.25500000920E-02 0. -1.
       -2   -1    0    0    0  501  0.00000000000E+00  0.00000000000E+00 -0.16724334637E+04  0.16724334637E+04  0.25500000920E-02 0.  1.
    10030    2    1    2    0    0  0.00000000000E+00  0.00000000000E+00 -0.45344595762E+02  0.32995223316E+04  0.32992107366E+04 0.  0.
        3    1    3    3  502    0  0.11441802825E+04  0.33858504527E+03  0.11164741323E+04  0.16341061318E+04  0.10100000352E+00 0. -1.
       -3    1    3    3    0  502 -0.11441802825E+04 -0.33858504527E+03 -0.11618187280E+04  0.16654161998E+04  0.10100000352E+00 0.  1.
</event>
<event>
 5   0  0.6765252E-08  0.3299092E+04  0.7818609E-02  0.8163126E-01
        2   -1    0    0  501    0  0.00000000000E+00  0.00000000000E+00  0.21942133178E+04  0.21942133178E+04  0.25500000920E-02 0. -1.
       -2   -1    0    0    0  501  0.00000000000E+00  0.00000000000E+00 -0.12400812071E+04  0.12400812071E+04  0.25500000920E-02 0.  1.
    10030    2    1    2    0    0  0.00000000000E+00  0.00000000000E+00  0.95413211072E+03  0.34342945249E+04  0.32990924205E+04 0.  0.
        2    1    3    3  502    0  0.11751154158E+04 -0.80290820882E+02 -0.72510313312E+03  0.13831548757E+04  0.25500000920E-02 0.  1.
       -2    1    3    3    0  502 -0.11751154158E+04  0.80290820882E+02  0.16792352438E+04  0.20511396492E+04  0.25500000920E-02 0. -1.
</event>
<event>
 5   0  0.6821287E-08  0.3300326E+04  0.7818609E-02  0.8162813E-01
        2   -1    0    0  501    0  0.00000000000E+00  0.00000000000E+00  0.20970786671E+04  0.20970786671E+04  0.25500000920E-02 0. -1.
       -2   -1    0    0    0  501  0.00000000000E+00  0.00000000000E+00 -0.12984907608E+04  0.12984907608E+04  0.25500000920E-02 0.  1.
    10030    2    1    2    0    0  0.00000000000E+00  0.00000000000E+00  0.79858790640E+03  0.33955694279E+04  0.33003256045E+04 0.  0.
        5    1    3    3  502    0  0.62396972164E+03  0.76777068231E+03  0.17580910435E+04  0.20173537720E+04  0.46999998093E+01 0. -1.
       -5    1    3    3    0  502 -0.62396972164E+03 -0.76777068231E+03 -0.95950313709E+03  0.13782156559E+04  0.46999998093E+01 0.  1.
</event>
<event>
 5   0  0.7084130E-08  0.3300823E+04  0.7818609E-02  0.8162686E-01
        2   -1    0    0  501    0  0.00000000000E+00  0.00000000000E+00  0.18233614009E+04  0.18233614009E+04  0.25500000920E-02 0. -1.
       -2   -1    0    0    0  501  0.00000000000E+00  0.00000000000E+00 -0.14938664724E+04  0.14938664724E+04  0.25500000920E-02 0.  1.
    10030    2    1    2    0    0  0.00000000000E+00  0.00000000000E+00  0.32949492851E+03  0.33172278733E+04  0.33008232088E+04 0.  0.
        3    1    3    3  502    0  0.15186767741E+04  0.39974526407E+03  0.67489518880E+03  0.17092860926E+04  0.10100000352E+00 0. -1.
       -3    1    3    3    0  502 -0.15186767741E+04 -0.39974526407E+03 -0.34540026028E+03  0.16079417807E+04  0.10100000352E+00 0.  1.
</event>
<event>
 5   0  0.2309822E-08  0.3292469E+04  0.7818609E-02  0.8164814E-01
       -1   -1    0    0    0  501  0.00000000000E+00  0.00000000000E+00  0.11968280798E+04  0.11968280798E+04  0.50400001928E-02 0. -1.
        1   -1    0    0  501    0  0.00000000000E+00  0.00000000000E+00 -0.22643923279E+04  0.22643923279E+04  0.50400001928E-02 0.  1.
    10030    2    1    2    0    0  0.00000000000E+00  0.00000000000E+00 -0.10675642481E+04  0.34612204077E+04  0.32924691778E+04 0.  0.
        4    1    3    3  502    0 -0.11425716068E+04  0.95642142749E+03  0.20200151226E+03  0.15036681973E+04  0.12699999809E+01 0. -1.
       -4    1    3    3    0  502  0.11425716068E+04 -0.95642142749E+03 -0.12695657604E+04  0.19575522104E+04  0.12699999809E+01 0.  1.
</event>
<event>
 5   0  0.6603516E-08  0.3304083E+04  0.7818609E-02  0.8161857E-01
        2   -1    0    0  501    0  0.00000000000E+00  0.00000000000E+00  0.19631562279E+04  0.19631562279E+04  0.25500000920E-02 0.  1.
       -2   -1    0    0    0  501  0.00000000000E+00  0.00000000000E+00 -0.13902314812E+04  0.13902314812E+04  0.25500000920E-02 0. -1.
    10030    2    1    2    0    0  0.00000000000E+00  0.00000000000E+00  0.57292474670E+03  0.33533877091E+04  0.33040832862E+04 0.  0.
        1    1    3    3  502    0  0.92846891532E+03  0.13262189092E+04  0.62050977121E+03  0.17337656987E+04  0.50400001928E-02 0.  1.
       -1    1    3    3    0  502 -0.92846891532E+03 -0.13262189092E+04 -0.47585024501E+02  0.16196220104E+04  0.50400001928E-02 0. -1.
</event>
<event>
 5   0  0.6765252E-08  0.3300823E+04  0.7818609E-02  0.8162686E-01
        2   -1    0    0  501    0  0.00000000000E+00  0.00000000000E+00  0.15465776388E+04  0.15465776388E+04  0.25500000920E-02 0.  1.
       -2   -1    0    0    0  501  0.00000000000E+00  0.00000000000E+00 -0.17612165052E+04  0.17612165052E+04  0.25500000920E-02 0. -1.
    10030    2    1    2    0    0  0.00000000000E+00  0.00000000000E+00 -0.21463886637E+03  0.33077941440E+04  0.33008229665E+04 0.  0.
        2    1    3    3  502    0 -0.84603511918E+02  0.13978362794E+04 -0.98252183657E+03  0.17106879252E+04  0.25500000920E-02 0. -1.
       -2    1    3    3    0  502  0.84603511918E+02 -0.13978362794E+04  0.76788297020E+03  0.15971062188E+04  0.25500000920E-02 0.  1.
</event>
<event>
 5   0  0.2291682E-08  0.3301859E+04  0.7818609E-02  0.8162423E-01
        1   -1    0    0  501    0  0.00000000000E+00  0.00000000000E+00  0.12659330023E+04  0.12659330023E+04  0.50400001928E-02 0.  1.
       -1   -1    0    0    0  501  0.00000000000E+00  0.00000000000E+00 -0.21530109495E+04  0.21530109495E+04  0.50400001928E-02 0. -1.
    10030    2    1    2    0    0  0.00000000000E+00  0.00000000000E+00 -0.88707794724E+03  0.34189439518E+04  0.33018586373E+04 0.  0.
        2    1    3    3  502    0  0.35896314412E+03 -0.97409749598E+03  0.88566602962E+03  0.13645969319E+04  0.25500000920E-02 0.  1.
       -2    1    3    3    0  502 -0.35896314412E+03  0.97409749598E+03 -0.17727439769E+04  0.20543470199E+04  0.25500000920E-02 0. -1.
</event>
<event>
 5   0  0.6821287E-08  0.3302057E+04  0.7818609E-02  0.8162372E-01
       -2   -1    0    0    0  501  0.00000000000E+00  0.00000000000E+00  0.13201922670E+04  0.13201922670E+04  0.25500000920E-02 0. -1.
        2   -1    0    0  501    0  0.00000000000E+00  0.00000000000E+00 -0.20647718625E+04  0.20647718625E+04  0.25500000920E-02 0.  1.
    10030    2    1    2    0    0  0.00000000000E+00  0.00000000000E+00 -0.74457959549E+03  0.33849641296E+04  0.33020574472E+04 0.  0.
        5    1    3    3  502    0  0.11364998905E+04 -0.47712517849E+01 -0.15999471824E+04  0.19625258832E+04  0.46999998093E+01 0.  1.
       -5    1    3    3    0  502 -0.11364998905E+04  0.47712517849E+01  0.85536758687E+03  0.14224382464E+04  0.46999998093E+01 0. -1.
</event>
<event>
 5   0  0.2279938E-08  0.3299549E+04  0.7818609E-02  0.8163010E-01
        1   -1    0    0  501    0  0.00000000000E+00  0.00000000000E+00  0.16689070254E+04  0.16689070254E+04  0.50400001928E-02 0. -1.
       -1   -1    0    0    0  501  0.00000000000E+00  0.00000000000E+00 -0.16308617695E+04  0.16308617695E+04  0.50400001928E-02 0.  1.
    10030    2    1    2    0    0  0.00000000000E+00  0.00000000000E+00  0.38045255926E+02  0.32997687949E+04  0.32995494629E+04 0.  0.
        3    1    3    3  502    0 -0.67362985295E+03 -0.13373071546E+02  0.15250445876E+04  0.16672483385E+04  0.10100000352E+00 0. -1.
       -3    1    3    3    0  502  0.67362985295E+03  0.13373071546E+02 -0.14869993317E+04  0.16325204564E+04  0.10100000352E+00 0.  1.
</event>
<event>
 5   0  0.2279938E-08  0.3300479E+04  0.7818609E-02  0.8162774E-01
        1   -1    0    0  501    0  0.00000000000E+00  0.00000000000E+00  0.24047896211E+04  0.24047896211E+04  0.50400001928E-02 0. -1.
       -1   -1    0    0    0  501  0.00000000000E+00  0.00000000000E+00 -0.11324442559E+04  0.11324442559E+04  0.50400001928E-02 0.  1.
    10030    2    1    2    0    0  0.00000000000E+00  0.00000000000E+00  0.12723453652E+04  0.35372338770E+04  0.33004788701E+04 0.  0.
        3    1    3    3  502    0 -0.15772251188E+03  0.24992986245E+03  0.23761969642E+04  0.23945048235E+04  0.10100000352E+00 0. -1.
       -3    1    3    3    0  502  0.15772251188E+03 -0.24992986245E+03 -0.11038515990E+04  0.11427290535E+04  0.10100000352E+00 0.  1.
</event>
<event>
 5   0  0.2309822E-08  0.3301483E+04  0.7818609E-02  0.8162518E-01
        1   -1    0    0  501    0  0.00000000000E+00  0.00000000000E+00  0.32614459482E+04  0.32614459482E+04  0.50400001928E-02 0.  1.
       -1   -1    0    0    0  501  0.00000000000E+00  0.00000000000E+00 -0.83550290013E+03  0.83550290015E+03  0.50400001928E-02 0. -1.
    10030    2    1    2    0    0  0.00000000000E+00  0.00000000000E+00  0.24259430481E+04  0.40969488484E+04  0.33014830294E+04 0.  0.
        4    1    3    3  502    0 -0.75623040433E+03  0.14134309907E+04  0.72398000578E+03  0.17589258801E+04  0.12699999809E+01 0. -1.
       -4    1    3    3    0  502  0.75623040433E+03 -0.14134309907E+04  0.17019630423E+04  0.23380229683E+04  0.12699999809E+01 0.  1.
</event>
<event>
 5   0  0.6706080E-08  0.3299935E+04  0.7818609E-02  0.8162912E-01
        2   -1    0    0  501    0  0.00000000000E+00  0.00000000000E+00  0.13960612842E+04  0.13960612842E+04  0.25500000920E-02 0. -1.
       -2   -1    0    0    0  501  0.00000000000E+00  0.00000000000E+00 -0.19500523911E+04  0.19500523911E+04  0.25500000920E-02 0.  1.
    10030    2    1    2    0    0  0.00000000000E+00  0.00000000000E+00 -0.55399110688E+03  0.33461136753E+04  0.32999349360E+04 0.  0.
        4    1    3    3  502    0  0.42922811245E+03  0.34216205980E+03  0.13007604039E+04  0.14118395408E+04  0.12699999809E+01 0. -1.
       -4    1    3    3    0  502 -0.42922811245E+03 -0.34216205980E+03 -0.18547515108E+04  0.19342741345E+04  0.12699999809E+01 0.  1.
</event>
<event>
 5   0  0.6765252E-08  0.3302280E+04  0.7818609E-02  0.8162316E-01
        2   -1    0    0  501    0  0.00000000000E+00  0.00000000000E+00  0.16660872174E+04  0.16660872174E+04  0.25500000920E-02 0.  1.
       -2   -1    0    0    0  501  0.00000000000E+00  0.00000000000E+00 -0.16363263961E+04  0.16363263961E+04  0.25500000920E-02 0. -1.
    10030    2    1    2    0    0  0.00000000000E+00  0.00000000000E+00  0.29760821369E+02  0.33024136135E+04  0.33022795109E+04 0.  0.
        2    1    3    3  502    0  0.63147171258E+03  0.12999606617E+04  0.81341659194E+03  0.16584030866E+04  0.25500000920E-02 0.  1.
       -2    1    3    3    0  502 -0.63147171258E+03 -0.12999606617E+04 -0.78365577057E+03  0.16440105269E+04  0.25500000920E-02 0. -1.
</event>
<event>
 5   0  0.6706080E-08  0.3304678E+04  0.7818609E-02  0.8161706E-01
       -2   -1    0    0    0  501  0.00000000000E+00  0.00000000000E+00  0.95488761431E+03  0.95488761431E+03  0.25500000920E-02 0.  1.
        2   -1    0    0  501    0  0.00000000000E+00  0.00000000000E+00 -0.28592106854E+04  0.28592106854E+04  0.25500000920E-02 0. -1.
    10030    2    1    2    0    0  0.00000000000E+00  0.00000000000E+00 -0.19043230711E+04  0.38140982998E+04  0.33046784232E+04 0.  0.
        4    1    3    3  502    0  0.76871949901E+03  0.14492067047E+04 -0.72396184893E+03  0.17931124094E+04  0.12699999809E+01 0. -1.
       -4    1    3    3    0  502 -0.76871949901E+03 -0.14492067047E+04 -0.11803612222E+04  0.20209858903E+04  0.12699999809E+01 0.  1.
</event>
<event>
 5   0  0.6603516E-08  0.3299341E+04  0.7818609E-02  0.8163063E-01
        2   -1    0    0  501    0  0.00000000000E+00  0.00000000000E+00  0.25236546809E+04  0.25236546809E+04  0.25500000920E-02 0. -1.
       -2   -1    0    0    0  501  0.00000000000E+00  0.00000000000E+00 -0.10783617075E+04  0.10783617075E+04  0.25500000920E-02 0.  1.
    10030    2    1    2    0    0  0.00000000000E+00  0.00000000000E+00  0.14452929734E+04  0.36020163884E+04  0.32993408861E+04 0.  0.
        1    1    3    3  502    0 -0.11410633766E+04  0.79490905443E+03 -0.24617905331E+03  0.14122712773E+04  0.50400001928E-02 0.  1.
       -1    1    3    3    0  502  0.11410633766E+04 -0.79490905443E+03  0.16914720268E+04  0.21897451111E+04  0.50400001928E-02 0. -1.
</event>
<event>
 5   0  0.7084130E-08  0.3298592E+04  0.7818609E-02  0.8163254E-01
       -2   -1    0    0    0  501  0.00000000000E+00  0.00000000000E+00  0.14620903058E+04  0.14620903058E+04  0.25500000920E-02 0. -1.
        2   -1    0    0  501    0  0.00000000000E+00  0.00000000000E+00 -0.18604718378E+04  0.18604718378E+04  0.25500000920E-02 0.  1.
    10030    2    1    2    0    0  0.00000000000E+00  0.00000000000E+00 -0.39838153196E+03  0.33225621436E+04  0.32985923290E+04 0.  0.
        3    1    3    3  502    0  0.13010716635E+04 -0.56903409202E+02  0.82016727280E+03  0.15390581006E+04  0.10100000352E+00 0. -1.
       -3    1    3    3    0  502 -0.13010716635E+04  0.56903409202E+02 -0.12185488048E+04  0.17835040430E+04  0.10100000352E+00 0.  1.
</event>
<event>
 5   0  0.2244093E-08  0.3297124E+04  0.7818609E-02  0.8163628E-01
        1   -1    0    0  501    0  0.00000000000E+00  0.00000000000E+00  0.22002095494E+04  0.22002095494E+04  0.50400001928E-02 0. -1.
       -1   -1    0    0    0  501  0.00000000000E+00  0.00000000000E+00 -0.12352259324E+04  0.12352259324E+04  0.50400001928E-02 0.  1.
    10030    2    1    2    0    0  0.00000000000E+00  0.00000000000E+00  0.96498361703E+03  0.34354354818E+04  0.32971235295E+04 0.  0.
        1    1    3    3  502    0  0.10815736836E+03 -0.29079079588E+03 -0.12045327015E+04  0.12438473911E+04  0.50400001928E-02 0.  1.
       -1    1    3    3    0  502 -0.10815736836E+03  0.29079079588E+03  0.21695163185E+04  0.21915880908E+04  0.50400001928E-02 0. -1.
</event>
<event>
 5   0  0.6765252E-08  0.3300636E+04  0.7818609E-02  0.8162734E-01
       -2   -1    0    0    0  501  0.00000000000E+00  0.00000000000E+00  0.15651365160E+04  0.15651365160E+04  0.25500000920E-02 0. -1.
        2   -1    0    0  501    0  0.00000000000E+00  0.00000000000E+00 -0.17401350500E+04  0.17401350500E+04  0.25500000920E-02 0.  1.
    10030    2    1    2    0    0  0.00000000000E+00  0.00000000000E+00 -0.17499853397E+03  0.33052715660E+04  0.33006356415E+04 0.  0.
        2    1    3    3  502    0 -0.88855734168E+03  0.13290319736E+04  0.32257409249E+03  0.16309243335E+04  0.25500000920E-02 0. -1.
       -2    1    3    3    0  502  0.88855734168E+03 -0.13290319736E+04 -0.49757262646E+03  0.16743472325E+04  0.25500000920E-02 0.  1.
</event>
<event>
 5   0  0.2291682E-08  0.3298561E+04  0.7818609E-02  0.8163262E-01
       -1   -1    0    0    0  501  0.00000000000E+00  0.00000000000E+00  0.13304922243E+04  0.13304922243E+04  0.50400001928E-02 0. -1.
        1   -1    0    0  501    0  0.00000000000E+00  0.00000000000E+00 -0.20444508972E+04  0.20444508972E+04  0.50400001928E-02 0.  1.
    10030    2    1    2    0    0  0.00000000000E+00  0.00000000000E+00 -0.71395867285E+03  0.33749431215E+04  0.32985609115E+04 0.  0.
        2    1    3    3  502    0  0.14657532656E+04 -0.74215291871E+03 -0.50490391931E+03  0.17187645441E+04  0.25500000920E-02 0.  1.
       -2    1    3    3    0  502 -0.14657532656E+04  0.74215291871E+03 -0.20905475354E+03  0.16561785774E+04  0.25500000920E-02 0. -1.
</event>
<event>
 5   0  0.6765252E-08  0.3305652E+04  0.7818609E-02  0.8161459E-01
       -2   -1    0    0    0  501  0.00000000000E+00  0.00000000000E+00  0.13181612554E+04  0.13181612554E+04  0.25500000920E-02 0.  1.
        2   -1    0    0  501    0  0.00000000000E+00  0.00000000000E+00 -0.20724574659E+04  0.20724574659E+04  0.25500000920E-02 0. -1.
    10030    2    1    2    0    0  0.00000000000E+00  0.00000000000E+00 -0.75429621045E+03  0.33906187213E+04  0.33056516060E+04 0.  0.
        2    1    3    3  502    0 -0.26643616190E+03 -0.14633541772E+04 -0.11163947200E+04  0.18597663421E+04  0.25500000920E-02 0. -1.
       -2    1    3    3    0  502  0.26643616190E+03  0.14633541772E+04  0.36209850957E+03  0.15308523792E+04  0.25500000920E-02 0.  1.
</event>
<event>
 5   0  0.6706080E-08  0.3301088E+04  0.7818609E-02  0.8162619E-01
        2   -1    0    0  501    0  0.00000000000E+00  0.00000000000E+00  0.26790450888E+04  0.26790450888E+04  0.25500000920E-02 0.  1.
       -2   -1    0    0    0  501  0.00000000000E+00  0.00000000000E+00 -0.10168906289E+04  0.10168906289E+04  0.25500000920E-02 0. -1.
    10030    2    1    2    0    0  0.00000000000E+00  0.00000000000E+00  0.16621544599E+04  0.36959357177E+04  0.33010882115E+04 0.  0.
        4    1    3    3  502    0 -0.36772249713E+03  0.16077053763E+04  0.75716744402E+03  0.18147287850E+04  0.12699999809E+01 0. -1.
       -4    1    3    3    0  502  0.36772249713E+03 -0.16077053763E+04  0.90498701590E+03  0.18812069327E+04  0.12699999809E+01 0.  1.
</event>
<event>
 5   0  0.2244093E-08  0.3300048E+04  0.7818609E-02  0.8162883E-01
        1   -1    0    0  501    0  0.00000000000E+00  0.00000000000E+00  0.23089968136E+04  0.23089968136E+04  0.50400001928E-02 0.  1.
       -1   -1    0    0    0  501  0.00000000000E+00  0.00000000000E+00 -0.11791175941E+04  0.11791175941E+04  0.50400001928E-02 0. -1.
    10030    2    1    2    0    0  0.00000000000E+00  0.00000000000E+00  0.11298792196E+04  0.34881144077E+04  0.33000477376E+04 0.  0.
        1    1    3    3  502    0 -0.16490165613E+04  0.30840197674E+02  0.61641867153E+03  0.17607324373E+04  0.50400001928E-02 0.  1.
       -1    1    3    3    0  502  0.16490165613E+04 -0.30840197674E+02  0.51346054803E+03  0.17273819704E+04  0.50400001928E-02 0. -1.
</event>
<event>
 5   0  0.2279938E-08  0.3306487E+04  0.7818609E-02  0.8161247E-01
        1   -1    0    0  501    0  0.00000000000E+00  0.00000000000E+00  0.26549625291E+04  0.26549625292E+04  0.50400001928E-02 0. -1.
       -1   -1    0    0    0  501  0.00000000000E+00  0.00000000000E+00 -0.10294734520E+04  0.10294734520E+04  0.50400001928E-02 0.  1.
    10030    2    1    2    0    0  0.00000000000E+00  0.00000000000E+00  0.16254890771E+04  0.36844359812E+04  0.33064866187E+04 0.  0.
        3    1    3    3  502    0 -0.13376764946E+03  0.10160782517E+04 -0.63280839135E+03  0.12044730250E+04  0.10100000352E+00 0.  1.
       -3    1    3    3    0  502  0.13376764946E+03 -0.10160782517E+04  0.22582974685E+04  0.24799629562E+04  0.10100000352E+00 0. -1.
</event>
<event>
 5   0  0.7084130E-08  0.3300281E+04  0.7818609E-02  0.8162824E-01
        2   -1    0    0  501    0  0.00000000000E+00  0.00000000000E+00  0.15698507000E+04  0.15698507000E+04  0.25500000920E-02 0. -1.
       -2   -1    0    0    0  501  0.00000000000E+00  0.00000000000E+00 -0.17345364385E+04  0.17345364385E+04  0.25500000920E-02 0.  1.
    10030    2    1    2    0    0  0.00000000000E+00  0.00000000000E+00 -0.16468573847E+03  0.33043871385E+04  0.33002807408E+04 0.  0.
        3    1    3    3  502    0  0.13173233094E+03 -0.16446856187E+04 -0.57431389694E+02  0.16509520182E+04  0.10100000352E+00 0.  1.
       -3    1    3    3    0  502 -0.13173233094E+03  0.16446856187E+04 -0.10725434878E+03  0.16534351203E+04  0.10100000352E+00 0. -1.
</event>
<event>
 5   0  0.2383270E-08  0.3302427E+04  0.7818609E-02  0.8162278E-01
        1   -1    0    0  501    0  0.00000000000E+00  0.00000000000E+00  0.13953390581E+04  0.13953390581E+04  0.50400001928E-02 0. -1.
       -1   -1    0    0    0  501  0.00000000000E+00  0.00000000000E+00 -0.19540099615E+04  0.19540099615E+04  0.50400001928E-02 0.  1.
    10030    2    1    2    0    0  0.00000000000E+00  0.00000000000E+00 -0.55867090337E+03  0.33493490196E+04  0.33024272403E+04 0.  0.
        5    1    3    3  502    0 -0.22972636914E+01  0.47311375481E+03  0.13251158840E+04  0.14070522728E+04  0.46999998093E+01 0. -1.
       -5    1    3    3    0  502  0.22972636914E+01 -0.47311375481E+03 -0.18837867874E+04  0.19422967468E+04  0.46999998093E+01 0.  1.
</event>
<event>
 5   0  0.2309822E-08  0.3299004E+04  0.7818609E-02  0.8163149E-01
       -1   -1    0    0    0  501  0.00000000000E+00  0.00000000000E+00  0.79547508939E+03  0.79547508941E+03  0.50400001928E-02 0.  1.
        1   -1    0    0  501    0  0.00000000000E+00  0.00000000000E+00 -0.34204183963E+04  0.34204183963E+04  0.50400001928E-02 0. -1.
    10030    2    1    2    0    0  0.00000000000E+00  0.00000000000E+00 -0.26249433069E+04  0.42158934857E+04  0.32990044738E+04 0.  0.
        4    1    3    3  502    0  0.10878953137E+04 -0.11589295032E+04 -0.74928005052E+03  0.17572865486E+04  0.12699999809E+01 0. -1.
       -4    1    3    3    0  502 -0.10878953137E+04  0.11589295032E+04 -0.18756632563E+04  0.24586069371E+04  0.12699999809E+01 0.  1.
</event>
<event>
 5   0  0.6706080E-08  0.3301278E+04  0.7818609E-02  0.8162570E-01
        2   -1    0    0  501    0  0.00000000000E+00  0.00000000000E+00  0.19494166317E+04  0.19494166317E+04  0.25500000920E-02 0.  1.
       -2   -1    0    0    0  501  0.00000000000E+00  0.00000000000E+00 -0.13976533615E+04  0.13976533615E+04  0.25500000920E-02 0. -1.
    10030    2    1    2    0    0  0.00000000000E+00  0.00000000000E+00  0.55176327026E+03  0.33470699932E+04  0.33012777576E+04 0.  0.
        4    1    3    3  502    0 -0.82892330666E+03  0.28726959439E+03 -0.11417151300E+04  0.14398446858E+04  0.12699999809E+01 0. -1.
       -4    1    3    3    0  502  0.82892330666E+03 -0.28726959439E+03  0.16934784002E+04  0.19072253074E+04  0.12699999809E+01 0.  1.
</event>
<event>
 5   0  0.6603516E-08  0.3301109E+04  0.7818609E-02  0.8162613E-01
        2   -1    0    0  501    0  0.00000000000E+00  0.00000000000E+00  0.17485570912E+04  0.17485570912E+04  0.25500000920E-02 0. -1.
       -2   -1    0    0    0  501  0.00000000000E+00  0.00000000000E+00 -0.15580443792E+04  0.15580443792E+04  0.25500000920E-02 0.  1.
    10030    2    1    2    0    0  0.00000000000E+00  0.00000000000E+00  0.19051271200E+03  0.33066014704E+04  0.33011086306E+04 0.  0.
        1    1    3    3  502    0  0.65504667731E+03 -0.23825105223E+02  0.16125956430E+04  0.17407235544E+04  0.50400001928E-02 0. -1.
       -1    1    3    3    0  502 -0.65504667731E+03  0.23825105223E+02 -0.14220829310E+04  0.15658779160E+04  0.50400001928E-02 0.  1.
</event>
<event>
 5   0  0.2291682E-08  0.3299835E+04  0.7818609E-02  0.8162937E-01
       -1   -1    0    0    0  501  0.00000000000E+00  0.00000000000E+00  0.18689201497E+04  0.18689201497E+04  0.50400001928E-02 0. -1.
        1   -1    0    0  501    0  0.00000000000E+00  0.00000000000E+00 -0.14565782275E+04  0.14565782275E+04  0.50400001928E-02 0.  1.
    10030    2    1    2    0    0  0.00000000000E+00  0.00000000000E+00  0.41234192225E+03  0.33254983772E+04  0.32998353892E+04 0.  0.
        2    1    3    3  502    0  0.13347848255E+04 -0.19509126292E+03 -0.75122639628E+03  0.15440376387E+04  0.25500000920E-02 0.  1.
       -2    1    3    3    0  502 -0.13347848255E+04  0.19509126292E+03  0.11635683185E+04  0.17814607386E+04  0.25500000920E-02 0. -1.
</event>
<event>
 5   0  0.6765252E-08  0.3300532E+04  0.7818609E-02  0.8162760E-01
       -2   -1    0    0    0  501  0.00000000000E+00  0.00000000000E+00  0.14432336238E+04  0.14432336238E+04  0.25500000920E-02 0. -1.
        2   -1    0    0  501    0  0.00000000000E+00  0.00000000000E+00 -0.18869967812E+04  0.18869967812E+04  0.25500000920E-02 0.  1.
    10030    2    1    2    0    0  0.00000000000E+00  0.00000000000E+00 -0.44376315743E+03  0.33302304050E+04  0.33005315952E+04 0.  0.
        2    1    3    3  502    0  0.92002144653E+03  0.51970104782E+03  0.10571399694E+04  0.14946817575E+04  0.25500000920E-02 0. -1.
       -2    1    3    3    0  502 -0.92002144653E+03 -0.51970104782E+03 -0.15009031269E+04  0.18355486475E+04  0.25500000920E-02 0.  1.
</event>
<event>
 5   0  0.6603516E-08  0.3300367E+04  0.7818609E-02  0.8162802E-01
       -2   -1    0    0    0  501  0.00000000000E+00  0.00000000000E+00  0.88751252323E+03  0.88751252323E+03  0.25500000920E-02 0.  1.
        2   -1    0    0  501    0  0.00000000000E+00  0.00000000000E+00 -0.30682448757E+04  0.30682448757E+04  0.25500000920E-02 0. -1.
    10030    2    1    2    0    0  0.00000000000E+00  0.00000000000E+00 -0.21807323525E+04  0.39557573990E+04  0.33003671017E+04 0.  0.
        1    1    3    3  502    0  0.55101326333E+03  0.90585948831E+03  0.42521511490E+03  0.11423681206E+04  0.50400001928E-02 0.  1.
       -1    1    3    3    0  502 -0.55101326333E+03 -0.90585948831E+03 -0.26059474674E+04  0.28133892784E+04  0.50400001928E-02 0. -1.
</event>
<event>
 5   0  0.7084130E-08  0.3299089E+04  0.7818609E-02  0.8163127E-01
        2   -1    0    0  501    0  0.00000000000E+00  0.00000000000E+00  0.22761262754E+04  0.22761262754E+04  0.25500000920E-02 0. -1.
       -2   -1    0    0    0  501  0.00000000000E+00  0.00000000000E+00 -0.11954506885E+04  0.11954506885E+04  0.25500000920E-02 0.  1.
    10030    2    1    2    0    0  0.00000000000E+00  0.00000000000E+00  0.10806755869E+04  0.34715769639E+04  0.32990887972E+04 0.  0.
        3    1    3    3  502    0 -0.11782747868E+04  0.16412026715E+03 -0.66209122067E+03  0.13614814468E+04  0.10100000352E+00 0.  1.
       -3    1    3    3    0  502  0.11782747868E+04 -0.16412026715E+03  0.17427668076E+04  0.21100955171E+04  0.10100000352E+00 0. -1.
</event>
<event>
 5   0  0.6765252E-08  0.3300329E+04  0.7818609E-02  0.8162812E-01
        2   -1    0    0  501    0  0.00000000000E+00  0.00000000000E+00  0.24365113153E+04  0.24365113153E+04  0.25500000920E-02 0.  1.
       -2   -1    0    0    0  501  0.00000000000E+00  0.00000000000E+00 -0.11175988418E+04  0.11175988419E+04  0.25500000920E-02 0. -1.
    10030    2    1    2    0    0  0.00000000000E+00  0.00000000000E+00  0.13189124734E+04  0.35541101571E+04  0.33003286043E+04 0.  0.
        2    1    3    3  502    0 -0.15563432699E+04 -0.11516118357E+02  0.12499892631E+04  0.19961989261E+04  0.25500000920E-02 0.  1.
       -2    1    3    3    0  502  0.15563432699E+04  0.11516118357E+02  0.68923210362E+02  0.15579112310E+04  0.25500000920E-02 0. -1.
</event>
<event>
 5   0  0.2383270E-08  0.3299903E+04  0.7818609E-02  0.8162920E-01
        1   -1    0    0  501    0  0.00000000000E+00  0.00000000000E+00  0.24565972162E+04  0.24565972162E+04  0.50400001928E-02 0. -1.
       -1   -1    0    0    0  501  0.00000000000E+00  0.00000000000E+00 -0.11081748654E+04  0.11081748655E+04  0.50400001928E-02 0.  1.
    10030    2    1    2    0    0  0.00000000000E+00  0.00000000000E+00  0.13484223507E+04  0.35647720817E+04  0.32999025983E+04 0.  0.
        5    1    3    3  502    0  0.15595519115E+04 -0.52880123672E+03  0.78482262729E+03  0.18242262905E+04  0.46999998093E+01 0.  1.
       -5    1    3    3    0  502 -0.15595519115E+04  0.52880123672E+03  0.56359972345E+03  0.17405457911E+04  0.46999998093E+01 0. -1.
</event>
<event>
 5   0  0.6706080E-08  0.3301710E+04  0.7818609E-02  0.8162460E-01
       -2   -1    0    0    0  501  0.00000000000E+00  0.00000000000E+00  0.19658504049E+04  0.19658504049E+04  0.25500000920E-02 0.  1.
        2   -1    0    0  501    0  0.00000000000E+00  0.00000000000E+00 -0.13863326674E+04  0.13863326674E+04  0.25500000920E-02 0. -1.
    10030    2    1    2    0    0  0.00000000000E+00  0.00000000000E+00  0.57951773754E+03  0.33521830724E+04  0.33017102451E+04 0.  0.
        4    1    3    3  502    0  0.99268169553E+03 -0.84387562715E+03  0.13190504721E+04  0.18540331129E+04  0.12699999809E+01 0. -1.
       -4    1    3    3    0  502 -0.99268169553E+03  0.84387562715E+03 -0.73953273458E+03  0.14981499595E+04  0.12699999809E+01 0.  1.
</event>
<event>
 5   0  0.2279938E-08  0.3302681E+04  0.7818609E-02  0.8162214E-01
       -1   -1    0    0    0  501  0.00000000000E+00  0.00000000000E+00  0.14752301277E+04  0.14752301277E+04  0.50400001928E-02 0.  1.
        1   -1    0    0  501    0  0.00000000000E+00  0.00000000000E+00 -0.18484746777E+04  0.18484746777E+04  0.50400001928E-02 0. -1.
    10030    2    1    2    0    0  0.00000000000E+00  0.00000000000E+00 -0.37324454999E+03  0.33237048054E+04  0.33026810532E+04 0.  0.
        3    1    3    3  502    0 -0.75778272902E+03 -0.17069376783E+02 -0.16630671984E+04  0.18276538361E+04  0.10100000352E+00 0. -1.
       -3    1    3    3    0  502  0.75778272902E+03  0.17069376783E+02  0.12898226484E+04  0.14960509693E+04  0.10100000352E+00 0.  1.
</event>
<event>
 5   0  0.2244093E-08  0.3300479E+04  0.7818609E-02  0.8162774E-01
       -1   -1    0    0    0  501  0.00000000000E+00  0.00000000000E+00  0.17709558906E+04  0.17709558906E+04  0.50400001928E-02 0. -1.
        1   -1    0    0  501    0  0.00000000000E+00  0.00000000000E+00 -0.15377512493E+04  0.15377512494E+04  0.50400001928E-02 0.  1.
    10030    2    1    2    0    0  0.00000000000E+00  0.00000000000E+00  0.23320464122E+03  0.33087071399E+04  0.33004785309E+04 0.  0.
        1    1    3    3  502    0 -0.12304323020E+04  0.10343897876E+04  0.49084759892E+03  0.16807311646E+04  0.50400001928E-02 0.  1.
       -1    1    3    3    0  502  0.12304323020E+04 -0.10343897876E+04 -0.25764295770E+03  0.16279759753E+04  0.50400001928E-02 0. -1.
</event>
<event>
 5   0  0.7084130E-08  0.3300137E+04  0.7818609E-02  0.8162860E-01
       -2   -1    0    0    0  501  0.00000000000E+00  0.00000000000E+00  0.15839240093E+04  0.15839240093E+04  0.25500000920E-02 0. -1.
        2   -1    0    0  501    0  0.00000000000E+00  0.00000000000E+00 -0.17189754337E+04  0.17189754337E+04  0.25500000920E-02 0.  1.
    10030    2    1    2    0    0  0.00000000000E+00  0.00000000000E+00 -0.13505142441E+03  0.33028994430E+04  0.33001372461E+04 0.  0.
        3    1    3    3  502    0  0.53487485843E+03 -0.13147988206E+04 -0.90962129848E+03  0.16858819561E+04  0.10100000352E+00 0.  1.
       -3    1    3    3    0  502 -0.53487485843E+03  0.13147988206E+04  0.77456987407E+03  0.16170174869E+04  0.10100000352E+00 0. -1.
</event>
<event>
 5   0  0.2200750E-08  0.3299830E+04  0.7818609E-02  0.8162939E-01
        3   -1    0    0  501    0  0.00000000000E+00  0.00000000000E+00  0.17622753568E+04  0.17622753597E+04  0.10100000352E+00 0.  1.
       -3   -1    0    0    0  501  0.00000000000E+00  0.00000000000E+00 -0.15447181627E+04  0.15447181660E+04  0.10100000352E+00 0. -1.
    10030    2    1    2    0    0  0.00000000000E+00  0.00000000000E+00  0.21755719413E+03  0.33069935257E+04  0.32998295481E+04 0.  0.
        3    1    3    3  502    0  0.36166995999E+03 -0.81475299827E+03 -0.12826127516E+04  0.15619612956E+04  0.10100000352E+00 0. -1.
       -3    1    3    3    0  502 -0.36166995999E+03  0.81475299827E+03  0.15001699457E+04  0.17450322302E+04  0.10100000352E+00 0.  1.
</event>
<event>
 5   0  0.2279938E-08  0.3297396E+04  0.7818609E-02  0.8163558E-01
       -1   -1    0    0    0  501  0.00000000000E+00  0.00000000000E+00  0.12579439736E+04  0.12579439737E+04  0.50400001928E-02 0.  1.
        1   -1    0    0  501    0  0.00000000000E+00  0.00000000000E+00 -0.21608317079E+04  0.21608317079E+04  0.50400001928E-02 0. -1.
    10030    2    1    2    0    0  0.00000000000E+00  0.00000000000E+00 -0.90288773423E+03  0.34187756815E+04  0.32973960787E+04 0.  0.
        3    1    3    3  502    0 -0.22988015592E+03  0.36501597383E+03 -0.21012843095E+04  0.21451054302E+04  0.10100000352E+00 0. -1.
       -3    1    3    3    0  502  0.22988015592E+03 -0.36501597383E+03  0.11983965753E+04  0.12736702513E+04  0.10100000352E+00 0.  1.
</event>
<event>
 5   0  0.2309822E-08  0.3300838E+04  0.7818609E-02  0.8162682E-01
       -1   -1    0    0    0  501  0.00000000000E+00  0.00000000000E+00  0.98623837405E+03  0.98623837407E+03  0.50400001928E-02 0. -1.
        1   -1    0    0  501    0  0.00000000000E+00  0.00000000000E+00 -0.27618918028E+04  0.27618918028E+04  0.50400001928E-02 0.  1.
    10030    2    1    2    0    0  0.00000000000E+00  0.00000000000E+00 -0.17756534288E+04  0.37481301769E+04  0.33008384880E+04 0.  0.
        4    1    3    3  502    0 -0.31814966627E+03  0.95867177479E+03  0.59426693283E+03  0.11719324137E+04  0.12699999809E+01 0. -1.
       -4    1    3    3    0  502  0.31814966627E+03 -0.95867177479E+03 -0.23699203616E+04  0.25761977632E+04  0.12699999809E+01 0.  1.
</event>
<event>
 5   0  0.2383270E-08  0.3299512E+04  0.7818609E-02  0.8163019E-01
        1   -1    0    0  501    0  0.00000000000E+00  0.00000000000E+00  0.19384589746E+04  0.19384589747E+04  0.50400001928E-02 0. -1.
       -1   -1    0    0    0  501  0.00000000000E+00  0.00000000000E+00 -0.14040511645E+04  0.14040511645E+04  0.50400001928E-02 0.  1.
    10030    2    1    2    0    0  0.00000000000E+00  0.00000000000E+00  0.53440781018E+03  0.33425101391E+04  0.32995124371E+04 0.  0.
        5    1    3    3  502    0 -0.13135537428E+04  0.57592929183E+03 -0.55862217481E+03  0.15392201950E+04  0.46999998093E+01 0.  1.
       -5    1    3    3    0  502  0.13135537428E+04 -0.57592929183E+03  0.10930299850E+04  0.18032899441E+04  0.46999998093E+01 0. -1.
</event>
<event>
 5   0  0.2309822E-08  0.3301101E+04  0.7818609E-02  0.8162615E-01
       -1   -1    0    0    0  501  0.00000000000E+00  0.00000000000E+00  0.17016279193E+04  0.17016279193E+04  0.50400001928E-02 0.  1.
        1   -1    0    0  501    0  0.00000000000E+00  0.00000000000E+00 -0.16010061135E+04  0.16010061136E+04  0.50400001928E-02 0. -1.
    10030    2    1    2    0    0  0.00000000000E+00  0.00000000000E+00  0.10062180575E+03  0.33026340329E+04  0.33011008478E+04 0.  0.
        4    1    3    3  502    0 -0.20836621149E+03  0.10321562265E+04 -0.12213231478E+04  0.16125739667E+04  0.12699999809E+01 0. -1.
       -4    1    3    3    0  502  0.20836621149E+03 -0.10321562265E+04  0.13219449536E+04  0.16900600661E+04  0.12699999809E+01 0.  1.
</event>
<event>
 5   0  0.6603516E-08  0.3299647E+04  0.7818609E-02  0.8162985E-01
       -2   -1    0    0    0  501  0.00000000000E+00  0.00000000000E+00  0.23266811736E+04  0.23266811736E+04  0.25500000920E-02 0.  1.
        2   -1    0    0  501    0  0.00000000000E+00  0.00000000000E+00 -0.11698714971E+04  0.11698714971E+04  0.25500000920E-02 0. -1.
    10030    2    1    2    0    0  0.00000000000E+00  0.00000000000E+00  0.11568096765E+04  0.34965526708E+04  0.32996472466E+04 0.  0.
        1    1    3    3  502    0  0.78739852237E+03  0.14382535336E+04  0.38489208422E+03  0.16842540118E+04  0.50400001928E-02 0. -1.
       -1    1    3    3    0  502 -0.78739852237E+03 -0.14382535336E+04  0.77191759230E+03  0.18122986589E+04  0.50400001928E-02 0.  1.
</event>
<event>
 5   0  0.2244093E-08  0.3299891E+04  0.7818609E-02  0.8162923E-01
        1   -1    0    0  501    0  0.00000000000E+00  0.00000000000E+00  0.12897587050E+04  0.12897587050E+04  0.50400001928E-02 0.  1.
       -1   -1    0    0    0  501  0.00000000000E+00  0.00000000000E+00 -0.21107200269E+04  0.21107200269E+04  0.50400001928E-02 0. -1.
    10030    2    1    2    0    0  0.00000000000E+00  0.00000000000E+00 -0.82096132194E+03  0.34004787319E+04  0.32998906215E+04 0.  0.
        1    1    3    3  502    0  0.13850019897E+04 -0.54710829961E+03  0.32164164677E+03  0.15234865776E+04  0.50400001928E-02 0.  1.
       -1    1    3    3    0  502 -0.13850019897E+04  0.54710829961E+03 -0.11426029687E+04  0.18769921543E+04  0.50400001928E-02 0. -1.
</event>
<event>
 5   0  0.7084130E-08  0.3301127E+04  0.7818609E-02  0.8162609E-01
       -2   -1    0    0    0  501  0.00000000000E+00  0.00000000000E+00  0.14545793001E+04  0.14545793002E+04  0.25500000920E-02 0. -1.
        2   -1    0    0  501    0  0.00000000000E+00  0.00000000000E+00 -0.18729543333E+04  0.18729543333E+04  0.25500000920E-02 0.  1.
    10030    2    1    2    0    0  0.00000000000E+00  0.00000000000E+00 -0.41837503320E+03  0.33275336335E+04  0.33011274458E+04 0.  0.
        3    1    3    3  502    0  0.12663416702E+04 -0.91495735630E+03  0.32760624412E+03  0.15962750549E+04  0.10100000352E+00 0. -1.
       -3    1    3    3    0  502 -0.12663416702E+04  0.91495735630E+03 -0.74598127732E+03  0.17312585786E+04  0.10100000352E+00 0.  1.
</event>
<event>
 5   0  0.6706080E-08  0.3301532E+04  0.7818609E-02  0.8162506E-01
        2   -1    0    0  501    0  0.00000000000E+00  0.00000000000E+00  0.16814375863E+04  0.16814375863E+04  0.25500000920E-02 0.  1.
       -2   -1    0    0    0  501  0.00000000000E+00  0.00000000000E+00 -0.16206539595E+04  0.16206539595E+04  0.25500000920E-02 0. -1.
    10030    2    1    2    0    0  0.00000000000E+00  0.00000000000E+00  0.60783626837E+02  0.33020915458E+04  0.33015320577E+04 0.  0.
        4    1    3    3  502    0 -0.15978076388E+04 -0.36048517458E+03  0.23558032063E+03  0.16548228038E+04  0.12699999809E+01 0.  1.
       -4    1    3    3    0  502  0.15978076388E+04  0.36048517458E+03 -0.17479669379E+03  0.16472687421E+04  0.12699999809E+01 0. -1.
</event>
<event>
 5   0  0.2309822E-08  0.3297617E+04  0.7818609E-02  0.8163502E-01
       -1   -1    0    0    0  501  0.00000000000E+00  0.00000000000E+00  0.26365037997E+04  0.26365037997E+04  0.50400001928E-02 0.  1.
        1   -1    0    0  501    0  0.00000000000E+00  0.00000000000E+00 -0.10311268039E+04  0.10311268039E+04  0.50400001928E-02 0. -1.
    10030    2    1    2    0    0  0.00000000000E+00  0.00000000000E+00  0.16053769958E+04  0.36676306036E+04  0.32976171618E+04 0.  0.
        4    1    3    3  502    0  0.82030541966E+03 -0.13960709287E+03 -0.78046871547E+03  0.11408436136E+04  0.12699999809E+01 0. -1.
       -4    1    3    3    0  502 -0.82030541966E+03  0.13960709287E+03  0.23858457113E+04  0.25267869900E+04  0.12699999809E+01 0.  1.
</event>
<event>
 5   0  0.2244093E-08  0.3301623E+04  0.7818609E-02  0.8162483E-01
        1   -1    0    0  501    0  0.00000000000E+00  0.00000000000E+00  0.26831005189E+04  0.26831005189E+04  0.50400001928E-02 0. -1.
       -1   -1    0    0    0  501  0.00000000000E+00  0.00000000000E+00 -0.10156826038E+04  0.10156826038E+04  0.50400001928E-02 0.  1.
    10030    2    1    2    0    0  0.00000000000E+00  0.00000000000E+00  0.16674179151E+04  0.36987831227E+04  0.33016229472E+04 0.  0.
        1    1    3    3  502    0 -0.64259483462E+03 -0.14265581697E+04  0.24389634878E+03  0.15835030035E+04  0.50400001928E-02 0.  1.
       -1    1    3    3    0  502  0.64259483462E+03  0.14265581697E+04  0.14235215663E+04  0.21152801192E+04  0.50400001928E-02 0. -1.
</event>
<event>
 5   0  0.6765252E-08  0.3301756E+04  0.7818609E-02  0.8162449E-01
       -2   -1    0    0    0  501  0.00000000000E+00  0.00000000000E+00  0.22388671900E+04  0.22388671900E+04  0.25500000920E-02 0.  1.
        2   -1    0    0  501    0  0.00000000000E+00  0.00000000000E+00 -0.12173113609E+04  0.12173113609E+04  0.25500000920E-02 0. -1.
    10030    2    1    2    0    0  0.00000000000E+00  0.00000000000E+00  0.10215558291E+04  0.34561785510E+04  0.33017561788E+04 0.  0.
        2    1    3    3  502    0 -0.12364217502E+04  0.60620444844E+03  0.14639569983E+04  0.20098240397E+04  0.25500000920E-02 0.  1.
       -2    1    3    3    0  502  0.12364217502E+04 -0.60620444844E+03 -0.44240116920E+03  0.14463545113E+04  0.25500000920E-02 0. -1.
</event>
<event>
 5   0  0.7084130E-08  0.3301970E+04  0.7818609E-02  0.8162394E-01
        2   -1    0    0  501    0  0.00000000000E+00  0.00000000000E+00  0.27640770976E+04  0.27640770976E+04  0.25500000920E-02 0. -1.
       -2   -1    0    0    0  501  0.00000000000E+00  0.00000000000E+00 -0.98613455000E+03  0.98613455001E+03  0.25500000920E-02 0.  1.
    10030    2    1    2    0    0  0.00000000000E+00  0.00000000000E+00  0.17779425476E+04  0.37502116476E+04  0.33019702753E+04 0.  0.
        3    1    3    3  502    0 -0.45295682826E+03  0.15048260982E+04  0.14637104791E+04  0.21475846551E+04  0.10100000352E+00 0. -1.
       -3    1    3    3    0  502  0.45295682826E+03 -0.15048260982E+04  0.31423206844E+03  0.16026269925E+04  0.10100000352E+00 0.  1.
</event>
<event>
 5   0  0.2309822E-08  0.3306642E+04  0.7818609E-02  0.8161207E-01
        1   -1    0    0  501    0  0.00000000000E+00  0.00000000000E+00  0.18549455917E+04  0.18549455917E+04  0.50400001928E-02 0.  1.
       -1   -1    0    0    0  501  0.00000000000E+00  0.00000000000E+00 -0.14736120896E+04  0.14736120896E+04  0.50400001928E-02 0. -1.
    10030    2    1    2    0    0  0.00000000000E+00  0.00000000000E+00  0.38133350206E+03  0.33285576813E+04  0.33066419519E+04 0.  0.
        4    1    3    3  502    0  0.17537063305E+03  0.95669595150E+02  0.18427515383E+04  0.18535485899E+04  0.12699999809E+01 0.  1.
       -4    1    3    3    0  502 -0.17537063305E+03 -0.95669595150E+02 -0.14614180362E+04  0.14750090914E+04  0.12699999809E+01 0. -1.
</event>
<event>
 5   0  0.2291682E-08  0.3300119E+04  0.7818609E-02  0.8162865E-01
       -1   -1    0    0    0  501  0.00000000000E+00  0.00000000000E+00  0.14635273097E+04  0.14635273097E+04  0.50400001928E-02 0. -1.
        1   -1    0    0  501    0  0.00000000000E+00  0.00000000000E+00 -0.18603660387E+04  0.18603660387E+04  0.50400001928E-02 0.  1.
    10030    2    1    2    0    0  0.00000000000E+00  0.00000000000E+00 -0.39683872902E+03  0.33238933484E+04  0.33001190910E+04 0.  0.
        2    1    3    3  502    0 -0.14747082444E+04 -0.10064642227E+03 -0.93705258094E+03  0.17501318944E+04  0.25500000920E-02 0.  1.
       -2    1    3    3    0  502  0.14747082444E+04  0.10064642227E+03  0.54021385192E+03  0.15737614540E+04  0.25500000920E-02 0. -1.
</event>
<event>
 5   0  0.2244093E-08  0.3300724E+04  0.7818609E-02  0.8162711E-01
       -1   -1    0    0    0  501  0.00000000000E+00  0.00000000000E+00  0.17549173258E+04  0.17549173259E+04  0.50400001928E-02 0. -1.
        1   -1    0    0  501    0  0.00000000000E+00  0.00000000000E+00 -0.15520354858E+04  0.15520354858E+04  0.50400001928E-02 0.  1.
    10030    2    1    2    0    0  0.00000000000E+00  0.00000000000E+00  0.20288184006E+03  0.33069528116E+04  0.33007235354E+04 0.  0.
        1    1    3    3  502    0  0.12094746186E+03 -0.79264461653E+03  0.15466542211E+04  0.17421403664E+04  0.50400001928E-02 0. -1.
       -1    1    3    3    0  502 -0.12094746186E+03  0.79264461653E+03 -0.13437723810E+04  0.15648124452E+04  0.50400001928E-02 0.  1.
</event>
<event>
 5   0  0.6765252E-08  0.3299584E+04  0.7818609E-02  0.8163001E-01
       -2   -1    0    0    0  501  0.00000000000E+00  0.00000000000E+00  0.18908403006E+04  0.18908403006E+04  0.25500000920E-02 0. -1.
        2   -1    0    0  501    0  0.00000000000E+00  0.00000000000E+00 -0.14394727540E+04  0.14394727540E+04  0.25500000920E-02 0.  1.
    10030    2    1    2    0    0  0.00000000000E+00  0.00000000000E+00  0.45136754654E+03  0.33303130546E+04  0.32995836676E+04 0.  0.
        2    1    3    3  502    0 -0.14775263782E+04 -0.66124572938E+03  0.54721453133E+03  0.17087345775E+04  0.25500000920E-02 0. -1.
       -2    1    3    3    0  502  0.14775263782E+04  0.66124572938E+03 -0.95846984795E+02  0.16215784771E+04  0.25500000920E-02 0.  1.
</event>
<event>
 5   0  0.2383270E-08  0.3299306E+04  0.7818609E-02  0.8163072E-01
        1   -1    0    0  501    0  0.00000000000E+00  0.00000000000E+00  0.16069424792E+04  0.16069424793E+04  0.50400001928E-02 0. -1.
       -1   -1    0    0    0  501  0.00000000000E+00  0.00000000000E+00 -0.16934988066E+04  0.16934988066E+04  0.50400001928E-02 0.  1.
    10030    2    1    2    0    0  0.00000000000E+00  0.00000000000E+00 -0.86556327306E+02  0.33004412858E+04  0.32993060912E+04 0.  0.
        5    1    3    3  502    0  0.10548008943E+04 -0.27759711077E+02  0.12252107978E+04  0.16169536534E+04  0.46999998093E+01 0.  1.
       -5    1    3    3    0  502 -0.10548008943E+04  0.27759711077E+02 -0.13117671251E+04  0.16834876324E+04  0.46999998093E+01 0. -1.
</event>
<event>
 5   0  0.2279938E-08  0.3298937E+04  0.7818609E-02  0.8163166E-01
        1   -1    0    0  501    0  0.00000000000E+00  0.00000000000E+00  0.13790574028E+04  0.13790574028E+04  0.50400001928E-02 0.  1.
       -1   -1    0    0    0  501  0.00000000000E+00  0.00000000000E+00 -0.19729028759E+04  0.19729028759E+04  0.50400001928E-02 0. -1.
    10030    2    1    2    0    0  0.00000000000E+00  0.00000000000E+00 -0.59384547306E+03  0.33519602787E+04  0.32989369900E+04 0.  0.
        3    1    3    3  502    0 -0.16436538279E+04 -0.46166977870E+02 -0.42946868929E+03  0.16994624624E+04  0.10100000352E+00 0.  1.
       -3    1    3    3    0  502  0.16436538279E+04  0.46166977870E+02 -0.16437678377E+03  0.16524978163E+04  0.10100000352E+00 0. -1.
</event>
<event>
 5   0  0.7084130E-08  0.3301437E+04  0.7818609E-02  0.8162530E-01
        2   -1    0    0  501    0  0.00000000000E+00  0.00000000000E+00  0.14534126196E+04  0.14534126196E+04  0.25500000920E-02 0. -1.
       -2   -1    0    0    0  501  0.00000000000E+00  0.00000000000E+00 -0.18748097967E+04  0.18748097967E+04  0.25500000920E-02 0.  1.
    10030    2    1    2    0    0  0.00000000000E+00  0.00000000000E+00 -0.42139717708E+03  0.33282224163E+04  0.33014373947E+04 0.  0.
        3    1    3    3  502    0  0.41123973866E+03  0.14507758683E+04 -0.88771502789E+03  0.17498304843E+04  0.10100000352E+00 0.  1.
       -3    1    3    3    0  502 -0.41123973866E+03 -0.14507758683E+04  0.46631785081E+03  0.15783919320E+04  0.10100000352E+00 0. -1.
</event>
<event>
 5   0  0.7084130E-08  0.3299345E+04  0.7818609E-02  0.8163062E-01
        2   -1    0    0  501    0  0.00000000000E+00  0.00000000000E+00  0.13684430847E+04  0.13684430847E+04  0.25500000920E-02 0. -1.
       -2   -1    0    0    0  501  0.00000000000E+00  0.00000000000E+00 -0.19886977900E+04  0.19886977900E+04  0.25500000920E-02 0.  1.
    10030    2    1    2    0    0  0.00000000000E+00  0.00000000000E+00 -0.62025470523E+03  0.33571408747E+04  0.32993452310E+04 0.  0.
        3    1    3    3  502    0 -0.56685312377E+03 -0.52167107926E+03  0.11741777583E+04  0.14043349306E+04  0.10100000352E+00 0. -1.
       -3    1    3    3    0  502  0.56685312377E+03  0.52167107926E+03 -0.17944324636E+04  0.19528059441E+04  0.10100000352E+00 0.  1.
</event>
<event>
 5   0  0.2244093E-08  0.3299892E+04  0.7818609E-02  0.8162923E-01
        1   -1    0    0  501    0  0.00000000000E+00  0.00000000000E+00  0.15975099270E+04  0.15975099270E+04  0.50400001928E-02 0.  1.
       -1   -1    0    0    0  501  0.00000000000E+00  0.00000000000E+00 -0.17041030988E+04  0.17041030988E+04  0.50400001928E-02 0. -1.
    10030    2    1    2    0    0  0.00000000000E+00  0.00000000000E+00 -0.10659317179E+03  0.33016130258E+04  0.32998918873E+04 0.  0.
        1    1    3    3  502    0 -0.11548742111E+04  0.10477167219E+04  0.48631471019E+03  0.16333850649E+04  0.50400001928E-02 0.  1.
       -1    1    3    3    0  502  0.11548742111E+04 -0.10477167219E+04 -0.59290788198E+03  0.16682279609E+04  0.50400001928E-02 0. -1.
</event>
<event>
 5   0  0.6603516E-08  0.3300600E+04  0.7818609E-02  0.8162743E-01
        2   -1    0    0  501    0  0.00000000000E+00  0.00000000000E+00  0.11202355101E+04  0.11202355101E+04  0.25500000920E-02 0. -1.
       -2   -1    0    0    0  501  0.00000000000E+00  0.00000000000E+00 -0.24311769483E+04  0.24311769483E+04  0.25500000920E-02 0.  1.
    10030    2    1    2    0    0  0.00000000000E+00  0.00000000000E+00 -0.13109414382E+04  0.35514124583E+04  0.33006003991E+04 0.  0.
        1    1    3    3  502    0  0.13268780996E+04  0.76896824168E+03  0.41820825396E+00  0.15335963690E+04  0.50400001928E-02 0. -1.
       -1    1    3    3    0  502 -0.13268780996E+04 -0.76896824168E+03 -0.13113596464E+04  0.20178160893E+04  0.50400001928E-02 0.  1.
</event>
<event>
 5   0  0.2291682E-08  0.3300593E+04  0.7818609E-02  0.8162745E-01
       -1   -1    0    0    0  501  0.00000000000E+00  0.00000000000E+00  0.12821209182E+04  0.12821209182E+04  0.50400001928E-02 0.  1.
        1   -1    0    0  501    0  0.00000000000E+00  0.00000000000E+00 -0.21241978696E+04  0.21241978696E+04  0.50400001928E-02 0. -1.
    10030    2    1    2    0    0  0.00000000000E+00  0.00000000000E+00 -0.84207695133E+03  0.34063187878E+04  0.33005929910E+04 0.  0.
        2    1    3    3  502    0  0.78873701399E+03 -0.95942897963E+03  0.70044810640E+03  0.14259164050E+04  0.25500000920E-02 0.  1.
       -2    1    3    3    0  502 -0.78873701399E+03  0.95942897963E+03 -0.15425250577E+04  0.19804023828E+04  0.25500000920E-02 0. -1.
</event>
<event>
 5   0  0.2244093E-08  0.3296197E+04  0.7818609E-02  0.8163864E-01
       -1   -1    0    0    0  501  0.00000000000E+00  0.00000000000E+00  0.17448904635E+04  0.17448904635E+04  0.50400001928E-02 0.  1.
        1   -1    0    0  501    0  0.00000000000E+00  0.00000000000E+00 -0.15566755280E+04  0.15566755280E+04  0.50400001928E-02 0. -1.
    10030    2    1    2    0    0  0.00000000000E+00  0.00000000000E+00  0.18821493553E+03  0.33015659915E+04  0.32961967682E+04 0.  0.
        1    1    3    3  502    0 -0.11086911253E+04 -0.11194908893E+04  0.57839522539E+03  0.16783911639E+04  0.50400001928E-02 0.  1.
       -1    1    3    3    0  502  0.11086911253E+04  0.11194908893E+04 -0.39018028986E+03  0.16231748276E+04  0.50400001928E-02 0. -1.
</event>
<event>
 5   0  0.2200750E-08  0.3300701E+04  0.7818609E-02  0.8162717E-01
       -4   -1    0    0    0  501  0.00000000000E+00  0.00000000000E+00  0.15180916009E+04  0.15180921321E+04  0.12699999809E+01 0.  1.
        4   -1    0    0  501    0  0.00000000000E+00  0.00000000000E+00 -0.17941313713E+04  0.17941318207E+04  0.12699999809E+01 0. -1.
    10030    2    1    2    0    0  0.00000000000E+00  0.00000000000E+00 -0.27603977038E+03  0.33122239528E+04  0.33007013738E+04 0.  0.
        4    1    3    3  502    0  0.39337927718E+03  0.14426465881E+04 -0.83879817621E+03  0.17145146332E+04  0.12699999809E+01 0. -1.
       -4    1    3    3    0  502 -0.39337927718E+03 -0.14426465881E+04  0.56275840583E+03  0.15977093197E+04  0.12699999809E+01 0.  1.
</event>
<event>
 5   0  0.6603516E-08  0.3303853E+04  0.7818609E-02  0.8161916E-01
       -2   -1    0    0    0  501  0.00000000000E+00  0.00000000000E+00  0.11070215126E+04  0.11070215126E+04  0.25500000920E-02 0. -1.
        2   -1    0    0  501    0  0.00000000000E+00  0.00000000000E+00 -0.24650478787E+04  0.24650478787E+04  0.25500000920E-02 0.  1.
    10030    2    1    2    0    0  0.00000000000E+00  0.00000000000E+00 -0.13580263661E+04  0.35720693912E+04  0.33038529212E+04 0.  0.
        1    1    3    3  502    0  0.19796892524E+03  0.84237571262E+03  0.84237390812E+03  0.12076350184E+04  0.50400001928E-02 0. -1.
       -1    1    3    3    0  502 -0.19796892524E+03 -0.84237571262E+03 -0.22004002742E+04  0.23644343728E+04  0.50400001928E-02 0.  1.
</event>
<event>
 5   0  0.2309822E-08  0.3298862E+04  0.7818609E-02  0.8163185E-01
       -1   -1    0    0    0  501  0.00000000000E+00  0.00000000000E+00  0.12472004066E+04  0.12472004066E+04  0.50400001928E-02 0.  1.
        1   -1    0    0  501    0  0.00000000000E+00  0.00000000000E+00 -0.21813840405E+04  0.21813840406E+04  0.50400001928E-02 0. -1.
    10030    2    1    2    0    0  0.00000000000E+00  0.00000000000E+00 -0.93418363395E+03  0.34285844472E+04  0.32988622659E+04 0.  0.
        4    1    3    3  502    0  0.12035726775E+04  0.29096143816E+03  0.66542522519E+03  0.14057162202E+04  0.12699999809E+01 0.  1.
       -4    1    3    3    0  502 -0.12035726775E+04 -0.29096143816E+03 -0.15996088591E+04  0.20228682270E+04  0.12699999809E+01 0. -1.
</event>
<event>
 5   0  0.2291682E-08  0.3299745E+04  0.7818609E-02  0.8162960E-01
       -1   -1    0    0    0  501  0.00000000000E+00  0.00000000000E+00  0.11913022894E+04  0.11913022894E+04  0.50400001928E-02 0. -1.
        1   -1    0    0  501    0  0.00000000000E+00  0.00000000000E+00 -0.22849612145E+04  0.22849612145E+04  0.50400001928E-02 0.  1.
    10030    2    1    2    0    0  0.00000000000E+00  0.00000000000E+00 -0.10936589251E+04  0.34762635039E+04  0.32997451574E+04 0.  0.
        2    1    3    3  502    0  0.49124556992E+03 -0.35756023711E+01 -0.22061233375E+04  0.22601582191E+04  0.25500000920E-02 0.  1.
       -2    1    3    3    0  502 -0.49124556992E+03  0.35756023711E+01  0.11124644124E+04  0.12161052848E+04  0.25500000920E-02 0. -1.
</event>
<event>
 5   0  0.6765252E-08  0.3299362E+04  0.7818609E-02  0.8163058E-01
       -2   -1    0    0    0  501  0.00000000000E+00  0.00000000000E+00  0.14810604959E+04  0.14810604959E+04  0.25500000920E-02 0. -1.
        2   -1    0    0  501    0  0.00000000000E+00  0.00000000000E+00 -0.18374994174E+04  0.18374994174E+04  0.25500000920E-02 0.  1.
    10030    2    1    2    0    0  0.00000000000E+00  0.00000000000E+00 -0.35643892145E+03  0.33185599133E+04  0.32993622404E+04 0.  0.
        2    1    3    3  502    0 -0.57428885900E+02  0.16408491156E+04 -0.33966478616E+03  0.16766204294E+04  0.25500000920E-02 0. -1.
       -2    1    3    3    0  502  0.57428885900E+02 -0.16408491156E+04 -0.16774135299E+02  0.16419394839E+04  0.25500000920E-02 0.  1.
</event>
<event>
 5   0  0.2279938E-08  0.3299370E+04  0.7818609E-02  0.8163056E-01
        1   -1    0    0  501    0  0.00000000000E+00  0.00000000000E+00  0.15166370489E+04  0.15166370489E+04  0.50400001928E-02 0. -1.
       -1   -1    0    0    0  501  0.00000000000E+00  0.00000000000E+00 -0.17944046036E+04  0.17944046036E+04  0.50400001928E-02 0.  1.
    10030    2    1    2    0    0  0.00000000000E+00  0.00000000000E+00 -0.27776755472E+03  0.33110416524E+04  0.32993699413E+04 0.  0.
        3    1    3    3  502    0  0.13054433205E+04 -0.80953127846E+03  0.46485674319E+03  0.16048722553E+04  0.10100000352E+00 0. -1.
       -3    1    3    3    0  502 -0.13054433205E+04  0.80953127846E+03 -0.74262429791E+03  0.17061693972E+04  0.10100000352E+00 0.  1.
</event>
<event>
 5   0  0.6821287E-08  0.3298824E+04  0.7818609E-02  0.8163195E-01
        2   -1    0    0  501    0  0.00000000000E+00  0.00000000000E+00  0.15110430405E+04  0.15110430405E+04  0.25500000920E-02 0. -1.
       -2   -1    0    0    0  501  0.00000000000E+00  0.00000000000E+00 -0.18004517383E+04  0.18004517383E+04  0.25500000920E-02 0.  1.
    10030    2    1    2    0    0  0.00000000000E+00  0.00000000000E+00 -0.28940869778E+03  0.33114947788E+04  0.32988240746E+04 0.  0.
        5    1    3    3  502    0 -0.86042782622E+03  0.13788161620E+04 -0.42697458921E+03  0.16804164492E+04  0.46999998093E+01 0.  1.
       -5    1    3    3    0  502  0.86042782622E+03 -0.13788161620E+04  0.13756589143E+03  0.16310783296E+04  0.46999998093E+01 0. -1.
</event>
<event>
 5   0  0.2279938E-08  0.3299249E+04  0.7818609E-02  0.8163087E-01
       -1   -1    0    0    0  501  0.00000000000E+00  0.00000000000E+00  0.10473018859E+04  0.10473018859E+04  0.50400001928E-02 0.  1.
        1   -1    0    0  501    0  0.00000000000E+00  0.00000000000E+00 -0.25983531880E+04  0.25983531880E+04  0.50400001928E-02 0. -1.
    10030    2    1    2    0    0  0.00000000000E+00  0.00000000000E+00 -0.15510513021E+04  0.36456550738E+04  0.32992485168E+04 0.  0.
        3    1    3    3  502    0 -0.13284451259E+04 -0.35665149107E+03 -0.17817959693E+04  0.22509472728E+04  0.10100000352E+00 0. -1.
       -3    1    3    3    0  502  0.13284451259E+04  0.35665149107E+03  0.23074466722E+03  0.13947078010E+04  0.10100000352E+00 0.  1.
</event>
<event>
 5   0  0.6765252E-08  0.3299969E+04  0.7818609E-02  0.8162903E-01
       -2   -1    0    0    0  501  0.00000000000E+00  0.00000000000E+00  0.14289812740E+04  0.14289812740E+04  0.25500000920E-02 0.  1.
        2   -1    0    0  501    0  0.00000000000E+00  0.00000000000E+00 -0.19051678710E+04  0.19051678710E+04  0.25500000920E-02 0. -1.
    10030    2    1    2    0    0  0.00000000000E+00  0.00000000000E+00 -0.47618659703E+03  0.33341491450E+04  0.32999692189E+04 0.  0.
        2    1    3    3  502    0  0.13180429253E+04 -0.22099506738E+03 -0.12157798261E+04  0.18067087641E+04  0.25500000920E-02 0. -1.
       -2    1    3    3    0  502 -0.13180429253E+04  0.22099506738E+03  0.73959322912E+03  0.15274403809E+04  0.25500000920E-02 0.  1.
</event>
<event>
 5   0  0.6765252E-08  0.3300053E+04  0.7818609E-02  0.8162882E-01
       -2   -1    0    0    0  501  0.00000000000E+00  0.00000000000E+00  0.11252797509E+04  0.11252797509E+04  0.25500000920E-02 0. -1.
        2   -1    0    0  501    0  0.00000000000E+00  0.00000000000E+00 -0.24194762254E+04  0.24194762254E+04  0.25500000920E-02 0.  1.
    10030    2    1    2    0    0  0.00000000000E+00  0.00000000000E+00 -0.12941964744E+04  0.35447559763E+04  0.33000530930E+04 0.  0.
        2    1    3    3  502    0 -0.14644592186E+04 -0.72180308530E+03 -0.90342930767E+03  0.18659649007E+04  0.25500000920E-02 0.  1.
       -2    1    3    3    0  502  0.14644592186E+04  0.72180308530E+03 -0.39076716676E+03  0.16787910756E+04  0.25500000920E-02 0. -1.
</event>
<event>
 5   0  0.2244093E-08  0.3299327E+04  0.7818609E-02  0.8163067E-01
       -1   -1    0    0    0  501  0.00000000000E+00  0.00000000000E+00  0.10914099912E+04  0.10914099912E+04  0.50400001928E-02 0.  1.
        1   -1    0    0  501    0  0.00000000000E+00  0.00000000000E+00 -0.24934618390E+04  0.24934618390E+04  0.50400001928E-02 0. -1.
    10030    2    1    2    0    0  0.00000000000E+00  0.00000000000E+00 -0.14020518478E+04  0.35848718302E+04  0.32993266972E+04 0.  0.
        1    1    3    3  502    0  0.63521615270E+03 -0.11262548147E+04 -0.18141076568E+04  0.22277648123E+04  0.50400001928E-02 0. -1.
       -1    1    3    3    0  502 -0.63521615270E+03  0.11262548147E+04  0.41205580901E+03  0.13571070179E+04  0.50400001928E-02 0.  1.
</event>
<event>
 5   0  0.7084130E-08  0.3295461E+04  0.7818609E-02  0.8164051E-01
        2   -1    0    0  501    0  0.00000000000E+00  0.00000000000E+00  0.25128138599E+04  0.25128138599E+04  0.25500000920E-02 0.  1.
       -2   -1    0    0    0  501  0.00000000000E+00  0.00000000000E+00 -0.10804686475E+04  0.10804686475E+04  0.25500000920E-02 0. -1.
    10030    2    1    2    0    0  0.00000000000E+00  0.00000000000E+00  0.14323452124E+04  0.35932825075E+04  0.32954614807E+04 0.  0.
        3    1    3    3  502    0  0.16185999102E+04 -0.19247815134E+03  0.45334276049E+03  0.16918726834E+04  0.10100000352E+00 0. -1.
       -3    1    3    3    0  502 -0.16185999102E+04  0.19247815134E+03  0.97900245189E+03  0.19014098241E+04  0.10100000352E+00 0.  1.
</event>
<event>
 5   0  0.6765252E-08  0.3300322E+04  0.7818609E-02  0.8162814E-01
        2   -1    0    0  501    0  0.00000000000E+00  0.00000000000E+00  0.21726967629E+04  0.21726967629E+04  0.25500000920E-02 0.  1.
       -2   -1    0    0    0  501  0.00000000000E+00  0.00000000000E+00 -0.12532953957E+04  0.12532953957E+04  0.25500000920E-02 0. -1.
    10030    2    1    2    0    0  0.00000000000E+00  0.00000000000E+00  0.91940136718E+03  0.34259921586E+04  0.33003217111E+04 0.  0.
        2    1    3    3  502    0 -0.46104422435E+03 -0.30386494158E+03  0.20739491221E+04  0.21461967852E+04  0.25500000920E-02 0.  1.
       -2    1    3    3    0  502  0.46104422435E+03  0.30386494158E+03 -0.11545477549E+04  0.12797953735E+04  0.25500000920E-02 0. -1.
</event>
<event>
 5   0  0.2279938E-08  0.3300438E+04  0.7818609E-02  0.8162784E-01
       -1   -1    0    0    0  501  0.00000000000E+00  0.00000000000E+00  0.13657361270E+04  0.13657361270E+04  0.50400001928E-02 0. -1.
        1   -1    0    0  501    0  0.00000000000E+00  0.00000000000E+00 -0.19939601601E+04  0.19939601601E+04  0.50400001928E-02 0.  1.
    10030    2    1    2    0    0  0.00000000000E+00  0.00000000000E+00 -0.62822403312E+03  0.33596962871E+04  0.33004384112E+04 0.  0.
        3    1    3    3  502    0 -0.13543761326E+04  0.87056991875E+03  0.54321053074E+02  0.16109554553E+04  0.10100000352E+00 0. -1.
       -3    1    3    3    0  502  0.13543761326E+04 -0.87056991875E+03 -0.68254508620E+03  0.17487408318E+04  0.10100000352E+00 0.  1.
</event>
<event>
 5   0  0.2279938E-08  0.3300413E+04  0.7818609E-02  0.8162790E-01
        1   -1    0    0  501    0  0.00000000000E+00  0.00000000000E+00  0.14475519596E+04  0.14475519596E+04  0.50400001928E-02 0.  1.
       -1   -1    0    0    0  501  0.00000000000E+00  0.00000000000E+00 -0.18812326928E+04  0.18812326928E+04  0.50400001928E-02 0. -1.
    10030    2    1    2    0    0  0.00000000000E+00  0.00000000000E+00 -0.43368073317E+03  0.33287846524E+04  0.33004133504E+04 0.  0.
        3    1    3    3  502    0  0.44804082333E+03  0.98704928626E+03 -0.14717932382E+04  0.18278901004E+04  0.10100000352E+00 0. -1.
       -3    1    3    3    0  502 -0.44804082333E+03 -0.98704928626E+03  0.10381125050E+04  0.15008945520E+04  0.10100000352E+00 0.  1.
</event>
<event>
 5   0  0.2309822E-08  0.3299301E+04  0.7818609E-02  0.8163073E-01
        1   -1    0    0  501    0  0.00000000000E+00  0.00000000000E+00  0.17895339422E+04  0.17895339422E+04  0.50400001928E-02 0.  1.
       -1   -1    0    0    0  501  0.00000000000E+00  0.00000000000E+00 -0.15207014394E+04  0.15207014394E+04  0.50400001928E-02 0. -1.
    10030    2    1    2    0    0  0.00000000000E+00  0.00000000000E+00  0.26883250276E+03  0.33102353816E+04  0.32993010422E+04 0.  0.
        4    1    3    3  502    0  0.97856243162E+03 -0.84438504946E+03  0.11628864992E+04  0.17386423345E+04  0.12699999809E+01 0.  1.
       -4    1    3    3    0  502 -0.97856243162E+03  0.84438504946E+03 -0.89405399641E+03  0.15715930471E+04  0.12699999809E+01 0. -1.
</event>
<event>
 5   0  0.7084130E-08  0.3315547E+04  0.7818609E-02  0.8158951E-01
       -2   -1    0    0    0  501  0.00000000000E+00  0.00000000000E+00  0.16519352280E+04  0.16519352280E+04  0.25500000920E-02 0.  1.
        2   -1    0    0  501    0  0.00000000000E+00  0.00000000000E+00 -0.16636320829E+04  0.16636320829E+04  0.25500000920E-02 0. -1.
    10030    2    1    2    0    0  0.00000000000E+00  0.00000000000E+00 -0.11696854893E+02  0.33155673109E+04  0.33155466784E+04 0.  0.
        3    1    3    3  502    0 -0.82853321879E+03  0.26522796623E+01  0.14300358872E+04  0.16527180577E+04  0.10100000352E+00 0.  1.
       -3    1    3    3    0  502  0.82853321879E+03 -0.26522796623E+01 -0.14417327421E+04  0.16628492533E+04  0.10100000352E+00 0. -1.
</event>
<event>
 5   0  0.6765252E-08  0.3301254E+04  0.7818609E-02  0.8162576E-01
        2   -1    0    0  501    0  0.00000000000E+00  0.00000000000E+00  0.12470089766E+04  0.12470089766E+04  0.25500000920E-02 0. -1.
       -2   -1    0    0    0  501  0.00000000000E+00  0.00000000000E+00 -0.21848835914E+04  0.21848835914E+04  0.25500000920E-02 0.  1.
    10030    2    1    2    0    0  0.00000000000E+00  0.00000000000E+00 -0.93787461480E+03  0.34318925680E+04  0.33012539747E+04 0.  0.
        2    1    3    3  502    0 -0.91182429934E+03 -0.10595310662E+04  0.44360349083E+03  0.14665652697E+04  0.25500000920E-02 0. -1.
       -2    1    3    3    0  502  0.91182429934E+03  0.10595310662E+04 -0.13814781056E+04  0.19653272983E+04  0.25500000920E-02 0.  1.
</event>
<event>
 5   0  0.6706080E-08  0.3300621E+04  0.7818609E-02  0.8162737E-01
       -2   -1    0    0    0  501  0.00000000000E+00  0.00000000000E+00  0.12974886881E+04  0.12974886881E+04  0.25500000920E-02 0.  1.
        2   -1    0    0  501    0  0.00000000000E+00  0.00000000000E+00 -0.20990744355E+04  0.20990744355E+04  0.25500000920E-02 0. -1.
    10030    2    1    2    0    0  0.00000000000E+00  0.00000000000E+00 -0.80158574746E+03  0.33965631236E+04  0.33006213570E+04 0.  0.
        4    1    3    3  502    0 -0.51108208960E+03 -0.55104995841E+03 -0.19127392371E+04  0.20550995015E+04  0.12699999809E+01 0. -1.
       -4    1    3    3    0  502  0.51108208960E+03  0.55104995841E+03  0.11111534896E+04  0.13414636221E+04  0.12699999809E+01 0.  1.
</event>
<event>
 5   0  0.2291682E-08  0.3300565E+04  0.7818609E-02  0.8162752E-01
       -1   -1    0    0    0  501  0.00000000000E+00  0.00000000000E+00  0.14818270320E+04  0.14818270321E+04  0.50400001928E-02 0.  1.
        1   -1    0    0  501    0  0.00000000000E+00  0.00000000000E+00 -0.18378878430E+04  0.18378878430E+04  0.50400001928E-02 0. -1.
    10030    2    1    2    0    0  0.00000000000E+00  0.00000000000E+00 -0.35606081092E+03  0.33197148750E+04  0.33005647320E+04 0.  0.
        2    1    3    3  502    0 -0.57186351858E+02 -0.18278290784E+03  0.14706114503E+04  0.14830299755E+04  0.25500000920E-02 0.  1.
       -2    1    3    3    0  502  0.57186351858E+02  0.18278290784E+03 -0.18266722613E+04  0.18366848996E+04  0.25500000920E-02 0. -1.
</event>
<event>
 5   0  0.6603516E-08  0.3299440E+04  0.7818609E-02  0.8163038E-01
        2   -1    0    0  501    0  0.00000000000E+00  0.00000000000E+00  0.15638036810E+04  0.15638036810E+04  0.25500000920E-02 0. -1.
       -2   -1    0    0    0  501  0.00000000000E+00  0.00000000000E+00 -0.17403570533E+04  0.17403570533E+04  0.25500000920E-02 0.  1.
    10030    2    1    2    0    0  0.00000000000E+00  0.00000000000E+00 -0.17655337228E+03  0.33041607343E+04  0.32994404170E+04 0.  0.
        1    1    3    3  502    0 -0.58255074628E+03 -0.14010694409E+04  0.56011838593E+03  0.16174342510E+04  0.50400001928E-02 0. -1.
       -1    1    3    3    0  502  0.58255074628E+03  0.14010694409E+04 -0.73667175821E+03  0.16867264833E+04  0.50400001928E-02 0.  1.
</event>
<event>
 5   0  0.6765252E-08  0.3300538E+04  0.7818609E-02  0.8162758E-01
        2   -1    0    0  501    0  0.00000000000E+00  0.00000000000E+00  0.24881219208E+04  0.24881219208E+04  0.25500000920E-02 0.  1.
       -2   -1    0    0    0  501  0.00000000000E+00  0.00000000000E+00 -0.10945556230E+04  0.10945556230E+04  0.25500000920E-02 0. -1.
    10030    2    1    2    0    0  0.00000000000E+00  0.00000000000E+00  0.13935662978E+04  0.35826775437E+04  0.33005380404E+04 0.  0.
        2    1    3    3  502    0 -0.11899843257E+03  0.10208490350E+04 -0.70474906089E+03  0.12461800103E+04  0.25500000920E-02 0. -1.
       -2    1    3    3    0  502  0.11899843257E+03 -0.10208490350E+04  0.20983153587E+04  0.23364975334E+04  0.25500000920E-02 0.  1.
</event>
<event>
 5   0  0.2244093E-08  0.3301829E+04  0.7818609E-02  0.8162430E-01
       -1   -1    0    0    0  501  0.00000000000E+00  0.00000000000E+00  0.13491510662E+04  0.13491510662E+04  0.50400001928E-02 0.  1.
        1   -1    0    0  501    0  0.00000000000E+00  0.00000000000E+00 -0.20201727231E+04  0.20201727231E+04  0.50400001928E-02 0. -1.
    10030    2    1    2    0    0  0.00000000000E+00  0.00000000000E+00 -0.67102165693E+03  0.33693237893E+04  0.33018286953E+04 0.  0.
        1    1    3    3  502    0 -0.15842391471E+04  0.26047780257E+03  0.56869680749E+02  0.16065168911E+04  0.50400001928E-02 0. -1.
       -1    1    3    3    0  502  0.15842391471E+04 -0.26047780257E+03 -0.72789133768E+03  0.17628068982E+04  0.50400001928E-02 0.  1.
</event>
<event>
 5   0  0.2279938E-08  0.3301543E+04  0.7818609E-02  0.8162503E-01
       -1   -1    0    0    0  501  0.00000000000E+00  0.00000000000E+00  0.12068537803E+04  0.12068537803E+04  0.50400001928E-02 0. -1.
        1   -1    0    0  501    0  0.00000000000E+00  0.00000000000E+00 -0.22579752258E+04  0.22579752258E+04  0.50400001928E-02 0.  1.
    10030    2    1    2    0    0  0.00000000000E+00  0.00000000000E+00 -0.10511214455E+04  0.34648290061E+04  0.33015426316E+04 0.  0.
        3    1    3    3  502    0  0.53218177380E+03  0.13845210200E+04  0.23479287778E+03  0.15017468498E+04  0.10100000352E+00 0. -1.
       -3    1    3    3    0  502 -0.53218177380E+03 -0.13845210200E+04 -0.12859143233E+04  0.19630821563E+04  0.10100000352E+00 0.  1.
</event>
<event>
 5   0  0.2309822E-08  0.3303620E+04  0.7818609E-02  0.8161975E-01
       -1   -1    0    0    0  501  0.00000000000E+00  0.00000000000E+00  0.13047639694E+04  0.13047639694E+04  0.50400001928E-02 0. -1.
        1   -1    0    0  501    0  0.00000000000E+00  0.00000000000E+00 -0.20911642074E+04  0.20911642074E+04  0.50400001928E-02 0.  1.
    10030    2    1    2    0    0  0.00000000000E+00  0.00000000000E+00 -0.78640023794E+03  0.33959281768E+04  0.33036196585E+04 0.  0.
        4    1    3    3  502    0 -0.10928271273E+04  0.12326708695E+04 -0.26846078320E+03  0.16690780112E+04  0.12699999809E+01 0. -1.
       -4    1    3    3    0  502  0.10928271273E+04 -0.12326708695E+04 -0.51793945474E+03  0.17268501656E+04  0.12699999809E+01 0.  1.
</event>
<event>
 5   0  0.2279938E-08  0.3309114E+04  0.7818609E-02  0.8160580E-01
        1   -1    0    0  501    0  0.00000000000E+00  0.00000000000E+00  0.12324049492E+04  0.12324049492E+04  0.50400001928E-02 0. -1.
       -1   -1    0    0    0  501  0.00000000000E+00  0.00000000000E+00 -0.22213146961E+04  0.22213146961E+04  0.50400001928E-02 0.  1.
    10030    2    1    2    0    0  0.00000000000E+00  0.00000000000E+00 -0.98890974686E+03  0.34537196453E+04  0.33091142170E+04 0.  0.
        3    1    3    3  502    0 -0.11316187159E+04  0.19388382854E+03 -0.17379063705E+04  0.20828995223E+04  0.10100000352E+00 0.  1.
       -3    1    3    3    0  502  0.11316187159E+04 -0.19388382854E+03  0.74899662367E+03  0.13708201230E+04  0.10100000352E+00 0. -1.
</event>
<event>
 5   0  0.7084130E-08  0.3301888E+04  0.7818609E-02  0.8162415E-01
       -2   -1    0    0    0  501  0.00000000000E+00  0.00000000000E+00  0.12719059206E+04  0.12719059206E+04  0.25500000920E-02 0.  1.
        2   -1    0    0  501    0  0.00000000000E+00  0.00000000000E+00 -0.21429390269E+04  0.21429390269E+04  0.25500000920E-02 0. -1.
    10030    2    1    2    0    0  0.00000000000E+00  0.00000000000E+00 -0.87103310631E+03  0.34148449475E+04  0.33018884511E+04 0.  0.
        3    1    3    3  502    0 -0.94445052517E+03  0.12482892902E+04  0.10722568145E+03  0.15689838443E+04  0.10100000352E+00 0.  1.
       -3    1    3    3    0  502  0.94445052517E+03 -0.12482892902E+04 -0.97825878776E+03  0.18458611033E+04  0.10100000352E+00 0. -1.
</event>
<event>
 5   0  0.2291682E-08  0.3299827E+04  0.7818609E-02  0.8162939E-01
       -1   -1    0    0    0  501  0.00000000000E+00  0.00000000000E+00  0.19039331683E+04  0.19039331683E+04  0.50400001928E-02 0. -1.
        1   -1    0    0  501    0  0.00000000000E+00  0.00000000000E+00 -0.14297847942E+04  0.14297847942E+04  0.50400001928E-02 0.  1.
    10030    2    1    2    0    0  0.00000000000E+00  0.00000000000E+00  0.47414837416E+03  0.33337179625E+04  0.32998270823E+04 0.  0.
        2    1    3    3  502    0  0.11645867456E+04 -0.10413341186E+04  0.77316112671E+03  0.17431056085E+04  0.25500000920E-02 0. -1.
       -2    1    3    3    0  502 -0.11645867456E+04  0.10413341186E+04 -0.29901275255E+03  0.15906123540E+04  0.25500000920E-02 0.  1.
</event>
<event>
 5   0  0.6603516E-08  0.3298813E+04  0.7818609E-02  0.8163197E-01
       -2   -1    0    0    0  501  0.00000000000E+00  0.00000000000E+00  0.15296937954E+04  0.15296937954E+04  0.25500000920E-02 0.  1.
        2   -1    0    0  501    0  0.00000000000E+00  0.00000000000E+00 -0.17784882682E+04  0.17784882682E+04  0.25500000920E-02 0. -1.
    10030    2    1    2    0    0  0.00000000000E+00  0.00000000000E+00 -0.24879447274E+03  0.33081820636E+04  0.32988134043E+04 0.  0.
        1    1    3    3  502    0 -0.15281092459E+03  0.88118796754E+03  0.12654315850E+04  0.15495678459E+04  0.50400001928E-02 0.  1.
       -1    1    3    3    0  502  0.15281092459E+03 -0.88118796754E+03 -0.15142260577E+04  0.17586142177E+04  0.50400001928E-02 0. -1.
</event>
<event>
 5   0  0.2291682E-08  0.3301797E+04  0.7818609E-02  0.8162438E-01
        1   -1    0    0  501    0  0.00000000000E+00  0.00000000000E+00  0.19886267426E+04  0.19886267426E+04  0.50400001928E-02 0. -1.
       -1   -1    0    0    0  501  0.00000000000E+00  0.00000000000E+00 -0.13705267789E+04  0.13705267789E+04  0.50400001928E-02 0.  1.
    10030    2    1    2    0    0  0.00000000000E+00  0.00000000000E+00  0.61809996376E+03  0.33591535215E+04  0.33017972100E+04 0.  0.
        2    1    3    3  502    0  0.74936528643E+03 -0.14200740871E+04 -0.81423751458E+02  0.16077277670E+04  0.25500000920E-02 0.  1.
       -2    1    3    3    0  502 -0.74936528643E+03  0.14200740871E+04  0.69952371521E+03  0.17514257545E+04  0.25500000920E-02 0. -1.
</event>
<event>
 5   0  0.2279938E-08  0.3300487E+04  0.7818609E-02  0.8162772E-01
       -1   -1    0    0    0  501  0.00000000000E+00  0.00000000000E+00  0.10983189706E+04  0.10983189706E+04  0.50400001928E-02 0. -1.
        1   -1    0    0  501    0  0.00000000000E+00  0.00000000000E+00 -0.24795191171E+04  0.24795191171E+04  0.50400001928E-02 0.  1.
    10030    2    1    2    0    0  0.00000000000E+00  0.00000000000E+00 -0.13812001465E+04  0.35778380878E+04  0.33004865607E+04 0.  0.
        3    1    3    3  502    0  0.64785883302E+03  0.13128485222E+04 -0.15161829302E+04  0.21076297108E+04  0.10100000352E+00 0.  1.
       -3    1    3    3    0  502 -0.64785883302E+03 -0.13128485222E+04  0.13498278368E+03  0.14702083770E+04  0.10100000352E+00 0. -1.
</event>
<event>
 5   0  0.6706080E-08  0.3300849E+04  0.7818609E-02  0.8162679E-01
        2   -1    0    0  501    0  0.00000000000E+00  0.00000000000E+00  0.11716652939E+04  0.11716652939E+04  0.25500000920E-02 0.  1.
       -2   -1    0    0    0  501  0.00000000000E+00  0.00000000000E+00 -0.23248112294E+04  0.23248112294E+04  0.25500000920E-02 0. -1.
    10030    2    1    2    0    0  0.00000000000E+00  0.00000000000E+00 -0.11531459356E+04  0.34964765233E+04  0.33008487589E+04 0.  0.
        4    1    3    3  502    0 -0.14377127323E+04 -0.79975232103E+03 -0.71580638374E+03  0.17941577599E+04  0.12699999809E+01 0. -1.
       -4    1    3    3    0  502  0.14377127323E+04  0.79975232103E+03 -0.43733955185E+03  0.17023187634E+04  0.12699999809E+01 0.  1.
</event>
<event>
 5   0  0.2309822E-08  0.3297916E+04  0.7818609E-02  0.8163426E-01
       -1   -1    0    0    0  501  0.00000000000E+00  0.00000000000E+00  0.12950736206E+04  0.12950736206E+04  0.50400001928E-02 0. -1.
        1   -1    0    0  501    0  0.00000000000E+00  0.00000000000E+00 -0.20995427878E+04  0.20995427878E+04  0.50400001928E-02 0.  1.
    10030    2    1    2    0    0  0.00000000000E+00  0.00000000000E+00 -0.80446916726E+03  0.33946164084E+04  0.32979159964E+04 0.  0.
        4    1    3    3  502    0  0.10107541865E+03 -0.11808032943E+04 -0.15823904660E+04  0.19769860546E+04  0.12699999809E+01 0.  1.
       -4    1    3    3    0  502 -0.10107541865E+03  0.11808032943E+04  0.77792129873E+03  0.14176303538E+04  0.12699999809E+01 0. -1.
</event>
<event>
 5   0  0.6765252E-08  0.3300912E+04  0.7818609E-02  0.8162663E-01
        2   -1    0    0  501    0  0.00000000000E+00  0.00000000000E+00  0.11850645622E+04  0.11850645622E+04  0.25500000920E-02 0.  1.
       -2   -1    0    0    0  501  0.00000000000E+00  0.00000000000E+00 -0.22986131192E+04  0.22986131192E+04  0.25500000920E-02 0. -1.
    10030    2    1    2    0    0  0.00000000000E+00  0.00000000000E+00 -0.11135485570E+04  0.34836776814E+04  0.33009119647E+04 0.  0.
        2    1    3    3  502    0 -0.17012490819E+03  0.14128364410E+04  0.32555123231E+03  0.14598057741E+04  0.25500000920E-02 0.  1.
       -2    1    3    3    0  502  0.17012490819E+03 -0.14128364410E+04 -0.14390997893E+04  0.20238719072E+04  0.25500000920E-02 0. -1.
</event>
<event>
 5   0  0.2383270E-08  0.3299018E+04  0.7818609E-02  0.8163145E-01
        1   -1    0    0  501    0  0.00000000000E+00  0.00000000000E+00  0.21824062742E+04  0.21824062742E+04  0.50400001928E-02 0. -1.
       -1   -1    0    0    0  501  0.00000000000E+00  0.00000000000E+00 -0.12467339613E+04  0.12467339613E+04  0.50400001928E-02 0.  1.
    10030    2    1    2    0    0  0.00000000000E+00  0.00000000000E+00  0.93567231292E+03  0.34291402356E+04  0.32990180476E+04 0.  0.
        5    1    3    3  502    0  0.41843953431E+03 -0.12871010417E+04  0.14479690029E+04  0.19820083397E+04  0.46999998093E+01 0. -1.
       -5    1    3    3    0  502 -0.41843953431E+03  0.12871010417E+04 -0.51229668995E+03  0.14471318959E+04  0.46999998093E+01 0.  1.
</event>
<event>
 5   0  0.7084130E-08  0.3291309E+04  0.7818609E-02  0.8165110E-01
        2   -1    0    0  501    0  0.00000000000E+00  0.00000000000E+00  0.16275090507E+04  0.16275090507E+04  0.25500000920E-02 0. -1.
       -2   -1    0    0    0  501  0.00000000000E+00  0.00000000000E+00 -0.16640026316E+04  0.16640026316E+04  0.25500000920E-02 0.  1.
    10030    2    1    2    0    0  0.00000000000E+00  0.00000000000E+00 -0.36493580918E+02  0.32915116823E+04  0.32913093706E+04 0.  0.
        3    1    3    3  502    0 -0.44819429777E+03  0.11641539390E+04 -0.10916472024E+04  0.16576568242E+04  0.10100000352E+00 0.  1.
       -3    1    3    3    0  502  0.44819429777E+03 -0.11641539390E+04  0.10551536215E+04  0.16338548581E+04  0.10100000352E+00 0. -1.
</event>
<event>
 5   0  0.2291682E-08  0.3300712E+04  0.7818609E-02  0.8162714E-01
        1   -1    0    0  501    0  0.00000000000E+00  0.00000000000E+00  0.22483729779E+04  0.22483729779E+04  0.50400001928E-02 0. -1.
       -1   -1    0    0    0  501  0.00000000000E+00  0.00000000000E+00 -0.12113981873E+04  0.12113981873E+04  0.50400001928E-02 0.  1.
    10030    2    1    2    0    0  0.00000000000E+00  0.00000000000E+00  0.10369747906E+04  0.34597711652E+04  0.33007120140E+04 0.  0.
        2    1    3    3  502    0  0.14582869250E+04 -0.69178852268E+03  0.15765617328E+03  0.16217359788E+04  0.25500000920E-02 0.  1.
       -2    1    3    3    0  502 -0.14582869250E+04  0.69178852268E+03  0.87931861728E+03  0.18380351864E+04  0.25500000920E-02 0. -1.
</event>
<event>
 5   0  0.6765252E-08  0.3300398E+04  0.7818609E-02  0.8162794E-01
        2   -1    0    0  501    0  0.00000000000E+00  0.00000000000E+00  0.23691182058E+04  0.23691182058E+04  0.25500000920E-02 0.  1.
       -2   -1    0    0    0  501  0.00000000000E+00  0.00000000000E+00 -0.11494389038E+04  0.11494389038E+04  0.25500000920E-02 0. -1.
    10030    2    1    2    0    0  0.00000000000E+00  0.00000000000E+00  0.12196793020E+04  0.35185571095E+04  0.33003979356E+04 0.  0.
        2    1    3    3  502    0  0.18901971696E+03 -0.92369592457E+03 -0.83401442050E+03  0.12587782442E+04  0.25500000920E-02 0. -1.
       -2    1    3    3    0  502 -0.18901971696E+03  0.92369592457E+03  0.20536937225E+04  0.22597788653E+04  0.25500000920E-02 0.  1.
</event>
<event>
 5   0  0.6603516E-08  0.3299993E+04  0.7818609E-02  0.8162897E-01
        2   -1    0    0  501    0  0.00000000000E+00  0.00000000000E+00  0.14331169063E+04  0.14331169063E+04  0.25500000920E-02 0. -1.
       -2   -1    0    0    0  501  0.00000000000E+00  0.00000000000E+00 -0.18996973192E+04  0.18996973192E+04  0.25500000920E-02 0.  1.
    10030    2    1    2    0    0  0.00000000000E+00  0.00000000000E+00 -0.46658041286E+03  0.33328142255E+04  0.32999929363E+04 0.  0.
        1    1    3    3  502    0 -0.57133762932E+03 -0.15293779986E+04 -0.47454806467E+03  0.17001822299E+04  0.50400001928E-02 0. -1.
       -1    1    3    3    0  502  0.57133762932E+03  0.15293779986E+04  0.79676518135E+01  0.16326319955E+04  0.50400001928E-02 0.  1.
</event>
<event>
 5   0  0.2279938E-08  0.3298868E+04  0.7818609E-02  0.8163183E-01
       -1   -1    0    0    0  501  0.00000000000E+00  0.00000000000E+00  0.17098007844E+04  0.17098007844E+04  0.50400001928E-02 0.  1.
        1   -1    0    0  501    0  0.00000000000E+00  0.00000000000E+00 -0.15911986371E+04  0.15911986371E+04  0.50400001928E-02 0. -1.
    10030    2    1    2    0    0  0.00000000000E+00  0.00000000000E+00  0.11860214739E+03  0.33009994215E+04  0.32988680955E+04 0.  0.
        3    1    3    3  502    0  0.57969098744E+02  0.15945179836E+04  0.47764372410E+03  0.16655304122E+04  0.10100000352E+00 0.  1.
       -3    1    3    3    0  502 -0.57969098744E+02 -0.15945179836E+04 -0.35904157671E+03  0.16354690093E+04  0.10100000352E+00 0. -1.
</event>
<event>
 5   0  0.2309822E-08  0.3301329E+04  0.7818609E-02  0.8162557E-01
       -1   -1    0    0    0  501  0.00000000000E+00  0.00000000000E+00  0.14236660287E+04  0.14236660287E+04  0.50400001928E-02 0.  1.
        1   -1    0    0  501    0  0.00000000000E+00  0.00000000000E+00 -0.19138575112E+04  0.19138575112E+04  0.50400001928E-02 0. -1.
    10030    2    1    2    0    0  0.00000000000E+00  0.00000000000E+00 -0.49019148242E+03  0.33375235399E+04  0.33013293822E+04 0.  0.
        4    1    3    3  502    0 -0.41909638039E+03 -0.60184247727E+03  0.12499125601E+04  0.14491856901E+04  0.12699999809E+01 0.  1.
       -4    1    3    3    0  502  0.41909638039E+03  0.60184247727E+03 -0.17401040425E+04  0.18883378498E+04  0.12699999809E+01 0. -1.
</event>
<event>
 5   0  0.6765252E-08  0.3301222E+04  0.7818609E-02  0.8162585E-01
       -2   -1    0    0    0  501  0.00000000000E+00  0.00000000000E+00  0.20072569312E+04  0.20072569312E+04  0.25500000920E-02 0.  1.
        2   -1    0    0  501    0  0.00000000000E+00  0.00000000000E+00 -0.13573330852E+04  0.13573330852E+04  0.25500000920E-02 0. -1.
    10030    2    1    2    0    0  0.00000000000E+00  0.00000000000E+00  0.64992384596E+03  0.33645900164E+04  0.33012217394E+04 0.  0.
        2    1    3    3  502    0  0.98099772759E+03  0.13077023913E+04  0.92383949937E+02  0.16373688894E+04  0.25500000920E-02 0. -1.
       -2    1    3    3    0  502 -0.98099772759E+03 -0.13077023913E+04  0.55753989602E+03  0.17272211270E+04  0.25500000920E-02 0.  1.
</event>
<event>
 5   0  0.6706080E-08  0.3299991E+04  0.7818609E-02  0.8162898E-01
       -2   -1    0    0    0  501  0.00000000000E+00  0.00000000000E+00  0.90480737650E+03  0.90480737650E+03  0.25500000920E-02 0. -1.
        2   -1    0    0  501    0  0.00000000000E+00  0.00000000000E+00 -0.30089109188E+04  0.30089109188E+04  0.25500000920E-02 0.  1.
    10030    2    1    2    0    0  0.00000000000E+00  0.00000000000E+00 -0.21041035423E+04  0.39137182953E+04  0.32999907846E+04 0.  0.
        4    1    3    3  502    0 -0.14045973007E+04 -0.63656102397E+03 -0.17480298909E+04  0.23310327382E+04  0.12699999809E+01 0.  1.
       -4    1    3    3    0  502  0.14045973007E+04  0.63656102397E+03 -0.35607365138E+03  0.15826855570E+04  0.12699999809E+01 0. -1.
</event>
<event>
 5   0  0.7084130E-08  0.3293990E+04  0.7818609E-02  0.8164426E-01
       -2   -1    0    0    0  501  0.00000000000E+00  0.00000000000E+00  0.22158640770E+04  0.22158640770E+04  0.25500000920E-02 0. -1.
        2   -1    0    0  501    0  0.00000000000E+00  0.00000000000E+00 -0.12241694569E+04  0.12241694569E+04  0.25500000920E-02 0.  1.
    10030    2    1    2    0    0  0.00000000000E+00  0.00000000000E+00  0.99169462009E+03  0.34400335340E+04  0.32939903606E+04 0.  0.
        3    1    3    3  502    0  0.12874073431E+03 -0.16319404009E+04  0.30674034819E+03  0.16655009157E+04  0.10100000352E+00 0. -1.
       -3    1    3    3    0  502 -0.12874073431E+03  0.16319404009E+04  0.68495427191E+03  0.17745326183E+04  0.10100000352E+00 0.  1.
</event>
<event>
 5   0  0.6821287E-08  0.3300559E+04  0.7818609E-02  0.8162753E-01
        2   -1    0    0  501    0  0.00000000000E+00  0.00000000000E+00  0.24055874246E+04  0.24055874246E+04  0.25500000920E-02 0.  1.
       -2   -1    0    0    0  501  0.00000000000E+00  0.00000000000E+00 -0.11321236201E+04  0.11321236201E+04  0.25500000920E-02 0. -1.
    10030    2    1    2    0    0  0.00000000000E+00  0.00000000000E+00  0.12734638044E+04  0.35377110447E+04  0.33005589488E+04 0.  0.
        5    1    3    3  502    0 -0.10498274911E+04 -0.11990194944E+04  0.10960236478E+04  0.19341859878E+04  0.46999998093E+01 0.  1.
       -5    1    3    3    0  502  0.10498274911E+04  0.11990194944E+04  0.17744015665E+03  0.16035250569E+04  0.46999998093E+01 0. -1.
</event>
<event>
 5   0  0.2309822E-08  0.3297342E+04  0.7818609E-02  0.8163572E-01
       -1   -1    0    0    0  501  0.00000000000E+00  0.00000000000E+00  0.19441908479E+04  0.19441908479E+04  0.50400001928E-02 0. -1.
        1   -1    0    0  501    0  0.00000000000E+00  0.00000000000E+00 -0.13980706098E+04  0.13980706099E+04  0.50400001928E-02 0.  1.
    10030    2    1    2    0    0  0.00000000000E+00  0.00000000000E+00  0.54612023807E+03  0.33422614578E+04  0.32973420110E+04 0.  0.
        4    1    3    3  502    0  0.53089029352E+03 -0.13271064469E+03 -0.13033297793E+04  0.14135511118E+04  0.12699999809E+01 0.  1.
       -4    1    3    3    0  502 -0.53089029352E+03  0.13271064469E+03  0.18494500174E+04  0.19287103460E+04  0.12699999809E+01 0. -1.
</event>
<event>
 5   0  0.2383270E-08  0.3299067E+04  0.7818609E-02  0.8163133E-01
        1   -1    0    0  501    0  0.00000000000E+00  0.00000000000E+00  0.28698599038E+04  0.28698599038E+04  0.50400001928E-02 0. -1.
       -1   -1    0    0    0  501  0.00000000000E+00  0.00000000000E+00 -0.94811599938E+03  0.94811599939E+03  0.50400001928E-02 0.  1.
    10030    2    1    2    0    0  0.00000000000E+00  0.00000000000E+00  0.19217439044E+04  0.38179759032E+04  0.32990665897E+04 0.  0.
        5    1    3    3  502    0  0.40476975392E+03 -0.51578546521E+03  0.27125762196E+04  0.27906925730E+04  0.46999998093E+01 0. -1.
       -5    1    3    3    0  502 -0.40476975392E+03  0.51578546521E+03 -0.79083231517E+03  0.10272833302E+04  0.46999998093E+01 0.  1.
</event>
<event>
 5   0  0.2244093E-08  0.3299818E+04  0.7818609E-02  0.8162942E-01
        1   -1    0    0  501    0  0.00000000000E+00  0.00000000000E+00  0.19954594209E+04  0.19954594209E+04  0.50400001928E-02 0. -1.
       -1   -1    0    0    0  501  0.00000000000E+00  0.00000000000E+00 -0.13641970334E+04  0.13641970334E+04  0.50400001928E-02 0.  1.
    10030    2    1    2    0    0  0.00000000000E+00  0.00000000000E+00  0.63126238745E+03  0.33596564543E+04  0.32998180691E+04 0.  0.
        1    1    3    3  502    0  0.75942560468E+03 -0.44113876417E+03 -0.11064321641E+04  0.14126297434E+04  0.50400001928E-02 0. -1.
       -1    1    3    3    0  502 -0.75942560468E+03  0.44113876417E+03  0.17376945515E+04  0.19470267108E+04  0.50400001928E-02 0.  1.
</event>
<event>
 5   0  0.6706080E-08  0.3302323E+04  0.7818609E-02  0.8162304E-01
       -2   -1    0    0    0  501  0.00000000000E+00  0.00000000000E+00  0.15365073260E+04  0.15365073260E+04  0.25500000920E-02 0. -1.
        2   -1    0    0  501    0  0.00000000000E+00  0.00000000000E+00 -0.17743714218E+04  0.17743714218E+04  0.25500000920E-02 0.  1.
    10030    2    1    2    0    0  0.00000000000E+00  0.00000000000E+00 -0.23786409571E+03  0.33108787478E+04  0.33023232359E+04 0.  0.
        4    1    3    3  502    0 -0.16396603971E+03 -0.66330688916E+03 -0.16259804312E+04  0.17637105394E+04  0.12699999809E+01 0.  1.
       -4    1    3    3    0  502  0.16396603971E+03  0.66330688916E+03  0.13881163355E+04  0.15471682084E+04  0.12699999809E+01 0. -1.
</event>
<event>
 5   0  0.6706080E-08  0.3299542E+04  0.7818609E-02  0.8163012E-01
        2   -1    0    0  501    0  0.00000000000E+00  0.00000000000E+00  0.20790303408E+04  0.20790303408E+04  0.25500000920E-02 0.  1.
       -2   -1    0    0    0  501  0.00000000000E+00  0.00000000000E+00 -0.13091413234E+04  0.13091413234E+04  0.25500000920E-02 0. -1.
    10030    2    1    2    0    0  0.00000000000E+00  0.00000000000E+00  0.76988901743E+03  0.33881716642E+04  0.32995421087E+04 0.  0.
        4    1    3    3  502    0 -0.12036299358E+04 -0.11044211639E+04  0.62195107182E+03  0.17479404676E+04  0.12699999809E+01 0.  1.
       -4    1    3    3    0  502  0.12036299358E+04  0.11044211639E+04  0.14793794561E+03  0.16402311966E+04  0.12699999809E+01 0. -1.
</event>
<event>
 5   0  0.2200750E-08  0.3299675E+04  0.7818609E-02  0.8162978E-01
       -3   -1    0    0    0  501  0.00000000000E+00  0.00000000000E+00  0.17830698656E+04  0.17830698685E+04  0.10100000352E+00 0.  1.
        3   -1    0    0  501    0  0.00000000000E+00  0.00000000000E+00 -0.15265604786E+04  0.15265604820E+04  0.10100000352E+00 0. -1.
    10030    2    1    2    0    0  0.00000000000E+00  0.00000000000E+00  0.25650938700E+03  0.33096303504E+04  0.32996751341E+04 0.  0.
        4    1    3    3  502    0 -0.74003050936E+03  0.52440776248E+03 -0.12540591591E+04  0.15476804074E+04  0.12699999809E+01 0. -1.
       -4    1    3    3    0  502  0.74003050936E+03 -0.52440776248E+03  0.15105685461E+04  0.17619499430E+04  0.12699999809E+01 0.  1.
</event>
<event>
 5   0  0.6765252E-08  0.3299547E+04  0.7818609E-02  0.8163011E-01
       -2   -1    0    0    0  501  0.00000000000E+00  0.00000000000E+00  0.14081895830E+04  0.14081895830E+04  0.25500000920E-02 0.  1.
        2   -1    0    0  501    0  0.00000000000E+00  0.00000000000E+00 -0.19328030768E+04  0.19328030768E+04  0.25500000920E-02 0. -1.
    10030    2    1    2    0    0  0.00000000000E+00  0.00000000000E+00 -0.52461349379E+03  0.33409926597E+04  0.32995473378E+04 0.  0.
        2    1    3    3  502    0 -0.94082016255E+03 -0.68786841653E+03 -0.14446413153E+04  0.18561503351E+04  0.25500000920E-02 0. -1.
       -2    1    3    3    0  502  0.94082016255E+03  0.68786841653E+03  0.92002782149E+03  0.14848423246E+04  0.25500000920E-02 0.  1.
</event>
<event>
 5   0  0.2291682E-08  0.3299598E+04  0.7818609E-02  0.8162998E-01
        1   -1    0    0  501    0  0.00000000000E+00  0.00000000000E+00  0.24140786360E+04  0.24140786360E+04  0.50400001928E-02 0. -1.
       -1   -1    0    0    0  501  0.00000000000E+00  0.00000000000E+00 -0.11274846522E+04  0.11274846522E+04  0.50400001928E-02 0.  1.
    10030    2    1    2    0    0  0.00000000000E+00  0.00000000000E+00  0.12865939838E+04  0.35415632883E+04  0.32995979218E+04 0.  0.
        2    1    3    3  502    0 -0.11572848526E+04 -0.35941452588E+03 -0.55833116313E+03  0.13342491219E+04  0.25500000920E-02 0.  1.
       -2    1    3    3    0  502  0.11572848526E+04  0.35941452588E+03  0.18449251469E+04  0.22073141664E+04  0.25500000920E-02 0. -1.
</event>
<event>
 5   0  0.2279938E-08  0.3298583E+04  0.7818609E-02  0.8163256E-01
        1   -1    0    0  501    0  0.00000000000E+00  0.00000000000E+00  0.18155189581E+04  0.18155189581E+04  0.50400001928E-02 0.  1.
       -1   -1    0    0    0  501  0.00000000000E+00  0.00000000000E+00 -0.14982833749E+04  0.14982833749E+04  0.50400001928E-02 0. -1.
    10030    2    1    2    0    0  0.00000000000E+00  0.00000000000E+00  0.31723558322E+03  0.33138023331E+04  0.32985826482E+04 0.  0.
        3    1    3    3  502    0  0.51909947179E+03 -0.13695609964E+04  0.92040426399E+03  0.17298282007E+04  0.10100000352E+00 0.  1.
       -3    1    3    3    0  502 -0.51909947179E+03  0.13695609964E+04 -0.60316868076E+03  0.15839741324E+04  0.10100000352E+00 0. -1.
</event>
<event>
 5   0  0.6821287E-08  0.3297354E+04  0.7818609E-02  0.8163569E-01
       -2   -1    0    0    0  501  0.00000000000E+00  0.00000000000E+00  0.16824749966E+04  0.16824749966E+04  0.25500000920E-02 0.  1.
        2   -1    0    0  501    0  0.00000000000E+00  0.00000000000E+00 -0.16155579727E+04  0.16155579727E+04  0.25500000920E-02 0. -1.
    10030    2    1    2    0    0  0.00000000000E+00  0.00000000000E+00  0.66917023917E+02  0.32980329693E+04  0.32973540268E+04 0.  0.
        5    1    3    3  502    0  0.10026778448E+04 -0.10637672965E+04  0.79594748334E+03  0.16644873708E+04  0.46999998093E+01 0.  1.
       -5    1    3    3    0  502 -0.10026778448E+04  0.10637672965E+04 -0.72903045942E+03  0.16335455984E+04  0.46999998093E+01 0. -1.
</event>
<event>
 5   0  0.6603516E-08  0.3305127E+04  0.7818609E-02  0.8161592E-01
        2   -1    0    0  501    0  0.00000000000E+00  0.00000000000E+00  0.15289707766E+04  0.15289707766E+04  0.25500000920E-02 0.  1.
       -2   -1    0    0    0  501  0.00000000000E+00  0.00000000000E+00 -0.17861470660E+04  0.17861470660E+04  0.25500000920E-02 0. -1.
    10030    2    1    2    0    0  0.00000000000E+00  0.00000000000E+00 -0.25717628940E+03  0.33151178426E+04  0.33051273298E+04 0.  0.
        1    1    3    3  502    0  0.22121364309E+03  0.28314164992E+03 -0.17464927249E+04  0.17830708084E+04  0.50400001928E-02 0. -1.
       -1    1    3    3    0  502 -0.22121364309E+03 -0.28314164992E+03  0.14893164355E+04  0.15320470341E+04  0.50400001928E-02 0.  1.
</event>
<event>
 5   0  0.2309822E-08  0.3299677E+04  0.7818609E-02  0.8162977E-01
        1   -1    0    0  501    0  0.00000000000E+00  0.00000000000E+00  0.17412591545E+04  0.17412591545E+04  0.50400001928E-02 0. -1.
       -1   -1    0    0    0  501  0.00000000000E+00  0.00000000000E+00 -0.15632181419E+04  0.15632181419E+04  0.50400001928E-02 0.  1.
    10030    2    1    2    0    0  0.00000000000E+00  0.00000000000E+00  0.17804101256E+03  0.33044772964E+04  0.32996774995E+04 0.  0.
        4    1    3    3  502    0  0.17336272559E+03 -0.15515590891E+04  0.62325318153E+03  0.16810224218E+04  0.12699999809E+01 0. -1.
       -4    1    3    3    0  502 -0.17336272559E+03  0.15515590891E+04 -0.44521216896E+03  0.16234548746E+04  0.12699999809E+01 0.  1.
</event>
<event>
 5   0  0.2309822E-08  0.3301881E+04  0.7818609E-02  0.8162417E-01
        1   -1    0    0  501    0  0.00000000000E+00  0.00000000000E+00  0.99327676308E+03  0.99327676309E+03  0.50400001928E-02 0. -1.
       -1   -1    0    0    0  501  0.00000000000E+00  0.00000000000E+00 -0.27440541199E+04  0.27440541199E+04  0.50400001928E-02 0.  1.
    10030    2    1    2    0    0  0.00000000000E+00  0.00000000000E+00 -0.17507773569E+04  0.37373308830E+04  0.33018813994E+04 0.  0.
        4    1    3    3  502    0 -0.12970437647E+04  0.88816944928E+02  0.27634643894E+03  0.13291275125E+04  0.12699999809E+01 0. -1.
       -4    1    3    3    0  502  0.12970437647E+04 -0.88816944928E+02 -0.20271237958E+04  0.24082033705E+04  0.12699999809E+01 0.  1.
</event>
<event>
 5   0  0.2383270E-08  0.3299761E+04  0.7818609E-02  0.8162956E-01
        1   -1    0    0  501    0  0.00000000000E+00  0.00000000000E+00  0.18844078712E+04  0.18844078712E+04  0.50400001928E-02 0. -1.
       -1   -1    0    0    0  501  0.00000000000E+00  0.00000000000E+00 -0.14445417460E+04  0.14445417460E+04  0.50400001928E-02 0.  1.
    10030    2    1    2    0    0  0.00000000000E+00  0.00000000000E+00  0.43986612524E+03  0.33289496172E+04  0.32997611044E+04 0.  0.
        5    1    3    3  502    0 -0.12907795167E+04 -0.47022455958E+03 -0.70185646738E+03  0.15426754318E+04  0.46999998093E+01 0.  1.
       -5    1    3    3    0  502  0.12907795167E+04  0.47022455958E+03  0.11417225926E+04  0.17862741854E+04  0.46999998093E+01 0. -1.
</event>
<event>
 5   0  0.6706080E-08  0.3299982E+04  0.7818609E-02  0.8162900E-01
       -2   -1    0    0    0  501  0.00000000000E+00  0.00000000000E+00  0.16789542820E+04  0.16789542820E+04  0.25500000920E-02 0. -1.
        2   -1    0    0  501    0  0.00000000000E+00  0.00000000000E+00 -0.16215277093E+04  0.16215277093E+04  0.25500000920E-02 0.  1.
    10030    2    1    2    0    0  0.00000000000E+00  0.00000000000E+00  0.57426572671E+02  0.33004819914E+04  0.32999823581E+04 0.  0.
        4    1    3    3  502    0  0.49005825191E+03 -0.12067762708E+04 -0.98435824477E+03  0.16326141078E+04  0.12699999809E+01 0.  1.
       -4    1    3    3    0  502 -0.49005825191E+03  0.12067762708E+04  0.10417848174E+04  0.16678678835E+04  0.12699999809E+01 0. -1.
</event>
<event>
 5   0  0.2383270E-08  0.3299454E+04  0.7818609E-02  0.8163034E-01
        1   -1    0    0  501    0  0.00000000000E+00  0.00000000000E+00  0.15085597576E+04  0.15085597576E+04  0.50400001928E-02 0. -1.
       -1   -1    0    0    0  501  0.00000000000E+00  0.00000000000E+00 -0.18041039370E+04  0.18041039370E+04  0.50400001928E-02 0.  1.
    10030    2    1    2    0    0  0.00000000000E+00  0.00000000000E+00 -0.29554417935E+03  0.33126636946E+04  0.32994536505E+04 0.  0.
        5    1    3    3  502    0  0.43308313455E+03 -0.10164474200E+04  0.10822247128E+04  0.15465958677E+04  0.46999998093E+01 0. -1.
       -5    1    3    3    0  502 -0.43308313455E+03  0.10164474200E+04 -0.13777688921E+04  0.17660678269E+04  0.46999998093E+01 0.  1.
</event>
<event>
 5   0  0.7084130E-08  0.3299335E+04  0.7818609E-02  0.8163065E-01
        2   -1    0    0  501    0  0.00000000000E+00  0.00000000000E+00  0.11316124709E+04  0.11316124709E+04  0.25500000920E-02 0.  1.
       -2   -1    0    0    0  501  0.00000000000E+00  0.00000000000E+00 -0.24048893101E+04  0.24048893101E+04  0.25500000920E-02 0. -1.
    10030    2    1    2    0    0  0.00000000000E+00  0.00000000000E+00 -0.12732768392E+04  0.35365017810E+04  0.32993349235E+04 0.  0.
        3    1    3    3  502    0  0.39149527294E+03 -0.18353897498E+03 -0.23430710106E+04  0.23826323415E+04  0.10100000352E+00 0. -1.
       -3    1    3    3    0  502 -0.39149527294E+03  0.18353897498E+03  0.10697941713E+04  0.11538694394E+04  0.10100000352E+00 0.  1.
</event>
<event>
 5   0  0.7084130E-08  0.3292072E+04  0.7818609E-02  0.8164916E-01
       -2   -1    0    0    0  501  0.00000000000E+00  0.00000000000E+00  0.14673463644E+04  0.14673463644E+04  0.25500000920E-02 0.  1.
        2   -1    0    0  501    0  0.00000000000E+00  0.00000000000E+00 -0.18464863961E+04  0.18464863961E+04  0.25500000920E-02 0. -1.
    10030    2    1    2    0    0  0.00000000000E+00  0.00000000000E+00 -0.37914003173E+03  0.33138327605E+04  0.32920723566E+04 0.  0.
        3    1    3    3  502    0  0.24539570230E+03 -0.69441180684E+03 -0.16713765333E+04  0.18264518429E+04  0.10100000352E+00 0. -1.
       -3    1    3    3    0  502 -0.24539570230E+03  0.69441180684E+03  0.12922365015E+04  0.14873809177E+04  0.10100000352E+00 0.  1.
</event>
<event>
 5   0  0.2200750E-08  0.3298902E+04  0.7818609E-02  0.8163175E-01
       -3   -1    0    0    0  501  0.00000000000E+00  0.00000000000E+00  0.20474021946E+04  0.20474021970E+04  0.10100000352E+00 0.  1.
        3   -1    0    0  501    0  0.00000000000E+00  0.00000000000E+00 -0.13288493470E+04  0.13288493508E+04  0.10100000352E+00 0. -1.
    10030    2    1    2    0    0  0.00000000000E+00  0.00000000000E+00  0.71855284756E+03  0.33762515479E+04  0.32989022901E+04 0.  0.
        3    1    3    3  502    0 -0.67485770594E+03  0.12789235588E+04 -0.45280838435E+03  0.15152933167E+04  0.10100000352E+00 0. -1.
       -3    1    3    3    0  502  0.67485770594E+03 -0.12789235588E+04  0.11713612319E+04  0.18609582312E+04  0.10100000352E+00 0.  1.
</event>
<event>
 5   0  0.2383270E-08  0.3301081E+04  0.7818609E-02  0.8162620E-01
        1   -1    0    0  501    0  0.00000000000E+00  0.00000000000E+00  0.19321982720E+04  0.19321982720E+04  0.50400001928E-02 0.  1.
       -1   -1    0    0    0  501  0.00000000000E+00  0.00000000000E+00 -0.14099399867E+04  0.14099399867E+04  0.50400001928E-02 0. -1.
    10030    2    1    2    0    0  0.00000000000E+00  0.00000000000E+00  0.52225828530E+03  0.33421382588E+04  0.33010807964E+04 0.  0.
        5    1    3    3  502    0 -0.13914849208E+04  0.43787185447E+03  0.10429377898E+04  0.17932382355E+04  0.46999998093E+01 0.  1.
       -5    1    3    3    0  502  0.13914849208E+04 -0.43787185447E+03 -0.52067950447E+03  0.15489000233E+04  0.46999998093E+01 0. -1.
</event>
<event>
 5   0  0.7084130E-08  0.3300046E+04  0.7818609E-02  0.8162884E-01
       -2   -1    0    0    0  501  0.00000000000E+00  0.00000000000E+00  0.21457340016E+04  0.21457340016E+04  0.25500000920E-02 0.  1.
        2   -1    0    0  501    0  0.00000000000E+00  0.00000000000E+00 -0.12688317426E+04  0.12688317426E+04  0.25500000920E-02 0. -1.
    10030    2    1    2    0    0  0.00000000000E+00  0.00000000000E+00  0.87690225899E+03  0.34145657442E+04  0.33000457041E+04 0.  0.
        3    1    3    3  502    0  0.38026257004E+03  0.53370461616E+03  0.20053116979E+04  0.21096718360E+04  0.10100000352E+00 0.  1.
       -3    1    3    3    0  502 -0.38026257004E+03 -0.53370461616E+03 -0.11284094389E+04  0.13048939082E+04  0.10100000352E+00 0. -1.
</event>
<event>
 5   0  0.6765252E-08  0.3300798E+04  0.7818609E-02  0.8162692E-01
       -2   -1    0    0    0  501  0.00000000000E+00  0.00000000000E+00  0.19988654554E+04  0.19988654554E+04  0.25500000920E-02 0. -1.
        2   -1    0    0  501    0  0.00000000000E+00  0.00000000000E+00 -0.13626813894E+04  0.13626813894E+04  0.25500000920E-02 0.  1.
    10030    2    1    2    0    0  0.00000000000E+00  0.00000000000E+00  0.63618406604E+03  0.33615468448E+04  0.33007979375E+04 0.  0.
        2    1    3    3  502    0 -0.15331986547E+04  0.51622954782E+03  0.65063760280E+03  0.17437087919E+04  0.25500000920E-02 0. -1.
       -2    1    3    3    0  502  0.15331986547E+04 -0.51622954782E+03 -0.14453536754E+02  0.16178380529E+04  0.25500000920E-02 0.  1.
</event>
<event>
 5   0  0.6603516E-08  0.3300048E+04  0.7818609E-02  0.8162883E-01
       -2   -1    0    0    0  501  0.00000000000E+00  0.00000000000E+00  0.19509166268E+04  0.19509166268E+04  0.25500000920E-02 0.  1.
        2   -1    0    0  501    0  0.00000000000E+00  0.00000000000E+00 -0.13955386972E+04  0.13955386972E+04  0.25500000920E-02 0. -1.
    10030    2    1    2    0    0  0.00000000000E+00  0.00000000000E+00  0.55537792955E+03  0.33464553240E+04  0.33000482710E+04 0.  0.
        1    1    3    3  502    0  0.65443727163E+03 -0.49671691239E+03 -0.11733646581E+04  0.14324107143E+04  0.50400001928E-02 0. -1.
       -1    1    3    3    0  502 -0.65443727163E+03  0.49671691239E+03  0.17287425877E+04  0.19140446097E+04  0.50400001928E-02 0.  1.
</event>
<event>
 5   0  0.2244093E-08  0.3298868E+04  0.7818609E-02  0.8163183E-01
       -1   -1    0    0    0  501  0.00000000000E+00  0.00000000000E+00  0.18563981299E+04  0.18563981299E+04  0.50400001928E-02 0. -1.
        1   -1    0    0  501    0  0.00000000000E+00  0.00000000000E+00 -0.14655436106E+04  0.14655436107E+04  0.50400001928E-02 0.  1.
    10030    2    1    2    0    0  0.00000000000E+00  0.00000000000E+00  0.39085451923E+03  0.33219417405E+04  0.32988679380E+04 0.  0.
        1    1    3    3  502    0 -0.15610778156E+04 -0.44978990052E+03 -0.91800178605E+02  0.16271761348E+04  0.50400001928E-02 0.  1.
       -1    1    3    3    0  502  0.15610778156E+04  0.44978990052E+03  0.48265469783E+03  0.16947656057E+04  0.50400001928E-02 0. -1.
</event>
<event>
 5   0  0.6706080E-08  0.3303294E+04  0.7818609E-02  0.8162058E-01
       -2   -1    0    0    0  501  0.00000000000E+00  0.00000000000E+00  0.20560659256E+04  0.20560659256E+04  0.25500000920E-02 0. -1.
        2   -1    0    0  501    0  0.00000000000E+00  0.00000000000E+00 -0.13267756757E+04  0.13267756757E+04  0.25500000920E-02 0.  1.
    10030    2    1    2    0    0  0.00000000000E+00  0.00000000000E+00  0.72929024990E+03  0.33828416013E+04  0.33032942695E+04 0.  0.
        4    1    3    3  502    0 -0.70812456772E+03  0.56543051788E+03  0.17787617021E+04  0.19962832664E+04  0.12699999809E+01 0. -1.
       -4    1    3    3    0  502  0.70812456772E+03 -0.56543051788E+03 -0.10494714522E+04  0.13865583348E+04  0.12699999809E+01 0.  1.
</event>
<event>
 5   0  0.6706080E-08  0.3299754E+04  0.7818609E-02  0.8162958E-01
       -2   -1    0    0    0  501  0.00000000000E+00  0.00000000000E+00  0.15129741251E+04  0.15129741251E+04  0.25500000920E-02 0.  1.
        2   -1    0    0  501    0  0.00000000000E+00  0.00000000000E+00 -0.17991678314E+04  0.17991678314E+04  0.25500000920E-02 0. -1.
    10030    2    1    2    0    0  0.00000000000E+00  0.00000000000E+00 -0.28619370630E+03  0.33121419564E+04  0.32997541578E+04 0.  0.
        4    1    3    3  502    0  0.72147602607E+03 -0.64003826332E+03 -0.14867469770E+04  0.17721723452E+04  0.12699999809E+01 0. -1.
       -4    1    3    3    0  502 -0.72147602607E+03  0.64003826332E+03  0.12005532707E+04  0.15399696112E+04  0.12699999809E+01 0.  1.
</event>
<event>
 5   0  0.7084130E-08  0.3299310E+04  0.7818609E-02  0.8163071E-01
        2   -1    0    0  501    0  0.00000000000E+00  0.00000000000E+00  0.20848440104E+04  0.20848440104E+04  0.25500000920E-02 0. -1.
       -2   -1    0    0    0  501  0.00000000000E+00  0.00000000000E+00 -0.13053068541E+04  0.13053068541E+04  0.25500000920E-02 0.  1.
    10030    2    1    2    0    0  0.00000000000E+00  0.00000000000E+00  0.77953715629E+03  0.33901508644E+04  0.32993097317E+04 0.  0.
        3    1    3    3  502    0 -0.15726818909E+04 -0.25391035911E+03  0.83000681465E+03  0.17963045741E+04  0.10100000352E+00 0.  1.
       -3    1    3    3    0  502  0.15726818909E+04  0.25391035911E+03 -0.50469658361E+02  0.15938462903E+04  0.10100000352E+00 0. -1.
</event>
<event>
 5   0  0.2309822E-08  0.3297227E+04  0.7818609E-02  0.8163601E-01
        1   -1    0    0  501    0  0.00000000000E+00  0.00000000000E+00  0.13524101285E+04  0.13524101285E+04  0.50400001928E-02 0.  1.
       -1   -1    0    0    0  501  0.00000000000E+00  0.00000000000E+00 -0.20096911316E+04  0.20096911316E+04  0.50400001928E-02 0. -1.
    10030    2    1    2    0    0  0.00000000000E+00  0.00000000000E+00 -0.65728100306E+03  0.33621012601E+04  0.32972271027E+04 0.  0.
        4    1    3    3  502    0 -0.25476602883E+03 -0.60268100325E+03 -0.18716202322E+04  0.19826986730E+04  0.12699999809E+01 0. -1.
       -4    1    3    3    0  502  0.25476602883E+03  0.60268100325E+03  0.12143392292E+04  0.13794025872E+04  0.12699999809E+01 0.  1.
</event>
<event>
 5   0  0.2291682E-08  0.3299180E+04  0.7818609E-02  0.8163104E-01
        1   -1    0    0  501    0  0.00000000000E+00  0.00000000000E+00  0.16246671822E+04  0.16246671822E+04  0.50400001928E-02 0.  1.
       -1   -1    0    0    0  501  0.00000000000E+00  0.00000000000E+00 -0.16748951224E+04  0.16748951224E+04  0.50400001928E-02 0. -1.
    10030    2    1    2    0    0  0.00000000000E+00  0.00000000000E+00 -0.50227940238E+02  0.32995623046E+04  0.32991799823E+04 0.  0.
        2    1    3    3  502    0 -0.37125414156E+03 -0.13383844980E+03  0.15767597403E+04  0.16253964583E+04  0.25500000920E-02 0.  1.
       -2    1    3    3    0  502  0.37125414156E+03  0.13383844980E+03 -0.16269876805E+04  0.16741658462E+04  0.25500000920E-02 0. -1.
</event>
<event>
 5   0  0.7084130E-08  0.3303349E+04  0.7818609E-02  0.8162044E-01
        2   -1    0    0  501    0  0.00000000000E+00  0.00000000000E+00  0.20373377594E+04  0.20373377594E+04  0.25500000920E-02 0. -1.
       -2   -1    0    0    0  501  0.00000000000E+00  0.00000000000E+00 -0.13390161866E+04  0.13390161866E+04  0.25500000920E-02 0.  1.
    10030    2    1    2    0    0  0.00000000000E+00  0.00000000000E+00  0.69832157278E+03  0.33763539460E+04  0.33033487478E+04 0.  0.
        3    1    3    3  502    0  0.10848243240E+04 -0.58163913134E+03 -0.77648699232E+03  0.14553624815E+04  0.10100000352E+00 0.  1.
       -3    1    3    3    0  502 -0.10848243240E+04  0.58163913134E+03  0.14748085651E+04  0.19209914646E+04  0.10100000352E+00 0. -1.
</event>
<event>
 5   0  0.6706080E-08  0.3298879E+04  0.7818609E-02  0.8163181E-01
       -2   -1    0    0    0  501  0.00000000000E+00  0.00000000000E+00  0.22003564295E+04  0.22003564295E+04  0.25500000920E-02 0.  1.
        2   -1    0    0  501    0  0.00000000000E+00  0.00000000000E+00 -0.12364593829E+04  0.12364593829E+04  0.25500000920E-02 0. -1.
    10030    2    1    2    0    0  0.00000000000E+00  0.00000000000E+00  0.96389704666E+03  0.34368158124E+04  0.32988794176E+04 0.  0.
        4    1    3    3  502    0 -0.51086490958E+03 -0.14346610925E+04 -0.17811579254E+03  0.15332847924E+04  0.12699999809E+01 0. -1.
       -4    1    3    3    0  502  0.51086490958E+03  0.14346610925E+04  0.11420128392E+04  0.19035310200E+04  0.12699999809E+01 0.  1.
</event>
<event>
 5   0  0.6706080E-08  0.3298547E+04  0.7818609E-02  0.8163265E-01
        2   -1    0    0  501    0  0.00000000000E+00  0.00000000000E+00  0.32187961905E+04  0.32187961905E+04  0.25500000920E-02 0. -1.
       -2   -1    0    0    0  501  0.00000000000E+00  0.00000000000E+00 -0.84506824911E+03  0.84506824912E+03  0.25500000920E-02 0.  1.
    10030    2    1    2    0    0  0.00000000000E+00  0.00000000000E+00  0.23737279414E+04  0.40638644397E+04  0.32985466260E+04 0.  0.
        4    1    3    3  502    0 -0.27869626940E+03 -0.44516594479E+03  0.31130133997E+04  0.31570078189E+04  0.12699999809E+01 0. -1.
       -4    1    3    3    0  502  0.27869626940E+03  0.44516594479E+03 -0.73928545825E+03  0.90685662078E+03  0.12699999809E+01 0.  1.
</event>
<event>
 5   0  0.2279938E-08  0.3296198E+04  0.7818609E-02  0.8163863E-01
        1   -1    0    0  501    0  0.00000000000E+00  0.00000000000E+00  0.19322784291E+04  0.19322784291E+04  0.50400001928E-02 0.  1.
       -1   -1    0    0    0  501  0.00000000000E+00  0.00000000000E+00 -0.14057137790E+04  0.14057137790E+04  0.50400001928E-02 0. -1.
    10030    2    1    2    0    0  0.00000000000E+00  0.00000000000E+00  0.52656465003E+03  0.33379922081E+04  0.32961980600E+04 0.  0.
        3    1    3    3  502    0 -0.14998358028E+03 -0.69926445895E+03 -0.12403897252E+04  0.14317934692E+04  0.10100000352E+00 0. -1.
       -3    1    3    3    0  502  0.14998358028E+03  0.69926445895E+03  0.17669543752E+04  0.19061987389E+04  0.10100000352E+00 0.  1.
</event>
<event>
 5   0  0.2244093E-08  0.3299893E+04  0.7818609E-02  0.8162923E-01
        1   -1    0    0  501    0  0.00000000000E+00  0.00000000000E+00  0.14066131243E+04  0.14066131244E+04  0.50400001928E-02 0. -1.
       -1   -1    0    0    0  501  0.00000000000E+00  0.00000000000E+00 -0.19353749484E+04  0.19353749484E+04  0.50400001928E-02 0.  1.
    10030    2    1    2    0    0  0.00000000000E+00  0.00000000000E+00 -0.52876182402E+03  0.33419880727E+04  0.32998932122E+04 0.  0.
        1    1    3    3  502    0 -0.14384728810E+03 -0.16389057843E+04 -0.13780827253E+03  0.16509679985E+04  0.50400001928E-02 0.  1.
       -1    1    3    3    0  502  0.14384728810E+03  0.16389057843E+04 -0.39095355149E+03  0.16910200742E+04  0.50400001928E-02 0. -1.
</event>
<event>
 5   0  0.2309822E-08  0.3304241E+04  0.7818609E-02  0.8161817E-01
        1   -1    0    0  501    0  0.00000000000E+00  0.00000000000E+00  0.24002481358E+04  0.24002481358E+04  0.50400001928E-02 0. -1.
       -1   -1    0    0    0  501  0.00000000000E+00  0.00000000000E+00 -0.11371746483E+04  0.11371746483E+04  0.50400001928E-02 0.  1.
    10030    2    1    2    0    0  0.00000000000E+00  0.00000000000E+00  0.12630734875E+04  0.35374227841E+04  0.33042405055E+04 0.  0.
        4    1    3    3  502    0  0.35387181117E+03  0.10789366342E+04  0.19162973974E+04  0.22274485061E+04  0.12699999809E+01 0. -1.
       -4    1    3    3    0  502 -0.35387181117E+03 -0.10789366342E+04 -0.65322390988E+03  0.13099742779E+04  0.12699999809E+01 0.  1.
</event>
<event>
 5   0  0.6603516E-08  0.3301367E+04  0.7818609E-02  0.8162548E-01
       -2   -1    0    0    0  501  0.00000000000E+00  0.00000000000E+00  0.10292911427E+04  0.10292911427E+04  0.25500000920E-02 0. -1.
        2   -1    0    0  501    0  0.00000000000E+00  0.00000000000E+00 -0.26472158127E+04  0.26472158127E+04  0.25500000920E-02 0.  1.
    10030    2    1    2    0    0  0.00000000000E+00  0.00000000000E+00 -0.16179246700E+04  0.36765069554E+04  0.33013668617E+04 0.  0.
        1    1    3    3  502    0 -0.16056365410E+04  0.33278901903E+02 -0.12338673607E+04  0.20252419240E+04  0.50400001928E-02 0.  1.
       -1    1    3    3    0  502  0.16056365410E+04 -0.33278901903E+02 -0.38405730931E+03  0.16512650314E+04  0.50400001928E-02 0. -1.
</event>
<event>
 5   0  0.6706080E-08  0.3301894E+04  0.7818609E-02  0.8162414E-01
       -2   -1    0    0    0  501  0.00000000000E+00  0.00000000000E+00  0.27441210927E+04  0.27441210927E+04  0.25500000920E-02 0. -1.
        2   -1    0    0  501    0  0.00000000000E+00  0.00000000000E+00 -0.99325985215E+03  0.99325985216E+03  0.25500000920E-02 0.  1.
    10030    2    1    2    0    0  0.00000000000E+00  0.00000000000E+00  0.17508612406E+04  0.37373809449E+04  0.33018935845E+04 0.  0.
        4    1    3    3  502    0 -0.67348846315E+03 -0.14872936393E+04  0.11526735261E+04  0.19985712272E+04  0.12699999809E+01 0. -1.
       -4    1    3    3    0  502  0.67348846315E+03  0.14872936393E+04  0.59818771451E+03  0.17388097177E+04  0.12699999809E+01 0.  1.
</event>
<event>
 5   0  0.2383270E-08  0.3296700E+04  0.7818609E-02  0.8163735E-01
        1   -1    0    0  501    0  0.00000000000E+00  0.00000000000E+00  0.16994479159E+04  0.16994479159E+04  0.50400001928E-02 0. -1.
       -1   -1    0    0    0  501  0.00000000000E+00  0.00000000000E+00 -0.15987888210E+04  0.15987888210E+04  0.50400001928E-02 0.  1.
    10030    2    1    2    0    0  0.00000000000E+00  0.00000000000E+00  0.10065909494E+03  0.32982367369E+04  0.32967003685E+04 0.  0.
        5    1    3    3  502    0  0.10672780371E+03  0.54401890887E+03  0.16033702266E+04  0.16965157149E+04  0.46999998093E+01 0. -1.
       -5    1    3    3    0  502 -0.10672780371E+03 -0.54401890887E+03 -0.15027111316E+04  0.16017210220E+04  0.46999998093E+01 0.  1.
</event>
<event>
 5   0  0.6603516E-08  0.3307830E+04  0.7818609E-02  0.8160906E-01
        2   -1    0    0  501    0  0.00000000000E+00  0.00000000000E+00  0.18334913527E+04  0.18334913527E+04  0.25500000920E-02 0.  1.
       -2   -1    0    0    0  501  0.00000000000E+00  0.00000000000E+00 -0.14919268018E+04  0.14919268018E+04  0.25500000920E-02 0. -1.
    10030    2    1    2    0    0  0.00000000000E+00  0.00000000000E+00  0.34156455092E+03  0.33254181545E+04  0.33078300379E+04 0.  0.
        1    1    3    3  502    0  0.14092719497E+04 -0.57667878467E+03  0.81983811462E+03  0.17293757206E+04  0.50400001928E-02 0.  1.
       -1    1    3    3    0  502 -0.14092719497E+04  0.57667878467E+03 -0.47827356370E+03  0.15960424338E+04  0.50400001928E-02 0. -1.
</event>
<event>
 5   0  0.2279938E-08  0.3301923E+04  0.7818609E-02  0.8162406E-01
        1   -1    0    0  501    0  0.00000000000E+00  0.00000000000E+00  0.15453091940E+04  0.15453091940E+04  0.50400001928E-02 0.  1.
       -1   -1    0    0    0  501  0.00000000000E+00  0.00000000000E+00 -0.17638369051E+04  0.17638369051E+04  0.50400001928E-02 0. -1.
    10030    2    1    2    0    0  0.00000000000E+00  0.00000000000E+00 -0.21852771111E+03  0.33091460991E+04  0.33019227042E+04 0.  0.
        3    1    3    3  502    0 -0.12137623220E+04 -0.10647690916E+04  0.23604931833E+03  0.16317694334E+04  0.10100000352E+00 0.  1.
       -3    1    3    3    0  502  0.12137623220E+04  0.10647690916E+04 -0.45457702944E+03  0.16773766657E+04  0.10100000352E+00 0. -1.
</event>
<event>
 5   0  0.2200750E-08  0.3299200E+04  0.7818609E-02  0.8163099E-01
        3   -1    0    0  501    0  0.00000000000E+00  0.00000000000E+00  0.14261143690E+04  0.14261143725E+04  0.10100000352E+00 0.  1.
       -3   -1    0    0    0  501  0.00000000000E+00  0.00000000000E+00 -0.19081082316E+04  0.19081082343E+04  0.10100000352E+00 0. -1.
    10030    2    1    2    0    0  0.00000000000E+00  0.00000000000E+00 -0.48199386268E+03  0.33342226068E+04  0.32992002528E+04 0.  0.
        2    1    3    3  502    0 -0.39485623896E+03 -0.47045371760E+03 -0.17882429897E+04  0.18907805637E+04  0.25500000920E-02 0. -1.
       -2    1    3    3    0  502  0.39485623896E+03  0.47045371760E+03  0.13062491271E+04  0.14434420431E+04  0.25500000920E-02 0.  1.
</event>
<event>
 5   0  0.2383270E-08  0.3318277E+04  0.7818609E-02  0.8158260E-01
       -1   -1    0    0    0  501  0.00000000000E+00  0.00000000000E+00  0.11669179782E+04  0.11669179782E+04  0.50400001928E-02 0. -1.
        1   -1    0    0  501    0  0.00000000000E+00  0.00000000000E+00 -0.23589837089E+04  0.23589837089E+04  0.50400001928E-02 0.  1.
    10030    2    1    2    0    0  0.00000000000E+00  0.00000000000E+00 -0.11920657307E+04  0.35259016872E+04  0.33182769627E+04 0.  0.
        5    1    3    3  502    0  0.14612524788E+04  0.14296606343E+03 -0.14170498070E+04  0.20405269780E+04  0.46999998093E+01 0.  1.
       -5    1    3    3    0  502 -0.14612524788E+04 -0.14296606343E+03  0.22498407631E+03  0.14853747092E+04  0.46999998093E+01 0. -1.
</event>
<event>
 5   0  0.6821287E-08  0.3301221E+04  0.7818609E-02  0.8162585E-01
        2   -1    0    0  501    0  0.00000000000E+00  0.00000000000E+00  0.14592359505E+04  0.14592359505E+04  0.25500000920E-02 0.  1.
       -2   -1    0    0    0  501  0.00000000000E+00  0.00000000000E+00 -0.18670831005E+04  0.18670831005E+04  0.25500000920E-02 0. -1.
    10030    2    1    2    0    0  0.00000000000E+00  0.00000000000E+00 -0.40784715003E+03  0.33263190511E+04  0.33012208547E+04 0.  0.
        5    1    3    3  502    0  0.12625007379E+04  0.11573766524E+03  0.86108405957E+03  0.15325766434E+04  0.46999998093E+01 0.  1.
       -5    1    3    3    0  502 -0.12625007379E+04 -0.11573766524E+03 -0.12689312096E+04  0.17937424077E+04  0.46999998093E+01 0. -1.
</event>
<event>
 5   0  0.6821287E-08  0.3299140E+04  0.7818609E-02  0.8163114E-01
       -2   -1    0    0    0  501  0.00000000000E+00  0.00000000000E+00  0.12937101647E+04  0.12937101647E+04  0.25500000920E-02 0.  1.
        2   -1    0    0  501    0  0.00000000000E+00  0.00000000000E+00 -0.21033155840E+04  0.21033155840E+04  0.25500000920E-02 0. -1.
    10030    2    1    2    0    0  0.00000000000E+00  0.00000000000E+00 -0.80960541933E+03  0.33970257487E+04  0.32991397367E+04 0.  0.
        5    1    3    3  502    0 -0.26420767916E+03  0.12664037458E+03 -0.20763018966E+04  0.20968774733E+04  0.46999998093E+01 0. -1.
       -5    1    3    3    0  502  0.26420767916E+03 -0.12664037458E+03  0.12666964773E+04  0.13001482753E+04  0.46999998093E+01 0.  1.
</event>
<event>
 5   0  0.6706080E-08  0.3300693E+04  0.7818609E-02  0.8162719E-01
        2   -1    0    0  501    0  0.00000000000E+00  0.00000000000E+00  0.25420289378E+04  0.25420289378E+04  0.25500000920E-02 0. -1.
       -2   -1    0    0    0  501  0.00000000000E+00  0.00000000000E+00 -0.10714444647E+04  0.10714444647E+04  0.25500000920E-02 0.  1.
    10030    2    1    2    0    0  0.00000000000E+00  0.00000000000E+00  0.14705844731E+04  0.36134734025E+04  0.33006925543E+04 0.  0.
        4    1    3    3  502    0  0.59483112461E+03 -0.85545726680E+03  0.21364210554E+04  0.23769576649E+04  0.12699999809E+01 0. -1.
       -4    1    3    3    0  502 -0.59483112461E+03  0.85545726680E+03 -0.66583658228E+03  0.12365157376E+04  0.12699999809E+01 0.  1.
</event>
<event>
 5   0  0.2244093E-08  0.3300299E+04  0.7818609E-02  0.8162819E-01
       -1   -1    0    0    0  501  0.00000000000E+00  0.00000000000E+00  0.15460159830E+04  0.15460159830E+04  0.50400001928E-02 0.  1.
        1   -1    0    0  501    0  0.00000000000E+00  0.00000000000E+00 -0.17612970598E+04  0.17612970598E+04  0.50400001928E-02 0. -1.
    10030    2    1    2    0    0  0.00000000000E+00  0.00000000000E+00 -0.21528107672E+03  0.33073130428E+04  0.33002990200E+04 0.  0.
        1    1    3    3  502    0 -0.11302946981E+02  0.82469551967E+03 -0.15399236567E+04  0.17468873247E+04  0.50400001928E-02 0. -1.
       -1    1    3    3    0  502  0.11302946981E+02 -0.82469551967E+03  0.13246425800E+04  0.15604257181E+04  0.50400001928E-02 0.  1.
</event>
<event>
 5   0  0.6821287E-08  0.3300409E+04  0.7818609E-02  0.8162791E-01
       -2   -1    0    0    0  501  0.00000000000E+00  0.00000000000E+00  0.13589741224E+04  0.13589741224E+04  0.25500000920E-02 0. -1.
        2   -1    0    0  501    0  0.00000000000E+00  0.00000000000E+00 -0.20038461716E+04  0.20038461716E+04  0.25500000920E-02 0.  1.
    10030    2    1    2    0    0  0.00000000000E+00  0.00000000000E+00 -0.64487204921E+03  0.33628202940E+04  0.33004091216E+04 0.  0.
        5    1    3    3  502    0 -0.10169659309E+04 -0.77204552550E+03  0.74274132352E+03  0.14771461545E+04  0.46999998093E+01 0. -1.
       -5    1    3    3    0  502  0.10169659309E+04  0.77204552550E+03 -0.13876133727E+04  0.18856741395E+04  0.46999998093E+01 0.  1.
</event>
<event>
 5   0  0.2383270E-08  0.3300575E+04  0.7818609E-02  0.8162749E-01
       -1   -1    0    0    0  501  0.00000000000E+00  0.00000000000E+00  0.21187313927E+04  0.21187313928E+04  0.50400001928E-02 0.  1.
        1   -1    0    0  501    0  0.00000000000E+00  0.00000000000E+00 -0.12854151155E+04  0.12854151155E+04  0.50400001928E-02 0. -1.
    10030    2    1    2    0    0  0.00000000000E+00  0.00000000000E+00  0.83331627722E+03  0.34041465083E+04  0.33005753183E+04 0.  0.
        5    1    3    3  502    0 -0.70516690119E+03 -0.47865180936E+03 -0.10408603811E+04  0.13452807648E+04  0.46999998093E+01 0. -1.
       -5    1    3    3    0  502  0.70516690119E+03  0.47865180936E+03  0.18741766583E+04  0.20588657435E+04  0.46999998093E+01 0.  1.
</event>
<event>
 5   0  0.7084130E-08  0.3300071E+04  0.7818609E-02  0.8162877E-01
       -2   -1    0    0    0  501  0.00000000000E+00  0.00000000000E+00  0.17085728731E+04  0.17085728731E+04  0.25500000920E-02 0. -1.
        2   -1    0    0  501    0  0.00000000000E+00  0.00000000000E+00 -0.15935038175E+04  0.15935038175E+04  0.25500000920E-02 0.  1.
    10030    2    1    2    0    0  0.00000000000E+00  0.00000000000E+00  0.11506905567E+03  0.33020766906E+04  0.33000711482E+04 0.  0.
        3    1    3    3  502    0  0.16836434029E+03  0.89757146374E+03 -0.13175773040E+04  0.16031191615E+04  0.10100000352E+00 0.  1.
       -3    1    3    3    0  502 -0.16836434029E+03 -0.89757146374E+03  0.14326463597E+04  0.16989575291E+04  0.10100000352E+00 0. -1.
</event>
<event>
 5   0  0.6821287E-08  0.3296521E+04  0.7818609E-02  0.8163781E-01
        2   -1    0    0  501    0  0.00000000000E+00  0.00000000000E+00  0.25183922649E+04  0.25183922649E+04  0.25500000920E-02 0.  1.
       -2   -1    0    0    0  501  0.00000000000E+00  0.00000000000E+00 -0.10787689490E+04  0.10787689490E+04  0.25500000920E-02 0. -1.
    10030    2    1    2    0    0  0.00000000000E+00  0.00000000000E+00  0.14396233159E+04  0.35971612139E+04  0.32965214253E+04 0.  0.
        5    1    3    3  502    0  0.74896260034E+03 -0.11500043361E+04 -0.27628418992E+03  0.13999321389E+04  0.46999998093E+01 0. -1.
       -5    1    3    3    0  502 -0.74896260034E+03  0.11500043361E+04  0.17159075058E+04  0.21972290751E+04  0.46999998093E+01 0.  1.
</event>
<event>
 5   0  0.2309822E-08  0.3299066E+04  0.7818609E-02  0.8163133E-01
        1   -1    0    0  501    0  0.00000000000E+00  0.00000000000E+00  0.25318257789E+04  0.25318257789E+04  0.50400001928E-02 0. -1.
       -1   -1    0    0    0  501  0.00000000000E+00  0.00000000000E+00 -0.10747025246E+04  0.10747025247E+04  0.50400001928E-02 0.  1.
    10030    2    1    2    0    0  0.00000000000E+00  0.00000000000E+00  0.14571232543E+04  0.36065283036E+04  0.32990662658E+04 0.  0.
        4    1    3    3  502    0  0.11813073823E+04 -0.94212541607E+03  0.14519493865E+04  0.20955300200E+04  0.12699999809E+01 0. -1.
       -4    1    3    3    0  502 -0.11813073823E+04  0.94212541607E+03  0.51738677921E+01  0.15109982835E+04  0.12699999809E+01 0.  1.
</event>
<event>
 5   0  0.7084130E-08  0.3302701E+04  0.7818609E-02  0.8162208E-01
       -2   -1    0    0    0  501  0.00000000000E+00  0.00000000000E+00  0.91948114687E+03  0.91948114687E+03  0.25500000920E-02 0. -1.
        2   -1    0    0  501    0  0.00000000000E+00  0.00000000000E+00 -0.29657587857E+04  0.29657587857E+04  0.25500000920E-02 0.  1.
    10030    2    1    2    0    0  0.00000000000E+00  0.00000000000E+00 -0.20462776388E+04  0.38852399325E+04  0.33027014940E+04 0.  0.
        3    1    3    3  502    0 -0.14780319143E+04  0.58763545737E+03 -0.50091842264E+03  0.16675769988E+04  0.10100000352E+00 0. -1.
       -3    1    3    3    0  502  0.14780319143E+04 -0.58763545737E+03 -0.15453592162E+04  0.22176629338E+04  0.10100000352E+00 0.  1.
</event>
<event>
 5   0  0.6765252E-08  0.3300095E+04  0.7818609E-02  0.8162871E-01
        2   -1    0    0  501    0  0.00000000000E+00  0.00000000000E+00  0.14388094967E+04  0.14388094967E+04  0.25500000920E-02 0.  1.
       -2   -1    0    0    0  501  0.00000000000E+00  0.00000000000E+00 -0.18922978657E+04  0.18922978657E+04  0.25500000920E-02 0. -1.
    10030    2    1    2    0    0  0.00000000000E+00  0.00000000000E+00 -0.45348836902E+03  0.33311073624E+04  0.33000946288E+04 0.  0.
        2    1    3    3  502    0 -0.99849084883E+03 -0.12576306804E+04  0.15634476704E+03  0.16134009389E+04  0.25500000920E-02 0.  1.
       -2    1    3    3    0  502  0.99849084883E+03  0.12576306804E+04 -0.60983313606E+03  0.17177064235E+04  0.25500000920E-02 0. -1.
</event>
<event>
 5   0  0.6706080E-08  0.3300291E+04  0.7818609E-02  0.8162821E-01
       -2   -1    0    0    0  501  0.00000000000E+00  0.00000000000E+00  0.95941617260E+03  0.95941617260E+03  0.25500000920E-02 0.  1.
        2   -1    0    0  501    0  0.00000000000E+00  0.00000000000E+00 -0.28381644918E+04  0.28381644918E+04  0.25500000920E-02 0. -1.
    10030    2    1    2    0    0  0.00000000000E+00  0.00000000000E+00 -0.18787483192E+04  0.37975806644E+04  0.33002914501E+04 0.  0.
        4    1    3    3  502    0 -0.75150912958E+03 -0.14447175706E+04 -0.12459920985E+04  0.20504811028E+04  0.12699999809E+01 0. -1.
       -4    1    3    3    0  502  0.75150912958E+03  0.14447175706E+04 -0.63275622079E+03  0.17470995617E+04  0.12699999809E+01 0.  1.
</event>
<event>
 5   0  0.7084130E-08  0.3297071E+04  0.7818609E-02  0.8163641E-01
        2   -1    0    0  501    0  0.00000000000E+00  0.00000000000E+00  0.18884937377E+04  0.18884937377E+04  0.25500000920E-02 0. -1.
       -2   -1    0    0    0  501  0.00000000000E+00  0.00000000000E+00 -0.14390674701E+04  0.14390674701E+04  0.25500000920E-02 0.  1.
    10030    2    1    2    0    0  0.00000000000E+00  0.00000000000E+00  0.44942626759E+03  0.33275612078E+04  0.32970713704E+04 0.  0.
        3    1    3    3  502    0  0.76611376853E+03 -0.12142551197E+04 -0.59291697940E+03  0.15533500432E+04  0.10100000352E+00 0.  1.
       -3    1    3    3    0  502 -0.76611376853E+03  0.12142551197E+04  0.10423432470E+04  0.17742111646E+04  0.10100000352E+00 0. -1.
</event>
<event>
 5   0  0.6603516E-08  0.3300599E+04  0.7818609E-02  0.8162743E-01
       -2   -1    0    0    0  501  0.00000000000E+00  0.00000000000E+00  0.12042106205E+04  0.12042106205E+04  0.25500000920E-02 0.  1.
        2   -1    0    0  501    0  0.00000000000E+00  0.00000000000E+00 -0.22616372938E+04  0.22616372938E+04  0.25500000920E-02 0. -1.
    10030    2    1    2    0    0  0.00000000000E+00  0.00000000000E+00 -0.10574266733E+04  0.34658479143E+04  0.33005985208E+04 0.  0.
        1    1    3    3  502    0  0.63649062624E+03 -0.18254290390E+03  0.10586056797E+04  0.12486345398E+04  0.50400001928E-02 0.  1.
       -1    1    3    3    0  502 -0.63649062624E+03  0.18254290390E+03 -0.21160323529E+04  0.22172133744E+04  0.50400001928E-02 0. -1.
</event>
<event>
 5   0  0.6603516E-08  0.3302126E+04  0.7818609E-02  0.8162355E-01
        2   -1    0    0  501    0  0.00000000000E+00  0.00000000000E+00  0.99753999635E+03  0.99753999635E+03  0.25500000920E-02 0.  1.
       -2   -1    0    0    0  501  0.00000000000E+00  0.00000000000E+00 -0.27327315418E+04  0.27327315418E+04  0.25500000920E-02 0. -1.
    10030    2    1    2    0    0  0.00000000000E+00  0.00000000000E+00 -0.17351915454E+04  0.37302715381E+04  0.33021259893E+04 0.  0.
        1    1    3    3  502    0  0.13273358210E+04 -0.40684512331E+03  0.14195767783E+03  0.13955268963E+04  0.50400001928E-02 0.  1.
       -1    1    3    3    0  502 -0.13273358210E+04  0.40684512331E+03 -0.18771492233E+04  0.23347446418E+04  0.50400001928E-02 0. -1.
</event>
<event>
 5   0  0.2244093E-08  0.3299877E+04  0.7818609E-02  0.8162927E-01
        1   -1    0    0  501    0  0.00000000000E+00  0.00000000000E+00  0.18692274093E+04  0.18692274093E+04  0.50400001928E-02 0.  1.
       -1   -1    0    0    0  501  0.00000000000E+00  0.00000000000E+00 -0.14563755137E+04  0.14563755137E+04  0.50400001928E-02 0. -1.
    10030    2    1    2    0    0  0.00000000000E+00  0.00000000000E+00  0.41285189559E+03  0.33256029230E+04  0.32998769847E+04 0.  0.
        1    1    3    3  502    0 -0.43522182881E+03 -0.15613848147E+04  0.51697833713E+03  0.17013545136E+04  0.50400001928E-02 0. -1.
       -1    1    3    3    0  502  0.43522182881E+03  0.15613848147E+04 -0.10412644154E+03  0.16242484095E+04  0.50400001928E-02 0.  1.
</event>
<event>
 5   0  0.2291682E-08  0.3299228E+04  0.7818609E-02  0.8163092E-01
       -1   -1    0    0    0  501  0.00000000000E+00  0.00000000000E+00  0.19234395963E+04  0.19234395963E+04  0.50400001928E-02 0.  1.
        1   -1    0    0  501    0  0.00000000000E+00  0.00000000000E+00 -0.14147706139E+04  0.14147706139E+04  0.50400001928E-02 0. -1.
    10030    2    1    2    0    0  0.00000000000E+00  0.00000000000E+00  0.50866898243E+03  0.33382102102E+04  0.32992276784E+04 0.  0.
        2    1    3    3  502    0 -0.49200410605E+03 -0.95175263521E+03  0.15234775369E+04  0.18624942750E+04  0.25500000920E-02 0.  1.
       -2    1    3    3    0  502  0.49200410605E+03  0.95175263521E+03 -0.10148085545E+04  0.14757159352E+04  0.25500000920E-02 0. -1.
</event>
<event>
 5   0  0.6603516E-08  0.3299954E+04  0.7818609E-02  0.8162907E-01
        2   -1    0    0  501    0  0.00000000000E+00  0.00000000000E+00  0.25492904813E+04  0.25492904813E+04  0.25500000920E-02 0. -1.
       -2   -1    0    0    0  501  0.00000000000E+00  0.00000000000E+00 -0.10679146465E+04  0.10679146465E+04  0.25500000920E-02 0.  1.
    10030    2    1    2    0    0  0.00000000000E+00  0.00000000000E+00  0.14813758348E+04  0.36172051278E+04  0.32999543288E+04 0.  0.
        1    1    3    3  502    0 -0.71773399252E+03  0.43236745187E+03  0.22987241078E+04  0.24466745230E+04  0.50400001928E-02 0. -1.
       -1    1    3    3    0  502  0.71773399252E+03 -0.43236745187E+03 -0.81734827297E+03  0.11705306048E+04  0.50400001928E-02 0.  1.
</event>
<event>
 5   0  0.2383270E-08  0.3300026E+04  0.7818609E-02  0.8162889E-01
        1   -1    0    0  501    0  0.00000000000E+00  0.00000000000E+00  0.20315206463E+04  0.20315206463E+04  0.50400001928E-02 0. -1.
       -1   -1    0    0    0  501  0.00000000000E+00  0.00000000000E+00 -0.13401504703E+04  0.13401504703E+04  0.50400001928E-02 0.  1.
    10030    2    1    2    0    0  0.00000000000E+00  0.00000000000E+00  0.69137017604E+03  0.33716711166E+04  0.33000262724E+04 0.  0.
        5    1    3    3  502    0 -0.43059129190E+03  0.84050163640E+03 -0.10367118687E+04  0.14023713667E+04  0.46999998093E+01 0.  1.
       -5    1    3    3    0  502  0.43059129190E+03 -0.84050163640E+03  0.17280820448E+04  0.19692997499E+04  0.46999998093E+01 0. -1.
</event>
<event>
 5   0  0.6821287E-08  0.3300494E+04  0.7818609E-02  0.8162770E-01
        2   -1    0    0  501    0  0.00000000000E+00  0.00000000000E+00  0.82709824498E+03  0.82709824498E+03  0.25500000920E-02 0.  1.
       -2   -1    0    0    0  501  0.00000000000E+00  0.00000000000E+00 -0.32926130249E+04  0.32926130249E+04  0.25500000920E-02 0. -1.
    10030    2    1    2    0    0  0.00000000000E+00  0.00000000000E+00 -0.24655147799E+04  0.41197112699E+04  0.33004935718E+04 0.  0.
        5    1    3    3  502    0 -0.17857441472E+03  0.72989068229E+03  0.60116235215E+03  0.96231361485E+03  0.46999998093E+01 0.  1.
       -5    1    3    3    0  502  0.17857441472E+03 -0.72989068229E+03 -0.30666771321E+04  0.31573976551E+04  0.46999998093E+01 0. -1.
</event>
<event>
 5   0  0.2279938E-08  0.3299930E+04  0.7818609E-02  0.8162913E-01
       -1   -1    0    0    0  501  0.00000000000E+00  0.00000000000E+00  0.14127976032E+04  0.14127976032E+04  0.50400001928E-02 0. -1.
        1   -1    0    0  501    0  0.00000000000E+00  0.00000000000E+00 -0.19269464214E+04  0.19269464215E+04  0.50400001928E-02 0.  1.
    10030    2    1    2    0    0  0.00000000000E+00  0.00000000000E+00 -0.51414881828E+03  0.33397440246E+04  0.32999304754E+04 0.  0.
        3    1    3    3  502    0  0.10967740925E+04  0.12271589866E+04 -0.37489497244E+03  0.16880103196E+04  0.10100000352E+00 0. -1.
       -3    1    3    3    0  502 -0.10967740925E+04 -0.12271589866E+04 -0.13925384584E+03  0.16517337050E+04  0.10100000352E+00 0.  1.
</event>
<event>
 5   0  0.6765252E-08  0.3300294E+04  0.7818609E-02  0.8162821E-01
        2   -1    0    0  501    0  0.00000000000E+00  0.00000000000E+00  0.24348613628E+04  0.24348613628E+04  0.25500000920E-02 0.  1.
       -2   -1    0    0    0  501  0.00000000000E+00  0.00000000000E+00 -0.11183325689E+04  0.11183325689E+04  0.25500000920E-02 0. -1.
    10030    2    1    2    0    0  0.00000000000E+00  0.00000000000E+00  0.13165287939E+04  0.35531939317E+04  0.33002937826E+04 0.  0.
        2    1    3    3  502    0  0.53349453524E+03 -0.12009172273E+04  0.17328281874E+04  0.21747441535E+04  0.25500000920E-02 0.  1.
       -2    1    3    3    0  502 -0.53349453524E+03  0.12009172273E+04 -0.41629939356E+03  0.13784497782E+04  0.25500000920E-02 0. -1.
</event>
<event>
 5   0  0.2309822E-08  0.3288561E+04  0.7818609E-02  0.8165812E-01
        1   -1    0    0  501    0  0.00000000000E+00  0.00000000000E+00  0.28681478882E+04  0.28681478882E+04  0.50400001928E-02 0. -1.
       -1   -1    0    0    0  501  0.00000000000E+00  0.00000000000E+00 -0.94264977593E+03  0.94264977594E+03  0.50400001928E-02 0.  1.
    10030    2    1    2    0    0  0.00000000000E+00  0.00000000000E+00  0.19254981123E+04  0.38107976641E+04  0.32885613658E+04 0.  0.
        4    1    3    3  502    0  0.14712316922E+04 -0.30371882744E+03  0.17374070938E+04  0.22968136278E+04  0.12699999809E+01 0. -1.
       -4    1    3    3    0  502 -0.14712316922E+04  0.30371882744E+03  0.18809101843E+03  0.15139840364E+04  0.12699999809E+01 0.  1.
</event>
<event>
 5   0  0.2383270E-08  0.3301183E+04  0.7818609E-02  0.8162594E-01
        1   -1    0    0  501    0  0.00000000000E+00  0.00000000000E+00  0.16064204082E+04  0.16064204082E+04  0.50400001928E-02 0.  1.
       -1   -1    0    0    0  501  0.00000000000E+00  0.00000000000E+00 -0.16959771177E+04  0.16959771177E+04  0.50400001928E-02 0. -1.
    10030    2    1    2    0    0  0.00000000000E+00  0.00000000000E+00 -0.89556709510E+02  0.33023975258E+04  0.33011829720E+04 0.  0.
        5    1    3    3  502    0 -0.93064513601E+03 -0.43710739838E+03 -0.13364803198E+04  0.16862280338E+04  0.46999998093E+01 0. -1.
       -5    1    3    3    0  502  0.93064513601E+03  0.43710739838E+03  0.12469236103E+04  0.16161694920E+04  0.46999998093E+01 0.  1.
</event>
<event>
 5   0  0.2244093E-08  0.3301467E+04  0.7818609E-02  0.8162522E-01
        1   -1    0    0  501    0  0.00000000000E+00  0.00000000000E+00  0.18307578013E+04  0.18307578013E+04  0.50400001928E-02 0. -1.
       -1   -1    0    0    0  501  0.00000000000E+00  0.00000000000E+00 -0.14884117780E+04  0.14884117780E+04  0.50400001928E-02 0.  1.
    10030    2    1    2    0    0  0.00000000000E+00  0.00000000000E+00  0.34234602332E+03  0.33191695794E+04  0.33014672340E+04 0.  0.
        1    1    3    3  502    0  0.56437661045E+03 -0.10145812215E+04  0.13509323814E+04  0.17812676140E+04  0.50400001928E-02 0. -1.
       -1    1    3    3    0  502 -0.56437661045E+03  0.10145812215E+04 -0.10085863581E+04  0.15379019654E+04  0.50400001928E-02 0.  1.
</event>
<event>
 5   0  0.2291682E-08  0.3301566E+04  0.7818609E-02  0.8162497E-01
       -1   -1    0    0    0  501  0.00000000000E+00  0.00000000000E+00  0.17236840474E+04  0.17236840474E+04  0.50400001928E-02 0. -1.
        1   -1    0    0  501    0  0.00000000000E+00  0.00000000000E+00 -0.15809656705E+04  0.15809656705E+04  0.50400001928E-02 0.  1.
    10030    2    1    2    0    0  0.00000000000E+00  0.00000000000E+00  0.14271837691E+03  0.33046497179E+04  0.33015664801E+04 0.  0.
        2    1    3    3  502    0 -0.17714771873E+02  0.13621759219E+04 -0.86184633024E+03  0.16120223796E+04  0.25500000920E-02 0. -1.
       -2    1    3    3    0  502  0.17714771873E+02 -0.13621759219E+04  0.10045647071E+04  0.16926273383E+04  0.25500000920E-02 0.  1.
</event>
<event>
 5   0  0.7084130E-08  0.3300903E+04  0.7818609E-02  0.8162666E-01
       -2   -1    0    0    0  501  0.00000000000E+00  0.00000000000E+00  0.11358292085E+04  0.11358292085E+04  0.25500000920E-02 0.  1.
        2   -1    0    0  501    0  0.00000000000E+00  0.00000000000E+00 -0.23982398433E+04  0.23982398433E+04  0.25500000920E-02 0. -1.
    10030    2    1    2    0    0  0.00000000000E+00  0.00000000000E+00 -0.12624106348E+04  0.35340690518E+04  0.33009034297E+04 0.  0.
        3    1    3    3  502    0  0.58505935440E+02  0.16445296775E+04 -0.49539871541E+03  0.17185228256E+04  0.10100000352E+00 0. -1.
       -3    1    3    3    0  502 -0.58505935440E+02 -0.16445296775E+04 -0.76701191938E+03  0.18155462262E+04  0.10100000352E+00 0.  1.
</event>
<event>
 5   0  0.6603516E-08  0.3285112E+04  0.7818609E-02  0.8166694E-01
        2   -1    0    0  501    0  0.00000000000E+00  0.00000000000E+00  0.17525543622E+04  0.17525543622E+04  0.25500000920E-02 0.  1.
       -2   -1    0    0    0  501  0.00000000000E+00  0.00000000000E+00 -0.15394616673E+04  0.15394616673E+04  0.25500000920E-02 0. -1.
    10030    2    1    2    0    0  0.00000000000E+00  0.00000000000E+00  0.21309269494E+03  0.32920160295E+04  0.32851120288E+04 0.  0.
        1    1    3    3  502    0 -0.15319151317E+04  0.31868125830E+03 -0.39417219243E+03  0.16135964280E+04  0.50400001928E-02 0. -1.
       -1    1    3    3    0  502  0.15319151317E+04 -0.31868125830E+03  0.60726488738E+03  0.16784196015E+04  0.50400001928E-02 0.  1.
</event>
<event>
 5   0  0.2291682E-08  0.3300918E+04  0.7818609E-02  0.8162662E-01
       -1   -1    0    0    0  501  0.00000000000E+00  0.00000000000E+00  0.11766422663E+04  0.11766422663E+04  0.50400001928E-02 0. -1.
        1   -1    0    0  501    0  0.00000000000E+00  0.00000000000E+00 -0.23150742894E+04  0.23150742894E+04  0.50400001928E-02 0.  1.
    10030    2    1    2    0    0  0.00000000000E+00  0.00000000000E+00 -0.11384320231E+04  0.34917165557E+04  0.33009176049E+04 0.  0.
        2    1    3    3  502    0  0.12170102802E+04 -0.10892054898E+04 -0.82072301352E+03  0.18278590991E+04  0.25500000920E-02 0. -1.
       -2    1    3    3    0  502 -0.12170102802E+04  0.10892054898E+04 -0.31770900956E+03  0.16638574566E+04  0.25500000920E-02 0.  1.
</event>
<event>
 5   0  0.2309822E-08  0.3302116E+04  0.7818609E-02  0.8162357E-01
       -1   -1    0    0    0  501  0.00000000000E+00  0.00000000000E+00  0.16896896858E+04  0.16896896858E+04  0.50400001928E-02 0. -1.
        1   -1    0    0  501    0  0.00000000000E+00  0.00000000000E+00 -0.16133094841E+04  0.16133094841E+04  0.50400001928E-02 0.  1.
    10030    2    1    2    0    0  0.00000000000E+00  0.00000000000E+00  0.76380201725E+02  0.33029991699E+04  0.33021159248E+04 0.  0.
        4    1    3    3  502    0  0.55518975095E+03 -0.67874338256E+02 -0.15156565133E+04  0.16155676601E+04  0.12699999809E+01 0.  1.
       -4    1    3    3    0  502 -0.55518975095E+03  0.67874338256E+02  0.15920367150E+04  0.16874315098E+04  0.12699999809E+01 0. -1.
</event>
<event>
 5   0  0.2279938E-08  0.3300676E+04  0.7818609E-02  0.8162723E-01
       -1   -1    0    0    0  501  0.00000000000E+00  0.00000000000E+00  0.14594018525E+04  0.14594018525E+04  0.50400001928E-02 0.  1.
        1   -1    0    0  501    0  0.00000000000E+00  0.00000000000E+00 -0.18662549062E+04  0.18662549062E+04  0.50400001928E-02 0. -1.
    10030    2    1    2    0    0  0.00000000000E+00  0.00000000000E+00 -0.40685305367E+03  0.33256567587E+04  0.33006762139E+04 0.  0.
        3    1    3    3  502    0 -0.13183262200E+04  0.86837202682E+03 -0.68827721102E+03  0.17221438757E+04  0.10100000352E+00 0. -1.
       -3    1    3    3    0  502  0.13183262200E+04 -0.86837202682E+03  0.28142415735E+03  0.16035128830E+04  0.10100000352E+00 0.  1.
</event>
<event>
 5   0  0.2309822E-08  0.3300159E+04  0.7818609E-02  0.8162855E-01
        1   -1    0    0  501    0  0.00000000000E+00  0.00000000000E+00  0.20383842075E+04  0.20383842075E+04  0.50400001928E-02 0. -1.
       -1   -1    0    0    0  501  0.00000000000E+00  0.00000000000E+00 -0.13357455694E+04  0.13357455694E+04  0.50400001928E-02 0.  1.
    10030    2    1    2    0    0  0.00000000000E+00  0.00000000000E+00  0.70263863815E+03  0.33741297769E+04  0.33001591925E+04 0.  0.
        4    1    3    3  502    0  0.15139496007E+04 -0.51309917840E+03  0.76969405334E+03  0.17741884649E+04  0.12699999809E+01 0. -1.
       -4    1    3    3    0  502 -0.15139496007E+04  0.51309917840E+03 -0.67055415193E+02  0.15999413120E+04  0.12699999809E+01 0.  1.
</event>
<event>
 5   0  0.6765252E-08  0.3301087E+04  0.7818609E-02  0.8162619E-01
        2   -1    0    0  501    0  0.00000000000E+00  0.00000000000E+00  0.21550132315E+04  0.21550132315E+04  0.25500000920E-02 0. -1.
       -2   -1    0    0    0  501  0.00000000000E+00  0.00000000000E+00 -0.12641659282E+04  0.12641659282E+04  0.25500000920E-02 0.  1.
    10030    2    1    2    0    0  0.00000000000E+00  0.00000000000E+00  0.89084730334E+03  0.34191791597E+04  0.33010872767E+04 0.  0.
        2    1    3    3  502    0  0.10073007251E+04 -0.77704305596E+03  0.15346338862E+04  0.19933769905E+04  0.25500000920E-02 0. -1.
       -2    1    3    3    0  502 -0.10073007251E+04  0.77704305596E+03 -0.64378658286E+03  0.14258021692E+04  0.25500000920E-02 0.  1.
</event>
<event>
 5   0  0.6603516E-08  0.3298675E+04  0.7818609E-02  0.8163233E-01
        2   -1    0    0  501    0  0.00000000000E+00  0.00000000000E+00  0.20362436565E+04  0.20362436565E+04  0.25500000920E-02 0. -1.
       -2   -1    0    0    0  501  0.00000000000E+00  0.00000000000E+00 -0.13359473824E+04  0.13359473825E+04  0.25500000920E-02 0.  1.
    10030    2    1    2    0    0  0.00000000000E+00  0.00000000000E+00  0.70029627410E+03  0.33721910390E+04  0.32986751177E+04 0.  0.
        1    1    3    3  502    0 -0.44691978987E+03 -0.12755615741E+04  0.13164764513E+04  0.18867710181E+04  0.50400001928E-02 0. -1.
       -1    1    3    3    0  502  0.44691978987E+03  0.12755615741E+04 -0.61618017717E+03  0.14854200209E+04  0.50400001928E-02 0.  1.
</event>
<event>
 5   0  0.2244093E-08  0.3300679E+04  0.7818609E-02  0.8162723E-01
        1   -1    0    0  501    0  0.00000000000E+00  0.00000000000E+00  0.16435867855E+04  0.16435867855E+04  0.50400001928E-02 0.  1.
       -1   -1    0    0    0  501  0.00000000000E+00  0.00000000000E+00 -0.16571201217E+04  0.16571201217E+04  0.50400001928E-02 0. -1.
    10030    2    1    2    0    0  0.00000000000E+00  0.00000000000E+00 -0.13533336241E+02  0.33007069072E+04  0.33006791629E+04 0.  0.
        1    1    3    3  502    0 -0.72093638706E+03 -0.12317805765E+04  0.82184639822E+03  0.16469560301E+04  0.50400001928E-02 0. -1.
       -1    1    3    3    0  502  0.72093638706E+03  0.12317805765E+04 -0.83537973446E+03  0.16537508771E+04  0.50400001928E-02 0.  1.
</event>
<event>
 5   0  0.6765252E-08  0.3297982E+04  0.7818609E-02  0.8163409E-01
       -2   -1    0    0    0  501  0.00000000000E+00  0.00000000000E+00  0.26066176394E+04  0.26066176394E+04  0.25500000920E-02 0. -1.
        2   -1    0    0  501    0  0.00000000000E+00  0.00000000000E+00 -0.10431801053E+04  0.10431801053E+04  0.25500000920E-02 0.  1.
    10030    2    1    2    0    0  0.00000000000E+00  0.00000000000E+00  0.15634375341E+04  0.36497977448E+04  0.32979822096E+04 0.  0.
        2    1    3    3  502    0 -0.11040431223E+04  0.11129859611E+04  0.21577252037E+03  0.15824685608E+04  0.25500000920E-02 0. -1.
       -2    1    3    3    0  502  0.11040431223E+04 -0.11129859611E+04  0.13476650137E+04  0.20673291839E+04  0.25500000920E-02 0.  1.
</event>
<event>
 5   0  0.2279938E-08  0.3299362E+04  0.7818609E-02  0.8163058E-01
        1   -1    0    0  501    0  0.00000000000E+00  0.00000000000E+00  0.13921952323E+04  0.13921952323E+04  0.50400001928E-02 0. -1.
       -1   -1    0    0    0  501  0.00000000000E+00  0.00000000000E+00 -0.19547884620E+04  0.19547884620E+04  0.50400001928E-02 0.  1.
    10030    2    1    2    0    0  0.00000000000E+00  0.00000000000E+00 -0.56259322974E+03  0.33469836943E+04  0.32993618637E+04 0.  0.
        3    1    3    3  502    0  0.31117622635E+02  0.16037280612E+04  0.10966875349E+03  0.16077746255E+04  0.10100000352E+00 0. -1.
       -3    1    3    3    0  502 -0.31117622635E+02 -0.16037280612E+04 -0.67226198322E+03  0.17392090688E+04  0.10100000352E+00 0.  1.
</event>
<event>
 5   0  0.6603516E-08  0.3285267E+04  0.7818609E-02  0.8166654E-01
       -2   -1    0    0    0  501  0.00000000000E+00  0.00000000000E+00  0.22641730443E+04  0.22641730443E+04  0.25500000920E-02 0. -1.
        2   -1    0    0  501    0  0.00000000000E+00  0.00000000000E+00 -0.11917130357E+04  0.11917130357E+04  0.25500000920E-02 0.  1.
    10030    2    1    2    0    0  0.00000000000E+00  0.00000000000E+00  0.10724600086E+04  0.34558860800E+04  0.32852668275E+04 0.  0.
        1    1    3    3  502    0 -0.10883551303E+04 -0.41841208648E+03 -0.68086294178E+03  0.13502443887E+04  0.50400001928E-02 0.  1.
       -1    1    3    3    0  502  0.10883551303E+04  0.41841208648E+03  0.17533229504E+04  0.21056416913E+04  0.50400001928E-02 0. -1.
</event>
<event>
 5   0  0.2279938E-08  0.3298887E+04  0.7818609E-02  0.8163179E-01
        1   -1    0    0  501    0  0.00000000000E+00  0.00000000000E+00  0.17132891946E+04  0.17132891946E+04  0.50400001928E-02 0. -1.
       -1   -1    0    0    0  501  0.00000000000E+00  0.00000000000E+00 -0.15879767747E+04  0.15879767747E+04  0.50400001928E-02 0.  1.
    10030    2    1    2    0    0  0.00000000000E+00  0.00000000000E+00  0.12531241985E+03  0.33012659693E+04  0.32988867513E+04 0.  0.
        3    1    3    3  502    0  0.60284084528E+03  0.56106806789E+03 -0.13675172565E+04  0.15963451752E+04  0.10100000352E+00 0.  1.
       -3    1    3    3    0  502 -0.60284084528E+03 -0.56106806789E+03  0.14928296763E+04  0.17049207941E+04  0.10100000352E+00 0. -1.
</event>
<event>
 5   0  0.6821287E-08  0.3301703E+04  0.7818609E-02  0.8162462E-01
       -2   -1    0    0    0  501  0.00000000000E+00  0.00000000000E+00  0.12267593608E+04  0.12267593608E+04  0.25500000920E-02 0.  1.
        2   -1    0    0  501    0  0.00000000000E+00  0.00000000000E+00 -0.22215529649E+04  0.22215529649E+04  0.25500000920E-02 0. -1.
    10030    2    1    2    0    0  0.00000000000E+00  0.00000000000E+00 -0.99479360407E+03  0.34483123257E+04  0.33017031334E+04 0.  0.
        5    1    3    3  502    0  0.66206900452E+03 -0.57846805764E+03 -0.19566981384E+04  0.21451457655E+04  0.46999998093E+01 0. -1.
       -5    1    3    3    0  502 -0.66206900452E+03  0.57846805764E+03  0.96190453433E+03  0.13031665602E+04  0.46999998093E+01 0.  1.
</event>
<event>
 5   0  0.6603516E-08  0.3299479E+04  0.7818609E-02  0.8163028E-01
        2   -1    0    0  501    0  0.00000000000E+00  0.00000000000E+00  0.18225485317E+04  0.18225485317E+04  0.25500000920E-02 0.  1.
       -2   -1    0    0    0  501  0.00000000000E+00  0.00000000000E+00 -0.14933154923E+04  0.14933154923E+04  0.25500000920E-02 0. -1.
    10030    2    1    2    0    0  0.00000000000E+00  0.00000000000E+00  0.32923303938E+03  0.33158640240E+04  0.32994787212E+04 0.  0.
        1    1    3    3  502    0 -0.83341271163E+03  0.60676129702E+03  0.14589971342E+04  0.17864514147E+04  0.50400001928E-02 0.  1.
       -1    1    3    3    0  502  0.83341271163E+03 -0.60676129702E+03 -0.11297640948E+04  0.15294126093E+04  0.50400001928E-02 0. -1.
</event>
<event>
 5   0  0.2291682E-08  0.3299823E+04  0.7818609E-02  0.8162940E-01
       -1   -1    0    0    0  501  0.00000000000E+00  0.00000000000E+00  0.13425605142E+04  0.13425605142E+04  0.50400001928E-02 0. -1.
        1   -1    0    0  501    0  0.00000000000E+00  0.00000000000E+00 -0.20276239075E+04  0.20276239075E+04  0.50400001928E-02 0.  1.
    10030    2    1    2    0    0  0.00000000000E+00  0.00000000000E+00 -0.68506339331E+03  0.33701844217E+04  0.32998229018E+04 0.  0.
        2    1    3    3  502    0 -0.71566245856E+03  0.16660575384E+03 -0.18512842854E+04  0.19917790383E+04  0.25500000920E-02 0.  1.
       -2    1    3    3    0  502  0.71566245856E+03 -0.16660575384E+03  0.11662208921E+04  0.13784053834E+04  0.25500000920E-02 0. -1.
</event>
<event>
 5   0  0.6765252E-08  0.3299065E+04  0.7818609E-02  0.8163133E-01
        2   -1    0    0  501    0  0.00000000000E+00  0.00000000000E+00  0.14639742454E+04  0.14639742454E+04  0.25500000920E-02 0.  1.
       -2   -1    0    0    0  501  0.00000000000E+00  0.00000000000E+00 -0.18586101573E+04  0.18586101573E+04  0.25500000920E-02 0. -1.
    10030    2    1    2    0    0  0.00000000000E+00  0.00000000000E+00 -0.39463591189E+03  0.33225844027E+04  0.32990649600E+04 0.  0.
        2    1    3    3  502    0 -0.16060131066E+04 -0.39028807333E+02 -0.57436113528E+03  0.17060750453E+04  0.25500000920E-02 0. -1.
       -2    1    3    3    0  502  0.16060131066E+04  0.39028807333E+02  0.17972522339E+03  0.16165093574E+04  0.25500000920E-02 0.  1.
</event>
<event>
 5   0  0.6603516E-08  0.3300252E+04  0.7818609E-02  0.8162831E-01
       -2   -1    0    0    0  501  0.00000000000E+00  0.00000000000E+00  0.20517490148E+04  0.20517490148E+04  0.25500000920E-02 0. -1.
        2   -1    0    0  501    0  0.00000000000E+00  0.00000000000E+00 -0.13271190561E+04  0.13271190561E+04  0.25500000920E-02 0.  1.
    10030    2    1    2    0    0  0.00000000000E+00  0.00000000000E+00  0.72462995872E+03  0.33788680709E+04  0.33002516364E+04 0.  0.
        1    1    3    3  502    0 -0.79225141267E+03 -0.12438405608E+04 -0.39566800889E+03  0.15268774721E+04  0.50400001928E-02 0.  1.
       -1    1    3    3    0  502  0.79225141267E+03  0.12438405608E+04  0.11202979676E+04  0.18519905988E+04  0.50400001928E-02 0. -1.
</event>
<event>
 5   0  0.2291682E-08  0.3302322E+04  0.7818609E-02  0.8162305E-01
       -1   -1    0    0    0  501  0.00000000000E+00  0.00000000000E+00  0.14189812437E+04  0.14189812437E+04  0.50400001928E-02 0.  1.
        1   -1    0    0  501    0  0.00000000000E+00  0.00000000000E+00 -0.19213314642E+04  0.19213314642E+04  0.50400001928E-02 0. -1.
    10030    2    1    2    0    0  0.00000000000E+00  0.00000000000E+00 -0.50235022043E+03  0.33403127079E+04  0.33023224014E+04 0.  0.
        2    1    3    3  502    0  0.12361528348E+04 -0.97226059953E+03  0.25757104589E+03  0.15936459293E+04  0.25500000920E-02 0. -1.
       -2    1    3    3    0  502 -0.12361528348E+04  0.97226059953E+03 -0.75992126632E+03  0.17466667786E+04  0.25500000920E-02 0.  1.
</event>
<event>
 5   0  0.2309822E-08  0.3299590E+04  0.7818609E-02  0.8163000E-01
       -1   -1    0    0    0  501  0.00000000000E+00  0.00000000000E+00  0.15174320447E+04  0.15174320447E+04  0.50400001928E-02 0. -1.
        1   -1    0    0  501    0  0.00000000000E+00  0.00000000000E+00 -0.17937037963E+04  0.17937037963E+04  0.50400001928E-02 0.  1.
    10030    2    1    2    0    0  0.00000000000E+00  0.00000000000E+00 -0.27627175163E+03  0.33111358410E+04  0.32995900468E+04 0.  0.
        4    1    3    3  502    0  0.74460020952E+03  0.13873867068E+04 -0.63235351719E+03  0.16968040340E+04  0.12699999809E+01 0.  1.
       -4    1    3    3    0  502 -0.74460020952E+03 -0.13873867068E+04  0.35608176555E+03  0.16143318070E+04  0.12699999809E+01 0. -1.
</event>
<event>
 5   0  0.6821287E-08  0.3297872E+04  0.7818609E-02  0.8163437E-01
        2   -1    0    0  501    0  0.00000000000E+00  0.00000000000E+00  0.23667414804E+04  0.23667414804E+04  0.25500000920E-02 0.  1.
       -2   -1    0    0    0  501  0.00000000000E+00  0.00000000000E+00 -0.11488326120E+04  0.11488326120E+04  0.25500000920E-02 0. -1.
    10030    2    1    2    0    0  0.00000000000E+00  0.00000000000E+00  0.12179088685E+04  0.35155740924E+04  0.32978719179E+04 0.  0.
        5    1    3    3  502    0 -0.65810731758E+02  0.10553420350E+04  0.19577408875E+04  0.22250504120E+04  0.46999998093E+01 0.  1.
       -5    1    3    3    0  502  0.65810731758E+02 -0.10553420350E+04 -0.73983201907E+03  0.12905236804E+04  0.46999998093E+01 0. -1.
</event>
<event>
 5   0  0.2279938E-08  0.3299079E+04  0.7818609E-02  0.8163130E-01
        1   -1    0    0  501    0  0.00000000000E+00  0.00000000000E+00  0.19308535904E+04  0.19308535904E+04  0.50400001928E-02 0. -1.
       -1   -1    0    0    0  501  0.00000000000E+00  0.00000000000E+00 -0.14092112573E+04  0.14092112573E+04  0.50400001928E-02 0.  1.
    10030    2    1    2    0    0  0.00000000000E+00  0.00000000000E+00  0.52164233303E+03  0.33400648477E+04  0.32990790326E+04 0.  0.
        3    1    3    3  502    0  0.25631294094E+03 -0.40155893300E+03 -0.13380498334E+04  0.14203250569E+04  0.10100000352E+00 0.  1.
       -3    1    3    3    0  502 -0.25631294094E+03  0.40155893300E+03  0.18596921664E+04  0.19197397908E+04  0.10100000352E+00 0. -1.
</event>
<event>
 5   0  0.2279938E-08  0.3299322E+04  0.7818609E-02  0.8163068E-01
        1   -1    0    0  501    0  0.00000000000E+00  0.00000000000E+00  0.19403042228E+04  0.19403042228E+04  0.50400001928E-02 0. -1.
       -1   -1    0    0    0  501  0.00000000000E+00  0.00000000000E+00 -0.14025536389E+04  0.14025536389E+04  0.50400001928E-02 0.  1.
    10030    2    1    2    0    0  0.00000000000E+00  0.00000000000E+00  0.53775058392E+03  0.33428578617E+04  0.32993215959E+04 0.  0.
        3    1    3    3  502    0 -0.34340257974E+03 -0.15916310400E+04  0.49121823149E+00  0.16282551860E+04  0.10100000352E+00 0.  1.
       -3    1    3    3    0  502  0.34340257974E+03  0.15916310400E+04  0.53725936569E+03  0.17146026757E+04  0.10100000352E+00 0. -1.
</event>
<event>
 5   0  0.7084130E-08  0.3299608E+04  0.7818609E-02  0.8162995E-01
       -2   -1    0    0    0  501  0.00000000000E+00  0.00000000000E+00  0.16691941873E+04  0.16691941873E+04  0.25500000920E-02 0.  1.
        2   -1    0    0  501    0  0.00000000000E+00  0.00000000000E+00 -0.16306388317E+04  0.16306388317E+04  0.25500000920E-02 0. -1.
    10030    2    1    2    0    0  0.00000000000E+00  0.00000000000E+00  0.38555355602E+02  0.32998330190E+04  0.32996077703E+04 0.  0.
        3    1    3    3  502    0  0.13956994768E+04  0.15637919147E+03  0.88502804057E+03  0.16600319647E+04  0.10100000352E+00 0.  1.
       -3    1    3    3    0  502 -0.13956994768E+04 -0.15637919147E+03 -0.84647268497E+03  0.16398010543E+04  0.10100000352E+00 0. -1.
</event>
<event>
 5   0  0.6821287E-08  0.3300342E+04  0.7818609E-02  0.8162808E-01
       -2   -1    0    0    0  501  0.00000000000E+00  0.00000000000E+00  0.12038270633E+04  0.12038270633E+04  0.25500000920E-02 0.  1.
        2   -1    0    0  501    0  0.00000000000E+00  0.00000000000E+00 -0.22620065114E+04  0.22620065114E+04  0.25500000920E-02 0. -1.
    10030    2    1    2    0    0  0.00000000000E+00  0.00000000000E+00 -0.10581794481E+04  0.34658335747E+04  0.33003421979E+04 0.  0.
        5    1    3    3  502    0 -0.45791521467E+03  0.13916965133E+03  0.11293355766E+04  0.12265706136E+04  0.46999998093E+01 0.  1.
       -5    1    3    3    0  502  0.45791521467E+03 -0.13916965133E+03 -0.21875150247E+04  0.22392629611E+04  0.46999998093E+01 0. -1.
</event>
<event>
 5   0  0.2383270E-08  0.3302317E+04  0.7818609E-02  0.8162306E-01
        1   -1    0    0  501    0  0.00000000000E+00  0.00000000000E+00  0.17657830390E+04  0.17657830390E+04  0.50400001928E-02 0.  1.
       -1   -1    0    0    0  501  0.00000000000E+00  0.00000000000E+00 -0.15439751892E+04  0.15439751892E+04  0.50400001928E-02 0. -1.
    10030    2    1    2    0    0  0.00000000000E+00  0.00000000000E+00  0.22180784976E+03  0.33097582282E+04  0.33023174903E+04 0.  0.
        5    1    3    3  502    0 -0.56925311719E+03  0.93339398284E+03 -0.11292318892E+04  0.15717697631E+04  0.46999998093E+01 0. -1.
       -5    1    3    3    0  502  0.56925311719E+03 -0.93339398284E+03  0.13510397389E+04  0.17379884651E+04  0.46999998093E+01 0.  1.
</event>
<event>
 5   0  0.2291682E-08  0.3299612E+04  0.7818609E-02  0.8162994E-01
        1   -1    0    0  501    0  0.00000000000E+00  0.00000000000E+00  0.22284666160E+04  0.22284666160E+04  0.50400001928E-02 0. -1.
       -1   -1    0    0    0  501  0.00000000000E+00  0.00000000000E+00 -0.12214044847E+04  0.12214044847E+04  0.50400001928E-02 0.  1.
    10030    2    1    2    0    0  0.00000000000E+00  0.00000000000E+00  0.10070621313E+04  0.34498711007E+04  0.32996115643E+04 0.  0.
        2    1    3    3  502    0 -0.14036405665E+03  0.14092246265E+04 -0.38132014129E+03  0.14666360034E+04  0.25500000920E-02 0.  1.
       -2    1    3    3    0  502  0.14036405665E+03 -0.14092246265E+04  0.13883822725E+04  0.19832350973E+04  0.25500000920E-02 0. -1.
</event>
<event>
 5   0  0.6706080E-08  0.3304977E+04  0.7818609E-02  0.8161630E-01
        2   -1    0    0  501    0  0.00000000000E+00  0.00000000000E+00  0.18278362346E+04  0.18278362346E+04  0.25500000920E-02 0. -1.
       -2   -1    0    0    0  501  0.00000000000E+00  0.00000000000E+00 -0.14939624603E+04  0.14939624603E+04  0.25500000920E-02 0.  1.
    10030    2    1    2    0    0  0.00000000000E+00  0.00000000000E+00  0.33387377431E+03  0.33217986948E+04  0.33049772876E+04 0.  0.
        4    1    3    3  502    0 -0.74231809926E+03  0.17262788442E+03 -0.13067729992E+04  0.15127768610E+04  0.12699999809E+01 0.  1.
       -4    1    3    3    0  502  0.74231809926E+03 -0.17262788442E+03  0.16406467735E+04  0.18090218338E+04  0.12699999809E+01 0. -1.
</event>
<event>
 5   0  0.6821287E-08  0.3299756E+04  0.7818609E-02  0.8162958E-01
       -2   -1    0    0    0  501  0.00000000000E+00  0.00000000000E+00  0.11560350211E+04  0.11560350211E+04  0.25500000920E-02 0. -1.
        2   -1    0    0  501    0  0.00000000000E+00  0.00000000000E+00 -0.23546835233E+04  0.23546835233E+04  0.25500000920E-02 0.  1.
    10030    2    1    2    0    0  0.00000000000E+00  0.00000000000E+00 -0.11986485022E+04  0.35107185445E+04  0.32997555162E+04 0.  0.
        5    1    3    3  502    0 -0.15625513785E+04  0.50372595710E+03 -0.42525534168E+03  0.16959277243E+04  0.46999998093E+01 0. -1.
       -5    1    3    3    0  502  0.15625513785E+04 -0.50372595710E+03 -0.77339316051E+03  0.18147908202E+04  0.46999998093E+01 0.  1.
</event>
<event>
 5   0  0.2244093E-08  0.3300262E+04  0.7818609E-02  0.8162829E-01
        1   -1    0    0  501    0  0.00000000000E+00  0.00000000000E+00  0.12520352492E+04  0.12520352492E+04  0.50400001928E-02 0. -1.
       -1   -1    0    0    0  501  0.00000000000E+00  0.00000000000E+00 -0.21748054116E+04  0.21748054116E+04  0.50400001928E-02 0.  1.
    10030    2    1    2    0    0  0.00000000000E+00  0.00000000000E+00 -0.92277016233E+03  0.34268406608E+04  0.33002624353E+04 0.  0.
        1    1    3    3  502    0  0.47920606983E+03  0.14971509604E+04  0.59692339623E+02  0.15731060457E+04  0.50400001928E-02 0. -1.
       -1    1    3    3    0  502 -0.47920606983E+03 -0.14971509604E+04 -0.98246250195E+03  0.18537346151E+04  0.50400001928E-02 0.  1.
</event>
<event>
 5   0  0.6765252E-08  0.3299489E+04  0.7818609E-02  0.8163025E-01
        2   -1    0    0  501    0  0.00000000000E+00  0.00000000000E+00  0.20326674952E+04  0.20326674952E+04  0.25500000920E-02 0. -1.
       -2   -1    0    0    0  501  0.00000000000E+00  0.00000000000E+00 -0.13389581196E+04  0.13389581196E+04  0.25500000920E-02 0.  1.
    10030    2    1    2    0    0  0.00000000000E+00  0.00000000000E+00  0.69370937561E+03  0.33716256148E+04  0.32994888374E+04 0.  0.
        2    1    3    3  502    0  0.28800505381E+03  0.15351918780E+03 -0.13056408116E+04  0.13458131301E+04  0.25500000920E-02 0.  1.
       -2    1    3    3    0  502 -0.28800505381E+03 -0.15351918780E+03  0.19993501872E+04  0.20258124847E+04  0.25500000920E-02 0. -1.
</event>
<event>
 5   0  0.2291682E-08  0.3299418E+04  0.7818609E-02  0.8163043E-01
       -1   -1    0    0    0  501  0.00000000000E+00  0.00000000000E+00  0.18540702328E+04  0.18540702328E+04  0.50400001928E-02 0. -1.
        1   -1    0    0  501    0  0.00000000000E+00  0.00000000000E+00 -0.14678733985E+04  0.14678733985E+04  0.50400001928E-02 0.  1.
    10030    2    1    2    0    0  0.00000000000E+00  0.00000000000E+00  0.38619683435E+03  0.33219436313E+04  0.32994183570E+04 0.  0.
        2    1    3    3  502    0  0.82661352774E+03 -0.53471719256E+03 -0.11396941725E+04  0.15060262970E+04  0.25500000920E-02 0.  1.
       -2    1    3    3    0  502 -0.82661352774E+03  0.53471719256E+03  0.15258910069E+04  0.18159173343E+04  0.25500000920E-02 0. -1.
</event>
<event>
 5   0  0.6603516E-08  0.3299832E+04  0.7818609E-02  0.8162938E-01
       -2   -1    0    0    0  501  0.00000000000E+00  0.00000000000E+00  0.18627054533E+04  0.18627054533E+04  0.25500000920E-02 0. -1.
        2   -1    0    0  501    0  0.00000000000E+00  0.00000000000E+00 -0.14614350966E+04  0.14614350966E+04  0.25500000920E-02 0.  1.
    10030    2    1    2    0    0  0.00000000000E+00  0.00000000000E+00  0.40127035666E+03  0.33241405499E+04  0.32998321922E+04 0.  0.
        1    1    3    3  502    0 -0.24863604234E+03  0.10166014783E+04 -0.10842704940E+04  0.15069641506E+04  0.50400001928E-02 0.  1.
       -1    1    3    3    0  502  0.24863604234E+03 -0.10166014783E+04  0.14855408506E+04  0.18171763993E+04  0.50400001928E-02 0. -1.
</event>
<event>
 5   0  0.2279938E-08  0.3305695E+04  0.7818609E-02  0.8161448E-01
        1   -1    0    0  501    0  0.00000000000E+00  0.00000000000E+00  0.19402968251E+04  0.19402968251E+04  0.50400001928E-02 0.  1.
       -1   -1    0    0    0  501  0.00000000000E+00  0.00000000000E+00 -0.14079833198E+04  0.14079833199E+04  0.50400001928E-02 0. -1.
    10030    2    1    2    0    0  0.00000000000E+00  0.00000000000E+00  0.53231350526E+03  0.33482801450E+04  0.33056954278E+04 0.  0.
        3    1    3    3  502    0 -0.13330798391E+03 -0.15872096534E+04 -0.18100528727E+03  0.16030497268E+04  0.10100000352E+00 0. -1.
       -3    1    3    3    0  502  0.13330798391E+03  0.15872096534E+04  0.71331879253E+03  0.17452304181E+04  0.10100000352E+00 0.  1.
</event>
<event>
 5   0  0.2279938E-08  0.3299531E+04  0.7818609E-02  0.8163015E-01
       -1   -1    0    0    0  501  0.00000000000E+00  0.00000000000E+00  0.12373417843E+04  0.12373417843E+04  0.50400001928E-02 0. -1.
        1   -1    0    0  501    0  0.00000000000E+00  0.00000000000E+00 -0.21996553799E+04  0.21996553799E+04  0.50400001928E-02 0.  1.
    10030    2    1    2    0    0  0.00000000000E+00  0.00000000000E+00 -0.96231359558E+03  0.34369971642E+04  0.32995305803E+04 0.  0.
        3    1    3    3  502    0 -0.16085336811E+03  0.12728763045E+04 -0.15614956764E+04  0.20209791315E+04  0.10100000352E+00 0.  1.
       -3    1    3    3    0  502  0.16085336811E+03 -0.12728763045E+04  0.59918208077E+03  0.14160180326E+04  0.10100000352E+00 0. -1.
</event>
<event>
 5   0  0.6706080E-08  0.3300514E+04  0.7818609E-02  0.8162765E-01
        2   -1    0    0  501    0  0.00000000000E+00  0.00000000000E+00  0.22126437430E+04  0.22126437430E+04  0.25500000920E-02 0.  1.
       -2   -1    0    0    0  501  0.00000000000E+00  0.00000000000E+00 -0.12308116462E+04  0.12308116462E+04  0.25500000920E-02 0. -1.
    10030    2    1    2    0    0  0.00000000000E+00  0.00000000000E+00  0.98183209675E+03  0.34434553892E+04  0.33005137102E+04 0.  0.
        4    1    3    3  502    0 -0.84720881842E+03 -0.10494738979E+04 -0.50115379582E+03  0.14388589174E+04  0.12699999809E+01 0. -1.
       -4    1    3    3    0  502  0.84720881842E+03  0.10494738979E+04  0.14829858926E+04  0.20045964718E+04  0.12699999809E+01 0.  1.
</event>
<event>
 5   0  0.6603516E-08  0.3286169E+04  0.7818609E-02  0.8166424E-01
       -2   -1    0    0    0  501  0.00000000000E+00  0.00000000000E+00  0.99014340175E+03  0.99014340176E+03  0.25500000920E-02 0.  1.
        2   -1    0    0  501    0  0.00000000000E+00  0.00000000000E+00 -0.27266021486E+04  0.27266021486E+04  0.25500000920E-02 0. -1.
    10030    2    1    2    0    0  0.00000000000E+00  0.00000000000E+00 -0.17364587468E+04  0.37167455503E+04  0.32861692754E+04 0.  0.
        1    1    3    3  502    0  0.20496111478E+03  0.44668187787E+03  0.90506534543E+03  0.10298917604E+04  0.50400001928E-02 0.  1.
       -1    1    3    3    0  502 -0.20496111478E+03 -0.44668187787E+03 -0.26415240923E+04  0.26868537900E+04  0.50400001928E-02 0. -1.
</event>
<event>
 5   0  0.2200750E-08  0.3295708E+04  0.7818609E-02  0.8163988E-01
       -4   -1    0    0    0  501  0.00000000000E+00  0.00000000000E+00  0.20720992502E+04  0.20720996394E+04  0.12699999809E+01 0.  1.
        4   -1    0    0  501    0  0.00000000000E+00  0.00000000000E+00 -0.13104685323E+04  0.13104691477E+04  0.12699999809E+01 0. -1.
    10030    2    1    2    0    0  0.00000000000E+00  0.00000000000E+00  0.76163071789E+03  0.33825687871E+04  0.32957078525E+04 0.  0.
        1    1    3    3  502    0  0.50664065359E+03 -0.83951000094E+02  0.19878702528E+04  0.20531343513E+04  0.50400001928E-02 0.  1.
       -1    1    3    3    0  502 -0.50664065359E+03  0.83951000094E+02 -0.12262395349E+04  0.13294344359E+04  0.50400001928E-02 0. -1.
</event>
<event>
 5   0  0.2309822E-08  0.3296805E+04  0.7818609E-02  0.8163709E-01
        1   -1    0    0  501    0  0.00000000000E+00  0.00000000000E+00  0.12958724979E+04  0.12958724979E+04  0.50400001928E-02 0.  1.
       -1   -1    0    0    0  501  0.00000000000E+00  0.00000000000E+00 -0.20968345997E+04  0.20968345997E+04  0.50400001928E-02 0. -1.
    10030    2    1    2    0    0  0.00000000000E+00  0.00000000000E+00 -0.80096210180E+03  0.33927070976E+04  0.32968046896E+04 0.  0.
        4    1    3    3  502    0  0.13572416901E+04 -0.35919740752E+03  0.48841694770E+03  0.14864994150E+04  0.12699999809E+01 0. -1.
       -4    1    3    3    0  502 -0.13572416901E+04  0.35919740752E+03 -0.12893790495E+04  0.19062076826E+04  0.12699999809E+01 0.  1.
</event>
<event>
 5   0  0.2383270E-08  0.3300134E+04  0.7818609E-02  0.8162861E-01
        1   -1    0    0  501    0  0.00000000000E+00  0.00000000000E+00  0.97996486263E+03  0.97996486264E+03  0.50400001928E-02 0.  1.
       -1   -1    0    0    0  501  0.00000000000E+00  0.00000000000E+00 -0.27783872980E+04  0.27783872980E+04  0.50400001928E-02 0. -1.
    10030    2    1    2    0    0  0.00000000000E+00  0.00000000000E+00 -0.17984224354E+04  0.37583521607E+04  0.33001344984E+04 0.  0.
        5    1    3    3  502    0 -0.35841501535E+03 -0.69281742497E+03 -0.25551460199E+04  0.26715633215E+04  0.46999998093E+01 0. -1.
       -5    1    3    3    0  502  0.35841501535E+03  0.69281742497E+03  0.75672358454E+03  0.10867888392E+04  0.46999998093E+01 0.  1.
</event>
<event>
 5   0  0.6765252E-08  0.3298982E+04  0.7818609E-02  0.8163154E-01
        2   -1    0    0  501    0  0.00000000000E+00  0.00000000000E+00  0.23773554588E+04  0.23773554588E+04  0.25500000920E-02 0. -1.
       -2   -1    0    0    0  501  0.00000000000E+00  0.00000000000E+00 -0.11444737705E+04  0.11444737705E+04  0.25500000920E-02 0.  1.
    10030    2    1    2    0    0  0.00000000000E+00  0.00000000000E+00  0.12328816883E+04  0.35218292294E+04  0.32989822466E+04 0.  0.
        2    1    3    3  502    0  0.15910481673E+04  0.33847931062E+03  0.90844744751E+03  0.18631369459E+04  0.25500000920E-02 0. -1.
       -2    1    3    3    0  502 -0.15910481673E+04 -0.33847931062E+03  0.32443424082E+03  0.16586922834E+04  0.25500000920E-02 0.  1.
</event>
<event>
 5   0  0.2309822E-08  0.3299026E+04  0.7818609E-02  0.8163143E-01
        1   -1    0    0  501    0  0.00000000000E+00  0.00000000000E+00  0.21770069066E+04  0.21770069066E+04  0.50400001928E-02 0.  1.
       -1   -1    0    0    0  501  0.00000000000E+00  0.00000000000E+00 -0.12498319435E+04  0.12498319435E+04  0.50400001928E-02 0. -1.
    10030    2    1    2    0    0  0.00000000000E+00  0.00000000000E+00  0.92717496313E+03  0.34268388501E+04  0.32990257793E+04 0.  0.
        4    1    3    3  502    0  0.69467385863E+03 -0.14395382735E+04  0.40309147788E+02  0.15988960726E+04  0.12699999809E+01 0. -1.
       -4    1    3    3    0  502 -0.69467385863E+03  0.14395382735E+04  0.88686581534E+03  0.18279427775E+04  0.12699999809E+01 0.  1.
</event>
<event>
 5   0  0.6821287E-08  0.3300202E+04  0.7818609E-02  0.8162844E-01
        2   -1    0    0  501    0  0.00000000000E+00  0.00000000000E+00  0.30136658884E+04  0.30136658884E+04  0.25500000920E-02 0. -1.
       -2   -1    0    0    0  501  0.00000000000E+00  0.00000000000E+00 -0.90349527814E+03  0.90349527814E+03  0.25500000920E-02 0.  1.
    10030    2    1    2    0    0  0.00000000000E+00  0.00000000000E+00  0.21101706102E+04  0.39171611665E+04  0.33002017514E+04 0.  0.
        5    1    3    3  502    0  0.11940600142E+04  0.12200010892E+03  0.23990873799E+04  0.26825930907E+04  0.46999998093E+01 0. -1.
       -5    1    3    3    0  502 -0.11940600142E+04 -0.12200010892E+03 -0.28891676962E+03  0.12345680758E+04  0.46999998093E+01 0.  1.
</event>
<event>
 5   0  0.2383270E-08  0.3300981E+04  0.7818609E-02  0.8162646E-01
       -1   -1    0    0    0  501  0.00000000000E+00  0.00000000000E+00  0.12737674326E+04  0.12737674326E+04  0.50400001928E-02 0.  1.
        1   -1    0    0  501    0  0.00000000000E+00  0.00000000000E+00 -0.21386318712E+04  0.21386318712E+04  0.50400001928E-02 0. -1.
    10030    2    1    2    0    0  0.00000000000E+00  0.00000000000E+00 -0.86486443862E+03  0.34123993038E+04  0.33009814467E+04 0.  0.
        5    1    3    3  502    0  0.66506830525E+03 -0.14373645236E+04 -0.91261565332E+03  0.18279009943E+04  0.46999998093E+01 0. -1.
       -5    1    3    3    0  502 -0.66506830525E+03  0.14373645236E+04  0.47751214703E+02  0.15844983095E+04  0.46999998093E+01 0.  1.
</event>
<event>
 5   0  0.2244093E-08  0.3300429E+04  0.7818609E-02  0.8162786E-01
       -1   -1    0    0    0  501  0.00000000000E+00  0.00000000000E+00  0.17671778054E+04  0.17671778055E+04  0.50400001928E-02 0.  1.
        1   -1    0    0  501    0  0.00000000000E+00  0.00000000000E+00 -0.15409923498E+04  0.15409923499E+04  0.50400001928E-02 0. -1.
    10030    2    1    2    0    0  0.00000000000E+00  0.00000000000E+00  0.22618545560E+03  0.33081701553E+04  0.33004287473E+04 0.  0.
        1    1    3    3  502    0 -0.50181581432E+02 -0.12519480853E+04  0.11895368755E+04  0.17276834715E+04  0.50400001928E-02 0.  1.
       -1    1    3    3    0  502  0.50181581432E+02  0.12519480853E+04 -0.96335141989E+03  0.15804866838E+04  0.50400001928E-02 0. -1.
</event>
<event>
 5   0  0.6765252E-08  0.3299400E+04  0.7818609E-02  0.8163048E-01
       -2   -1    0    0    0  501  0.00000000000E+00  0.00000000000E+00  0.12553572022E+04  0.12553572022E+04  0.25500000920E-02 0.  1.
        2   -1    0    0  501    0  0.00000000000E+00  0.00000000000E+00 -0.21679167005E+04  0.21679167005E+04  0.25500000920E-02 0. -1.
    10030    2    1    2    0    0  0.00000000000E+00  0.00000000000E+00 -0.91255949833E+03  0.34232739027E+04  0.32993998507E+04 0.  0.
        2    1    3    3  502    0  0.10292653328E+04 -0.73146187430E+03 -0.15577817076E+04  0.20052699189E+04  0.25500000920E-02 0. -1.
       -2    1    3    3    0  502 -0.10292653328E+04  0.73146187430E+03  0.64522220932E+03  0.14180039838E+04  0.25500000920E-02 0.  1.
</event>
<event>
 5   0  0.2383270E-08  0.3299897E+04  0.7818609E-02  0.8162921E-01
        1   -1    0    0  501    0  0.00000000000E+00  0.00000000000E+00  0.29668896817E+04  0.29668896817E+04  0.50400001928E-02 0. -1.
       -1   -1    0    0    0  501  0.00000000000E+00  0.00000000000E+00 -0.91757061306E+03  0.91757061308E+03  0.50400001928E-02 0.  1.
    10030    2    1    2    0    0  0.00000000000E+00  0.00000000000E+00  0.20493190686E+04  0.38844602947E+04  0.32998974433E+04 0.  0.
        5    1    3    3  502    0 -0.64278142499E+03  0.21214050148E+03 -0.74659758319E+03  0.10077706058E+04  0.46999998093E+01 0.  1.
       -5    1    3    3    0  502  0.64278142499E+03 -0.21214050148E+03  0.27959166518E+04  0.28766896889E+04  0.46999998093E+01 0. -1.
</event>
<event>
 5   0  0.6603516E-08  0.3298703E+04  0.7818609E-02  0.8163226E-01
        2   -1    0    0  501    0  0.00000000000E+00  0.00000000000E+00  0.19792260663E+04  0.19792260663E+04  0.25500000920E-02 0. -1.
       -2   -1    0    0    0  501  0.00000000000E+00  0.00000000000E+00 -0.13744565635E+04  0.13744565635E+04  0.25500000920E-02 0.  1.
    10030    2    1    2    0    0  0.00000000000E+00  0.00000000000E+00  0.60476950283E+03  0.33536826298E+04  0.32987029314E+04 0.  0.
        1    1    3    3  502    0 -0.15546693211E+04 -0.50345588925E+03  0.75288256186E+02  0.16358890097E+04  0.50400001928E-02 0.  1.
       -1    1    3    3    0  502  0.15546693211E+04  0.50345588925E+03  0.52948124664E+03  0.17177936201E+04  0.50400001928E-02 0. -1.
</event>
<event>
 5   0  0.2244093E-08  0.3298773E+04  0.7818609E-02  0.8163208E-01
       -1   -1    0    0    0  501  0.00000000000E+00  0.00000000000E+00  0.12052993659E+04  0.12052993659E+04  0.50400001928E-02 0. -1.
        1   -1    0    0  501    0  0.00000000000E+00  0.00000000000E+00 -0.22570949447E+04  0.22570949447E+04  0.50400001928E-02 0.  1.
    10030    2    1    2    0    0  0.00000000000E+00  0.00000000000E+00 -0.10517955788E+04  0.34623943106E+04  0.32987725630E+04 0.  0.
        1    1    3    3  502    0  0.44347294589E+03 -0.24869859590E+03  0.11209910365E+04  0.12309102930E+04  0.50400001928E-02 0. -1.
       -1    1    3    3    0  502 -0.44347294589E+03  0.24869859590E+03 -0.21727866153E+04  0.22314840176E+04  0.50400001928E-02 0.  1.
</event>
<event>
 5   0  0.2291682E-08  0.3299941E+04  0.7818609E-02  0.8162911E-01
        1   -1    0    0  501    0  0.00000000000E+00  0.00000000000E+00  0.16390652351E+04  0.16390652351E+04  0.50400001928E-02 0. -1.
       -1   -1    0    0    0  501  0.00000000000E+00  0.00000000000E+00 -0.16609478217E+04  0.16609478217E+04  0.50400001928E-02 0.  1.
    10030    2    1    2    0    0  0.00000000000E+00  0.00000000000E+00 -0.21882586576E+02  0.33000130569E+04  0.32999405037E+04 0.  0.
        2    1    3    3  502    0 -0.11496000989E+04 -0.14785031025E+01 -0.11945294213E+04  0.16578549730E+04  0.25500000920E-02 0.  1.
       -2    1    3    3    0  502  0.11496000989E+04  0.14785031025E+01  0.11726468347E+04  0.16421580838E+04  0.25500000920E-02 0. -1.
</event>
<event>
 5   0  0.6706080E-08  0.3300867E+04  0.7818609E-02  0.8162675E-01
       -2   -1    0    0    0  501  0.00000000000E+00  0.00000000000E+00  0.14476399112E+04  0.14476399112E+04  0.25500000920E-02 0. -1.
        2   -1    0    0  501    0  0.00000000000E+00  0.00000000000E+00 -0.18816352338E+04  0.18816352338E+04  0.25500000920E-02 0.  1.
    10030    2    1    2    0    0  0.00000000000E+00  0.00000000000E+00 -0.43399532259E+03  0.33292751450E+04  0.33008667121E+04 0.  0.
        4    1    3    3  502    0  0.18213104457E+03  0.16290357337E+04 -0.41100568501E+03  0.16899279349E+04  0.12699999809E+01 0. -1.
       -4    1    3    3    0  502 -0.18213104457E+03 -0.16290357337E+04 -0.22989637574E+02  0.16393472101E+04  0.12699999809E+01 0.  1.
</event>
<event>
 5   0  0.6765252E-08  0.3279540E+04  0.7818609E-02  0.8168121E-01
       -2   -1    0    0    0  501  0.00000000000E+00  0.00000000000E+00  0.11558981243E+04  0.11558981243E+04  0.25500000920E-02 0.  1.
        2   -1    0    0  501    0  0.00000000000E+00  0.00000000000E+00 -0.23261956154E+04  0.23261956154E+04  0.25500000920E-02 0. -1.
    10030    2    1    2    0    0  0.00000000000E+00  0.00000000000E+00 -0.11702974911E+04  0.34820937397E+04  0.32795396924E+04 0.  0.
        2    1    3    3  502    0 -0.10543102842E+04  0.76112235492E+03 -0.16458322548E+04  0.20975321751E+04  0.25500000920E-02 0. -1.
       -2    1    3    3    0  502  0.10543102842E+04 -0.76112235492E+03  0.47553476372E+03  0.13845615646E+04  0.25500000920E-02 0.  1.
</event>
<event>
 5   0  0.6706080E-08  0.3299308E+04  0.7818609E-02  0.8163072E-01
        2   -1    0    0  501    0  0.00000000000E+00  0.00000000000E+00  0.15286233300E+04  0.15286233300E+04  0.25500000920E-02 0.  1.
       -2   -1    0    0    0  501  0.00000000000E+00  0.00000000000E+00 -0.17802670346E+04  0.17802670346E+04  0.25500000920E-02 0. -1.
    10030    2    1    2    0    0  0.00000000000E+00  0.00000000000E+00 -0.25164370454E+03  0.33088903646E+04  0.32993076381E+04 0.  0.
        4    1    3    3  502    0  0.13907910681E+04 -0.86781131201E+03 -0.31063905474E+03  0.16685006753E+04  0.12699999809E+01 0. -1.
       -4    1    3    3    0  502 -0.13907910681E+04  0.86781131201E+03  0.58995350207E+02  0.16403896892E+04  0.12699999809E+01 0.  1.
</event>
<event>
 5   0  0.2291682E-08  0.3299801E+04  0.7818609E-02  0.8162946E-01
       -1   -1    0    0    0  501  0.00000000000E+00  0.00000000000E+00  0.19026389243E+04  0.19026389243E+04  0.50400001928E-02 0. -1.
        1   -1    0    0  501    0  0.00000000000E+00  0.00000000000E+00 -0.14307350081E+04  0.14307350082E+04  0.50400001928E-02 0.  1.
    10030    2    1    2    0    0  0.00000000000E+00  0.00000000000E+00  0.47190391615E+03  0.33333739325E+04  0.32998012770E+04 0.  0.
        2    1    3    3  502    0  0.13057696279E+04  0.85955909750E+03 -0.29695291862E+03  0.15912439156E+04  0.25500000920E-02 0.  1.
       -2    1    3    3    0  502 -0.13057696279E+04 -0.85955909750E+03  0.76885683476E+03  0.17421300168E+04  0.25500000920E-02 0. -1.
</event>
<event>
 5   0  0.6603516E-08  0.3297435E+04  0.7818609E-02  0.8163548E-01
        2   -1    0    0  501    0  0.00000000000E+00  0.00000000000E+00  0.11228224266E+04  0.11228224266E+04  0.25500000920E-02 0.  1.
       -2   -1    0    0    0  501  0.00000000000E+00  0.00000000000E+00 -0.24209249377E+04  0.24209249377E+04  0.25500000920E-02 0. -1.
    10030    2    1    2    0    0  0.00000000000E+00  0.00000000000E+00 -0.12981025111E+04  0.35437473644E+04  0.32974346473E+04 0.  0.
        1    1    3    3  502    0  0.20654281180E+03 -0.13433300920E+04 -0.16520811304E+04  0.21392914085E+04  0.50400001928E-02 0. -1.
       -1    1    3    3    0  502 -0.20654281180E+03  0.13433300920E+04  0.35397861924E+03  0.14044559559E+04  0.50400001928E-02 0.  1.
</event>
<event>
 5   0  0.2309822E-08  0.3300851E+04  0.7818609E-02  0.8162679E-01
       -1   -1    0    0    0  501  0.00000000000E+00  0.00000000000E+00  0.13743603275E+04  0.13743603275E+04  0.50400001928E-02 0. -1.
        1   -1    0    0  501    0  0.00000000000E+00  0.00000000000E+00 -0.19819437168E+04  0.19819437168E+04  0.50400001928E-02 0.  1.
    10030    2    1    2    0    0  0.00000000000E+00  0.00000000000E+00 -0.60758338932E+03  0.33563040443E+04  0.33008512936E+04 0.  0.
        4    1    3    3  502    0  0.26113205127E+03 -0.18716370491E+03  0.13422566364E+04  0.13801719790E+04  0.12699999809E+01 0. -1.
       -4    1    3    3    0  502 -0.26113205127E+03  0.18716370491E+03 -0.19498400257E+04  0.19761320653E+04  0.12699999809E+01 0.  1.
</event>
<event>
 5   0  0.2291682E-08  0.3298428E+04  0.7818609E-02  0.8163295E-01
        1   -1    0    0  501    0  0.00000000000E+00  0.00000000000E+00  0.28304339748E+04  0.28304339748E+04  0.50400001928E-02 0. -1.
       -1   -1    0    0    0  501  0.00000000000E+00  0.00000000000E+00 -0.96095072308E+03  0.96095072309E+03  0.50400001928E-02 0.  1.
    10030    2    1    2    0    0  0.00000000000E+00  0.00000000000E+00  0.18694832517E+04  0.37913846979E+04  0.32984284590E+04 0.  0.
        2    1    3    3  502    0 -0.25128753503E+03  0.16234861269E+04  0.11015307940E+04  0.19779339523E+04  0.25500000920E-02 0.  1.
       -2    1    3    3    0  502  0.25128753503E+03 -0.16234861269E+04  0.76795245770E+03  0.18134507456E+04  0.25500000920E-02 0. -1.
</event>
<event>
 5   0  0.2244093E-08  0.3299160E+04  0.7818609E-02  0.8163109E-01
       -1   -1    0    0    0  501  0.00000000000E+00  0.00000000000E+00  0.19228136447E+04  0.19228136447E+04  0.50400001928E-02 0. -1.
        1   -1    0    0  501    0  0.00000000000E+00  0.00000000000E+00 -0.14151734213E+04  0.14151734213E+04  0.50400001928E-02 0.  1.
    10030    2    1    2    0    0  0.00000000000E+00  0.00000000000E+00  0.50764022342E+03  0.33379870660E+04  0.32991603563E+04 0.  0.
        1    1    3    3  502    0 -0.73746364737E+03  0.14755548378E+04  0.25358630696E+03  0.16689579760E+04  0.50400001928E-02 0. -1.
       -1    1    3    3    0  502  0.73746364737E+03 -0.14755548378E+04  0.25405391646E+03  0.16690290900E+04  0.50400001928E-02 0.  1.
</event>
<event>
 5   0  0.6603516E-08  0.3299542E+04  0.7818609E-02  0.8163012E-01
       -2   -1    0    0    0  501  0.00000000000E+00  0.00000000000E+00  0.18402951858E+04  0.18402951858E+04  0.25500000920E-02 0.  1.
        2   -1    0    0  501    0  0.00000000000E+00  0.00000000000E+00 -0.14789715067E+04  0.14789715067E+04  0.25500000920E-02 0. -1.
    10030    2    1    2    0    0  0.00000000000E+00  0.00000000000E+00  0.36132367910E+03  0.33192666925E+04  0.32995418735E+04 0.  0.
        1    1    3    3  502    0  0.18178732442E+03  0.14352604322E+03  0.18238578624E+04  0.18385058767E+04  0.50400001928E-02 0.  1.
       -1    1    3    3    0  502 -0.18178732442E+03 -0.14352604322E+03 -0.14625341833E+04  0.14807608158E+04  0.50400001928E-02 0. -1.
</event>
<event>
 5   0  0.2279938E-08  0.3298519E+04  0.7818609E-02  0.8163272E-01
        1   -1    0    0  501    0  0.00000000000E+00  0.00000000000E+00  0.19979387074E+04  0.19979387074E+04  0.50400001928E-02 0.  1.
       -1   -1    0    0    0  501  0.00000000000E+00  0.00000000000E+00 -0.13614312079E+04  0.13614312079E+04  0.50400001928E-02 0. -1.
    10030    2    1    2    0    0  0.00000000000E+00  0.00000000000E+00  0.63650749953E+03  0.33593699153E+04  0.32985185207E+04 0.  0.
        3    1    3    3  502    0  0.12196175638E+03  0.10367020399E+04 -0.98218535843E+03  0.14332877862E+04  0.10100000352E+00 0. -1.
       -3    1    3    3    0  502 -0.12196175638E+03 -0.10367020399E+04  0.16186928580E+04  0.19260821291E+04  0.10100000352E+00 0.  1.
</event>
<event>
 5   0  0.2383270E-08  0.3305323E+04  0.7818609E-02  0.8161542E-01
        1   -1    0    0  501    0  0.00000000000E+00  0.00000000000E+00  0.19758566285E+04  0.19758566285E+04  0.50400001928E-02 0.  1.
       -1   -1    0    0    0  501  0.00000000000E+00  0.00000000000E+00 -0.13823323413E+04  0.13823323413E+04  0.50400001928E-02 0. -1.
    10030    2    1    2    0    0  0.00000000000E+00  0.00000000000E+00  0.59352428724E+03  0.33581889698E+04  0.33053232939E+04 0.  0.
        5    1    3    3  502    0  0.70591284803E+03 -0.10840214069E+04  0.13417322384E+04  0.18637818674E+04  0.46999998093E+01 0.  1.
       -5    1    3    3    0  502 -0.70591284803E+03  0.10840214069E+04 -0.74820795120E+03  0.14944071024E+04  0.46999998093E+01 0. -1.
</event>
<event>
 5   0  0.2279938E-08  0.3300465E+04  0.7818609E-02  0.8162777E-01
       -1   -1    0    0    0  501  0.00000000000E+00  0.00000000000E+00  0.22740535658E+04  0.22740535658E+04  0.50400001928E-02 0. -1.
        1   -1    0    0  501    0  0.00000000000E+00  0.00000000000E+00 -0.11975388984E+04  0.11975388984E+04  0.50400001928E-02 0.  1.
    10030    2    1    2    0    0  0.00000000000E+00  0.00000000000E+00  0.10765146674E+04  0.34715924643E+04  0.33004651806E+04 0.  0.
        3    1    3    3  502    0 -0.13175374056E+04 -0.21585411174E+03  0.15584806873E+04  0.20521598075E+04  0.10100000352E+00 0. -1.
       -3    1    3    3    0  502  0.13175374056E+04  0.21585411174E+03 -0.48196601984E+03  0.14194326568E+04  0.10100000352E+00 0.  1.
</event>
<event>
 5   0  0.6765252E-08  0.3300888E+04  0.7818609E-02  0.8162670E-01
        2   -1    0    0  501    0  0.00000000000E+00  0.00000000000E+00  0.23565110924E+04  0.23565110924E+04  0.25500000920E-02 0. -1.
       -2   -1    0    0    0  501  0.00000000000E+00  0.00000000000E+00 -0.11559312806E+04  0.11559312806E+04  0.25500000920E-02 0.  1.
    10030    2    1    2    0    0  0.00000000000E+00  0.00000000000E+00  0.12005798118E+04  0.35124423729E+04  0.33008876895E+04 0.  0.
        2    1    3    3  502    0  0.11766903407E+04  0.78511803642E+03 -0.30447117556E+03  0.14469668917E+04  0.25500000920E-02 0.  1.
       -2    1    3    3    0  502 -0.11766903407E+04 -0.78511803642E+03  0.15050509873E+04  0.20654754812E+04  0.25500000920E-02 0. -1.
</event>
<event>
 5   0  0.6765252E-08  0.3322705E+04  0.7818609E-02  0.8157142E-01
       -2   -1    0    0    0  501  0.00000000000E+00  0.00000000000E+00  0.10016223191E+04  0.10016223191E+04  0.25500000920E-02 0. -1.
        2   -1    0    0  501    0  0.00000000000E+00  0.00000000000E+00 -0.27556210263E+04  0.27556210263E+04  0.25500000920E-02 0.  1.
    10030    2    1    2    0    0  0.00000000000E+00  0.00000000000E+00 -0.17539987072E+04  0.37572433455E+04  0.33227046351E+04 0.  0.
        2    1    3    3  502    0  0.16167511670E+04 -0.50836128659E+02 -0.13055374092E+04  0.20786766403E+04  0.25500000920E-02 0. -1.
       -2    1    3    3    0  502 -0.16167511670E+04  0.50836128659E+02 -0.44846129799E+03  0.16785667052E+04  0.25500000920E-02 0.  1.
</event>
<event>
 5   0  0.6706080E-08  0.3304113E+04  0.7818609E-02  0.8161850E-01
       -2   -1    0    0    0  501  0.00000000000E+00  0.00000000000E+00  0.11182122050E+04  0.11182122050E+04  0.25500000920E-02 0. -1.
        2   -1    0    0  501    0  0.00000000000E+00  0.00000000000E+00 -0.24407622669E+04  0.24407622669E+04  0.25500000920E-02 0.  1.
    10030    2    1    2    0    0  0.00000000000E+00  0.00000000000E+00 -0.13225500619E+04  0.35589744719E+04  0.33041126835E+04 0.  0.
        4    1    3    3  502    0  0.28783864576E+03  0.14333379557E+04  0.16747479986E+03  0.14715156141E+04  0.12699999809E+01 0. -1.
       -4    1    3    3    0  502 -0.28783864576E+03 -0.14333379557E+04 -0.14900248617E+04  0.20874588577E+04  0.12699999809E+01 0.  1.
</event>
<event>
 5   0  0.2200750E-08  0.3300247E+04  0.7818609E-02  0.8162833E-01
       -3   -1    0    0    0  501  0.00000000000E+00  0.00000000000E+00  0.11369508317E+04  0.11369508362E+04  0.10100000352E+00 0.  1.
        3   -1    0    0  501    0  0.00000000000E+00  0.00000000000E+00 -0.23949205465E+04  0.23949205486E+04  0.10100000352E+00 0. -1.
    10030    2    1    2    0    0  0.00000000000E+00  0.00000000000E+00 -0.12579697148E+04  0.35318713848E+04  0.33002466082E+04 0.  0.
        3    1    3    3  502    0 -0.86076423892E+03  0.12405754607E+04 -0.13412519488E+04  0.20196285176E+04  0.10100000352E+00 0. -1.
       -3    1    3    3    0  502  0.86076423892E+03 -0.12405754607E+04  0.83282233974E+02  0.15122428672E+04  0.10100000352E+00 0.  1.
</event>
<event>
 5   0  0.2279938E-08  0.3300279E+04  0.7818609E-02  0.8162824E-01
       -1   -1    0    0    0  501  0.00000000000E+00  0.00000000000E+00  0.18384088169E+04  0.18384088169E+04  0.50400001928E-02 0.  1.
        1   -1    0    0  501    0  0.00000000000E+00  0.00000000000E+00 -0.14811509883E+04  0.14811509883E+04  0.50400001928E-02 0. -1.
    10030    2    1    2    0    0  0.00000000000E+00  0.00000000000E+00  0.35725782867E+03  0.33195598052E+04  0.33002794040E+04 0.  0.
        3    1    3    3  502    0 -0.16419765143E+04 -0.15518646593E+03  0.12548738293E+03  0.16540607021E+04  0.10100000352E+00 0. -1.
       -3    1    3    3    0  502  0.16419765143E+04  0.15518646593E+03  0.23177044574E+03  0.16654991031E+04  0.10100000352E+00 0.  1.
</event>
<event>
 5   0  0.2309822E-08  0.3302017E+04  0.7818609E-02  0.8162382E-01
        1   -1    0    0  501    0  0.00000000000E+00  0.00000000000E+00  0.17008554216E+04  0.17008554217E+04  0.50400001928E-02 0. -1.
       -1   -1    0    0    0  501  0.00000000000E+00  0.00000000000E+00 -0.16026219572E+04  0.16026219573E+04  0.50400001928E-02 0.  1.
    10030    2    1    2    0    0  0.00000000000E+00  0.00000000000E+00  0.98233464405E+02  0.33034773789E+04  0.33020165020E+04 0.  0.
        4    1    3    3  502    0 -0.27531198176E+03  0.18388932619E+03  0.16673040211E+04  0.16998577244E+04  0.12699999809E+01 0. -1.
       -4    1    3    3    0  502  0.27531198176E+03 -0.18388932619E+03 -0.15690705567E+04  0.16036196545E+04  0.12699999809E+01 0.  1.
</event>
<event>
 5   0  0.6821287E-08  0.3301363E+04  0.7818609E-02  0.8162549E-01
        2   -1    0    0  501    0  0.00000000000E+00  0.00000000000E+00  0.21120781560E+04  0.21120781560E+04  0.25500000920E-02 0.  1.
       -2   -1    0    0    0  501  0.00000000000E+00  0.00000000000E+00 -0.12900796708E+04  0.12900796708E+04  0.25500000920E-02 0. -1.
    10030    2    1    2    0    0  0.00000000000E+00  0.00000000000E+00  0.82199848524E+03  0.34021578268E+04  0.33013628048E+04 0.  0.
        5    1    3    3  502    0 -0.78764194871E+03 -0.14036619376E+03  0.18989110986E+04  0.20605746670E+04  0.46999998093E+01 0.  1.
       -5    1    3    3    0  502  0.78764194871E+03  0.14036619376E+03 -0.10769126134E+04  0.13415831598E+04  0.46999998093E+01 0. -1.
</event>
<event>
 5   0  0.2383270E-08  0.3300160E+04  0.7818609E-02  0.8162855E-01
       -1   -1    0    0    0  501  0.00000000000E+00  0.00000000000E+00  0.15797175517E+04  0.15797175518E+04  0.50400001928E-02 0.  1.
        1   -1    0    0  501    0  0.00000000000E+00  0.00000000000E+00 -0.17235766216E+04  0.17235766217E+04  0.50400001928E-02 0. -1.
    10030    2    1    2    0    0  0.00000000000E+00  0.00000000000E+00 -0.14385906990E+03  0.33032941734E+04  0.33001601422E+04 0.  0.
        5    1    3    3  502    0  0.12624618574E+04  0.10279533425E+04  0.19710840873E+03  0.16399304347E+04  0.46999998093E+01 0.  1.
       -5    1    3    3    0  502 -0.12624618574E+04 -0.10279533425E+04 -0.34096747863E+03  0.16633637387E+04  0.46999998093E+01 0. -1.
</event>
<event>
 5   0  0.2291682E-08  0.3300103E+04  0.7818609E-02  0.8162869E-01
        1   -1    0    0  501    0  0.00000000000E+00  0.00000000000E+00  0.19130892410E+04  0.19130892410E+04  0.50400001928E-02 0. -1.
       -1   -1    0    0    0  501  0.00000000000E+00  0.00000000000E+00 -0.14231795117E+04  0.14231795117E+04  0.50400001928E-02 0.  1.
    10030    2    1    2    0    0  0.00000000000E+00  0.00000000000E+00  0.48990972935E+03  0.33362687528E+04  0.33001026723E+04 0.  0.
        2    1    3    3  502    0  0.22712538820E+03  0.43241165922E+03 -0.13484217194E+04  0.14341572154E+04  0.25500000920E-02 0.  1.
       -2    1    3    3    0  502 -0.22712538820E+03 -0.43241165922E+03  0.18383314488E+04  0.19021115374E+04  0.25500000920E-02 0. -1.
</event>
<event>
 5   0  0.7084130E-08  0.3302431E+04  0.7818609E-02  0.8162277E-01
        2   -1    0    0  501    0  0.00000000000E+00  0.00000000000E+00  0.11360058124E+04  0.11360058124E+04  0.25500000920E-02 0.  1.
       -2   -1    0    0    0  501  0.00000000000E+00  0.00000000000E+00 -0.24000870133E+04  0.24000870133E+04  0.25500000920E-02 0. -1.
    10030    2    1    2    0    0  0.00000000000E+00  0.00000000000E+00 -0.12640812009E+04  0.35360928257E+04  0.33024311029E+04 0.  0.
        3    1    3    3  502    0  0.87781647161E+03  0.71432796698E+03  0.65539930609E+03  0.13078128547E+04  0.10100000352E+00 0.  1.
       -3    1    3    3    0  502 -0.87781647161E+03 -0.71432796698E+03 -0.19194805070E+04  0.22282799710E+04  0.10100000352E+00 0. -1.
</event>
<event>
 5   0  0.2279938E-08  0.3300922E+04  0.7818609E-02  0.8162661E-01
        1   -1    0    0  501    0  0.00000000000E+00  0.00000000000E+00  0.13957362731E+04  0.13957362731E+04  0.50400001928E-02 0.  1.
       -1   -1    0    0    0  501  0.00000000000E+00  0.00000000000E+00 -0.19516730092E+04  0.19516730092E+04  0.50400001928E-02 0. -1.
    10030    2    1    2    0    0  0.00000000000E+00  0.00000000000E+00 -0.55593673610E+03  0.33474092823E+04  0.33009215756E+04 0.  0.
        3    1    3    3  502    0 -0.25258662004E+03  0.24809025527E+02  0.13758286545E+04  0.13990425244E+04  0.10100000352E+00 0.  1.
       -3    1    3    3    0  502  0.25258662004E+03 -0.24809025527E+02 -0.19317653906E+04  0.19483667578E+04  0.10100000352E+00 0. -1.
</event>
<event>
 5   0  0.2279938E-08  0.3300088E+04  0.7818609E-02  0.8162873E-01
        1   -1    0    0  501    0  0.00000000000E+00  0.00000000000E+00  0.20231773157E+04  0.20231773157E+04  0.50400001928E-02 0.  1.
       -1   -1    0    0    0  501  0.00000000000E+00  0.00000000000E+00 -0.13457275836E+04  0.13457275836E+04  0.50400001928E-02 0. -1.
    10030    2    1    2    0    0  0.00000000000E+00  0.00000000000E+00  0.67744973213E+03  0.33689048993E+04  0.33000881929E+04 0.  0.
        3    1    3    3  502    0  0.56095865781E+03  0.36566202850E+03  0.18782382518E+04  0.19940316637E+04  0.10100000352E+00 0.  1.
       -3    1    3    3    0  502 -0.56095865781E+03 -0.36566202850E+03 -0.12007885197E+04  0.13748732356E+04  0.10100000352E+00 0. -1.
</event>
<event>
 5   0  0.2279938E-08  0.3291587E+04  0.7818609E-02  0.8165039E-01
       -1   -1    0    0    0  501  0.00000000000E+00  0.00000000000E+00  0.13659974258E+04  0.13659974258E+04  0.50400001928E-02 0.  1.
        1   -1    0    0  501    0  0.00000000000E+00  0.00000000000E+00 -0.19829001018E+04  0.19829001018E+04  0.50400001928E-02 0. -1.
    10030    2    1    2    0    0  0.00000000000E+00  0.00000000000E+00 -0.61690267598E+03  0.33488975276E+04  0.32915871155E+04 0.  0.
        3    1    3    3  502    0  0.12524998756E+04 -0.20999854921E+03 -0.13734729162E+04  0.18706371082E+04  0.10100000352E+00 0. -1.
       -3    1    3    3    0  502 -0.12524998756E+04  0.20999854921E+03  0.75657024023E+03  0.14782604194E+04  0.10100000352E+00 0.  1.
</event>
<event>
 5   0  0.2200750E-08  0.3300127E+04  0.7818609E-02  0.8162863E-01
       -4   -1    0    0    0  501  0.00000000000E+00  0.00000000000E+00  0.16744152942E+04  0.16744157758E+04  0.12699999809E+01 0.  1.
        4   -1    0    0  501    0  0.00000000000E+00  0.00000000000E+00 -0.16260652127E+04  0.16260657086E+04  0.12699999809E+01 0. -1.
    10030    2    1    2    0    0  0.00000000000E+00  0.00000000000E+00  0.48350081504E+02  0.33004814844E+04  0.33001273155E+04 0.  0.
        5    1    3    3  502    0 -0.11173241821E+04 -0.99158332756E+03  0.72499068184E+03  0.16605072726E+04  0.46999998093E+01 0.  1.
       -5    1    3    3    0  502  0.11173241821E+04  0.99158332756E+03 -0.67664060034E+03  0.16399742118E+04  0.46999998093E+01 0. -1.
</event>
<event>
 5   0  0.2309822E-08  0.3301232E+04  0.7818609E-02  0.8162582E-01
       -1   -1    0    0    0  501  0.00000000000E+00  0.00000000000E+00  0.13913363704E+04  0.13913363704E+04  0.50400001928E-02 0.  1.
        1   -1    0    0  501    0  0.00000000000E+00  0.00000000000E+00 -0.19582127123E+04  0.19582127123E+04  0.50400001928E-02 0. -1.
    10030    2    1    2    0    0  0.00000000000E+00  0.00000000000E+00 -0.56687634195E+03  0.33495490827E+04  0.33012316293E+04 0.  0.
        4    1    3    3  502    0  0.14798785203E+04  0.11696194310E+03 -0.10156726630E+04  0.17986976128E+04  0.12699999809E+01 0. -1.
       -4    1    3    3    0  502 -0.14798785203E+04 -0.11696194310E+03  0.44879632102E+03  0.15508514699E+04  0.12699999809E+01 0.  1.
</event>
<event>
 5   0  0.2309822E-08  0.3299529E+04  0.7818609E-02  0.8163015E-01
        1   -1    0    0  501    0  0.00000000000E+00  0.00000000000E+00  0.24882412412E+04  0.24882412412E+04  0.50400001928E-02 0. -1.
       -1   -1    0    0    0  501  0.00000000000E+00  0.00000000000E+00 -0.10938337158E+04  0.10938337158E+04  0.50400001928E-02 0.  1.
    10030    2    1    2    0    0  0.00000000000E+00  0.00000000000E+00  0.13944075254E+04  0.35820749570E+04  0.32995285498E+04 0.  0.
        4    1    3    3  502    0 -0.10086609535E+04 -0.61121693760E+03  0.19495631468E+04  0.22785480333E+04  0.12699999809E+01 0. -1.
       -4    1    3    3    0  502  0.10086609535E+04  0.61121693760E+03 -0.55515562137E+03  0.13035269237E+04  0.12699999809E+01 0.  1.
</event>
<event>
 5   0  0.7084130E-08  0.3299218E+04  0.7818609E-02  0.8163094E-01
       -2   -1    0    0    0  501  0.00000000000E+00  0.00000000000E+00  0.10653217978E+04  0.10653217978E+04  0.25500000920E-02 0. -1.
        2   -1    0    0  501    0  0.00000000000E+00  0.00000000000E+00 -0.25543553451E+04  0.25543553451E+04  0.25500000920E-02 0.  1.
    10030    2    1    2    0    0  0.00000000000E+00  0.00000000000E+00 -0.14890335473E+04  0.36196771429E+04  0.32992183489E+04 0.  0.
        3    1    3    3  502    0  0.15714159128E+04 -0.42976672326E+03 -0.10288475395E+04  0.19268042654E+04  0.10100000352E+00 0. -1.
       -3    1    3    3    0  502 -0.15714159128E+04  0.42976672326E+03 -0.46018600780E+03  0.16928728775E+04  0.10100000352E+00 0.  1.
</event>
<event>
 5   0  0.6706080E-08  0.3299426E+04  0.7818609E-02  0.8163041E-01
        2   -1    0    0  501    0  0.00000000000E+00  0.00000000000E+00  0.20959191582E+04  0.20959191582E+04  0.25500000920E-02 0.  1.
       -2   -1    0    0    0  501  0.00000000000E+00  0.00000000000E+00 -0.12985012464E+04  0.12985012464E+04  0.25500000920E-02 0. -1.
    10030    2    1    2    0    0  0.00000000000E+00  0.00000000000E+00  0.79741791174E+03  0.33944204046E+04  0.32994263982E+04 0.  0.
        4    1    3    3  502    0 -0.49630837012E+03 -0.78478140904E+03 -0.10041291191E+04  0.13676552047E+04  0.12699999809E+01 0. -1.
       -4    1    3    3    0  502  0.49630837012E+03  0.78478140904E+03  0.18015470308E+04  0.20267651999E+04  0.12699999809E+01 0.  1.
</event>
<event>
 5   0  0.6706080E-08  0.3299885E+04  0.7818609E-02  0.8162925E-01
        2   -1    0    0  501    0  0.00000000000E+00  0.00000000000E+00  0.20168335942E+04  0.20168335942E+04  0.25500000920E-02 0. -1.
       -2   -1    0    0    0  501  0.00000000000E+00  0.00000000000E+00 -0.13497937779E+04  0.13497937779E+04  0.25500000920E-02 0.  1.
    10030    2    1    2    0    0  0.00000000000E+00  0.00000000000E+00  0.66703981633E+03  0.33666273721E+04  0.32998845050E+04 0.  0.
        4    1    3    3  502    0 -0.90817863036E+03 -0.36626496305E+03  0.16882973518E+04  0.19517397390E+04  0.12699999809E+01 0.  1.
       -4    1    3    3    0  502  0.90817863036E+03  0.36626496305E+03 -0.10212575355E+04  0.14148876331E+04  0.12699999809E+01 0. -1.
</event>
<event>
 5   0  0.2383270E-08  0.3297638E+04  0.7818609E-02  0.8163497E-01
       -1   -1    0    0    0  501  0.00000000000E+00  0.00000000000E+00  0.16886780246E+04  0.16886780246E+04  0.50400001928E-02 0.  1.
        1   -1    0    0  501    0  0.00000000000E+00  0.00000000000E+00 -0.16099006452E+04  0.16099006452E+04  0.50400001928E-02 0. -1.
    10030    2    1    2    0    0  0.00000000000E+00  0.00000000000E+00  0.78777379453E+02  0.32985786698E+04  0.32976378463E+04 0.  0.
        5    1    3    3  502    0 -0.15426349278E+04  0.53547753957E+03  0.26775852477E+03  0.16547433134E+04  0.46999998093E+01 0.  1.
       -5    1    3    3    0  502  0.15426349278E+04 -0.53547753957E+03 -0.18898114532E+03  0.16438353564E+04  0.46999998093E+01 0. -1.
</event>
<event>
 5   0  0.2279938E-08  0.3299213E+04  0.7818609E-02  0.8163096E-01
       -1   -1    0    0    0  501  0.00000000000E+00  0.00000000000E+00  0.23305650394E+04  0.23305650394E+04  0.50400001928E-02 0. -1.
        1   -1    0    0  501    0  0.00000000000E+00  0.00000000000E+00 -0.11676144822E+04  0.11676144822E+04  0.50400001928E-02 0.  1.
    10030    2    1    2    0    0  0.00000000000E+00  0.00000000000E+00  0.11629505572E+04  0.34981795216E+04  0.32992129314E+04 0.  0.
        3    1    3    3  502    0  0.84965649048E+02  0.14681849743E+04  0.13738130567E+04  0.20124981007E+04  0.10100000352E+00 0. -1.
       -3    1    3    3    0  502 -0.84965649048E+02 -0.14681849743E+04 -0.21086249952E+03  0.14856814209E+04  0.10100000352E+00 0.  1.
</event>
<event>
 5   0  0.6706080E-08  0.3299784E+04  0.7818609E-02  0.8162950E-01
       -2   -1    0    0    0  501  0.00000000000E+00  0.00000000000E+00  0.10867939852E+04  0.10867939852E+04  0.25500000920E-02 0. -1.
        2   -1    0    0  501    0  0.00000000000E+00  0.00000000000E+00 -0.25047470563E+04  0.25047470563E+04  0.25500000920E-02 0.  1.
    10030    2    1    2    0    0  0.00000000000E+00  0.00000000000E+00 -0.14179530711E+04  0.35915410416E+04  0.32997842568E+04 0.  0.
        4    1    3    3  502    0 -0.11695289120E+04 -0.11624241826E+04 -0.76971923197E+03  0.18197519516E+04  0.12699999809E+01 0. -1.
       -4    1    3    3    0  502  0.11695289120E+04  0.11624241826E+04 -0.64823383917E+03  0.17717890900E+04  0.12699999809E+01 0.  1.
</event>
<event>
 5   0  0.6821287E-08  0.3297448E+04  0.7818609E-02  0.8163545E-01
       -2   -1    0    0    0  501  0.00000000000E+00  0.00000000000E+00  0.11333899640E+04  0.11333899640E+04  0.25500000920E-02 0.  1.
        2   -1    0    0  501    0  0.00000000000E+00  0.00000000000E+00 -0.23983723335E+04  0.23983723335E+04  0.25500000920E-02 0. -1.
    10030    2    1    2    0    0  0.00000000000E+00  0.00000000000E+00 -0.12649823695E+04  0.35317622976E+04  0.32974481848E+04 0.  0.
        5    1    3    3  502    0 -0.17254501749E+03 -0.13114996555E+04 -0.16865276988E+04  0.21434087100E+04  0.46999998093E+01 0. -1.
       -5    1    3    3    0  502  0.17254501749E+03  0.13114996555E+04  0.42154532926E+03  0.13883535875E+04  0.46999998093E+01 0.  1.
</event>
<event>
 5   0  0.2383270E-08  0.3299947E+04  0.7818609E-02  0.8162909E-01
       -1   -1    0    0    0  501  0.00000000000E+00  0.00000000000E+00  0.16062959952E+04  0.16062959952E+04  0.50400001928E-02 0. -1.
        1   -1    0    0  501    0  0.00000000000E+00  0.00000000000E+00 -0.16948386328E+04  0.16948386328E+04  0.50400001928E-02 0.  1.
    10030    2    1    2    0    0  0.00000000000E+00  0.00000000000E+00 -0.88542637594E+02  0.33011346280E+04  0.32999469743E+04 0.  0.
        5    1    3    3  502    0 -0.30544114473E+03 -0.96877445178E+03  0.12564166848E+04  0.16156804162E+04  0.46999998093E+01 0. -1.
       -5    1    3    3    0  502  0.30544114473E+03  0.96877445178E+03 -0.13449593224E+04  0.16854542118E+04  0.46999998093E+01 0.  1.
</event>
<event>
 5   0  0.2279938E-08  0.3300724E+04  0.7818609E-02  0.8162711E-01
        1   -1    0    0  501    0  0.00000000000E+00  0.00000000000E+00  0.23700961947E+04  0.23700961948E+04  0.50400001928E-02 0. -1.
       -1   -1    0    0    0  501  0.00000000000E+00  0.00000000000E+00 -0.11491914437E+04  0.11491914437E+04  0.50400001928E-02 0.  1.
    10030    2    1    2    0    0  0.00000000000E+00  0.00000000000E+00  0.12209047511E+04  0.35192876384E+04  0.33007237193E+04 0.  0.
        3    1    3    3  502    0 -0.11953731360E+04  0.10372148044E+04  0.11093721670E+04  0.19327281494E+04  0.10100000352E+00 0. -1.
       -3    1    3    3    0  502  0.11953731360E+04 -0.10372148044E+04  0.11153258410E+03  0.15865594890E+04  0.10100000352E+00 0.  1.
</event>
<event>
 5   0  0.6765252E-08  0.3299187E+04  0.7818609E-02  0.8163102E-01
       -2   -1    0    0    0  501  0.00000000000E+00  0.00000000000E+00  0.16868091170E+04  0.16868091170E+04  0.25500000920E-02 0.  1.
        2   -1    0    0  501    0  0.00000000000E+00  0.00000000000E+00 -0.16131991620E+04  0.16131991620E+04  0.25500000920E-02 0. -1.
    10030    2    1    2    0    0  0.00000000000E+00  0.00000000000E+00  0.73609955005E+02  0.33000082790E+04  0.32991872053E+04 0.  0.
        2    1    3    3  502    0  0.49956288096E+03 -0.11394742259E+04 -0.10466056059E+04  0.16258375927E+04  0.25500000920E-02 0. -1.
       -2    1    3    3    0  502 -0.49956288096E+03  0.11394742259E+04  0.11202155609E+04  0.16741706862E+04  0.25500000920E-02 0.  1.
</event>
<event>
 5   0  0.6821287E-08  0.3299900E+04  0.7818609E-02  0.8162921E-01
        2   -1    0    0  501    0  0.00000000000E+00  0.00000000000E+00  0.12165710750E+04  0.12165710750E+04  0.25500000920E-02 0.  1.
       -2   -1    0    0    0  501  0.00000000000E+00  0.00000000000E+00 -0.22377112615E+04  0.22377112615E+04  0.25500000920E-02 0. -1.
    10030    2    1    2    0    0  0.00000000000E+00  0.00000000000E+00 -0.10211401865E+04  0.34542823366E+04  0.32998998743E+04 0.  0.
        5    1    3    3  502    0  0.13137718999E+04 -0.76189878275E+03  0.16444435631E+03  0.15275962806E+04  0.46999998093E+01 0.  1.
       -5    1    3    3    0  502 -0.13137718999E+04  0.76189878275E+03 -0.11855845428E+04  0.19266860560E+04  0.46999998093E+01 0. -1.
</event>
<event>
 5   0  0.6603516E-08  0.3300160E+04  0.7818609E-02  0.8162855E-01
       -2   -1    0    0    0  501  0.00000000000E+00  0.00000000000E+00  0.22630601930E+04  0.22630601930E+04  0.25500000920E-02 0.  1.
        2   -1    0    0  501    0  0.00000000000E+00  0.00000000000E+00 -0.12031340696E+04  0.12031340696E+04  0.25500000920E-02 0. -1.
    10030    2    1    2    0    0  0.00000000000E+00  0.00000000000E+00  0.10599261234E+04  0.34661942627E+04  0.33001604930E+04 0.  0.
        1    1    3    3  502    0  0.12928905176E+03 -0.16103881760E+04  0.17736653488E+03  0.16252767839E+04  0.50400001928E-02 0. -1.
       -1    1    3    3    0  502 -0.12928905176E+03  0.16103881760E+04  0.88255958853E+03  0.18409174788E+04  0.50400001928E-02 0.  1.
</event>
<event>
 5   0  0.6706080E-08  0.3299717E+04  0.7818609E-02  0.8162967E-01
       -2   -1    0    0    0  501  0.00000000000E+00  0.00000000000E+00  0.22039204430E+04  0.22039204430E+04  0.25500000920E-02 0.  1.
        2   -1    0    0  501    0  0.00000000000E+00  0.00000000000E+00 -0.12350868243E+04  0.12350868243E+04  0.25500000920E-02 0. -1.
    10030    2    1    2    0    0  0.00000000000E+00  0.00000000000E+00  0.96883361867E+03  0.34390072674E+04  0.32997170188E+04 0.  0.
        4    1    3    3  502    0  0.69492456513E+03  0.30223321481E+03 -0.10429731134E+04  0.12892089030E+04  0.12699999809E+01 0. -1.
       -4    1    3    3    0  502 -0.69492456513E+03 -0.30223321481E+03  0.20118067321E+04  0.21497983644E+04  0.12699999809E+01 0.  1.
</event>
<event>
 5   0  0.6821287E-08  0.3300941E+04  0.7818609E-02  0.8162656E-01
        2   -1    0    0  501    0  0.00000000000E+00  0.00000000000E+00  0.27478270932E+04  0.27478270932E+04  0.25500000920E-02 0.  1.
       -2   -1    0    0    0  501  0.00000000000E+00  0.00000000000E+00 -0.99134820805E+03  0.99134820806E+03  0.25500000920E-02 0. -1.
    10030    2    1    2    0    0  0.00000000000E+00  0.00000000000E+00  0.17564788852E+04  0.37391753013E+04  0.33009413596E+04 0.  0.
        5    1    3    3  502    0  0.67697424176E+03 -0.17392556699E+03 -0.81541227081E+03  0.10739941752E+04  0.46999998093E+01 0. -1.
       -5    1    3    3    0  502 -0.67697424176E+03  0.17392556699E+03  0.25718911560E+04  0.26651811261E+04  0.46999998093E+01 0.  1.
</event>
<event>
 5   0  0.7084130E-08  0.3299902E+04  0.7818609E-02  0.8162920E-01
       -2   -1    0    0    0  501  0.00000000000E+00  0.00000000000E+00  0.12314617482E+04  0.12314617482E+04  0.25500000920E-02 0.  1.
        2   -1    0    0  501    0  0.00000000000E+00  0.00000000000E+00 -0.22106558259E+04  0.22106558259E+04  0.25500000920E-02 0. -1.
    10030    2    1    2    0    0  0.00000000000E+00  0.00000000000E+00 -0.97919407771E+03  0.34421175742E+04  0.32999018702E+04 0.  0.
        3    1    3    3  502    0 -0.93365282755E+03  0.13274962566E+04 -0.79970427852E+03  0.18092763352E+04  0.10100000352E+00 0. -1.
       -3    1    3    3    0  502  0.93365282755E+03 -0.13274962566E+04 -0.17948979919E+03  0.16328412390E+04  0.10100000352E+00 0.  1.
</event>
<event>
 5   0  0.2309822E-08  0.3280610E+04  0.7818609E-02  0.8167847E-01
       -1   -1    0    0    0  501  0.00000000000E+00  0.00000000000E+00  0.11051332692E+04  0.11051332692E+04  0.50400001928E-02 0. -1.
        1   -1    0    0  501    0  0.00000000000E+00  0.00000000000E+00 -0.24346388810E+04  0.24346388810E+04  0.50400001928E-02 0.  1.
    10030    2    1    2    0    0  0.00000000000E+00  0.00000000000E+00 -0.13295056118E+04  0.35397721501E+04  0.32806099590E+04 0.  0.
        4    1    3    3  502    0 -0.13956283427E+04  0.84368950141E+03 -0.47474993735E+03  0.16985227587E+04  0.12699999809E+01 0. -1.
       -4    1    3    3    0  502  0.13956283427E+04 -0.84368950141E+03 -0.85475567445E+03  0.18412493915E+04  0.12699999809E+01 0.  1.
</event>
<event>
 5   0  0.6821287E-08  0.3301015E+04  0.7818609E-02  0.8162637E-01
       -2   -1    0    0    0  501  0.00000000000E+00  0.00000000000E+00  0.13535997780E+04  0.13535997780E+04  0.25500000920E-02 0.  1.
        2   -1    0    0  501    0  0.00000000000E+00  0.00000000000E+00 -0.20125405491E+04  0.20125405491E+04  0.25500000920E-02 0. -1.
    10030    2    1    2    0    0  0.00000000000E+00  0.00000000000E+00 -0.65894077115E+03  0.33661403271E+04  0.33010146564E+04 0.  0.
        5    1    3    3  502    0 -0.52645954322E+03 -0.27356443652E+03 -0.19000368284E+04  0.19905173174E+04  0.46999998093E+01 0. -1.
       -5    1    3    3    0  502  0.52645954322E+03  0.27356443652E+03  0.12410960573E+04  0.13756230097E+04  0.46999998093E+01 0.  1.
</event>
<event>
 5   0  0.2383270E-08  0.3299319E+04  0.7818609E-02  0.8163069E-01
       -1   -1    0    0    0  501  0.00000000000E+00  0.00000000000E+00  0.13437495987E+04  0.13437495987E+04  0.50400001928E-02 0.  1.
        1   -1    0    0  501    0  0.00000000000E+00  0.00000000000E+00 -0.20252106922E+04  0.20252106922E+04  0.50400001928E-02 0. -1.
    10030    2    1    2    0    0  0.00000000000E+00  0.00000000000E+00 -0.68146109356E+03  0.33689602909E+04  0.32993187509E+04 0.  0.
        5    1    3    3  502    0 -0.16408942005E+04 -0.15376908631E+03 -0.41418828200E+03  0.16993389103E+04  0.46999998093E+01 0.  1.
       -5    1    3    3    0  502  0.16408942005E+04  0.15376908631E+03 -0.26727281157E+03  0.16696213807E+04  0.46999998093E+01 0. -1.
</event>
<event>
 5   0  0.2383270E-08  0.3298849E+04  0.7818609E-02  0.8163188E-01
       -1   -1    0    0    0  501  0.00000000000E+00  0.00000000000E+00  0.13948499637E+04  0.13948499637E+04  0.50400001928E-02 0.  1.
        1   -1    0    0  501    0  0.00000000000E+00  0.00000000000E+00 -0.19504620142E+04  0.19504620142E+04  0.50400001928E-02 0. -1.
    10030    2    1    2    0    0  0.00000000000E+00  0.00000000000E+00 -0.55561205048E+03  0.33453119779E+04  0.32988494174E+04 0.  0.
        5    1    3    3  502    0  0.14842478367E+04  0.46974198404E+03  0.27478218781E+03  0.15808783992E+04  0.46999998093E+01 0.  1.
       -5    1    3    3    0  502 -0.14842478367E+04 -0.46974198404E+03 -0.83039423829E+03  0.17644335786E+04  0.46999998093E+01 0. -1.
</event>
<event>
 5   0  0.2383270E-08  0.3293882E+04  0.7818609E-02  0.8164454E-01
        1   -1    0    0  501    0  0.00000000000E+00  0.00000000000E+00  0.12793471259E+04  0.12793471259E+04  0.50400001928E-02 0. -1.
       -1   -1    0    0    0  501  0.00000000000E+00  0.00000000000E+00 -0.21201558454E+04  0.21201558454E+04  0.50400001928E-02 0.  1.
    10030    2    1    2    0    0  0.00000000000E+00  0.00000000000E+00 -0.84080871952E+03  0.33995029713E+04  0.32938823824E+04 0.  0.
        5    1    3    3  502    0 -0.12759572497E+04  0.87956323520E+03  0.15486909776E+03  0.15574674685E+04  0.46999998093E+01 0. -1.
       -5    1    3    3    0  502  0.12759572497E+04 -0.87956323520E+03 -0.99567781728E+03  0.18420355028E+04  0.46999998093E+01 0.  1.
</event>
<event>
 5   0  0.2244093E-08  0.3303165E+04  0.7818609E-02  0.8162090E-01
        1   -1    0    0  501    0  0.00000000000E+00  0.00000000000E+00  0.20411135370E+04  0.20411135370E+04  0.50400001928E-02 0. -1.
       -1   -1    0    0    0  501  0.00000000000E+00  0.00000000000E+00 -0.13363907738E+04  0.13363907738E+04  0.50400001928E-02 0.  1.
    10030    2    1    2    0    0  0.00000000000E+00  0.00000000000E+00  0.70472276313E+03  0.33775043108E+04  0.33031653299E+04 0.  0.
        1    1    3    3  502    0 -0.12012046286E+04  0.86061793299E+03 -0.40191881194E+03  0.15313701440E+04  0.50400001928E-02 0.  1.
       -1    1    3    3    0  502  0.12012046286E+04 -0.86061793299E+03  0.11066415751E+04  0.18461341669E+04  0.50400001928E-02 0. -1.
</event>
<event>
 5   0  0.7084130E-08  0.3293768E+04  0.7818609E-02  0.8164483E-01
        2   -1    0    0  501    0  0.00000000000E+00  0.00000000000E+00  0.22723036450E+04  0.22723036450E+04  0.25500000920E-02 0. -1.
       -2   -1    0    0    0  501  0.00000000000E+00  0.00000000000E+00 -0.11936024233E+04  0.11936024233E+04  0.25500000920E-02 0.  1.
    10030    2    1    2    0    0  0.00000000000E+00  0.00000000000E+00  0.10787012217E+04  0.34659060684E+04  0.32937681383E+04 0.  0.
        3    1    3    3  502    0 -0.88321650828E+03  0.13449620096E+04  0.16995891104E+03  0.16179864800E+04  0.10100000352E+00 0. -1.
       -3    1    3    3    0  502  0.88321650828E+03 -0.13449620096E+04  0.90874231064E+03  0.18479195884E+04  0.10100000352E+00 0.  1.
</event>
<event>
 5   0  0.6821287E-08  0.3301461E+04  0.7818609E-02  0.8162524E-01
       -2   -1    0    0    0  501  0.00000000000E+00  0.00000000000E+00  0.11038647239E+04  0.11038647239E+04  0.25500000920E-02 0.  1.
        2   -1    0    0  501    0  0.00000000000E+00  0.00000000000E+00 -0.24685191786E+04  0.24685191786E+04  0.25500000920E-02 0. -1.
    10030    2    1    2    0    0  0.00000000000E+00  0.00000000000E+00 -0.13646544547E+04  0.35723839025E+04  0.33014610350E+04 0.  0.
        5    1    3    3  502    0 -0.50637311488E+02  0.70989655759E+01  0.11030003556E+04  0.11041949135E+04  0.46999998093E+01 0.  1.
       -5    1    3    3    0  502  0.50637311488E+02 -0.70989655759E+01 -0.24676548102E+04  0.24681889889E+04  0.46999998093E+01 0. -1.
</event>
<event>
 5   0  0.2309822E-08  0.3300360E+04  0.7818609E-02  0.8162804E-01
       -1   -1    0    0    0  501  0.00000000000E+00  0.00000000000E+00  0.14326784862E+04  0.14326784862E+04  0.50400001928E-02 0.  1.
        1   -1    0    0  501    0  0.00000000000E+00  0.00000000000E+00 -0.19007012832E+04  0.19007012832E+04  0.50400001928E-02 0. -1.
    10030    2    1    2    0    0  0.00000000000E+00  0.00000000000E+00 -0.46802279694E+03  0.33333797694E+04  0.33003598817E+04 0.  0.
        4    1    3    3  502    0  0.35990020706E+03 -0.14699671364E+04  0.43041578882E+03  0.15734010631E+04  0.12699999809E+01 0. -1.
       -4    1    3    3    0  502 -0.35990020706E+03  0.14699671364E+04 -0.89843858576E+03  0.17599787063E+04  0.12699999809E+01 0.  1.
</event>
<event>
 5   0  0.6765252E-08  0.3301280E+04  0.7818609E-02  0.8162570E-01
        2   -1    0    0  501    0  0.00000000000E+00  0.00000000000E+00  0.12939613010E+04  0.12939613010E+04  0.25500000920E-02 0.  1.
       -2   -1    0    0    0  501  0.00000000000E+00  0.00000000000E+00 -0.21056370963E+04  0.21056370963E+04  0.25500000920E-02 0. -1.
    10030    2    1    2    0    0  0.00000000000E+00  0.00000000000E+00 -0.81167579531E+03  0.33995983973E+04  0.33012803072E+04 0.  0.
        2    1    3    3  502    0  0.14028297449E+04  0.85525893609E+03 -0.56935536699E+03  0.17388400372E+04  0.25500000920E-02 0. -1.
       -2    1    3    3    0  502 -0.14028297449E+04 -0.85525893609E+03 -0.24232042832E+03  0.16607583602E+04  0.25500000920E-02 0.  1.
</event>
<event>
 5   0  0.6765252E-08  0.3301548E+04  0.7818609E-02  0.8162502E-01
       -2   -1    0    0    0  501  0.00000000000E+00  0.00000000000E+00  0.19623986695E+04  0.19623986695E+04  0.25500000920E-02 0.  1.
        2   -1    0    0  501    0  0.00000000000E+00  0.00000000000E+00 -0.13886343389E+04  0.13886343389E+04  0.25500000920E-02 0. -1.
    10030    2    1    2    0    0  0.00000000000E+00  0.00000000000E+00  0.57376433058E+03  0.33510330084E+04  0.33015476245E+04 0.  0.
        2    1    3    3  502    0 -0.78563321192E+03 -0.12931749231E+04  0.95672327758E+03  0.17902067912E+04  0.25500000920E-02 0. -1.
       -2    1    3    3    0  502  0.78563321192E+03  0.12931749231E+04 -0.38295894700E+03  0.15608262172E+04  0.25500000920E-02 0.  1.
</event>
<event>
 5   0  0.2244093E-08  0.3302601E+04  0.7818609E-02  0.8162234E-01
        1   -1    0    0  501    0  0.00000000000E+00  0.00000000000E+00  0.30441571302E+04  0.30441571302E+04  0.50400001928E-02 0.  1.
       -1   -1    0    0    0  501  0.00000000000E+00  0.00000000000E+00 -0.89574644905E+03  0.89574644906E+03  0.50400001928E-02 0. -1.
    10030    2    1    2    0    0  0.00000000000E+00  0.00000000000E+00  0.21484106811E+04  0.39399035792E+04  0.33026007568E+04 0.  0.
        1    1    3    3  502    0 -0.47619515152E+03  0.57779127385E+03 -0.68160509731E+03  0.10125167096E+04  0.50400001928E-02 0. -1.
       -1    1    3    3    0  502  0.47619515152E+03 -0.57779127385E+03  0.28300157784E+04  0.29273868697E+04  0.50400001928E-02 0.  1.
</event>
<event>
 5   0  0.6821287E-08  0.3299175E+04  0.7818609E-02  0.8163105E-01
        2   -1    0    0  501    0  0.00000000000E+00  0.00000000000E+00  0.14493111051E+04  0.14493111051E+04  0.25500000920E-02 0. -1.
       -2   -1    0    0    0  501  0.00000000000E+00  0.00000000000E+00 -0.18775399191E+04  0.18775399191E+04  0.25500000920E-02 0.  1.
    10030    2    1    2    0    0  0.00000000000E+00  0.00000000000E+00 -0.42822881401E+03  0.33268510242E+04  0.32991753242E+04 0.  0.
        5    1    3    3  502    0  0.11156989194E+04 -0.41058984657E+03 -0.13672760825E+04  0.18118592872E+04  0.46999998093E+01 0.  1.
       -5    1    3    3    0  502 -0.11156989194E+04  0.41058984657E+03  0.93904726845E+03  0.15149917370E+04  0.46999998093E+01 0. -1.
</event>
<event>
 5   0  0.2279938E-08  0.3299186E+04  0.7818609E-02  0.8163103E-01
       -1   -1    0    0    0  501  0.00000000000E+00  0.00000000000E+00  0.17447769249E+04  0.17447769249E+04  0.50400001928E-02 0.  1.
        1   -1    0    0  501    0  0.00000000000E+00  0.00000000000E+00 -0.15596014764E+04  0.15596014764E+04  0.50400001928E-02 0. -1.
    10030    2    1    2    0    0  0.00000000000E+00  0.00000000000E+00  0.18517544847E+03  0.33043784013E+04  0.32991857590E+04 0.  0.
        3    1    3    3  502    0 -0.14035045755E+04  0.13677707397E+03 -0.76469378610E+03  0.16041476422E+04  0.10100000352E+00 0. -1.
       -3    1    3    3    0  502  0.14035045755E+04 -0.13677707397E+03  0.94986923457E+03  0.17002307591E+04  0.10100000352E+00 0.  1.
</event>
<event>
 5   0  0.6706080E-08  0.3298476E+04  0.7818609E-02  0.8163283E-01
       -2   -1    0    0    0  501  0.00000000000E+00  0.00000000000E+00  0.11193454923E+04  0.11193454923E+04  0.25500000920E-02 0. -1.
        2   -1    0    0  501    0  0.00000000000E+00  0.00000000000E+00 -0.24299794107E+04  0.24299794107E+04  0.25500000920E-02 0.  1.
    10030    2    1    2    0    0  0.00000000000E+00  0.00000000000E+00 -0.13106339185E+04  0.35493249030E+04  0.32984763147E+04 0.  0.
        4    1    3    3  502    0  0.54133853100E+03  0.23929557183E+03 -0.23117610803E+04  0.23863257701E+04  0.12699999809E+01 0.  1.
       -4    1    3    3    0  502 -0.54133853100E+03 -0.23929557183E+03  0.10011271619E+04  0.11629991328E+04  0.12699999809E+01 0. -1.
</event>
<event>
 5   0  0.6821287E-08  0.3303148E+04  0.7818609E-02  0.8162095E-01
       -2   -1    0    0    0  501  0.00000000000E+00  0.00000000000E+00  0.19960350833E+04  0.19960350833E+04  0.25500000920E-02 0.  1.
        2   -1    0    0  501    0  0.00000000000E+00  0.00000000000E+00 -0.13665570876E+04  0.13665570876E+04  0.25500000920E-02 0. -1.
    10030    2    1    2    0    0  0.00000000000E+00  0.00000000000E+00  0.62947799568E+03  0.33625921709E+04  0.33031475234E+04 0.  0.
        5    1    3    3  502    0  0.44566630492E+03 -0.76056514622E+03  0.17365107852E+04  0.19474520775E+04  0.46999998093E+01 0.  1.
       -5    1    3    3    0  502 -0.44566630492E+03  0.76056514622E+03 -0.11070327895E+04  0.14151400935E+04  0.46999998093E+01 0. -1.
</event>
<event>
 5   0  0.2244093E-08  0.3299481E+04  0.7818609E-02  0.8163028E-01
       -1   -1    0    0    0  501  0.00000000000E+00  0.00000000000E+00  0.11836021222E+04  0.11836021222E+04  0.50400001928E-02 0.  1.
        1   -1    0    0  501    0  0.00000000000E+00  0.00000000000E+00 -0.22994579800E+04  0.22994579800E+04  0.50400001928E-02 0. -1.
    10030    2    1    2    0    0  0.00000000000E+00  0.00000000000E+00 -0.11158558578E+04  0.34830601022E+04  0.32994807743E+04 0.  0.
        1    1    3    3  502    0  0.16344445085E+04 -0.55755663278E+02 -0.32876480550E+03  0.16681138578E+04  0.50400001928E-02 0. -1.
       -1    1    3    3    0  502 -0.16344445085E+04  0.55755663278E+02 -0.78709105230E+03  0.18149462444E+04  0.50400001928E-02 0.  1.
</event>
<event>
 5   0  0.2244093E-08  0.3299874E+04  0.7818609E-02  0.8162928E-01
        1   -1    0    0  501    0  0.00000000000E+00  0.00000000000E+00  0.23514629610E+04  0.23514629610E+04  0.50400001928E-02 0. -1.
       -1   -1    0    0    0  501  0.00000000000E+00  0.00000000000E+00 -0.11577011455E+04  0.11577011455E+04  0.50400001928E-02 0.  1.
    10030    2    1    2    0    0  0.00000000000E+00  0.00000000000E+00  0.11937618155E+04  0.35091641065E+04  0.32998735512E+04 0.  0.
        1    1    3    3  502    0 -0.80164382306E+02  0.33858213980E+03  0.23120048953E+04  0.23380399547E+04  0.50400001928E-02 0. -1.
       -1    1    3    3    0  502  0.80164382306E+02 -0.33858213980E+03 -0.11182430798E+04  0.11711241519E+04  0.50400001928E-02 0.  1.
</event>
<event>
 5   0  0.2279938E-08  0.3301037E+04  0.7818609E-02  0.8162632E-01
       -1   -1    0    0    0  501  0.00000000000E+00  0.00000000000E+00  0.11622528925E+04  0.11622528926E+04  0.50400001928E-02 0.  1.
        1   -1    0    0  501    0  0.00000000000E+00  0.00000000000E+00 -0.23439062023E+04  0.23439062023E+04  0.50400001928E-02 0. -1.
    10030    2    1    2    0    0  0.00000000000E+00  0.00000000000E+00 -0.11816533098E+04  0.35061590949E+04  0.33010372694E+04 0.  0.
        3    1    3    3  502    0 -0.46785971332E+03 -0.59030463928E+01 -0.22719891408E+04  0.23196685589E+04  0.10100000352E+00 0. -1.
       -3    1    3    3    0  502  0.46785971332E+03  0.59030463928E+01  0.10903358310E+04  0.11864905359E+04  0.10100000352E+00 0.  1.
</event>
<event>
 5   0  0.6706080E-08  0.3307854E+04  0.7818609E-02  0.8160900E-01
        2   -1    0    0  501    0  0.00000000000E+00  0.00000000000E+00  0.11146251417E+04  0.11146251417E+04  0.25500000920E-02 0.  1.
       -2   -1    0    0    0  501  0.00000000000E+00  0.00000000000E+00 -0.24541651267E+04  0.24541651267E+04  0.25500000920E-02 0. -1.
    10030    2    1    2    0    0  0.00000000000E+00  0.00000000000E+00 -0.13395399849E+04  0.35687902684E+04  0.33078537768E+04 0.  0.
        4    1    3    3  502    0  0.15149158715E+04  0.61995960742E+03 -0.92542798462E+03  0.18803559717E+04  0.12699999809E+01 0.  1.
       -4    1    3    3    0  502 -0.15149158715E+04 -0.61995960742E+03 -0.41411200033E+03  0.16884342967E+04  0.12699999809E+01 0. -1.
</event>
<event>
 5   0  0.6603516E-08  0.3298896E+04  0.7818609E-02  0.8163176E-01
        2   -1    0    0  501    0  0.00000000000E+00  0.00000000000E+00  0.23961395174E+04  0.23961395174E+04  0.25500000920E-02 0. -1.
       -2   -1    0    0    0  501  0.00000000000E+00  0.00000000000E+00 -0.11354427701E+04  0.11354427701E+04  0.25500000920E-02 0.  1.
    10030    2    1    2    0    0  0.00000000000E+00  0.00000000000E+00  0.12606967473E+04  0.35315822875E+04  0.32988963556E+04 0.  0.
        1    1    3    3  502    0 -0.12875094312E+04  0.91727778924E+03  0.11342963964E+04  0.19456894390E+04  0.50400001928E-02 0.  1.
       -1    1    3    3    0  502  0.12875094312E+04 -0.91727778924E+03  0.12640035084E+03  0.15858928485E+04  0.50400001928E-02 0. -1.
</event>
<event>
 5   0  0.2200750E-08  0.3296982E+04  0.7818609E-02  0.8163664E-01
        4   -1    0    0  501    0  0.00000000000E+00  0.00000000000E+00  0.17841253355E+04  0.17841257875E+04  0.12699999809E+01 0. -1.
       -4   -1    0    0    0  501  0.00000000000E+00  0.00000000000E+00 -0.15231674837E+04  0.15231680131E+04  0.12699999809E+01 0.  1.
    10030    2    1    2    0    0  0.00000000000E+00  0.00000000000E+00  0.26095785181E+03  0.33072938006E+04  0.32969824512E+04 0.  0.
        2    1    3    3  502    0  0.11049411597E+04  0.64270203588E+03  0.11746775437E+04  0.17360380771E+04  0.25500000920E-02 0. -1.
       -2    1    3    3    0  502 -0.11049411597E+04 -0.64270203588E+03 -0.91371969193E+03  0.15712557235E+04  0.25500000920E-02 0.  1.
</event>
<event>
 5   0  0.2291682E-08  0.3297467E+04  0.7818609E-02  0.8163540E-01
       -1   -1    0    0    0  501  0.00000000000E+00  0.00000000000E+00  0.98985767735E+03  0.98985767736E+03  0.50400001928E-02 0.  1.
        1   -1    0    0  501    0  0.00000000000E+00  0.00000000000E+00 -0.27461742135E+04  0.27461742135E+04  0.50400001928E-02 0. -1.
    10030    2    1    2    0    0  0.00000000000E+00  0.00000000000E+00 -0.17563165362E+04  0.37360318909E+04  0.32974666813E+04 0.  0.
        2    1    3    3  502    0  0.45920275593E+03 -0.35858162546E+03  0.86933635836E+03  0.10465150057E+04  0.25500000920E-02 0.  1.
       -2    1    3    3    0  502 -0.45920275593E+03  0.35858162546E+03 -0.26256528945E+04  0.26895168852E+04  0.25500000920E-02 0. -1.
</event>
<event>
 5   0  0.2200750E-08  0.3296873E+04  0.7818609E-02  0.8163692E-01
        3   -1    0    0  501    0  0.00000000000E+00  0.00000000000E+00  0.13738134454E+04  0.13738134491E+04  0.10100000352E+00 0. -1.
       -3   -1    0    0    0  501  0.00000000000E+00  0.00000000000E+00 -0.19779557590E+04  0.19779557616E+04  0.10100000352E+00 0.  1.
    10030    2    1    2    0    0  0.00000000000E+00  0.00000000000E+00 -0.60414231367E+03  0.33517692107E+04  0.32968725948E+04 0.  0.
        2    1    3    3  502    0 -0.12495450853E+04 -0.10159582592E+04 -0.65979386571E+03  0.17403626202E+04  0.25500000920E-02 0.  1.
       -2    1    3    3    0  502  0.12495450853E+04  0.10159582592E+04  0.55651552041E+02  0.16114065905E+04  0.25500000920E-02 0. -1.
</event>
<event>
 5   0  0.6706080E-08  0.3300362E+04  0.7818609E-02  0.8162803E-01
       -2   -1    0    0    0  501  0.00000000000E+00  0.00000000000E+00  0.89264279978E+03  0.89264279978E+03  0.25500000920E-02 0. -1.
        2   -1    0    0  501    0  0.00000000000E+00  0.00000000000E+00 -0.30506022708E+04  0.30506022708E+04  0.25500000920E-02 0.  1.
    10030    2    1    2    0    0  0.00000000000E+00  0.00000000000E+00 -0.21579594710E+04  0.39432450706E+04  0.33003624965E+04 0.  0.
        4    1    3    3  502    0  0.69797976022E+03 -0.14749242251E+04 -0.13729065169E+04  0.21324753533E+04  0.12699999809E+01 0. -1.
       -4    1    3    3    0  502 -0.69797976022E+03  0.14749242251E+04 -0.78505295415E+03  0.18107697173E+04  0.12699999809E+01 0.  1.
</event>
<event>
 5   0  0.2279938E-08  0.3301005E+04  0.7818609E-02  0.8162640E-01
       -1   -1    0    0    0  501  0.00000000000E+00  0.00000000000E+00  0.29544047698E+04  0.29544047698E+04  0.50400001928E-02 0.  1.
        1   -1    0    0  501    0  0.00000000000E+00  0.00000000000E+00 -0.92206662448E+03  0.92206662449E+03  0.50400001928E-02 0. -1.
    10030    2    1    2    0    0  0.00000000000E+00  0.00000000000E+00  0.20323381453E+04  0.38764713943E+04  0.33010047158E+04 0.  0.
        3    1    3    3  502    0 -0.32094265982E+03 -0.89008249302E+03  0.26042997992E+04  0.27708533865E+04  0.10100000352E+00 0.  1.
       -3    1    3    3    0  502  0.32094265982E+03  0.89008249302E+03 -0.57196165392E+03  0.11056180077E+04  0.10100000352E+00 0. -1.
</event>
<event>
 5   0  0.6706080E-08  0.3302021E+04  0.7818609E-02  0.8162381E-01
        2   -1    0    0  501    0  0.00000000000E+00  0.00000000000E+00  0.26977382080E+04  0.26977382080E+04  0.25500000920E-02 0.  1.
       -2   -1    0    0    0  501  0.00000000000E+00  0.00000000000E+00 -0.10104149061E+04  0.10104149061E+04  0.25500000920E-02 0. -1.
    10030    2    1    2    0    0  0.00000000000E+00  0.00000000000E+00  0.16873233019E+04  0.37081531141E+04  0.33020205319E+04 0.  0.
        4    1    3    3  502    0 -0.16586233474E+03  0.66583542718E+03 -0.84269654974E+03  0.10867318979E+04  0.12699999809E+01 0. -1.
       -4    1    3    3    0  502  0.16586233474E+03 -0.66583542718E+03  0.25300198516E+04  0.26214212162E+04  0.12699999809E+01 0.  1.
</event>
<event>
 5   0  0.2279938E-08  0.3292350E+04  0.7818609E-02  0.8164845E-01
       -1   -1    0    0    0  501  0.00000000000E+00  0.00000000000E+00  0.11012488335E+04  0.11012488335E+04  0.50400001928E-02 0. -1.
        1   -1    0    0  501    0  0.00000000000E+00  0.00000000000E+00 -0.24607444009E+04  0.24607444009E+04  0.50400001928E-02 0.  1.
    10030    2    1    2    0    0  0.00000000000E+00  0.00000000000E+00 -0.13594955674E+04  0.35619932344E+04  0.32923498605E+04 0.  0.
        3    1    3    3  502    0  0.14152770828E+04  0.12531580340E+03 -0.15792086208E+04  0.21242912111E+04  0.10100000352E+00 0.  1.
       -3    1    3    3    0  502 -0.14152770828E+04 -0.12531580340E+03  0.21971305337E+03  0.14377020232E+04  0.10100000352E+00 0. -1.
</event>
<event>
 5   0  0.2279938E-08  0.3299827E+04  0.7818609E-02  0.8162939E-01
       -1   -1    0    0    0  501  0.00000000000E+00  0.00000000000E+00  0.21212187655E+04  0.21212187655E+04  0.50400001928E-02 0. -1.
        1   -1    0    0  501    0  0.00000000000E+00  0.00000000000E+00 -0.12833258280E+04  0.12833258280E+04  0.50400001928E-02 0.  1.
    10030    2    1    2    0    0  0.00000000000E+00  0.00000000000E+00  0.83789293747E+03  0.34045445935E+04  0.32998271643E+04 0.  0.
        3    1    3    3  502    0 -0.32446661066E+03 -0.67480995062E+03 -0.10979371509E+04  0.13289518608E+04  0.10100000352E+00 0.  1.
       -3    1    3    3    0  502  0.32446661066E+03  0.67480995062E+03  0.19358300883E+04  0.20755927327E+04  0.10100000352E+00 0. -1.
</event>
<event>
 5   0  0.6706080E-08  0.3302178E+04  0.7818609E-02  0.8162342E-01
       -2   -1    0    0    0  501  0.00000000000E+00  0.00000000000E+00  0.93727509180E+03  0.93727509180E+03  0.25500000920E-02 0.  1.
        2   -1    0    0  501    0  0.00000000000E+00  0.00000000000E+00 -0.29085315725E+04  0.29085315725E+04  0.25500000920E-02 0. -1.
    10030    2    1    2    0    0  0.00000000000E+00  0.00000000000E+00 -0.19712564807E+04  0.38458066643E+04  0.33021775825E+04 0.  0.
        4    1    3    3  502    0 -0.63846195508E+03 -0.23313241691E+02 -0.27587387915E+04  0.28317518443E+04  0.12699999809E+01 0. -1.
       -4    1    3    3    0  502  0.63846195508E+03  0.23313241691E+02  0.78748231075E+03  0.10140548200E+04  0.12699999809E+01 0.  1.
</event>
<event>
 5   0  0.6603516E-08  0.3299323E+04  0.7818609E-02  0.8163068E-01
       -2   -1    0    0    0  501  0.00000000000E+00  0.00000000000E+00  0.11989496129E+04  0.11989496129E+04  0.25500000920E-02 0. -1.
        2   -1    0    0  501    0  0.00000000000E+00  0.00000000000E+00 -0.22698056204E+04  0.22698056204E+04  0.25500000920E-02 0.  1.
    10030    2    1    2    0    0  0.00000000000E+00  0.00000000000E+00 -0.10708560075E+04  0.34687552333E+04  0.32993227001E+04 0.  0.
        1    1    3    3  502    0  0.99624423110E+02  0.16462567216E+04 -0.57328185994E+03  0.17460636615E+04  0.50400001928E-02 0.  1.
       -1    1    3    3    0  502 -0.99624423110E+02 -0.16462567216E+04 -0.49757414751E+03  0.17226915718E+04  0.50400001928E-02 0. -1.
</event>
<event>
 5   0  0.6765252E-08  0.3299433E+04  0.7818609E-02  0.8163040E-01
        2   -1    0    0  501    0  0.00000000000E+00  0.00000000000E+00  0.17470887695E+04  0.17470887695E+04  0.25500000920E-02 0.  1.
       -2   -1    0    0    0  501  0.00000000000E+00  0.00000000000E+00 -0.15577715514E+04  0.15577715514E+04  0.25500000920E-02 0. -1.
    10030    2    1    2    0    0  0.00000000000E+00  0.00000000000E+00  0.18931721810E+03  0.33048603209E+04  0.32994333955E+04 0.  0.
        2    1    3    3  502    0 -0.20259646982E+03  0.11203649432E+04 -0.11011652879E+04  0.15839280056E+04  0.25500000920E-02 0. -1.
       -2    1    3    3    0  502  0.20259646982E+03 -0.11203649432E+04  0.12904825060E+04  0.17209323153E+04  0.25500000920E-02 0.  1.
</event>
<event>
 5   0  0.6706080E-08  0.3300353E+04  0.7818609E-02  0.8162806E-01
        2   -1    0    0  501    0  0.00000000000E+00  0.00000000000E+00  0.15901573078E+04  0.15901573078E+04  0.25500000920E-02 0.  1.
       -2   -1    0    0    0  501  0.00000000000E+00  0.00000000000E+00 -0.17124613013E+04  0.17124613013E+04  0.25500000920E-02 0. -1.
    10030    2    1    2    0    0  0.00000000000E+00  0.00000000000E+00 -0.12230399347E+03  0.33026186092E+04  0.33003532251E+04 0.  0.
        4    1    3    3  502    0 -0.13212972024E+03  0.11827959503E+04 -0.12050099743E+04  0.16936691454E+04  0.12699999809E+01 0. -1.
       -4    1    3    3    0  502  0.13212972024E+03 -0.11827959503E+04  0.10827059808E+04  0.16089494637E+04  0.12699999809E+01 0.  1.
</event>
<event>
 5   0  0.2244093E-08  0.3299966E+04  0.7818609E-02  0.8162904E-01
       -1   -1    0    0    0  501  0.00000000000E+00  0.00000000000E+00  0.24100139883E+04  0.24100139883E+04  0.50400001928E-02 0. -1.
        1   -1    0    0  501    0  0.00000000000E+00  0.00000000000E+00 -0.11296379198E+04  0.11296379198E+04  0.50400001928E-02 0.  1.
    10030    2    1    2    0    0  0.00000000000E+00  0.00000000000E+00  0.12803760686E+04  0.35396519081E+04  0.32999655686E+04 0.  0.
        1    1    3    3  502    0  0.55076056621E+03 -0.14915946567E+04  0.16743623658E+03  0.15988204134E+04  0.50400001928E-02 0.  1.
       -1    1    3    3    0  502 -0.55076056621E+03  0.14915946567E+04  0.11129398320E+04  0.19408314947E+04  0.50400001928E-02 0. -1.
</event>
<event>
 5   0  0.2279938E-08  0.3300475E+04  0.7818609E-02  0.8162774E-01
       -1   -1    0    0    0  501  0.00000000000E+00  0.00000000000E+00  0.18606134617E+04  0.18606134617E+04  0.50400001928E-02 0.  1.
        1   -1    0    0  501    0  0.00000000000E+00  0.00000000000E+00 -0.14636484576E+04  0.14636484576E+04  0.50400001928E-02 0. -1.
    10030    2    1    2    0    0  0.00000000000E+00  0.00000000000E+00  0.39696500413E+03  0.33242619193E+04  0.33004751315E+04 0.  0.
        3    1    3    3  502    0 -0.56352519163E+03 -0.30716446085E+03 -0.13327947190E+04  0.14792742885E+04  0.10100000352E+00 0. -1.
       -3    1    3    3    0  502  0.56352519163E+03  0.30716446085E+03  0.17297597231E+04  0.18449876307E+04  0.10100000352E+00 0.  1.
</event>
<event>
 5   0  0.6765252E-08  0.3298336E+04  0.7818609E-02  0.8163319E-01
       -2   -1    0    0    0  501  0.00000000000E+00  0.00000000000E+00  0.15438233432E+04  0.15438233432E+04  0.25500000920E-02 0. -1.
        2   -1    0    0  501    0  0.00000000000E+00  0.00000000000E+00 -0.17617012105E+04  0.17617012105E+04  0.25500000920E-02 0.  1.
    10030    2    1    2    0    0  0.00000000000E+00  0.00000000000E+00 -0.21787786732E+03  0.33055245537E+04  0.32983362184E+04 0.  0.
        2    1    3    3  502    0 -0.15034101843E+03  0.91021991261E+02  0.15344115893E+04  0.15444437025E+04  0.25500000920E-02 0. -1.
       -2    1    3    3    0  502  0.15034101843E+03 -0.91021991261E+02 -0.17522894566E+04  0.17610808512E+04  0.25500000920E-02 0.  1.
</event>
<event>
 5   0  0.2291682E-08  0.3299850E+04  0.7818609E-02  0.8162933E-01
       -1   -1    0    0    0  501  0.00000000000E+00  0.00000000000E+00  0.11920818989E+04  0.11920818989E+04  0.50400001928E-02 0.  1.
        1   -1    0    0  501    0  0.00000000000E+00  0.00000000000E+00 -0.22836123043E+04  0.22836123043E+04  0.50400001928E-02 0. -1.
    10030    2    1    2    0    0  0.00000000000E+00  0.00000000000E+00 -0.10915304054E+04  0.34756942032E+04  0.32998502342E+04 0.  0.
        2    1    3    3  502    0  0.16356298729E+04  0.21556755730E+03 -0.52224974954E+03  0.17304621504E+04  0.25500000920E-02 0.  1.
       -2    1    3    3    0  502 -0.16356298729E+04 -0.21556755730E+03 -0.56928065586E+03  0.17452320528E+04  0.25500000920E-02 0. -1.
</event>
<event>
 5   0  0.2309822E-08  0.3302362E+04  0.7818609E-02  0.8162295E-01
       -1   -1    0    0    0  501  0.00000000000E+00  0.00000000000E+00  0.94549344963E+03  0.94549344964E+03  0.50400001928E-02 0.  1.
        1   -1    0    0  501    0  0.00000000000E+00  0.00000000000E+00 -0.28835724443E+04  0.28835724443E+04  0.50400001928E-02 0. -1.
    10030    2    1    2    0    0  0.00000000000E+00  0.00000000000E+00 -0.19380789947E+04  0.38290658940E+04  0.33023620987E+04 0.  0.
        4    1    3    3  502    0 -0.10332097958E+04 -0.37155461083E+03 -0.23989449842E+04  0.26382785981E+04  0.12699999809E+01 0. -1.
       -4    1    3    3    0  502  0.10332097958E+04  0.37155461083E+03  0.46086598951E+03  0.11907872959E+04  0.12699999809E+01 0.  1.
</event>
<event>
 5   0  0.2309822E-08  0.3299369E+04  0.7818609E-02  0.8163056E-01
       -1   -1    0    0    0  501  0.00000000000E+00  0.00000000000E+00  0.15305178701E+04  0.15305178701E+04  0.50400001928E-02 0. -1.
        1   -1    0    0  501    0  0.00000000000E+00  0.00000000000E+00 -0.17781293296E+04  0.17781293296E+04  0.50400001928E-02 0.  1.
    10030    2    1    2    0    0  0.00000000000E+00  0.00000000000E+00 -0.24761145949E+03  0.33086471998E+04  0.32993688575E+04 0.  0.
        4    1    3    3  502    0 -0.12600091202E+03  0.33142213686E+03 -0.17394665924E+04  0.17752359003E+04  0.12699999809E+01 0.  1.
       -4    1    3    3    0  502  0.12600091202E+03 -0.33142213686E+03  0.14918551330E+04  0.15334112994E+04  0.12699999809E+01 0. -1.
</event>
<event>
 5   0  0.6765252E-08  0.3294632E+04  0.7818609E-02  0.8164263E-01
        2   -1    0    0  501    0  0.00000000000E+00  0.00000000000E+00  0.14021420657E+04  0.14021420657E+04  0.25500000920E-02 0.  1.
       -2   -1    0    0    0  501  0.00000000000E+00  0.00000000000E+00 -0.19353606434E+04  0.19353606434E+04  0.25500000920E-02 0. -1.
    10030    2    1    2    0    0  0.00000000000E+00  0.00000000000E+00 -0.53321857768E+03  0.33375027091E+04  0.32946323440E+04 0.  0.
        2    1    3    3  502    0 -0.10439294909E+04  0.17119243413E+03  0.10125788175E+04  0.14643809249E+04  0.25500000920E-02 0.  1.
       -2    1    3    3    0  502  0.10439294909E+04 -0.17119243413E+03 -0.15457973952E+04  0.18731217842E+04  0.25500000920E-02 0. -1.
</event>
<event>
 5   0  0.2244093E-08  0.3300320E+04  0.7818609E-02  0.8162814E-01
        1   -1    0    0  501    0  0.00000000000E+00  0.00000000000E+00  0.10876793665E+04  0.10876793665E+04  0.50400001928E-02 0.  1.
       -1   -1    0    0    0  501  0.00000000000E+00  0.00000000000E+00 -0.25035215785E+04  0.25035215785E+04  0.50400001928E-02 0. -1.
    10030    2    1    2    0    0  0.00000000000E+00  0.00000000000E+00 -0.14158422120E+04  0.35912009450E+04  0.33003204478E+04 0.  0.
        1    1    3    3  502    0  0.15917270623E+04  0.33557231289E+03 -0.40631875009E+03  0.16766927998E+04  0.50400001928E-02 0. -1.
       -1    1    3    3    0  502 -0.15917270623E+04 -0.33557231289E+03 -0.10095234619E+04  0.19145081452E+04  0.50400001928E-02 0.  1.
</event>
<event>
 5   0  0.6765252E-08  0.3299602E+04  0.7818609E-02  0.8162997E-01
        2   -1    0    0  501    0  0.00000000000E+00  0.00000000000E+00  0.15216523316E+04  0.15216523316E+04  0.25500000920E-02 0. -1.
       -2   -1    0    0    0  501  0.00000000000E+00  0.00000000000E+00 -0.17887417067E+04  0.17887417067E+04  0.25500000920E-02 0.  1.
    10030    2    1    2    0    0  0.00000000000E+00  0.00000000000E+00 -0.26708937513E+03  0.33103940383E+04  0.32996017872E+04 0.  0.
        2    1    3    3  502    0  0.15920456080E+04  0.38697895686E+03 -0.32777816198E+03  0.16708681739E+04  0.25500000920E-02 0.  1.
       -2    1    3    3    0  502 -0.15920456080E+04 -0.38697895686E+03  0.60688786849E+02  0.16395258644E+04  0.25500000920E-02 0. -1.
</event>
<event>
 5   0  0.6765252E-08  0.3301662E+04  0.7818609E-02  0.8162473E-01
       -2   -1    0    0    0  501  0.00000000000E+00  0.00000000000E+00  0.21122118394E+04  0.21122118394E+04  0.25500000920E-02 0.  1.
        2   -1    0    0  501    0  0.00000000000E+00  0.00000000000E+00 -0.12902315032E+04  0.12902315032E+04  0.25500000920E-02 0. -1.
    10030    2    1    2    0    0  0.00000000000E+00  0.00000000000E+00  0.82198033614E+03  0.34024433426E+04  0.33016615555E+04 0.  0.
        2    1    3    3  502    0  0.51942884434E+03 -0.14675027641E+04  0.97718963442E+03  0.18380071460E+04  0.25500000920E-02 0.  1.
       -2    1    3    3    0  502 -0.51942884434E+03  0.14675027641E+04 -0.15520929828E+03  0.15644361966E+04  0.25500000920E-02 0. -1.
</event>
<event>
 5   0  0.6765252E-08  0.3300271E+04  0.7818609E-02  0.8162827E-01
        2   -1    0    0  501    0  0.00000000000E+00  0.00000000000E+00  0.22244967632E+04  0.22244967632E+04  0.25500000920E-02 0. -1.
       -2   -1    0    0    0  501  0.00000000000E+00  0.00000000000E+00 -0.12240730950E+04  0.12240730950E+04  0.25500000920E-02 0.  1.
    10030    2    1    2    0    0  0.00000000000E+00  0.00000000000E+00  0.10004236682E+04  0.34485698582E+04  0.33002706785E+04 0.  0.
        2    1    3    3  502    0 -0.15934304245E+04  0.27330978243E+03  0.15486440689E+03  0.16241002862E+04  0.25500000920E-02 0.  1.
       -2    1    3    3    0  502  0.15934304245E+04 -0.27330978243E+03  0.84555926127E+03  0.18244695720E+04  0.25500000920E-02 0. -1.
</event>
<event>
 5   0  0.6603516E-08  0.3301737E+04  0.7818609E-02  0.8162454E-01
       -2   -1    0    0    0  501  0.00000000000E+00  0.00000000000E+00  0.11836114227E+04  0.11836114227E+04  0.25500000920E-02 0. -1.
        2   -1    0    0  501    0  0.00000000000E+00  0.00000000000E+00 -0.23025858633E+04  0.23025858633E+04  0.25500000920E-02 0.  1.
    10030    2    1    2    0    0  0.00000000000E+00  0.00000000000E+00 -0.11189744407E+04  0.34861972860E+04  0.33017370759E+04 0.  0.
        1    1    3    3  502    0 -0.11587861697E+04  0.10201964367E+04 -0.11767687579E+04  0.19412292153E+04  0.50400001928E-02 0.  1.
       -1    1    3    3    0  502  0.11587861697E+04 -0.10201964367E+04  0.57794317237E+02  0.15449680708E+04  0.50400001928E-02 0. -1.
</event>
<event>
 5   0  0.2291682E-08  0.3301592E+04  0.7818609E-02  0.8162490E-01
       -1   -1    0    0    0  501  0.00000000000E+00  0.00000000000E+00  0.16698484027E+04  0.16698484027E+04  0.50400001928E-02 0.  1.
        1   -1    0    0  501    0  0.00000000000E+00  0.00000000000E+00 -0.16319610417E+04  0.16319610417E+04  0.50400001928E-02 0. -1.
    10030    2    1    2    0    0  0.00000000000E+00  0.00000000000E+00  0.37887361044E+02  0.33018094444E+04  0.33015920637E+04 0.  0.
        2    1    3    3  502    0 -0.15646343582E+04 -0.35905024966E+03 -0.36595798086E+03  0.16464880808E+04  0.25500000920E-02 0.  1.
       -2    1    3    3    0  502  0.15646343582E+04  0.35905024966E+03  0.40384534191E+03  0.16553213636E+04  0.25500000920E-02 0. -1.
</event>
<event>
 5   0  0.6706080E-08  0.3299536E+04  0.7818609E-02  0.8163013E-01
       -2   -1    0    0    0  501  0.00000000000E+00  0.00000000000E+00  0.14795165534E+04  0.14795165534E+04  0.25500000920E-02 0. -1.
        2   -1    0    0  501    0  0.00000000000E+00  0.00000000000E+00 -0.18396108824E+04  0.18396108824E+04  0.25500000920E-02 0.  1.
    10030    2    1    2    0    0  0.00000000000E+00  0.00000000000E+00 -0.36009432900E+03  0.33191274357E+04  0.32995361809E+04 0.  0.
        4    1    3    3  502    0 -0.52096361951E+03 -0.11105892815E+04  0.92964447299E+03  0.15391725388E+04  0.12699999809E+01 0. -1.
       -4    1    3    3    0  502  0.52096361951E+03  0.11105892815E+04 -0.12897388020E+04  0.17799548970E+04  0.12699999809E+01 0.  1.
</event>
<event>
 5   0  0.6821287E-08  0.3300395E+04  0.7818609E-02  0.8162795E-01
        2   -1    0    0  501    0  0.00000000000E+00  0.00000000000E+00  0.10091922244E+04  0.10091922244E+04  0.25500000920E-02 0.  1.
       -2   -1    0    0    0  501  0.00000000000E+00  0.00000000000E+00 -0.26983481305E+04  0.26983481305E+04  0.25500000920E-02 0. -1.
    10030    2    1    2    0    0  0.00000000000E+00  0.00000000000E+00 -0.16891559061E+04  0.37075403549E+04  0.33003950987E+04 0.  0.
        5    1    3    3  502    0  0.13276197715E+04  0.59866063258E+03  0.27140589337E+02  0.14566150872E+04  0.46999998093E+01 0.  1.
       -5    1    3    3    0  502 -0.13276197715E+04 -0.59866063258E+03 -0.17162964954E+04  0.22509252677E+04  0.46999998093E+01 0. -1.
</event>
<event>
 5   0  0.2279938E-08  0.3305390E+04  0.7818609E-02  0.8161525E-01
       -1   -1    0    0    0  501  0.00000000000E+00  0.00000000000E+00  0.16926218060E+04  0.16926218060E+04  0.50400001928E-02 0.  1.
        1   -1    0    0  501    0  0.00000000000E+00  0.00000000000E+00 -0.16137100155E+04  0.16137100155E+04  0.50400001928E-02 0. -1.
    10030    2    1    2    0    0  0.00000000000E+00  0.00000000000E+00  0.78911790515E+02  0.33063318216E+04  0.33053899987E+04 0.  0.
        3    1    3    3  502    0 -0.86063089351E+03  0.16090351190E+03 -0.13626657585E+04  0.16197016561E+04  0.10100000352E+00 0. -1.
       -3    1    3    3    0  502  0.86063089351E+03 -0.16090351190E+03  0.14415775491E+04  0.16866301655E+04  0.10100000352E+00 0.  1.
</event>
<event>
 5   0  0.6821287E-08  0.3297570E+04  0.7818609E-02  0.8163514E-01
       -2   -1    0    0    0  501  0.00000000000E+00  0.00000000000E+00  0.13722552627E+04  0.13722552627E+04  0.25500000920E-02 0.  1.
        2   -1    0    0  501    0  0.00000000000E+00  0.00000000000E+00 -0.19810394054E+04  0.19810394054E+04  0.25500000920E-02 0. -1.
    10030    2    1    2    0    0  0.00000000000E+00  0.00000000000E+00 -0.60878414273E+03  0.33532946681E+04  0.32975698626E+04 0.  0.
        5    1    3    3  502    0 -0.13040340731E+04  0.16458592044E+03  0.70785709343E+03  0.14928754616E+04  0.46999998093E+01 0.  1.
       -5    1    3    3    0  502  0.13040340731E+04 -0.16458592044E+03 -0.13166412362E+04  0.18604192065E+04  0.46999998093E+01 0. -1.
</event>
<event>
 5   0  0.2383270E-08  0.3300640E+04  0.7818609E-02  0.8162733E-01
        1   -1    0    0  501    0  0.00000000000E+00  0.00000000000E+00  0.21200978625E+04  0.21200978625E+04  0.50400001928E-02 0.  1.
       -1   -1    0    0    0  501  0.00000000000E+00  0.00000000000E+00 -0.12846370833E+04  0.12846370833E+04  0.50400001928E-02 0. -1.
    10030    2    1    2    0    0  0.00000000000E+00  0.00000000000E+00  0.83546077919E+03  0.34047349459E+04  0.33006401406E+04 0.  0.
        5    1    3    3  502    0  0.48075384482E+03 -0.55274642360E+03 -0.11077187923E+04  0.13280496531E+04  0.46999998093E+01 0. -1.
       -5    1    3    3    0  502 -0.48075384482E+03  0.55274642360E+03  0.19431795715E+04  0.20766852928E+04  0.46999998093E+01 0.  1.
</event>
<event>
 5   0  0.6821287E-08  0.3292713E+04  0.7818609E-02  0.8164752E-01
       -2   -1    0    0    0  501  0.00000000000E+00  0.00000000000E+00  0.16238269181E+04  0.16238269181E+04  0.25500000920E-02 0. -1.
        2   -1    0    0  501    0  0.00000000000E+00  0.00000000000E+00 -0.16691991279E+04  0.16691991279E+04  0.25500000920E-02 0.  1.
    10030    2    1    2    0    0  0.00000000000E+00  0.00000000000E+00 -0.45372209733E+02  0.32930260460E+04  0.32927134558E+04 0.  0.
        5    1    3    3  502    0 -0.46550886822E+03  0.24001600320E+03  0.15382830710E+04  0.16250055646E+04  0.46999998093E+01 0. -1.
       -5    1    3    3    0  502  0.46550886822E+03 -0.24001600320E+03 -0.15836552808E+04  0.16680204814E+04  0.46999998093E+01 0.  1.
</event>
<event>
 5   0  0.6765252E-08  0.3297222E+04  0.7818609E-02  0.8163603E-01
       -2   -1    0    0    0  501  0.00000000000E+00  0.00000000000E+00  0.11760804256E+04  0.11760804256E+04  0.25500000920E-02 0.  1.
        2   -1    0    0  501    0  0.00000000000E+00  0.00000000000E+00 -0.23109972906E+04  0.23109972906E+04  0.25500000920E-02 0. -1.
    10030    2    1    2    0    0  0.00000000000E+00  0.00000000000E+00 -0.11349168650E+04  0.34870777162E+04  0.32972222716E+04 0.  0.
        2    1    3    3  502    0  0.45253857885E+03  0.15448475144E+04 -0.19120100083E+03  0.16210807601E+04  0.25500000920E-02 0.  1.
       -2    1    3    3    0  502 -0.45253857885E+03 -0.15448475144E+04 -0.94371586415E+03  0.18659969561E+04  0.25500000920E-02 0. -1.
</event>
<event>
 5   0  0.2244093E-08  0.3301427E+04  0.7818609E-02  0.8162532E-01
       -1   -1    0    0    0  501  0.00000000000E+00  0.00000000000E+00  0.10882142587E+04  0.10882142587E+04  0.50400001928E-02 0.  1.
        1   -1    0    0  501    0  0.00000000000E+00  0.00000000000E+00 -0.25039699777E+04  0.25039699777E+04  0.50400001928E-02 0. -1.
    10030    2    1    2    0    0  0.00000000000E+00  0.00000000000E+00 -0.14157557190E+04  0.35921842363E+04  0.33014274688E+04 0.  0.
        1    1    3    3  502    0 -0.14001526389E+04  0.68035288604E+03 -0.11038140059E+03  0.15606061372E+04  0.50400001928E-02 0.  1.
       -1    1    3    3    0  502  0.14001526389E+04 -0.68035288604E+03 -0.13053743184E+04  0.20315780992E+04  0.50400001928E-02 0. -1.
</event>
<event>
 5   0  0.2279938E-08  0.3300148E+04  0.7818609E-02  0.8162858E-01
       -1   -1    0    0    0  501  0.00000000000E+00  0.00000000000E+00  0.20751342960E+04  0.20751342960E+04  0.50400001928E-02 0.  1.
        1   -1    0    0  501    0  0.00000000000E+00  0.00000000000E+00 -0.13120811468E+04  0.13120811468E+04  0.50400001928E-02 0. -1.
    10030    2    1    2    0    0  0.00000000000E+00  0.00000000000E+00  0.76305314916E+03  0.33872154428E+04  0.33001482312E+04 0.  0.
        3    1    3    3  502    0 -0.44905552221E+03 -0.12807126391E+04  0.13448342037E+04  0.19106163329E+04  0.10100000352E+00 0.  1.
       -3    1    3    3    0  502  0.44905552221E+03  0.12807126391E+04 -0.58178105450E+03  0.14765991100E+04  0.10100000352E+00 0. -1.
</event>
<event>
 5   0  0.6706080E-08  0.3300141E+04  0.7818609E-02  0.8162860E-01
       -2   -1    0    0    0  501  0.00000000000E+00  0.00000000000E+00  0.26269399374E+04  0.26269399374E+04  0.25500000920E-02 0.  1.
        2   -1    0    0  501    0  0.00000000000E+00  0.00000000000E+00 -0.10364653007E+04  0.10364653007E+04  0.25500000920E-02 0. -1.
    10030    2    1    2    0    0  0.00000000000E+00  0.00000000000E+00  0.15904746367E+04  0.36634052381E+04  0.33001406589E+04 0.  0.
        4    1    3    3  502    0  0.13296947609E+04 -0.20662822466E+03  0.18553141288E+04  0.22919370650E+04  0.12699999809E+01 0.  1.
       -4    1    3    3    0  502 -0.13296947609E+04  0.20662822466E+03 -0.26483949210E+03  0.13714681731E+04  0.12699999809E+01 0. -1.
</event>
<event>
 5   0  0.6706080E-08  0.3299703E+04  0.7818609E-02  0.8162971E-01
       -2   -1    0    0    0  501  0.00000000000E+00  0.00000000000E+00  0.10661550146E+04  0.10661550146E+04  0.25500000920E-02 0.  1.
        2   -1    0    0  501    0  0.00000000000E+00  0.00000000000E+00 -0.25531090198E+04  0.25531090198E+04  0.25500000920E-02 0. -1.
    10030    2    1    2    0    0  0.00000000000E+00  0.00000000000E+00 -0.14869540053E+04  0.36192640344E+04  0.32997030074E+04 0.  0.
        4    1    3    3  502    0 -0.85923040259E+03 -0.41221137687E+03 -0.22206851752E+04  0.24165345775E+04  0.12699999809E+01 0. -1.
       -4    1    3    3    0  502  0.85923040259E+03  0.41221137687E+03  0.73373116990E+03  0.12027294569E+04  0.12699999809E+01 0.  1.
</event>
<event>
 5   0  0.6603516E-08  0.3301840E+04  0.7818609E-02  0.8162427E-01
        2   -1    0    0  501    0  0.00000000000E+00  0.00000000000E+00  0.15189590606E+04  0.15189590606E+04  0.25500000920E-02 0. -1.
       -2   -1    0    0    0  501  0.00000000000E+00  0.00000000000E+00 -0.17943450508E+04  0.17943450508E+04  0.25500000920E-02 0.  1.
    10030    2    1    2    0    0  0.00000000000E+00  0.00000000000E+00 -0.27538599022E+03  0.33133041114E+04  0.33018398948E+04 0.  0.
        1    1    3    3  502    0  0.84781326234E+03 -0.14160165607E+04 -0.96975704854E+02  0.16532678293E+04  0.50400001928E-02 0. -1.
       -1    1    3    3    0  502 -0.84781326234E+03  0.14160165607E+04 -0.17841028536E+03  0.16600362821E+04  0.50400001928E-02 0.  1.
</event>
<event>
 5   0  0.6821287E-08  0.3300446E+04  0.7818609E-02  0.8162782E-01
       -2   -1    0    0    0  501  0.00000000000E+00  0.00000000000E+00  0.12546031378E+04  0.12546031378E+04  0.25500000920E-02 0.  1.
        2   -1    0    0  501    0  0.00000000000E+00  0.00000000000E+00 -0.21705952414E+04  0.21705952414E+04  0.25500000920E-02 0. -1.
    10030    2    1    2    0    0  0.00000000000E+00  0.00000000000E+00 -0.91599210360E+03  0.34251983793E+04  0.33004457886E+04 0.  0.
        5    1    3    3  502    0 -0.94108410427E+03 -0.10167211056E+04 -0.13884637183E+04  0.19614317946E+04  0.46999998093E+01 0. -1.
       -5    1    3    3    0  502  0.94108410427E+03  0.10167211056E+04  0.47247161467E+03  0.14637665847E+04  0.46999998093E+01 0.  1.
</event>
<event>
 5   0  0.2279938E-08  0.3307184E+04  0.7818609E-02  0.8161070E-01
        1   -1    0    0  501    0  0.00000000000E+00  0.00000000000E+00  0.22051564294E+04  0.22051564294E+04  0.50400001928E-02 0. -1.
       -1   -1    0    0    0  501  0.00000000000E+00  0.00000000000E+00 -0.12399872639E+04  0.12399872639E+04  0.50400001928E-02 0.  1.
    10030    2    1    2    0    0  0.00000000000E+00  0.00000000000E+00  0.96516916551E+03  0.34451436932E+04  0.33071836279E+04 0.  0.
        3    1    3    3  502    0  0.90156383660E+02  0.68247309056E+03 -0.10836190632E+04  0.12837943672E+04  0.10100000352E+00 0.  1.
       -3    1    3    3    0  502 -0.90156383660E+02 -0.68247309056E+03  0.20487882287E+04  0.21613493260E+04  0.10100000352E+00 0. -1.
</event>
<event>
 5   0  0.2244093E-08  0.3300674E+04  0.7818609E-02  0.8162724E-01
       -1   -1    0    0    0  501  0.00000000000E+00  0.00000000000E+00  0.17118391428E+04  0.17118391428E+04  0.50400001928E-02 0.  1.
        1   -1    0    0  501    0  0.00000000000E+00  0.00000000000E+00 -0.15910442865E+04  0.15910442865E+04  0.50400001928E-02 0. -1.
    10030    2    1    2    0    0  0.00000000000E+00  0.00000000000E+00  0.12079485624E+03  0.33028834293E+04  0.33006738025E+04 0.  0.
        1    1    3    3  502    0 -0.10986953967E+03 -0.15446966414E+04  0.63126409432E+03  0.16723197621E+04  0.50400001928E-02 0.  1.
       -1    1    3    3    0  502  0.10986953967E+03  0.15446966414E+04 -0.51046923809E+03  0.16305636672E+04  0.50400001928E-02 0. -1.
</event>
<event>
 5   0  0.6765252E-08  0.3299692E+04  0.7818609E-02  0.8162974E-01
        2   -1    0    0  501    0  0.00000000000E+00  0.00000000000E+00  0.19404854235E+04  0.19404854235E+04  0.25500000920E-02 0.  1.
       -2   -1    0    0    0  501  0.00000000000E+00  0.00000000000E+00 -0.14027372034E+04  0.14027372034E+04  0.25500000920E-02 0. -1.
    10030    2    1    2    0    0  0.00000000000E+00  0.00000000000E+00  0.53774822009E+03  0.33432226269E+04  0.32996915590E+04 0.  0.
        2    1    3    3  502    0 -0.35829168395E+03 -0.61160935388E+03  0.17783446095E+04  0.19144055168E+04  0.25500000920E-02 0.  1.
       -2    1    3    3    0  502  0.35829168395E+03  0.61160935388E+03 -0.12405963894E+04  0.14288171101E+04  0.25500000920E-02 0. -1.
</event>
<event>
 5   0  0.2383270E-08  0.3300113E+04  0.7818609E-02  0.8162867E-01
       -1   -1    0    0    0  501  0.00000000000E+00  0.00000000000E+00  0.15671262872E+04  0.15671262872E+04  0.50400001928E-02 0.  1.
        1   -1    0    0  501    0  0.00000000000E+00  0.00000000000E+00 -0.17373753337E+04  0.17373753337E+04  0.50400001928E-02 0. -1.
    10030    2    1    2    0    0  0.00000000000E+00  0.00000000000E+00 -0.17024904648E+03  0.33045016208E+04  0.33001130623E+04 0.  0.
        5    1    3    3  502    0 -0.38811824562E+03  0.15774138657E+04 -0.37498173034E+03  0.16671843522E+04  0.46999998093E+01 0. -1.
       -5    1    3    3    0  502  0.38811824562E+03 -0.15774138657E+04  0.20473268386E+03  0.16373172686E+04  0.46999998093E+01 0.  1.
</event>
<event>
 5   0  0.2279938E-08  0.3300661E+04  0.7818609E-02  0.8162727E-01
        1   -1    0    0  501    0  0.00000000000E+00  0.00000000000E+00  0.97472480941E+03  0.97472480942E+03  0.50400001928E-02 0.  1.
       -1   -1    0    0    0  501  0.00000000000E+00  0.00000000000E+00 -0.27942158770E+04  0.27942158770E+04  0.50400001928E-02 0. -1.
    10030    2    1    2    0    0  0.00000000000E+00  0.00000000000E+00 -0.18194910676E+04  0.37689406864E+04  0.33006614720E+04 0.  0.
        3    1    3    3  502    0  0.54703519758E+03 -0.73682761816E+03  0.65650865472E+03  0.11283466091E+04  0.10100000352E+00 0.  1.
       -3    1    3    3    0  502 -0.54703519758E+03  0.73682761816E+03 -0.24759997223E+04  0.26405940774E+04  0.10100000352E+00 0. -1.
</event>
<event>
 5   0  0.2291682E-08  0.3300632E+04  0.7818609E-02  0.8162735E-01
        1   -1    0    0  501    0  0.00000000000E+00  0.00000000000E+00  0.15504909011E+04  0.15504909011E+04  0.50400001928E-02 0.  1.
       -1   -1    0    0    0  501  0.00000000000E+00  0.00000000000E+00 -0.17565676992E+04  0.17565676992E+04  0.50400001928E-02 0. -1.
    10030    2    1    2    0    0  0.00000000000E+00  0.00000000000E+00 -0.20607679811E+03  0.33070586003E+04  0.33006315970E+04 0.  0.
        2    1    3    3  502    0  0.58548595274E+03  0.12406022479E+04  0.81616529639E+03  0.15962498330E+04  0.25500000920E-02 0.  1.
       -2    1    3    3    0  502 -0.58548595274E+03 -0.12406022479E+04 -0.10222420945E+04  0.17108087673E+04  0.25500000920E-02 0. -1.
</event>
<event>
 5   0  0.6765252E-08  0.3299259E+04  0.7818609E-02  0.8163084E-01
       -2   -1    0    0    0  501  0.00000000000E+00  0.00000000000E+00  0.21221743425E+04  0.21221743425E+04  0.25500000920E-02 0. -1.
        2   -1    0    0  501    0  0.00000000000E+00  0.00000000000E+00 -0.12823060228E+04  0.12823060228E+04  0.25500000920E-02 0.  1.
    10030    2    1    2    0    0  0.00000000000E+00  0.00000000000E+00  0.83986831973E+03  0.34044803653E+04  0.32992586687E+04 0.  0.
        2    1    3    3  502    0  0.84933146368E+03 -0.14076879264E+04  0.28023668997E+03  0.16677775138E+04  0.25500000920E-02 0.  1.
       -2    1    3    3    0  502 -0.84933146368E+03  0.14076879264E+04  0.55963162976E+03  0.17367028514E+04  0.25500000920E-02 0. -1.
</event>
<event>
 5   0  0.7084130E-08  0.3296964E+04  0.7818609E-02  0.8163668E-01
       -2   -1    0    0    0  501  0.00000000000E+00  0.00000000000E+00  0.14341155348E+04  0.14341155348E+04  0.25500000920E-02 0. -1.
        2   -1    0    0  501    0  0.00000000000E+00  0.00000000000E+00 -0.18948906710E+04  0.18948906710E+04  0.25500000920E-02 0.  1.
    10030    2    1    2    0    0  0.00000000000E+00  0.00000000000E+00 -0.46077513618E+03  0.33290062058E+04  0.32969635412E+04 0.  0.
        3    1    3    3  502    0 -0.12359445639E+04  0.41569820229E+03 -0.12487170163E+04  0.18054523415E+04  0.10100000352E+00 0.  1.
       -3    1    3    3    0  502  0.12359445639E+04 -0.41569820229E+03  0.78794188016E+03  0.15235538642E+04  0.10100000352E+00 0. -1.
</event>
<event>
 5   0  0.2383270E-08  0.3296258E+04  0.7818609E-02  0.8163848E-01
        1   -1    0    0  501    0  0.00000000000E+00  0.00000000000E+00  0.18031170963E+04  0.18031170963E+04  0.50400001928E-02 0.  1.
       -1   -1    0    0    0  501  0.00000000000E+00  0.00000000000E+00 -0.15064631506E+04  0.15064631506E+04  0.50400001928E-02 0. -1.
    10030    2    1    2    0    0  0.00000000000E+00  0.00000000000E+00  0.29665394571E+03  0.33095802469E+04  0.32962581585E+04 0.  0.
        5    1    3    3  502    0 -0.10262570912E+04  0.51244954532E+03 -0.10398828366E+04  0.15482850376E+04  0.46999998093E+01 0. -1.
       -5    1    3    3    0  502  0.10262570912E+04 -0.51244954532E+03  0.13365367823E+04  0.17612952093E+04  0.46999998093E+01 0.  1.
</event>
<event>
 5   0  0.2244093E-08  0.3295835E+04  0.7818609E-02  0.8163956E-01
       -1   -1    0    0    0  501  0.00000000000E+00  0.00000000000E+00  0.98061198424E+03  0.98061198425E+03  0.50400001928E-02 0.  1.
        1   -1    0    0  501    0  0.00000000000E+00  0.00000000000E+00 -0.27693235162E+04  0.27693235162E+04  0.50400001928E-02 0. -1.
    10030    2    1    2    0    0  0.00000000000E+00  0.00000000000E+00 -0.17887115319E+04  0.37499355004E+04  0.32958348431E+04 0.  0.
        1    1    3    3  502    0  0.51132107779E+03  0.31404511269E+03  0.85188965909E+03  0.10420122690E+04  0.50400001928E-02 0.  1.
       -1    1    3    3    0  502 -0.51132107779E+03 -0.31404511269E+03 -0.26406011910E+04  0.27079232314E+04  0.50400001928E-02 0. -1.
</event>
<event>
 5   0  0.2279938E-08  0.3300410E+04  0.7818609E-02  0.8162791E-01
        1   -1    0    0  501    0  0.00000000000E+00  0.00000000000E+00  0.14274498413E+04  0.14274498413E+04  0.50400001928E-02 0. -1.
       -1   -1    0    0    0  501  0.00000000000E+00  0.00000000000E+00 -0.19077211949E+04  0.19077211949E+04  0.50400001928E-02 0.  1.
    10030    2    1    2    0    0  0.00000000000E+00  0.00000000000E+00 -0.48027135366E+03  0.33351710362E+04  0.33004098636E+04 0.  0.
        3    1    3    3  502    0  0.53345006277E+01  0.17756099543E+03 -0.18980309865E+04  0.19063257854E+04  0.10100000352E+00 0.  1.
       -3    1    3    3    0  502 -0.53345006277E+01 -0.17756099543E+03  0.14177596329E+04  0.14288452508E+04  0.10100000352E+00 0. -1.
</event>
<event>
 5   0  0.6821287E-08  0.3299928E+04  0.7818609E-02  0.8162914E-01
        2   -1    0    0  501    0  0.00000000000E+00  0.00000000000E+00  0.26267296263E+04  0.26267296263E+04  0.25500000920E-02 0.  1.
       -2   -1    0    0    0  501  0.00000000000E+00  0.00000000000E+00 -0.10364149042E+04  0.10364149042E+04  0.25500000920E-02 0. -1.
    10030    2    1    2    0    0  0.00000000000E+00  0.00000000000E+00  0.15903147221E+04  0.36631445305E+04  0.32999283229E+04 0.  0.
        5    1    3    3  502    0 -0.13097512824E+04  0.28476768068E+03  0.18632587900E+04  0.22952769903E+04  0.46999998093E+01 0.  1.
       -5    1    3    3    0  502  0.13097512824E+04 -0.28476768068E+03 -0.27294406792E+03  0.13678675403E+04  0.46999998093E+01 0. -1.
</event>
<event>
 5   0  0.2200750E-08  0.3299075E+04  0.7818609E-02  0.8163131E-01
        3   -1    0    0  501    0  0.00000000000E+00  0.00000000000E+00  0.15136304221E+04  0.15136304254E+04  0.10100000352E+00 0. -1.
       -3   -1    0    0    0  501  0.00000000000E+00  0.00000000000E+00 -0.17976479213E+04  0.17976479241E+04  0.10100000352E+00 0.  1.
    10030    2    1    2    0    0  0.00000000000E+00  0.00000000000E+00 -0.28401749921E+03  0.33112783496E+04  0.32990753808E+04 0.  0.
        5    1    3    3  502    0  0.76555142911E+03  0.11016857690E+04  0.82131842105E+03  0.15730119399E+04  0.46999998093E+01 0. -1.
       -5    1    3    3    0  502 -0.76555142911E+03 -0.11016857690E+04 -0.11053359203E+04  0.17382664097E+04  0.46999998093E+01 0.  1.
</event>
<event>
 5   0  0.6765252E-08  0.3300262E+04  0.7818609E-02  0.8162829E-01
        2   -1    0    0  501    0  0.00000000000E+00  0.00000000000E+00  0.23965686529E+04  0.23965686529E+04  0.25500000920E-02 0.  1.
       -2   -1    0    0    0  501  0.00000000000E+00  0.00000000000E+00 -0.11361795522E+04  0.11361795522E+04  0.25500000920E-02 0. -1.
    10030    2    1    2    0    0  0.00000000000E+00  0.00000000000E+00  0.12603891007E+04  0.35327482051E+04  0.33002619889E+04 0.  0.
        2    1    3    3  502    0  0.10270133164E+04 -0.99436736000E+03 -0.25213347655E+03  0.14515833041E+04  0.25500000920E-02 0. -1.
       -2    1    3    3    0  502 -0.10270133164E+04  0.99436736000E+03  0.15125225773E+04  0.20811649011E+04  0.25500000920E-02 0.  1.
</event>
<event>
 5   0  0.6765252E-08  0.3302019E+04  0.7818609E-02  0.8162382E-01
       -2   -1    0    0    0  501  0.00000000000E+00  0.00000000000E+00  0.11017712473E+04  0.11017712473E+04  0.25500000920E-02 0.  1.
        2   -1    0    0  501    0  0.00000000000E+00  0.00000000000E+00 -0.24740454731E+04  0.24740454731E+04  0.25500000920E-02 0. -1.
    10030    2    1    2    0    0  0.00000000000E+00  0.00000000000E+00 -0.13722742258E+04  0.35758167204E+04  0.33020188774E+04 0.  0.
        2    1    3    3  502    0 -0.10480014344E+04  0.95331888098E+03  0.23192490595E+03  0.14355880528E+04  0.25500000920E-02 0.  1.
       -2    1    3    3    0  502  0.10480014344E+04 -0.95331888098E+03 -0.16041991317E+04  0.21402286676E+04  0.25500000920E-02 0. -1.
</event>
<event>
 5   0  0.6821287E-08  0.3301114E+04  0.7818609E-02  0.8162612E-01
        2   -1    0    0  501    0  0.00000000000E+00  0.00000000000E+00  0.16953224440E+04  0.16953224440E+04  0.25500000920E-02 0.  1.
       -2   -1    0    0    0  501  0.00000000000E+00  0.00000000000E+00 -0.16069739724E+04  0.16069739724E+04  0.25500000920E-02 0. -1.
    10030    2    1    2    0    0  0.00000000000E+00  0.00000000000E+00  0.88348471596E+02  0.33022964163E+04  0.33011143829E+04 0.  0.
        5    1    3    3  502    0  0.10593364655E+04 -0.24830248608E+03 -0.11974265345E+04  0.16179308598E+04  0.46999998093E+01 0. -1.
       -5    1    3    3    0  502 -0.10593364655E+04  0.24830248608E+03  0.12857750061E+04  0.16843655565E+04  0.46999998093E+01 0.  1.
</event>
<event>
 5   0  0.6603516E-08  0.3298821E+04  0.7818609E-02  0.8163195E-01
       -2   -1    0    0    0  501  0.00000000000E+00  0.00000000000E+00  0.14699339151E+04  0.14699339151E+04  0.25500000920E-02 0. -1.
        2   -1    0    0  501    0  0.00000000000E+00  0.00000000000E+00 -0.18508012664E+04  0.18508012664E+04  0.25500000920E-02 0.  1.
    10030    2    1    2    0    0  0.00000000000E+00  0.00000000000E+00 -0.38086735130E+03  0.33207351815E+04  0.32988213359E+04 0.  0.
        1    1    3    3  502    0 -0.11957964727E+04 -0.10855355439E+04  0.14681263548E+03  0.16216875689E+04  0.50400001928E-02 0.  1.
       -1    1    3    3    0  502  0.11957964727E+04  0.10855355439E+04 -0.52767998678E+03  0.16990476125E+04  0.50400001928E-02 0. -1.
</event>
<event>
 5   0  0.6765252E-08  0.3298065E+04  0.7818609E-02  0.8163388E-01
       -2   -1    0    0    0  501  0.00000000000E+00  0.00000000000E+00  0.12959472005E+04  0.12959472005E+04  0.25500000920E-02 0.  1.
        2   -1    0    0  501    0  0.00000000000E+00  0.00000000000E+00 -0.20983165281E+04  0.20983165281E+04  0.25500000920E-02 0. -1.
    10030    2    1    2    0    0  0.00000000000E+00  0.00000000000E+00 -0.80236932762E+03  0.33942637287E+04  0.32980645418E+04 0.  0.
        2    1    3    3  502    0 -0.14757339309E+04  0.62956771745E+02  0.35338123648E+03  0.15187601813E+04  0.25500000920E-02 0.  1.
       -2    1    3    3    0  502  0.14757339309E+04 -0.62956771745E+02 -0.11557505641E+04  0.18755035474E+04  0.25500000920E-02 0. -1.
</event>
<event>
 5   0  0.6603516E-08  0.3299479E+04  0.7818609E-02  0.8163028E-01
        2   -1    0    0  501    0  0.00000000000E+00  0.00000000000E+00  0.19401742011E+04  0.19401742011E+04  0.25500000920E-02 0. -1.
       -2   -1    0    0    0  501  0.00000000000E+00  0.00000000000E+00 -0.14027812604E+04  0.14027812604E+04  0.25500000920E-02 0.  1.
    10030    2    1    2    0    0  0.00000000000E+00  0.00000000000E+00  0.53739294067E+03  0.33429554615E+04  0.32994787535E+04 0.  0.
        1    1    3    3  502    0  0.70735414854E+03 -0.77260178110E+03  0.15600008312E+04  0.18790598705E+04  0.50400001928E-02 0. -1.
       -1    1    3    3    0  502 -0.70735414854E+03  0.77260178110E+03 -0.10226078905E+04  0.14638955910E+04  0.50400001928E-02 0.  1.
</event>
<event>
 5   0  0.2309822E-08  0.3300349E+04  0.7818609E-02  0.8162807E-01
        1   -1    0    0  501    0  0.00000000000E+00  0.00000000000E+00  0.17080165511E+04  0.17080165512E+04  0.50400001928E-02 0. -1.
       -1   -1    0    0    0  501  0.00000000000E+00  0.00000000000E+00 -0.15942914273E+04  0.15942914273E+04  0.50400001928E-02 0.  1.
    10030    2    1    2    0    0  0.00000000000E+00  0.00000000000E+00  0.11372512387E+03  0.33023079784E+04  0.33003491604E+04 0.  0.
        4    1    3    3  502    0 -0.82101743531E+03  0.11299512649E+04 -0.82241666666E+03  0.16208733068E+04  0.12699999809E+01 0.  1.
       -4    1    3    3    0  502  0.82101743531E+03 -0.11299512649E+04  0.93614179052E+03  0.16814346717E+04  0.12699999809E+01 0. -1.
</event>
<event>
 5   0  0.2309822E-08  0.3297341E+04  0.7818609E-02  0.8163572E-01
        1   -1    0    0  501    0  0.00000000000E+00  0.00000000000E+00  0.13316852613E+04  0.13316852613E+04  0.50400001928E-02 0.  1.
       -1   -1    0    0    0  501  0.00000000000E+00  0.00000000000E+00 -0.20411086986E+04  0.20411086986E+04  0.50400001928E-02 0. -1.
    10030    2    1    2    0    0  0.00000000000E+00  0.00000000000E+00 -0.70942343727E+03  0.33727939599E+04  0.32973409715E+04 0.  0.
        4    1    3    3  502    0 -0.95416719940E+03 -0.12948563359E+04 -0.72496820574E+03  0.17642756268E+04  0.12699999809E+01 0. -1.
       -4    1    3    3    0  502  0.95416719940E+03  0.12948563359E+04  0.15544768475E+02  0.16085183331E+04  0.12699999809E+01 0.  1.
</event>
<event>
 5   0  0.2309822E-08  0.3301002E+04  0.7818609E-02  0.8162640E-01
       -1   -1    0    0    0  501  0.00000000000E+00  0.00000000000E+00  0.88327554761E+03  0.88327554762E+03  0.50400001928E-02 0.  1.
        1   -1    0    0  501    0  0.00000000000E+00  0.00000000000E+00 -0.30841494921E+04  0.30841494921E+04  0.50400001928E-02 0. -1.
    10030    2    1    2    0    0  0.00000000000E+00  0.00000000000E+00 -0.22008739445E+04  0.39674250397E+04  0.33010021700E+04 0.  0.
        4    1    3    3  502    0  0.76644161083E+03 -0.83030695079E+03 -0.25463550183E+04  0.27858154762E+04  0.12699999809E+01 0. -1.
       -4    1    3    3    0  502 -0.76644161083E+03  0.83030695079E+03  0.34548107380E+03  0.11816095635E+04  0.12699999809E+01 0.  1.
</event>
<event>
 5   0  0.6706080E-08  0.3299437E+04  0.7818609E-02  0.8163039E-01
       -2   -1    0    0    0  501  0.00000000000E+00  0.00000000000E+00  0.12501856656E+04  0.12501856656E+04  0.25500000920E-02 0. -1.
        2   -1    0    0  501    0  0.00000000000E+00  0.00000000000E+00 -0.21769340074E+04  0.21769340074E+04  0.25500000920E-02 0.  1.
    10030    2    1    2    0    0  0.00000000000E+00  0.00000000000E+00 -0.92674834172E+03  0.34271196730E+04  0.32994373405E+04 0.  0.
        4    1    3    3  502    0 -0.98389554201E+03 -0.12134880902E+04  0.87200841879E+02  0.15646754879E+04  0.12699999809E+01 0. -1.
       -4    1    3    3    0  502  0.98389554201E+03  0.12134880902E+04 -0.10139491836E+04  0.18624441851E+04  0.12699999809E+01 0.  1.
</event>
<event>
 5   0  0.2383270E-08  0.3303265E+04  0.7818609E-02  0.8162065E-01
        1   -1    0    0  501    0  0.00000000000E+00  0.00000000000E+00  0.20562025937E+04  0.20562025937E+04  0.50400001928E-02 0. -1.
       -1   -1    0    0    0  501  0.00000000000E+00  0.00000000000E+00 -0.13266640910E+04  0.13266640910E+04  0.50400001928E-02 0.  1.
    10030    2    1    2    0    0  0.00000000000E+00  0.00000000000E+00  0.72953850273E+03  0.33828666847E+04  0.33032651391E+04 0.  0.
        5    1    3    3  502    0 -0.89259110158E+03  0.89631908665E+03 -0.72278276480E+03  0.14568952587E+04  0.46999998093E+01 0.  1.
       -5    1    3    3    0  502  0.89259110158E+03 -0.89631908665E+03  0.14523212675E+04  0.19259714260E+04  0.46999998093E+01 0. -1.
</event>
<event>
 5   0  0.2291682E-08  0.3300039E+04  0.7818609E-02  0.8162885E-01
        1   -1    0    0  501    0  0.00000000000E+00  0.00000000000E+00  0.21660698431E+04  0.21660698431E+04  0.50400001928E-02 0. -1.
       -1   -1    0    0    0  501  0.00000000000E+00  0.00000000000E+00 -0.12569146435E+04  0.12569146435E+04  0.50400001928E-02 0.  1.
    10030    2    1    2    0    0  0.00000000000E+00  0.00000000000E+00  0.90915519964E+03  0.34229844866E+04  0.33000393359E+04 0.  0.
        2    1    3    3  502    0  0.38941359826E+03  0.10560240804E+04  0.17060664664E+04  0.20438915325E+04  0.25500000920E-02 0. -1.
       -2    1    3    3    0  502 -0.38941359826E+03 -0.10560240804E+04 -0.79691126672E+03  0.13790929541E+04  0.25500000920E-02 0.  1.
</event>
<event>
 5   0  0.2309822E-08  0.3301880E+04  0.7818609E-02  0.8162417E-01
        1   -1    0    0  501    0  0.00000000000E+00  0.00000000000E+00  0.12973669254E+04  0.12973669254E+04  0.50400001928E-02 0. -1.
       -1   -1    0    0    0  501  0.00000000000E+00  0.00000000000E+00 -0.21008727528E+04  0.21008727528E+04  0.50400001928E-02 0.  1.
    10030    2    1    2    0    0  0.00000000000E+00  0.00000000000E+00 -0.80350582742E+03  0.33982396783E+04  0.33018799639E+04 0.  0.
        4    1    3    3  502    0 -0.11388729049E+04 -0.45974985898E+03  0.73371184333E+03  0.14306418518E+04  0.12699999809E+01 0. -1.
       -4    1    3    3    0  502  0.11388729049E+04  0.45974985898E+03 -0.15372176708E+04  0.19675978264E+04  0.12699999809E+01 0.  1.
</event>
<event>
 5   0  0.2309822E-08  0.3300054E+04  0.7818609E-02  0.8162882E-01
       -1   -1    0    0    0  501  0.00000000000E+00  0.00000000000E+00  0.10005120605E+04  0.10005120605E+04  0.50400001928E-02 0.  1.
        1   -1    0    0  501    0  0.00000000000E+00  0.00000000000E+00 -0.27211961812E+04  0.27211961812E+04  0.50400001928E-02 0. -1.
    10030    2    1    2    0    0  0.00000000000E+00  0.00000000000E+00 -0.17206841207E+04  0.37217082417E+04  0.33000543015E+04 0.  0.
        4    1    3    3  502    0 -0.49831716249E+03 -0.10487344636E+04 -0.21824947281E+04  0.24721344665E+04  0.12699999809E+01 0. -1.
       -4    1    3    3    0  502  0.49831716249E+03  0.10487344636E+04  0.46181060739E+03  0.12495737751E+04  0.12699999809E+01 0.  1.
</event>
<event>
 5   0  0.7084130E-08  0.3300770E+04  0.7818609E-02  0.8162700E-01
       -2   -1    0    0    0  501  0.00000000000E+00  0.00000000000E+00  0.22116584283E+04  0.22116584283E+04  0.25500000920E-02 0. -1.
        2   -1    0    0  501    0  0.00000000000E+00  0.00000000000E+00 -0.12315509180E+04  0.12315509180E+04  0.25500000920E-02 0.  1.
    10030    2    1    2    0    0  0.00000000000E+00  0.00000000000E+00  0.98010751026E+03  0.34432093463E+04  0.33007695876E+04 0.  0.
        3    1    3    3  502    0 -0.44745753115E+03  0.27927249107E+03 -0.11412590882E+04  0.12572524341E+04  0.10100000352E+00 0.  1.
       -3    1    3    3    0  502  0.44745753115E+03 -0.27927249107E+03  0.21213665985E+04  0.21859569121E+04  0.10100000352E+00 0. -1.
</event>
<event>
 5   0  0.2291682E-08  0.3299192E+04  0.7818609E-02  0.8163101E-01
        1   -1    0    0  501    0  0.00000000000E+00  0.00000000000E+00  0.24966755663E+04  0.24966755663E+04  0.50400001928E-02 0.  1.
       -1   -1    0    0    0  501  0.00000000000E+00  0.00000000000E+00 -0.10899163792E+04  0.10899163792E+04  0.50400001928E-02 0. -1.
    10030    2    1    2    0    0  0.00000000000E+00  0.00000000000E+00  0.14067591871E+04  0.35865919455E+04  0.32991923819E+04 0.  0.
        2    1    3    3  502    0 -0.84504531186E+03 -0.42297095337E+03 -0.76649951642E+03  0.12167692941E+04  0.25500000920E-02 0. -1.
       -2    1    3    3    0  502  0.84504531186E+03  0.42297095337E+03  0.21732587035E+04  0.23698226513E+04  0.25500000920E-02 0.  1.
</event>
<event>
 5   0  0.7084130E-08  0.3300755E+04  0.7818609E-02  0.8162703E-01
        2   -1    0    0  501    0  0.00000000000E+00  0.00000000000E+00  0.15380455875E+04  0.15380455875E+04  0.25500000920E-02 0. -1.
       -2   -1    0    0    0  501  0.00000000000E+00  0.00000000000E+00 -0.17709139456E+04  0.17709139456E+04  0.25500000920E-02 0.  1.
    10030    2    1    2    0    0  0.00000000000E+00  0.00000000000E+00 -0.23286835814E+03  0.33089595331E+04  0.33007552953E+04 0.  0.
        3    1    3    3  502    0 -0.30068686901E+01  0.10925724752E+04 -0.13564495441E+04  0.17417459719E+04  0.10100000352E+00 0.  1.
       -3    1    3    3    0  502  0.30068686901E+01 -0.10925724752E+04  0.11235811860E+04  0.15672135612E+04  0.10100000352E+00 0. -1.
</event>
<event>
 5   0  0.2383270E-08  0.3291071E+04  0.7818609E-02  0.8165171E-01
        1   -1    0    0  501    0  0.00000000000E+00  0.00000000000E+00  0.18193614304E+04  0.18193614305E+04  0.50400001928E-02 0. -1.
       -1   -1    0    0    0  501  0.00000000000E+00  0.00000000000E+00 -0.14883171459E+04  0.14883171459E+04  0.50400001928E-02 0.  1.
    10030    2    1    2    0    0  0.00000000000E+00  0.00000000000E+00  0.33104428453E+03  0.33076785764E+04  0.32910708358E+04 0.  0.
        5    1    3    3  502    0  0.29629001497E+03  0.82769638552E+03 -0.12325025549E+04  0.15139199838E+04  0.46999998093E+01 0.  1.
       -5    1    3    3    0  502 -0.29629001497E+03 -0.82769638552E+03  0.15635468394E+04  0.17937585926E+04  0.46999998093E+01 0. -1.
</event>
<event>
 5   0  0.7084130E-08  0.3296929E+04  0.7818609E-02  0.8163677E-01
       -2   -1    0    0    0  501  0.00000000000E+00  0.00000000000E+00  0.10656953925E+04  0.10656953926E+04  0.25500000920E-02 0.  1.
        2   -1    0    0  501    0  0.00000000000E+00  0.00000000000E+00 -0.25499174542E+04  0.25499174542E+04  0.25500000920E-02 0. -1.
    10030    2    1    2    0    0  0.00000000000E+00  0.00000000000E+00 -0.14842220617E+04  0.36156128468E+04  0.32969290453E+04 0.  0.
        3    1    3    3  502    0 -0.11260209071E+04  0.43531204606E+03  0.48889529102E+03  0.13024739062E+04  0.10100000352E+00 0.  1.
       -3    1    3    3    0  502  0.11260209071E+04 -0.43531204606E+03 -0.19731173527E+04  0.23131389406E+04  0.10100000352E+00 0. -1.
</event>
<event>
 5   0  0.2279938E-08  0.3300028E+04  0.7818609E-02  0.8162888E-01
        1   -1    0    0  501    0  0.00000000000E+00  0.00000000000E+00  0.24088466618E+04  0.24088466618E+04  0.50400001928E-02 0. -1.
       -1   -1    0    0    0  501  0.00000000000E+00  0.00000000000E+00 -0.11302278753E+04  0.11302278753E+04  0.50400001928E-02 0.  1.
    10030    2    1    2    0    0  0.00000000000E+00  0.00000000000E+00  0.12786187865E+04  0.35390745371E+04  0.33000276632E+04 0.  0.
        3    1    3    3  502    0  0.13395021036E+04 -0.81815448298E+03  0.93626093544E+02  0.15723894235E+04  0.10100000352E+00 0.  1.
       -3    1    3    3    0  502 -0.13395021036E+04  0.81815448298E+03  0.11849926930E+04  0.19666851136E+04  0.10100000352E+00 0. -1.
</event>
<event>
 5   0  0.2383270E-08  0.3286136E+04  0.7818609E-02  0.8166432E-01
       -1   -1    0    0    0  501  0.00000000000E+00  0.00000000000E+00  0.10481456490E+04  0.10481456490E+04  0.50400001928E-02 0. -1.
        1   -1    0    0  501    0  0.00000000000E+00  0.00000000000E+00 -0.25756654395E+04  0.25756654395E+04  0.50400001928E-02 0.  1.
    10030    2    1    2    0    0  0.00000000000E+00  0.00000000000E+00 -0.15275197906E+04  0.36238110885E+04  0.32861360432E+04 0.  0.
        5    1    3    3  502    0  0.12773454023E+03  0.58610548016E+03 -0.24505876649E+04  0.25229422784E+04  0.46999998093E+01 0.  1.
       -5    1    3    3    0  502 -0.12773454023E+03 -0.58610548016E+03  0.92306787430E+03  0.11008688102E+04  0.46999998093E+01 0. -1.
</event>
<event>
 5   0  0.6821287E-08  0.3286915E+04  0.7818609E-02  0.8166233E-01
       -2   -1    0    0    0  501  0.00000000000E+00  0.00000000000E+00  0.11834984619E+04  0.11834984619E+04  0.25500000920E-02 0. -1.
        2   -1    0    0  501    0  0.00000000000E+00  0.00000000000E+00 -0.22821766881E+04  0.22821766881E+04  0.25500000920E-02 0.  1.
    10030    2    1    2    0    0  0.00000000000E+00  0.00000000000E+00 -0.10986782262E+04  0.34656751499E+04  0.32869150278E+04 0.  0.
        5    1    3    3  502    0 -0.20209514167E+03 -0.16197995636E+04 -0.75033007265E+03  0.17965551427E+04  0.46999998093E+01 0.  1.
       -5    1    3    3    0  502  0.20209514167E+03  0.16197995636E+04 -0.34834815354E+03  0.16691200073E+04  0.46999998093E+01 0. -1.
</event>
<event>
 5   0  0.2279938E-08  0.3303066E+04  0.7818609E-02  0.8162116E-01
       -1   -1    0    0    0  501  0.00000000000E+00  0.00000000000E+00  0.16153114976E+04  0.16153114977E+04  0.50400001928E-02 0.  1.
        1   -1    0    0  501    0  0.00000000000E+00  0.00000000000E+00 -0.16885667947E+04  0.16885667947E+04  0.50400001928E-02 0. -1.
    10030    2    1    2    0    0  0.00000000000E+00  0.00000000000E+00 -0.73255297016E+02  0.33038782923E+04  0.33030660653E+04 0.  0.
        3    1    3    3  502    0 -0.23446212978E+01 -0.12274748688E+03 -0.16839961792E+04  0.16884654526E+04  0.10100000352E+00 0. -1.
       -3    1    3    3    0  502  0.23446212978E+01  0.12274748688E+03  0.16107408822E+04  0.16154128397E+04  0.10100000352E+00 0.  1.
</event>
<event>
 5   0  0.2291682E-08  0.3300513E+04  0.7818609E-02  0.8162765E-01
       -1   -1    0    0    0  501  0.00000000000E+00  0.00000000000E+00  0.26830012497E+04  0.26830012497E+04  0.50400001928E-02 0. -1.
        1   -1    0    0  501    0  0.00000000000E+00  0.00000000000E+00 -0.10150370688E+04  0.10150370688E+04  0.50400001928E-02 0.  1.
    10030    2    1    2    0    0  0.00000000000E+00  0.00000000000E+00  0.16679641810E+04  0.36980383185E+04  0.33005125202E+04 0.  0.
        2    1    3    3  502    0  0.12515578148E+04  0.17701768589E+03  0.20227160474E+04  0.23851860375E+04  0.25500000920E-02 0. -1.
       -2    1    3    3    0  502 -0.12515578148E+04 -0.17701768589E+03 -0.35475186644E+03  0.13128522810E+04  0.25500000920E-02 0.  1.
</event>
<event>
 5   0  0.6765252E-08  0.3299721E+04  0.7818609E-02  0.8162966E-01
       -2   -1    0    0    0  501  0.00000000000E+00  0.00000000000E+00  0.16296345154E+04  0.16296345154E+04  0.25500000920E-02 0.  1.
        2   -1    0    0  501    0  0.00000000000E+00  0.00000000000E+00 -0.16703374371E+04  0.16703374371E+04  0.25500000920E-02 0. -1.
    10030    2    1    2    0    0  0.00000000000E+00  0.00000000000E+00 -0.40702921722E+02  0.32999719525E+04  0.32997209215E+04 0.  0.
        2    1    3    3  502    0 -0.12443552737E+04 -0.45508531040E+03 -0.10035421427E+04  0.16621129682E+04  0.25500000920E-02 0. -1.
       -2    1    3    3    0  502  0.12443552737E+04  0.45508531040E+03  0.96283922095E+03  0.16378589843E+04  0.25500000920E-02 0.  1.
</event>
<event>
 5   0  0.6765252E-08  0.3300796E+04  0.7818609E-02  0.8162693E-01
        2   -1    0    0  501    0  0.00000000000E+00  0.00000000000E+00  0.21609824731E+04  0.21609824731E+04  0.25500000920E-02 0. -1.
       -2   -1    0    0    0  501  0.00000000000E+00  0.00000000000E+00 -0.12604513989E+04  0.12604513989E+04  0.25500000920E-02 0.  1.
    10030    2    1    2    0    0  0.00000000000E+00  0.00000000000E+00  0.90053107416E+03  0.34214338720E+04  0.33007958926E+04 0.  0.
        2    1    3    3  502    0 -0.23893564754E+03  0.39042234641E+02 -0.12419445841E+04  0.12653224449E+04  0.25500000920E-02 0.  1.
       -2    1    3    3    0  502  0.23893564754E+03 -0.39042234641E+02  0.21424756582E+04  0.21561114270E+04  0.25500000920E-02 0. -1.
</event>
<event>
 5   0  0.6706080E-08  0.3300290E+04  0.7818609E-02  0.8162822E-01
        2   -1    0    0  501    0  0.00000000000E+00  0.00000000000E+00  0.25339944489E+04  0.25339944489E+04  0.25500000920E-02 0.  1.
       -2   -1    0    0    0  501  0.00000000000E+00  0.00000000000E+00 -0.10745795412E+04  0.10745795412E+04  0.25500000920E-02 0. -1.
    10030    2    1    2    0    0  0.00000000000E+00  0.00000000000E+00  0.14594149078E+04  0.36085739901E+04  0.33002900432E+04 0.  0.
        4    1    3    3  502    0  0.15073395513E+03 -0.13511320297E+04 -0.29290880717E+03  0.13907104908E+04  0.12699999809E+01 0. -1.
       -4    1    3    3    0  502 -0.15073395513E+03  0.13511320297E+04  0.17523237149E+04  0.22178634994E+04  0.12699999809E+01 0.  1.
</event>
<event>
 5   0  0.6603516E-08  0.3299743E+04  0.7818609E-02  0.8162961E-01
        2   -1    0    0  501    0  0.00000000000E+00  0.00000000000E+00  0.16369866611E+04  0.16369866611E+04  0.25500000920E-02 0.  1.
       -2   -1    0    0    0  501  0.00000000000E+00  0.00000000000E+00 -0.16628577201E+04  0.16628577201E+04  0.25500000920E-02 0. -1.
    10030    2    1    2    0    0  0.00000000000E+00  0.00000000000E+00 -0.25871059009E+02  0.32998443812E+04  0.32997429640E+04 0.  0.
        1    1    3    3  502    0  0.14719706165E+04  0.72623961853E+03 -0.18013644549E+03  0.16512330599E+04  0.50400001928E-02 0.  1.
       -1    1    3    3    0  502 -0.14719706165E+04 -0.72623961853E+03  0.15426538648E+03  0.16486113213E+04  0.50400001928E-02 0. -1.
</event>
<event>
 5   0  0.2200750E-08  0.3299148E+04  0.7818609E-02  0.8163112E-01
        4   -1    0    0  501    0  0.00000000000E+00  0.00000000000E+00  0.20218429931E+04  0.20218433920E+04  0.12699999809E+01 0. -1.
       -4   -1    0    0    0  501  0.00000000000E+00  0.00000000000E+00 -0.13458475372E+04  0.13458481364E+04  0.12699999809E+01 0.  1.
    10030    2    1    2    0    0  0.00000000000E+00  0.00000000000E+00  0.67599545594E+03  0.33676915284E+04  0.32991478254E+04 0.  0.
        2    1    3    3  502    0 -0.43917363590E+03  0.12901634927E+04  0.12866601116E+04  0.18742704082E+04  0.25500000920E-02 0. -1.
       -2    1    3    3    0  502  0.43917363590E+03 -0.12901634927E+04 -0.61066465569E+03  0.14934211201E+04  0.25500000920E-02 0.  1.
</event>
<event>
 5   0  0.6765252E-08  0.3302802E+04  0.7818609E-02  0.8162183E-01
       -2   -1    0    0    0  501  0.00000000000E+00  0.00000000000E+00  0.16059645931E+04  0.16059645931E+04  0.25500000920E-02 0.  1.
        2   -1    0    0  501    0  0.00000000000E+00  0.00000000000E+00 -0.16981227217E+04  0.16981227217E+04  0.25500000920E-02 0. -1.
    10030    2    1    2    0    0  0.00000000000E+00  0.00000000000E+00 -0.92158128598E+02  0.33040873148E+04  0.33028018202E+04 0.  0.
        2    1    3    3  502    0  0.77226178531E+03 -0.14571576457E+04  0.40142046192E+02  0.16496387645E+04  0.25500000920E-02 0. -1.
       -2    1    3    3    0  502 -0.77226178531E+03  0.14571576457E+04 -0.13230017479E+03  0.16544485503E+04  0.25500000920E-02 0.  1.
</event>
<event>
 5   0  0.6603516E-08  0.3299607E+04  0.7818609E-02  0.8162995E-01
       -2   -1    0    0    0  501  0.00000000000E+00  0.00000000000E+00  0.13763199278E+04  0.13763199278E+04  0.25500000920E-02 0.  1.
        2   -1    0    0  501    0  0.00000000000E+00  0.00000000000E+00 -0.19776295992E+04  0.19776295992E+04  0.25500000920E-02 0. -1.
    10030    2    1    2    0    0  0.00000000000E+00  0.00000000000E+00 -0.60130967141E+03  0.33539495269E+04  0.32996066596E+04 0.  0.
        1    1    3    3  502    0  0.12697884665E+03  0.11037211597E+04  0.93907422033E+03  0.14547111112E+04  0.50400001928E-02 0.  1.
       -1    1    3    3    0  502 -0.12697884665E+03 -0.11037211597E+04 -0.15403838917E+04  0.18992384157E+04  0.50400001928E-02 0. -1.
</event>
<event>
 5   0  0.2279938E-08  0.3301004E+04  0.7818609E-02  0.8162640E-01
       -1   -1    0    0    0  501  0.00000000000E+00  0.00000000000E+00  0.26381898261E+04  0.26381898261E+04  0.50400001928E-02 0.  1.
        1   -1    0    0  501    0  0.00000000000E+00  0.00000000000E+00 -0.10325853296E+04  0.10325853296E+04  0.50400001928E-02 0. -1.
    10030    2    1    2    0    0  0.00000000000E+00  0.00000000000E+00  0.16056044965E+04  0.36707751558E+04  0.33010035512E+04 0.  0.
        3    1    3    3  502    0 -0.97620184699E+03 -0.99278894147E+03 -0.18279711648E+03  0.14042844172E+04  0.10100000352E+00 0. -1.
       -3    1    3    3    0  502  0.97620184699E+03  0.99278894147E+03  0.17884016130E+04  0.22664907386E+04  0.10100000352E+00 0.  1.
</event>
<event>
 5   0  0.6821287E-08  0.3298146E+04  0.7818609E-02  0.8163367E-01
        2   -1    0    0  501    0  0.00000000000E+00  0.00000000000E+00  0.13997866246E+04  0.13997866246E+04  0.25500000920E-02 0.  1.
       -2   -1    0    0    0  501  0.00000000000E+00  0.00000000000E+00 -0.19427541322E+04  0.19427541322E+04  0.25500000920E-02 0. -1.
    10030    2    1    2    0    0  0.00000000000E+00  0.00000000000E+00 -0.54296750757E+03  0.33425407568E+04  0.32981456906E+04 0.  0.
        5    1    3    3  502    0  0.55107922609E+03 -0.10669346953E+04  0.87394250687E+03  0.14852055591E+04  0.46999998093E+01 0.  1.
       -5    1    3    3    0  502 -0.55107922609E+03  0.10669346953E+04 -0.14169100144E+04  0.18573351977E+04  0.46999998093E+01 0. -1.
</event>
<event>
 5   0  0.2309822E-08  0.3302410E+04  0.7818609E-02  0.8162282E-01
       -1   -1    0    0    0  501  0.00000000000E+00  0.00000000000E+00  0.16454360070E+04  0.16454360070E+04  0.50400001928E-02 0. -1.
        1   -1    0    0  501    0  0.00000000000E+00  0.00000000000E+00 -0.16569942858E+04  0.16569942858E+04  0.50400001928E-02 0.  1.
    10030    2    1    2    0    0  0.00000000000E+00  0.00000000000E+00 -0.11558278846E+02  0.33024302928E+04  0.33024100661E+04 0.  0.
        4    1    3    3  502    0 -0.36885355625E+03 -0.14793571434E+04 -0.63975931899E+03  0.16534340334E+04  0.12699999809E+01 0.  1.
       -4    1    3    3    0  502  0.36885355625E+03  0.14793571434E+04  0.62820104014E+03  0.16489962594E+04  0.12699999809E+01 0. -1.
</event>
<event>
 5   0  0.6603516E-08  0.3299593E+04  0.7818609E-02  0.8162999E-01
       -2   -1    0    0    0  501  0.00000000000E+00  0.00000000000E+00  0.10168284738E+04  0.10168284739E+04  0.25500000920E-02 0. -1.
        2   -1    0    0  501    0  0.00000000000E+00  0.00000000000E+00 -0.26767821748E+04  0.26767821748E+04  0.25500000920E-02 0.  1.
    10030    2    1    2    0    0  0.00000000000E+00  0.00000000000E+00 -0.16599537009E+04  0.36936106486E+04  0.32995929043E+04 0.  0.
        1    1    3    3  502    0 -0.10298498346E+04  0.53550989124E+03 -0.21423516455E+04  0.24366025729E+04  0.50400001928E-02 0.  1.
       -1    1    3    3    0  502  0.10298498346E+04 -0.53550989124E+03  0.48239794456E+03  0.12570080757E+04  0.50400001928E-02 0. -1.
</event>
<event>
 5   0  0.6765252E-08  0.3299083E+04  0.7818609E-02  0.8163129E-01
        2   -1    0    0  501    0  0.00000000000E+00  0.00000000000E+00  0.23782404362E+04  0.23782404362E+04  0.25500000920E-02 0.  1.
       -2   -1    0    0    0  501  0.00000000000E+00  0.00000000000E+00 -0.11441177461E+04  0.11441177461E+04  0.25500000920E-02 0. -1.
    10030    2    1    2    0    0  0.00000000000E+00  0.00000000000E+00  0.12341226901E+04  0.35223581822E+04  0.32990829559E+04 0.  0.
        2    1    3    3  502    0  0.35179606349E+03 -0.93965518312E+03 -0.78085278617E+03  0.12713942768E+04  0.25500000920E-02 0. -1.
       -2    1    3    3    0  502 -0.35179606349E+03  0.93965518312E+03  0.20149754763E+04  0.22509639054E+04  0.25500000920E-02 0.  1.
</event>
<event>
 5   0  0.2383270E-08  0.3299734E+04  0.7818609E-02  0.8162963E-01
       -1   -1    0    0    0  501  0.00000000000E+00  0.00000000000E+00  0.16800545849E+04  0.16800545849E+04  0.50400001928E-02 0.  1.
        1   -1    0    0  501    0  0.00000000000E+00  0.00000000000E+00 -0.16202217057E+04  0.16202217057E+04  0.50400001928E-02 0. -1.
    10030    2    1    2    0    0  0.00000000000E+00  0.00000000000E+00  0.59832879163E+02  0.33002762906E+04  0.32997338712E+04 0.  0.
        5    1    3    3  502    0  0.12049104584E+04 -0.32842910144E+03 -0.10483906151E+04  0.16305888076E+04  0.46999998093E+01 0. -1.
       -5    1    3    3    0  502 -0.12049104584E+04  0.32842910144E+03  0.11082234943E+04  0.16696874830E+04  0.46999998093E+01 0.  1.
</event>
<event>
 5   0  0.6706080E-08  0.3302183E+04  0.7818609E-02  0.8162340E-01
        2   -1    0    0  501    0  0.00000000000E+00  0.00000000000E+00  0.24271403223E+04  0.24271403223E+04  0.25500000920E-02 0. -1.
       -2   -1    0    0    0  501  0.00000000000E+00  0.00000000000E+00 -0.11231746099E+04  0.11231746099E+04  0.25500000920E-02 0.  1.
    10030    2    1    2    0    0  0.00000000000E+00  0.00000000000E+00  0.13039657124E+04  0.35503149322E+04  0.33021825417E+04 0.  0.
        4    1    3    3  502    0 -0.14960587172E+04  0.55764332852E+03  0.19972876850E+03  0.16090528148E+04  0.12699999809E+01 0.  1.
       -4    1    3    3    0  502  0.14960587172E+04 -0.55764332852E+03  0.11042369440E+04  0.19412621174E+04  0.12699999809E+01 0. -1.
</event>
<event>
 5   0  0.6821287E-08  0.3302628E+04  0.7818609E-02  0.8162227E-01
        2   -1    0    0  501    0  0.00000000000E+00  0.00000000000E+00  0.23023955311E+04  0.23023955311E+04  0.25500000920E-02 0. -1.
       -2   -1    0    0    0  501  0.00000000000E+00  0.00000000000E+00 -0.11843481804E+04  0.11843481804E+04  0.25500000920E-02 0.  1.
    10030    2    1    2    0    0  0.00000000000E+00  0.00000000000E+00  0.11180473507E+04  0.34867437115E+04  0.33026280189E+04 0.  0.
        5    1    3    3  502    0  0.59857669220E+03 -0.87777931949E+03  0.18936269546E+04  0.21713211930E+04  0.46999998093E+01 0. -1.
       -5    1    3    3    0  502 -0.59857669220E+03  0.87777931949E+03 -0.77557960389E+03  0.13154225185E+04  0.46999998093E+01 0.  1.
</event>
<event>
 5   0  0.2309822E-08  0.3300500E+04  0.7818609E-02  0.8162768E-01
       -1   -1    0    0    0  501  0.00000000000E+00  0.00000000000E+00  0.25727823807E+04  0.25727823807E+04  0.50400001928E-02 0.  1.
        1   -1    0    0  501    0  0.00000000000E+00  0.00000000000E+00 -0.10585138416E+04  0.10585138416E+04  0.50400001928E-02 0. -1.
    10030    2    1    2    0    0  0.00000000000E+00  0.00000000000E+00  0.15142685391E+04  0.36312962223E+04  0.33005004235E+04 0.  0.
        4    1    3    3  502    0 -0.12463744785E+04 -0.21375543000E+03  0.19236765222E+04  0.23021020176E+04  0.12699999809E+01 0. -1.
       -4    1    3    3    0  502  0.12463744785E+04  0.21375543000E+03 -0.40940798307E+03  0.13291942047E+04  0.12699999809E+01 0.  1.
</event>
<event>
 5   0  0.6603516E-08  0.3298795E+04  0.7818609E-02  0.8163202E-01
        2   -1    0    0  501    0  0.00000000000E+00  0.00000000000E+00  0.27582812900E+04  0.27582812900E+04  0.25500000920E-02 0. -1.
       -2   -1    0    0    0  501  0.00000000000E+00  0.00000000000E+00 -0.98630695688E+03  0.98630695689E+03  0.25500000920E-02 0.  1.
    10030    2    1    2    0    0  0.00000000000E+00  0.00000000000E+00  0.17719743331E+04  0.37445882469E+04  0.32987949469E+04 0.  0.
        1    1    3    3  502    0 -0.13125236303E+04  0.99792193901E+03  0.93605627089E+03  0.18959872939E+04  0.50400001928E-02 0. -1.
       -1    1    3    3    0  502  0.13125236303E+04 -0.99792193901E+03  0.83591806225E+03  0.18486009530E+04  0.50400001928E-02 0.  1.
</event>
<event>
 5   0  0.2383270E-08  0.3299899E+04  0.7818609E-02  0.8162921E-01
       -1   -1    0    0    0  501  0.00000000000E+00  0.00000000000E+00  0.13914287562E+04  0.13914287562E+04  0.50400001928E-02 0. -1.
        1   -1    0    0  501    0  0.00000000000E+00  0.00000000000E+00 -0.19565025110E+04  0.19565025110E+04  0.50400001928E-02 0.  1.
    10030    2    1    2    0    0  0.00000000000E+00  0.00000000000E+00 -0.56507375473E+03  0.33479312672E+04  0.32998993048E+04 0.  0.
        5    1    3    3  502    0  0.72972212493E+03 -0.30784397353E+02  0.12184807796E+04  0.14206194279E+04  0.46999998093E+01 0. -1.
       -5    1    3    3    0  502 -0.72972212493E+03  0.30784397353E+02 -0.17835545343E+04  0.19273118393E+04  0.46999998093E+01 0.  1.
</event>
<event>
 5   0  0.2279938E-08  0.3299641E+04  0.7818609E-02  0.8162987E-01
        1   -1    0    0  501    0  0.00000000000E+00  0.00000000000E+00  0.12532243153E+04  0.12532243153E+04  0.50400001928E-02 0. -1.
       -1   -1    0    0    0  501  0.00000000000E+00  0.00000000000E+00 -0.21719239463E+04  0.21719239463E+04  0.50400001928E-02 0.  1.
    10030    2    1    2    0    0  0.00000000000E+00  0.00000000000E+00 -0.91869963098E+03  0.34251482617E+04  0.32996411324E+04 0.  0.
        3    1    3    3  502    0  0.12381075989E+04  0.98665510825E+03  0.22537544441E+02  0.15833214078E+04  0.10100000352E+00 0. -1.
       -3    1    3    3    0  502 -0.12381075989E+04 -0.98665510825E+03 -0.94123717542E+03  0.18418268539E+04  0.10100000352E+00 0.  1.
</event>
<event>
 5   0  0.2279938E-08  0.3301601E+04  0.7818609E-02  0.8162488E-01
        1   -1    0    0  501    0  0.00000000000E+00  0.00000000000E+00  0.94800193046E+03  0.94800193048E+03  0.50400001928E-02 0.  1.
       -1   -1    0    0    0  501  0.00000000000E+00  0.00000000000E+00 -0.28746161880E+04  0.28746161880E+04  0.50400001928E-02 0. -1.
    10030    2    1    2    0    0  0.00000000000E+00  0.00000000000E+00 -0.19266142575E+04  0.38226181185E+04  0.33016006394E+04 0.  0.
        3    1    3    3  502    0 -0.11515947728E+04 -0.67292653020E+02  0.40390762410E+03  0.12222275569E+04  0.10100000352E+00 0.  1.
       -3    1    3    3    0  502  0.11515947728E+04  0.67292653020E+02 -0.23305218816E+04  0.26003905616E+04  0.10100000352E+00 0. -1.
</event>
<event>
 5   0  0.2244093E-08  0.3299959E+04  0.7818609E-02  0.8162906E-01
        1   -1    0    0  501    0  0.00000000000E+00  0.00000000000E+00  0.24459908456E+04  0.24459908456E+04  0.50400001928E-02 0. -1.
       -1   -1    0    0    0  501  0.00000000000E+00  0.00000000000E+00 -0.11130183930E+04  0.11130183930E+04  0.50400001928E-02 0.  1.
    10030    2    1    2    0    0  0.00000000000E+00  0.00000000000E+00  0.13329724525E+04  0.35590092386E+04  0.32999592727E+04 0.  0.
        1    1    3    3  502    0 -0.51170725556E+03  0.63736864941E+03 -0.87932949842E+03  0.12005429928E+04  0.50400001928E-02 0.  1.
       -1    1    3    3    0  502  0.51170725556E+03 -0.63736864941E+03  0.22123019509E+04  0.23584662458E+04  0.50400001928E-02 0. -1.
</event>
<event>
 5   0  0.7084130E-08  0.3300856E+04  0.7818609E-02  0.8162678E-01
        2   -1    0    0  501    0  0.00000000000E+00  0.00000000000E+00  0.16784927076E+04  0.16784927076E+04  0.25500000920E-02 0. -1.
       -2   -1    0    0    0  501  0.00000000000E+00  0.00000000000E+00 -0.16228322521E+04  0.16228322521E+04  0.25500000920E-02 0.  1.
    10030    2    1    2    0    0  0.00000000000E+00  0.00000000000E+00  0.55660455502E+02  0.33013249597E+04  0.33008557077E+04 0.  0.
        3    1    3    3  502    0 -0.14701747292E+04 -0.62547571972E+03 -0.38608665022E+03  0.16436838266E+04  0.10100000352E+00 0. -1.
       -3    1    3    3    0  502  0.14701747292E+04  0.62547571972E+03  0.44174710572E+03  0.16576411330E+04  0.10100000352E+00 0.  1.
</event>
<event>
 5   0  0.2200750E-08  0.3298506E+04  0.7818609E-02  0.8163276E-01
       -3   -1    0    0    0  501  0.00000000000E+00  0.00000000000E+00  0.20568038872E+04  0.20568038897E+04  0.10100000352E+00 0.  1.
        3   -1    0    0  501    0  0.00000000000E+00  0.00000000000E+00 -0.13224572640E+04  0.13224572679E+04  0.10100000352E+00 0. -1.
    10030    2    1    2    0    0  0.00000000000E+00  0.00000000000E+00  0.73434662315E+03  0.33792611575E+04  0.32985058751E+04 0.  0.
        1    1    3    3  502    0  0.10232437718E+04  0.23585544567E+03 -0.93572487887E+03  0.14064980117E+04  0.50400001928E-02 0. -1.
       -1    1    3    3    0  502 -0.10232437718E+04 -0.23585544567E+03  0.16700715020E+04  0.19727631459E+04  0.50400001928E-02 0.  1.
</event>
<event>
 5   0  0.7084130E-08  0.3299426E+04  0.7818609E-02  0.8163041E-01
        2   -1    0    0  501    0  0.00000000000E+00  0.00000000000E+00  0.18807645812E+04  0.18807645812E+04  0.25500000920E-02 0. -1.
       -2   -1    0    0    0  501  0.00000000000E+00  0.00000000000E+00 -0.14470459172E+04  0.14470459172E+04  0.25500000920E-02 0.  1.
    10030    2    1    2    0    0  0.00000000000E+00  0.00000000000E+00  0.43371866402E+03  0.33278104983E+04  0.32994258339E+04 0.  0.
        3    1    3    3  502    0 -0.32556551771E+03 -0.74091886590E+02  0.18463291092E+04  0.18762765531E+04  0.10100000352E+00 0. -1.
       -3    1    3    3    0  502  0.32556551771E+03  0.74091886590E+02 -0.14126104452E+04  0.14515339452E+04  0.10100000352E+00 0.  1.
</event>
<event>
 5   0  0.6821287E-08  0.3291026E+04  0.7818609E-02  0.8165183E-01
        2   -1    0    0  501    0  0.00000000000E+00  0.00000000000E+00  0.23841478586E+04  0.23841478586E+04  0.25500000920E-02 0.  1.
       -2   -1    0    0    0  501  0.00000000000E+00  0.00000000000E+00 -0.11357150655E+04  0.11357150655E+04  0.25500000920E-02 0. -1.
    10030    2    1    2    0    0  0.00000000000E+00  0.00000000000E+00  0.12484327931E+04  0.35198629241E+04  0.32910257619E+04 0.  0.
        5    1    3    3  502    0 -0.13600744398E+04  0.28684573757E+03  0.15661395984E+04  0.20940148736E+04  0.46999998093E+01 0.  1.
       -5    1    3    3    0  502  0.13600744398E+04 -0.28684573757E+03 -0.31770680529E+03  0.14258480505E+04  0.46999998093E+01 0. -1.
</event>
<event>
 5   0  0.2291682E-08  0.3292457E+04  0.7818609E-02  0.8164817E-01
        1   -1    0    0  501    0  0.00000000000E+00  0.00000000000E+00  0.16640801176E+04  0.16640801176E+04  0.50400001928E-02 0. -1.
       -1   -1    0    0    0  501  0.00000000000E+00  0.00000000000E+00 -0.16285684001E+04  0.16285684001E+04  0.50400001928E-02 0.  1.
    10030    2    1    2    0    0  0.00000000000E+00  0.00000000000E+00  0.35511717482E+02  0.32926485177E+04  0.32924570125E+04 0.  0.
        2    1    3    3  502    0 -0.10254521185E+04  0.37593105772E+03  0.12495710181E+04  0.16596095736E+04  0.25500000920E-02 0. -1.
       -2    1    3    3    0  502  0.10254521185E+04 -0.37593105772E+03 -0.12140593006E+04  0.16330389441E+04  0.25500000920E-02 0.  1.
</event>
<event>
 5   0  0.2309822E-08  0.3297427E+04  0.7818609E-02  0.8163550E-01
       -1   -1    0    0    0  501  0.00000000000E+00  0.00000000000E+00  0.20197254598E+04  0.20197254599E+04  0.50400001928E-02 0.  1.
        1   -1    0    0  501    0  0.00000000000E+00  0.00000000000E+00 -0.13458543515E+04  0.13458543515E+04  0.50400001928E-02 0. -1.
    10030    2    1    2    0    0  0.00000000000E+00  0.00000000000E+00  0.67387110838E+03  0.33655798113E+04  0.32974270569E+04 0.  0.
        4    1    3    3  502    0  0.10924630226E+04 -0.33641572377E+03 -0.87573013320E+03  0.14399846784E+04  0.12699999809E+01 0. -1.
       -4    1    3    3    0  502 -0.10924630226E+04  0.33641572377E+03  0.15496012416E+04  0.19255951329E+04  0.12699999809E+01 0.  1.
</event>
<event>
 5   0  0.6765252E-08  0.3301644E+04  0.7818609E-02  0.8162477E-01
       -2   -1    0    0    0  501  0.00000000000E+00  0.00000000000E+00  0.22851064007E+04  0.22851064007E+04  0.25500000920E-02 0. -1.
        2   -1    0    0  501    0  0.00000000000E+00  0.00000000000E+00 -0.11925977629E+04  0.11925977629E+04  0.25500000920E-02 0.  1.
    10030    2    1    2    0    0  0.00000000000E+00  0.00000000000E+00  0.10925086379E+04  0.34777041636E+04  0.33016437006E+04 0.  0.
        2    1    3    3  502    0 -0.15761233939E+04  0.25801351415E+03  0.98623270636E+03  0.18770697582E+04  0.25500000920E-02 0.  1.
       -2    1    3    3    0  502  0.15761233939E+04 -0.25801351415E+03  0.10627593151E+03  0.16006344054E+04  0.25500000920E-02 0. -1.
</event>
<event>
 5   0  0.7084130E-08  0.3300209E+04  0.7818609E-02  0.8162842E-01
        2   -1    0    0  501    0  0.00000000000E+00  0.00000000000E+00  0.22328715672E+04  0.22328715672E+04  0.25500000920E-02 0.  1.
       -2   -1    0    0    0  501  0.00000000000E+00  0.00000000000E+00 -0.12194365734E+04  0.12194365734E+04  0.25500000920E-02 0. -1.
    10030    2    1    2    0    0  0.00000000000E+00  0.00000000000E+00  0.10134349939E+04  0.34523081406E+04  0.33002092375E+04 0.  0.
        3    1    3    3  502    0 -0.14597754735E+04 -0.39924629517E+03  0.11946767907E+04  0.19281065016E+04  0.10100000352E+00 0.  1.
       -3    1    3    3    0  502  0.14597754735E+04  0.39924629517E+03 -0.18124179684E+03  0.15242016390E+04  0.10100000352E+00 0. -1.
</event>
<event>
 5   0  0.2244093E-08  0.3302790E+04  0.7818609E-02  0.8162186E-01
        1   -1    0    0  501    0  0.00000000000E+00  0.00000000000E+00  0.21280659546E+04  0.21280659546E+04  0.50400001928E-02 0. -1.
       -1   -1    0    0    0  501  0.00000000000E+00  0.00000000000E+00 -0.12814948028E+04  0.12814948028E+04  0.50400001928E-02 0.  1.
    10030    2    1    2    0    0  0.00000000000E+00  0.00000000000E+00  0.84657115180E+03  0.34095607574E+04  0.33027900090E+04 0.  0.
        1    1    3    3  502    0  0.55552991162E+03 -0.26656364303E+03 -0.11583788024E+04  0.13120636830E+04  0.50400001928E-02 0.  1.
       -1    1    3    3    0  502 -0.55552991162E+03  0.26656364303E+03  0.20049499542E+04  0.20974970744E+04  0.50400001928E-02 0. -1.
</event>
<event>
 5   0  0.6821287E-08  0.3300367E+04  0.7818609E-02  0.8162802E-01
        2   -1    0    0  501    0  0.00000000000E+00  0.00000000000E+00  0.24988106014E+04  0.24988106014E+04  0.25500000920E-02 0.  1.
       -2   -1    0    0    0  501  0.00000000000E+00  0.00000000000E+00 -0.10897604613E+04  0.10897604613E+04  0.25500000920E-02 0. -1.
    10030    2    1    2    0    0  0.00000000000E+00  0.00000000000E+00  0.14090501400E+04  0.35885710627E+04  0.33003666425E+04 0.  0.
        5    1    3    3  502    0 -0.55249297365E+03  0.10100905807E+04 -0.58088963026E+03  0.12895682687E+04  0.46999998093E+01 0. -1.
       -5    1    3    3    0  502  0.55249297365E+03 -0.10100905807E+04  0.19899397703E+04  0.22990027939E+04  0.46999998093E+01 0.  1.
</event>
<event>
 5   0  0.2309822E-08  0.3299201E+04  0.7818609E-02  0.8163099E-01
        1   -1    0    0  501    0  0.00000000000E+00  0.00000000000E+00  0.20428723229E+04  0.20428723229E+04  0.50400001928E-02 0.  1.
       -1   -1    0    0    0  501  0.00000000000E+00  0.00000000000E+00 -0.13320373547E+04  0.13320373547E+04  0.50400001928E-02 0. -1.
    10030    2    1    2    0    0  0.00000000000E+00  0.00000000000E+00  0.71083496820E+03  0.33749096776E+04  0.32992012639E+04 0.  0.
        4    1    3    3  502    0  0.13778906781E+04 -0.74515483187E+03  0.88433395724E+03  0.17988570274E+04  0.12699999809E+01 0.  1.
       -4    1    3    3    0  502 -0.13778906781E+04  0.74515483187E+03 -0.17349898904E+03  0.15760526502E+04  0.12699999809E+01 0. -1.
</event>
<event>
 5   0  0.2383270E-08  0.3298924E+04  0.7818609E-02  0.8163169E-01
       -1   -1    0    0    0  501  0.00000000000E+00  0.00000000000E+00  0.10308824803E+04  0.10308824804E+04  0.50400001928E-02 0. -1.
        1   -1    0    0  501    0  0.00000000000E+00  0.00000000000E+00 -0.26392189026E+04  0.26392189026E+04  0.50400001928E-02 0.  1.
    10030    2    1    2    0    0  0.00000000000E+00  0.00000000000E+00 -0.16083364222E+04  0.36701013829E+04  0.32989237812E+04 0.  0.
        5    1    3    3  502    0  0.22365056960E+03 -0.93402760917E+03 -0.22960481279E+04  0.24888323060E+04  0.46999998093E+01 0.  1.
       -5    1    3    3    0  502 -0.22365056960E+03  0.93402760917E+03  0.68771170565E+03  0.11812690769E+04  0.46999998093E+01 0. -1.
</event>
<event>
 5   0  0.6765252E-08  0.3301573E+04  0.7818609E-02  0.8162495E-01
        2   -1    0    0  501    0  0.00000000000E+00  0.00000000000E+00  0.19604013884E+04  0.19604013884E+04  0.25500000920E-02 0.  1.
       -2   -1    0    0    0  501  0.00000000000E+00  0.00000000000E+00 -0.13900704426E+04  0.13900704426E+04  0.25500000920E-02 0. -1.
    10030    2    1    2    0    0  0.00000000000E+00  0.00000000000E+00  0.57033094574E+03  0.33504718310E+04  0.33015729740E+04 0.  0.
        2    1    3    3  502    0  0.30010599187E+03  0.10917877974E+04  0.15042196999E+04  0.18827482855E+04  0.25500000920E-02 0.  1.
       -2    1    3    3    0  502 -0.30010599187E+03 -0.10917877974E+04 -0.93388875419E+03  0.14677235455E+04  0.25500000920E-02 0. -1.
</event>
<event>
 5   0  0.2244093E-08  0.3289987E+04  0.7818609E-02  0.8165448E-01
       -1   -1    0    0    0  501  0.00000000000E+00  0.00000000000E+00  0.11711017612E+04  0.11711017612E+04  0.50400001928E-02 0. -1.
        1   -1    0    0  501    0  0.00000000000E+00  0.00000000000E+00 -0.23106480063E+04  0.23106480063E+04  0.50400001928E-02 0.  1.
    10030    2    1    2    0    0  0.00000000000E+00  0.00000000000E+00 -0.11395462451E+04  0.34817497676E+04  0.32899872035E+04 0.  0.
        1    1    3    3  502    0  0.18253455182E+03  0.11755376712E+04  0.63258044836E+03  0.13473550767E+04  0.50400001928E-02 0. -1.
       -1    1    3    3    0  502 -0.18253455182E+03 -0.11755376712E+04 -0.17721266934E+04  0.21343946909E+04  0.50400001928E-02 0.  1.
</event>
<event>
 5   0  0.2291682E-08  0.3300158E+04  0.7818609E-02  0.8162855E-01
        1   -1    0    0  501    0  0.00000000000E+00  0.00000000000E+00  0.22266619323E+04  0.22266619323E+04  0.50400001928E-02 0.  1.
       -1   -1    0    0    0  501  0.00000000000E+00  0.00000000000E+00 -0.12227995133E+04  0.12227995134E+04  0.50400001928E-02 0. -1.
    10030    2    1    2    0    0  0.00000000000E+00  0.00000000000E+00  0.10038624190E+04  0.34494614457E+04  0.33001582551E+04 0.  0.
        2    1    3    3  502    0 -0.21490830691E+03 -0.16221852455E+04  0.72388339222E+03  0.17893232566E+04  0.25500000920E-02 0.  1.
       -2    1    3    3    0  502  0.21490830691E+03  0.16221852455E+04  0.27997902676E+03  0.16601381890E+04  0.25500000920E-02 0. -1.
</event>
<event>
 5   0  0.6821287E-08  0.3299760E+04  0.7818609E-02  0.8162956E-01
       -2   -1    0    0    0  501  0.00000000000E+00  0.00000000000E+00  0.95648968592E+03  0.95648968592E+03  0.25500000920E-02 0. -1.
        2   -1    0    0  501    0  0.00000000000E+00  0.00000000000E+00 -0.28459321378E+04  0.28459321378E+04  0.25500000920E-02 0.  1.
    10030    2    1    2    0    0  0.00000000000E+00  0.00000000000E+00 -0.18894424519E+04  0.38024218238E+04  0.32997604378E+04 0.  0.
        5    1    3    3  502    0  0.14740596654E+04  0.70917833054E+02 -0.94645305987E+02  0.14788039289E+04  0.46999998093E+01 0. -1.
       -5    1    3    3    0  502 -0.14740596654E+04 -0.70917833054E+02 -0.17947971459E+04  0.23236178948E+04  0.46999998093E+01 0.  1.
</event>
<event>
 5   0  0.6706080E-08  0.3299300E+04  0.7818609E-02  0.8163073E-01
       -2   -1    0    0    0  501  0.00000000000E+00  0.00000000000E+00  0.13505832107E+04  0.13505832107E+04  0.25500000920E-02 0.  1.
        2   -1    0    0  501    0  0.00000000000E+00  0.00000000000E+00 -0.20149410702E+04  0.20149410702E+04  0.25500000920E-02 0. -1.
    10030    2    1    2    0    0  0.00000000000E+00  0.00000000000E+00 -0.66435785946E+03  0.33655242809E+04  0.32993002774E+04 0.  0.
        4    1    3    3  502    0  0.78136495675E+03  0.13324540888E+04 -0.92292213487E+03  0.17993754401E+04  0.12699999809E+01 0. -1.
       -4    1    3    3    0  502 -0.78136495675E+03 -0.13324540888E+04  0.25856427541E+03  0.15661488409E+04  0.12699999809E+01 0.  1.
</event>
<event>
 5   0  0.2291682E-08  0.3298807E+04  0.7818609E-02  0.8163199E-01
        1   -1    0    0  501    0  0.00000000000E+00  0.00000000000E+00  0.25483256472E+04  0.25483256472E+04  0.50400001928E-02 0. -1.
       -1   -1    0    0    0  501  0.00000000000E+00  0.00000000000E+00 -0.10675763586E+04  0.10675763587E+04  0.50400001928E-02 0.  1.
    10030    2    1    2    0    0  0.00000000000E+00  0.00000000000E+00  0.14807492886E+04  0.36159020059E+04  0.32988071875E+04 0.  0.
        2    1    3    3  502    0 -0.72737701289E+03  0.69884091636E+03  0.21708381052E+04  0.23937405926E+04  0.25500000920E-02 0. -1.
       -2    1    3    3    0  502  0.72737701289E+03 -0.69884091636E+03 -0.69008881669E+03  0.12221614133E+04  0.25500000920E-02 0.  1.
</event>
<event>
 5   0  0.2279938E-08  0.3301103E+04  0.7818609E-02  0.8162615E-01
        1   -1    0    0  501    0  0.00000000000E+00  0.00000000000E+00  0.15175337042E+04  0.15175337042E+04  0.50400001928E-02 0.  1.
       -1   -1    0    0    0  501  0.00000000000E+00  0.00000000000E+00 -0.17952293035E+04  0.17952293035E+04  0.50400001928E-02 0. -1.
    10030    2    1    2    0    0  0.00000000000E+00  0.00000000000E+00 -0.27769559930E+03  0.33127630077E+04  0.33011034367E+04 0.  0.
        3    1    3    3  502    0  0.18198361054E+03 -0.14290919054E+04 -0.94723582805E+03  0.17241454210E+04  0.10100000352E+00 0. -1.
       -3    1    3    3    0  502 -0.18198361054E+03  0.14290919054E+04  0.66954022875E+03  0.15886175867E+04  0.10100000352E+00 0.  1.
</event>
<event>
 5   0  0.2291682E-08  0.3300550E+04  0.7818609E-02  0.8162756E-01
       -1   -1    0    0    0  501  0.00000000000E+00  0.00000000000E+00  0.14631451561E+04  0.14631451561E+04  0.50400001928E-02 0. -1.
        1   -1    0    0  501    0  0.00000000000E+00  0.00000000000E+00 -0.18613376611E+04  0.18613376612E+04  0.50400001928E-02 0.  1.
    10030    2    1    2    0    0  0.00000000000E+00  0.00000000000E+00 -0.39819250507E+03  0.33244828172E+04  0.33005497619E+04 0.  0.
        2    1    3    3  502    0  0.14289396804E+04 -0.23486484165E+03  0.59808253924E+03  0.15667587012E+04  0.25500000920E-02 0. -1.
       -2    1    3    3    0  502 -0.14289396804E+04  0.23486484165E+03 -0.99627504431E+03  0.17577241160E+04  0.25500000920E-02 0.  1.
</event>
<event>
 5   0  0.7084130E-08  0.3300541E+04  0.7818609E-02  0.8162758E-01
       -2   -1    0    0    0  501  0.00000000000E+00  0.00000000000E+00  0.11097826111E+04  0.11097826111E+04  0.25500000920E-02 0. -1.
        2   -1    0    0  501    0  0.00000000000E+00  0.00000000000E+00 -0.24539877996E+04  0.24539877996E+04  0.25500000920E-02 0.  1.
    10030    2    1    2    0    0  0.00000000000E+00  0.00000000000E+00 -0.13442051885E+04  0.35637704107E+04  0.33005411603E+04 0.  0.
        3    1    3    3  502    0  0.13029172211E+04  0.81097901629E+03 -0.13272137295E+04  0.20289841162E+04  0.10100000352E+00 0.  1.
       -3    1    3    3    0  502 -0.13029172211E+04 -0.81097901629E+03 -0.16991458992E+02  0.15347862945E+04  0.10100000352E+00 0. -1.
</event>
<event>
 5   0  0.2200750E-08  0.3282725E+04  0.7818609E-02  0.8167305E-01
        3   -1    0    0  501    0  0.00000000000E+00  0.00000000000E+00  0.22558646021E+04  0.22558646044E+04  0.10100000352E+00 0.  1.
       -3   -1    0    0    0  501  0.00000000000E+00  0.00000000000E+00 -0.11942520271E+04  0.11942520314E+04  0.10100000352E+00 0. -1.
    10030    2    1    2    0    0  0.00000000000E+00  0.00000000000E+00  0.10616125750E+04  0.34501166357E+04  0.32827250175E+04 0.  0.
        2    1    3    3  502    0 -0.11467916984E+04 -0.10935885026E+04  0.98040950705E+03  0.18634027514E+04  0.25500000920E-02 0.  1.
       -2    1    3    3    0  502  0.11467916984E+04  0.10935885026E+04  0.81203067961E+02  0.15867138843E+04  0.25500000920E-02 0. -1.
</event>
<event>
 5   0  0.2309822E-08  0.3300675E+04  0.7818609E-02  0.8162724E-01
       -1   -1    0    0    0  501  0.00000000000E+00  0.00000000000E+00  0.13204439741E+04  0.13204439741E+04  0.50400001928E-02 0. -1.
        1   -1    0    0  501    0  0.00000000000E+00  0.00000000000E+00 -0.20626503411E+04  0.20626503412E+04  0.50400001928E-02 0.  1.
    10030    2    1    2    0    0  0.00000000000E+00  0.00000000000E+00 -0.74220636703E+03  0.33830943153E+04  0.33006752120E+04 0.  0.
        4    1    3    3  502    0  0.11818273820E+04 -0.32277040054E+03  0.76227303361E+03  0.14428993322E+04  0.12699999809E+01 0. -1.
       -4    1    3    3    0  502 -0.11818273820E+04  0.32277040054E+03 -0.15044794006E+04  0.19401949830E+04  0.12699999809E+01 0.  1.
</event>
<event>
 5   0  0.2279938E-08  0.3297512E+04  0.7818609E-02  0.8163529E-01
        1   -1    0    0  501    0  0.00000000000E+00  0.00000000000E+00  0.11763298657E+04  0.11763298657E+04  0.50400001928E-02 0.  1.
       -1   -1    0    0    0  501  0.00000000000E+00  0.00000000000E+00 -0.23109132958E+04  0.23109132958E+04  0.50400001928E-02 0. -1.
    10030    2    1    2    0    0  0.00000000000E+00  0.00000000000E+00 -0.11345834302E+04  0.34872431615E+04  0.32975119875E+04 0.  0.
        3    1    3    3  502    0 -0.45929541842E+03  0.34436329742E+03  0.10672311928E+04  0.12118253963E+04  0.10100000352E+00 0.  1.
       -3    1    3    3    0  502  0.45929541842E+03 -0.34436329742E+03 -0.22018146230E+04  0.22754177652E+04  0.10100000352E+00 0. -1.
</event>
<event>
 5   0  0.6603516E-08  0.3299275E+04  0.7818609E-02  0.8163080E-01
       -2   -1    0    0    0  501  0.00000000000E+00  0.00000000000E+00  0.21481324477E+04  0.21481324477E+04  0.25500000920E-02 0.  1.
        2   -1    0    0  501    0  0.00000000000E+00  0.00000000000E+00 -0.12668233841E+04  0.12668233841E+04  0.25500000920E-02 0. -1.
    10030    2    1    2    0    0  0.00000000000E+00  0.00000000000E+00  0.88130906363E+03  0.34149558318E+04  0.32992753246E+04 0.  0.
        1    1    3    3  502    0  0.67473904332E+03 -0.12481206381E+04  0.13117236609E+04  0.19322776370E+04  0.50400001928E-02 0.  1.
       -1    1    3    3    0  502 -0.67473904332E+03  0.12481206381E+04 -0.43041459722E+03  0.14826781948E+04  0.50400001928E-02 0. -1.
</event>
<event>
 5   0  0.2244093E-08  0.3302186E+04  0.7818609E-02  0.8162339E-01
        1   -1    0    0  501    0  0.00000000000E+00  0.00000000000E+00  0.20858971805E+04  0.20858971805E+04  0.50400001928E-02 0.  1.
       -1   -1    0    0    0  501  0.00000000000E+00  0.00000000000E+00 -0.13069235131E+04  0.13069235131E+04  0.50400001928E-02 0. -1.
    10030    2    1    2    0    0  0.00000000000E+00  0.00000000000E+00  0.77897366741E+03  0.33928206937E+04  0.33021859858E+04 0.  0.
        1    1    3    3  502    0  0.75889531112E+02  0.26696823800E+02 -0.13049086274E+04  0.13073861202E+04  0.50400001928E-02 0. -1.
       -1    1    3    3    0  502 -0.75889531112E+02 -0.26696823800E+02  0.20838822949E+04  0.20854345735E+04  0.50400001928E-02 0.  1.
</event>
<event>
 5   0  0.7084130E-08  0.3301345E+04  0.7818609E-02  0.8162553E-01
        2   -1    0    0  501    0  0.00000000000E+00  0.00000000000E+00  0.18794746050E+04  0.18794746050E+04  0.25500000920E-02 0.  1.
       -2   -1    0    0    0  501  0.00000000000E+00  0.00000000000E+00 -0.14497241499E+04  0.14497241499E+04  0.25500000920E-02 0. -1.
    10030    2    1    2    0    0  0.00000000000E+00  0.00000000000E+00  0.42975045512E+03  0.33291987549E+04  0.33013450131E+04 0.  0.
        3    1    3    3  502    0  0.47003574222E+02 -0.16499000834E+04  0.23347242206E+03  0.16670000009E+04  0.10100000352E+00 0. -1.
       -3    1    3    3    0  502 -0.47003574222E+02  0.16499000834E+04  0.19627803307E+03  0.16621987539E+04  0.10100000352E+00 0.  1.
</event>
<event>
 5   0  0.7084130E-08  0.3299106E+04  0.7818609E-02  0.8163123E-01
        2   -1    0    0  501    0  0.00000000000E+00  0.00000000000E+00  0.11327050022E+04  0.11327050022E+04  0.25500000920E-02 0.  1.
       -2   -1    0    0    0  501  0.00000000000E+00  0.00000000000E+00 -0.24022370495E+04  0.24022370495E+04  0.25500000920E-02 0. -1.
    10030    2    1    2    0    0  0.00000000000E+00  0.00000000000E+00 -0.12695320473E+04  0.35349420518E+04  0.32991064988E+04 0.  0.
        3    1    3    3  502    0  0.14755600473E+04  0.69993048799E+03 -0.38613131000E+03  0.16781768501E+04  0.10100000352E+00 0.  1.
       -3    1    3    3    0  502 -0.14755600473E+04 -0.69993048799E+03 -0.88340073732E+03  0.18567652017E+04  0.10100000352E+00 0. -1.
</event>
<event>
 5   0  0.6706080E-08  0.3299629E+04  0.7818609E-02  0.8162990E-01
       -2   -1    0    0    0  501  0.00000000000E+00  0.00000000000E+00  0.12964493868E+04  0.12964493868E+04  0.25500000920E-02 0. -1.
        2   -1    0    0  501    0  0.00000000000E+00  0.00000000000E+00 -0.20994935084E+04  0.20994935084E+04  0.25500000920E-02 0.  1.
    10030    2    1    2    0    0  0.00000000000E+00  0.00000000000E+00 -0.80304412159E+03  0.33959428952E+04  0.32996285073E+04 0.  0.
        4    1    3    3  502    0 -0.44814999404E+03  0.58602104509E+03 -0.19202745956E+04  0.20571133215E+04  0.12699999809E+01 0.  1.
       -4    1    3    3    0  502  0.44814999404E+03 -0.58602104509E+03  0.11172304740E+04  0.13388295737E+04  0.12699999809E+01 0. -1.
</event>
<event>
 5   0  0.2279938E-08  0.3297316E+04  0.7818609E-02  0.8163579E-01
       -1   -1    0    0    0  501  0.00000000000E+00  0.00000000000E+00  0.10772391109E+04  0.10772391109E+04  0.50400001928E-02 0. -1.
        1   -1    0    0  501    0  0.00000000000E+00  0.00000000000E+00 -0.25231841872E+04  0.25231841873E+04  0.50400001928E-02 0.  1.
    10030    2    1    2    0    0  0.00000000000E+00  0.00000000000E+00 -0.14459450764E+04  0.36004232982E+04  0.32973156904E+04 0.  0.
        3    1    3    3  502    0  0.32967145477E+03  0.12537579534E+04  0.38922770554E+03  0.13535473729E+04  0.10100000352E+00 0. -1.
       -3    1    3    3    0  502 -0.32967145477E+03 -0.12537579534E+04 -0.18351727819E+04  0.22468759252E+04  0.10100000352E+00 0.  1.
</event>
<event>
 5   0  0.6706080E-08  0.3300360E+04  0.7818609E-02  0.8162804E-01
        2   -1    0    0  501    0  0.00000000000E+00  0.00000000000E+00  0.15148911229E+04  0.15148911229E+04  0.25500000920E-02 0.  1.
       -2   -1    0    0    0  501  0.00000000000E+00  0.00000000000E+00 -0.17975511160E+04  0.17975511160E+04  0.25500000920E-02 0. -1.
    10030    2    1    2    0    0  0.00000000000E+00  0.00000000000E+00 -0.28265999309E+03  0.33124422390E+04  0.33003601190E+04 0.  0.
        4    1    3    3  502    0  0.12007073055E+04  0.11286884670E+04 -0.54660370196E+02  0.16488253570E+04  0.12699999809E+01 0. -1.
       -4    1    3    3    0  502 -0.12007073055E+04 -0.11286884670E+04 -0.22799962290E+03  0.16636168820E+04  0.12699999809E+01 0.  1.
</event>
<event>
 5   0  0.2383270E-08  0.3300366E+04  0.7818609E-02  0.8162802E-01
       -1   -1    0    0    0  501  0.00000000000E+00  0.00000000000E+00  0.18648316981E+04  0.18648316981E+04  0.50400001928E-02 0. -1.
        1   -1    0    0  501    0  0.00000000000E+00  0.00000000000E+00 -0.14602409019E+04  0.14602409020E+04  0.50400001928E-02 0.  1.
    10030    2    1    2    0    0  0.00000000000E+00  0.00000000000E+00  0.40459079612E+03  0.33250726000E+04  0.33003657499E+04 0.  0.
        5    1    3    3  502    0  0.13248777453E+04 -0.13933503990E+03 -0.77883578711E+03  0.15431534489E+04  0.46999998093E+01 0.  1.
       -5    1    3    3    0  502 -0.13248777453E+04  0.13933503990E+03  0.11834265832E+04  0.17819191512E+04  0.46999998093E+01 0. -1.
</event>
<event>
 5   0  0.6603516E-08  0.3299836E+04  0.7818609E-02  0.8162937E-01
       -2   -1    0    0    0  501  0.00000000000E+00  0.00000000000E+00  0.89719739535E+03  0.89719739535E+03  0.25500000920E-02 0.  1.
        2   -1    0    0  501    0  0.00000000000E+00  0.00000000000E+00 -0.30341484701E+04  0.30341484701E+04  0.25500000920E-02 0. -1.
    10030    2    1    2    0    0  0.00000000000E+00  0.00000000000E+00 -0.21369510747E+04  0.39313458654E+04  0.32998364229E+04 0.  0.
        1    1    3    3  502    0 -0.14821444427E+04  0.44520474874E+03 -0.38691820349E+03  0.15952006500E+04  0.50400001928E-02 0.  1.
       -1    1    3    3    0  502  0.14821444427E+04 -0.44520474874E+03 -0.17500328713E+04  0.23361452155E+04  0.50400001928E-02 0. -1.
</event>
<event>
 5   0  0.2291682E-08  0.3301769E+04  0.7818609E-02  0.8162445E-01
        1   -1    0    0  501    0  0.00000000000E+00  0.00000000000E+00  0.27814481294E+04  0.27814481294E+04  0.50400001928E-02 0. -1.
       -1   -1    0    0    0  501  0.00000000000E+00  0.00000000000E+00 -0.97985664629E+03  0.97985664631E+03  0.50400001928E-02 0.  1.
    10030    2    1    2    0    0  0.00000000000E+00  0.00000000000E+00  0.18015914831E+04  0.37613047757E+04  0.33017694868E+04 0.  0.
        2    1    3    3  502    0  0.78468881282E+02 -0.43475581509E+03  0.27128597369E+04  0.27485956298E+04  0.25500000920E-02 0. -1.
       -2    1    3    3    0  502 -0.78468881282E+02  0.43475581509E+03 -0.91126825373E+03  0.10127091460E+04  0.25500000920E-02 0.  1.
</event>
<event>
 5   0  0.6821287E-08  0.3300325E+04  0.7818609E-02  0.8162813E-01
        2   -1    0    0  501    0  0.00000000000E+00  0.00000000000E+00  0.22488145268E+04  0.22488145268E+04  0.25500000920E-02 0. -1.
       -2   -1    0    0    0  501  0.00000000000E+00  0.00000000000E+00 -0.12108766420E+04  0.12108766420E+04  0.25500000920E-02 0.  1.
    10030    2    1    2    0    0  0.00000000000E+00  0.00000000000E+00  0.10379378848E+04  0.34596911688E+04  0.33003254280E+04 0.  0.
        5    1    3    3  502    0  0.15639624417E+03 -0.10008033518E+04  0.18845415726E+04  0.21395294256E+04  0.46999998093E+01 0. -1.
       -5    1    3    3    0  502 -0.15639624417E+03  0.10008033518E+04 -0.84660368776E+03  0.13201617432E+04  0.46999998093E+01 0.  1.
</event>
<event>
 5   0  0.2279938E-08  0.3300467E+04  0.7818609E-02  0.8162777E-01
       -1   -1    0    0    0  501  0.00000000000E+00  0.00000000000E+00  0.17817775921E+04  0.17817775921E+04  0.50400001928E-02 0. -1.
        1   -1    0    0  501    0  0.00000000000E+00  0.00000000000E+00 -0.15284005117E+04  0.15284005117E+04  0.50400001928E-02 0.  1.
    10030    2    1    2    0    0  0.00000000000E+00  0.00000000000E+00  0.25337708037E+03  0.33101781038E+04  0.33004665025E+04 0.  0.
        3    1    3    3  502    0 -0.37759238026E+03 -0.44248432145E+03 -0.14221681852E+04  0.15365320490E+04  0.10100000352E+00 0.  1.
       -3    1    3    3    0  502  0.37759238026E+03  0.44248432145E+03  0.16755452656E+04  0.17736460548E+04  0.10100000352E+00 0. -1.
</event>
<event>
 5   0  0.2279938E-08  0.3283645E+04  0.7818609E-02  0.8167069E-01
        1   -1    0    0  501    0  0.00000000000E+00  0.00000000000E+00  0.22773019024E+04  0.22773019024E+04  0.50400001928E-02 0. -1.
       -1   -1    0    0    0  501  0.00000000000E+00  0.00000000000E+00 -0.11836731874E+04  0.11836731874E+04  0.50400001928E-02 0.  1.
    10030    2    1    2    0    0  0.00000000000E+00  0.00000000000E+00  0.10936287150E+04  0.34609750898E+04  0.32836450488E+04 0.  0.
        3    1    3    3  502    0  0.42354386652E+03 -0.15707498313E+04  0.77997746750E+03  0.18041644324E+04  0.10100000352E+00 0. -1.
       -3    1    3    3    0  502 -0.42354386652E+03  0.15707498313E+04  0.31365124747E+03  0.16568106574E+04  0.10100000352E+00 0.  1.
</event>
<event>
 5   0  0.2200750E-08  0.3296069E+04  0.7818609E-02  0.8163896E-01
        3   -1    0    0  501    0  0.00000000000E+00  0.00000000000E+00  0.21301760146E+04  0.21301760170E+04  0.10100000352E+00 0.  1.
       -3   -1    0    0    0  501  0.00000000000E+00  0.00000000000E+00 -0.12750205702E+04  0.12750205742E+04  0.10100000352E+00 0. -1.
    10030    2    1    2    0    0  0.00000000000E+00  0.00000000000E+00  0.85515544446E+03  0.34051965912E+04  0.32960693243E+04 0.  0.
        5    1    3    3  502    0 -0.71560171919E+03 -0.14832669057E+04  0.49151054647E+03  0.17186539039E+04  0.46999998093E+01 0. -1.
       -5    1    3    3    0  502  0.71560171919E+03  0.14832669057E+04  0.36364489799E+03  0.16865426873E+04  0.46999998093E+01 0.  1.
</event>
<event>
 5   0  0.2279938E-08  0.3297876E+04  0.7818609E-02  0.8163436E-01
        1   -1    0    0  501    0  0.00000000000E+00  0.00000000000E+00  0.21461079026E+04  0.21461079026E+04  0.50400001928E-02 0. -1.
       -1   -1    0    0    0  501  0.00000000000E+00  0.00000000000E+00 -0.12669427525E+04  0.12669427525E+04  0.50400001928E-02 0.  1.
    10030    2    1    2    0    0  0.00000000000E+00  0.00000000000E+00  0.87916515008E+03  0.34130506550E+04  0.32978755909E+04 0.  0.
        3    1    3    3  502    0  0.29774670014E+03 -0.46991372492E+03  0.20460579735E+04  0.21203361166E+04  0.10100000352E+00 0. -1.
       -3    1    3    3    0  502 -0.29774670014E+03  0.46991372492E+03 -0.11668928234E+04  0.12927145384E+04  0.10100000352E+00 0.  1.
</event>
<event>
 5   0  0.2291682E-08  0.3299900E+04  0.7818609E-02  0.8162921E-01
       -1   -1    0    0    0  501  0.00000000000E+00  0.00000000000E+00  0.29328575015E+04  0.29328575015E+04  0.50400001928E-02 0.  1.
        1   -1    0    0  501    0  0.00000000000E+00  0.00000000000E+00 -0.92821948836E+03  0.92821948837E+03  0.50400001928E-02 0. -1.
    10030    2    1    2    0    0  0.00000000000E+00  0.00000000000E+00  0.20046380132E+04  0.38610769899E+04  0.32999002952E+04 0.  0.
        2    1    3    3  502    0 -0.59326329522E+03  0.52002012976E+03 -0.69323822401E+03  0.10502197427E+04  0.25500000920E-02 0. -1.
       -2    1    3    3    0  502  0.59326329522E+03 -0.52002012976E+03  0.26978762372E+04  0.28108572471E+04  0.25500000920E-02 0.  1.
</event>
<event>
 5   0  0.2383270E-08  0.3300323E+04  0.7818609E-02  0.8162813E-01
       -1   -1    0    0    0  501  0.00000000000E+00  0.00000000000E+00  0.22508764618E+04  0.22508764619E+04  0.50400001928E-02 0. -1.
        1   -1    0    0  501    0  0.00000000000E+00  0.00000000000E+00 -0.12097657030E+04  0.12097657030E+04  0.50400001928E-02 0.  1.
    10030    2    1    2    0    0  0.00000000000E+00  0.00000000000E+00  0.10411107589E+04  0.34606421648E+04  0.33003231025E+04 0.  0.
        5    1    3    3  502    0 -0.16209745185E+04 -0.31501390865E+02  0.19828160892E+03  0.16333672011E+04  0.46999998093E+01 0.  1.
       -5    1    3    3    0  502  0.16209745185E+04  0.31501390865E+02  0.84282914995E+03  0.18272749637E+04  0.46999998093E+01 0. -1.
</event>
<event>
 5   0  0.6821287E-08  0.3300292E+04  0.7818609E-02  0.8162821E-01
        2   -1    0    0  501    0  0.00000000000E+00  0.00000000000E+00  0.17170712822E+04  0.17170712823E+04  0.25500000920E-02 0.  1.
       -2   -1    0    0    0  501  0.00000000000E+00  0.00000000000E+00 -0.15858287796E+04  0.15858287796E+04  0.25500000920E-02 0. -1.
    10030    2    1    2    0    0  0.00000000000E+00  0.00000000000E+00  0.13124250270E+03  0.33029000618E+04  0.33002915362E+04 0.  0.
        5    1    3    3  502    0 -0.12548562042E+04  0.93872663888E+03  0.58283449983E+03  0.16720017763E+04  0.46999998093E+01 0.  1.
       -5    1    3    3    0  502  0.12548562042E+04 -0.93872663888E+03 -0.45159199714E+03  0.16308982855E+04  0.46999998093E+01 0. -1.
</event>
<event>
 5   0  0.2200750E-08  0.3300053E+04  0.7818609E-02  0.8162882E-01
        3   -1    0    0  501    0  0.00000000000E+00  0.00000000000E+00  0.19319491259E+04  0.19319491285E+04  0.10100000352E+00 0.  1.
       -3   -1    0    0    0  501  0.00000000000E+00  0.00000000000E+00 -0.14092441671E+04  0.14092441707E+04  0.10100000352E+00 0. -1.
    10030    2    1    2    0    0  0.00000000000E+00  0.00000000000E+00  0.52270495876E+03  0.33411932992E+04  0.33000533615E+04 0.  0.
        2    1    3    3  502    0 -0.32664289298E+03 -0.31496748404E+03 -0.13448316277E+04  0.14193210357E+04  0.25500000920E-02 0. -1.
       -2    1    3    3    0  502  0.32664289298E+03  0.31496748404E+03  0.18675365865E+04  0.19218722635E+04  0.25500000920E-02 0.  1.
</event>
<event>
 5   0  0.6603516E-08  0.3300555E+04  0.7818609E-02  0.8162754E-01
        2   -1    0    0  501    0  0.00000000000E+00  0.00000000000E+00  0.13536866478E+04  0.13536866478E+04  0.25500000920E-02 0. -1.
       -2   -1    0    0    0  501  0.00000000000E+00  0.00000000000E+00 -0.20118514251E+04  0.20118514251E+04  0.25500000920E-02 0.  1.
    10030    2    1    2    0    0  0.00000000000E+00  0.00000000000E+00 -0.65816477733E+03  0.33655380729E+04  0.33005553542E+04 0.  0.
        1    1    3    3  502    0  0.83089967632E+03 -0.11009673947E+04  0.59478735872E+03  0.15020970270E+04  0.50400001928E-02 0. -1.
       -1    1    3    3    0  502 -0.83089967632E+03  0.11009673947E+04 -0.12529521360E+04  0.18634410459E+04  0.50400001928E-02 0.  1.
</event>
<event>
 5   0  0.2244093E-08  0.3296676E+04  0.7818609E-02  0.8163742E-01
       -1   -1    0    0    0  501  0.00000000000E+00  0.00000000000E+00  0.11199554590E+04  0.11199554590E+04  0.50400001928E-02 0.  1.
        1   -1    0    0  501    0  0.00000000000E+00  0.00000000000E+00 -0.24260054432E+04  0.24260054432E+04  0.50400001928E-02 0. -1.
    10030    2    1    2    0    0  0.00000000000E+00  0.00000000000E+00 -0.13060499842E+04  0.35459609023E+04  0.32966759257E+04 0.  0.
        1    1    3    3  502    0  0.73256718447E+03 -0.14756640493E+04 -0.70972719004E+03  0.17938650313E+04  0.50400001928E-02 0. -1.
       -1    1    3    3    0  502 -0.73256718447E+03  0.14756640493E+04 -0.59632279415E+03  0.17520958710E+04  0.50400001928E-02 0.  1.
</event>
<event>
 5   0  0.6706080E-08  0.3300171E+04  0.7818609E-02  0.8162852E-01
        2   -1    0    0  501    0  0.00000000000E+00  0.00000000000E+00  0.18371389593E+04  0.18371389593E+04  0.25500000920E-02 0. -1.
       -2   -1    0    0    0  501  0.00000000000E+00  0.00000000000E+00 -0.14820772065E+04  0.14820772065E+04  0.25500000920E-02 0.  1.
    10030    2    1    2    0    0  0.00000000000E+00  0.00000000000E+00  0.35506175277E+03  0.33192161658E+04  0.33001707694E+04 0.  0.
        4    1    3    3  502    0  0.13250120494E+04 -0.76532990009E+03  0.79866544089E+03  0.17260518203E+04  0.12699999809E+01 0. -1.
       -4    1    3    3    0  502 -0.13250120494E+04  0.76532990009E+03 -0.44360368812E+03  0.15931643456E+04  0.12699999809E+01 0.  1.
</event>
<event>
 5   0  0.7084130E-08  0.3299647E+04  0.7818609E-02  0.8162985E-01
       -2   -1    0    0    0  501  0.00000000000E+00  0.00000000000E+00  0.82562711856E+03  0.82562711857E+03  0.25500000920E-02 0. -1.
        2   -1    0    0  501    0  0.00000000000E+00  0.00000000000E+00 -0.32967889429E+04  0.32967889429E+04  0.25500000920E-02 0.  1.
    10030    2    1    2    0    0  0.00000000000E+00  0.00000000000E+00 -0.24711618243E+04  0.41224160614E+04  0.32996474693E+04 0.  0.
        3    1    3    3  502    0 -0.10107759522E+04  0.95820898335E+03 -0.23404517141E+04  0.27235173430E+04  0.10100000352E+00 0.  1.
       -3    1    3    3    0  502  0.10107759522E+04 -0.95820898335E+03 -0.13071011020E+03  0.13988987184E+04  0.10100000352E+00 0. -1.
</event>
<event>
 5   0  0.2279938E-08  0.3298861E+04  0.7818609E-02  0.8163185E-01
        1   -1    0    0  501    0  0.00000000000E+00  0.00000000000E+00  0.16436571804E+04  0.16436571804E+04  0.50400001928E-02 0. -1.
       -1   -1    0    0    0  501  0.00000000000E+00  0.00000000000E+00 -0.16552245879E+04  0.16552245879E+04  0.50400001928E-02 0.  1.
    10030    2    1    2    0    0  0.00000000000E+00  0.00000000000E+00 -0.11567407507E+02  0.32988817683E+04  0.32988614879E+04 0.  0.
        3    1    3    3  502    0 -0.37998708497E+03  0.10817296486E+04  0.11800113206E+04  0.16452829375E+04  0.10100000352E+00 0. -1.
       -3    1    3    3    0  502  0.37998708497E+03 -0.10817296486E+04 -0.11915787281E+04  0.16535988307E+04  0.10100000352E+00 0.  1.
</event>
<event>
 5   0  0.2383270E-08  0.3300948E+04  0.7818609E-02  0.8162654E-01
       -1   -1    0    0    0  501  0.00000000000E+00  0.00000000000E+00  0.18800228928E+04  0.18800228928E+04  0.50400001928E-02 0. -1.
        1   -1    0    0  501    0  0.00000000000E+00  0.00000000000E+00 -0.14489524434E+04  0.14489524434E+04  0.50400001928E-02 0.  1.
    10030    2    1    2    0    0  0.00000000000E+00  0.00000000000E+00  0.43107044936E+03  0.33289753362E+04  0.33009475998E+04 0.  0.
        5    1    3    3  502    0  0.78383524599E+03 -0.27661337838E+03  0.16535204272E+04  0.18506929910E+04  0.46999998093E+01 0. -1.
       -5    1    3    3    0  502 -0.78383524599E+03  0.27661337838E+03 -0.12224499778E+04  0.14782823452E+04  0.46999998093E+01 0.  1.
</event>
<event>
 5   0  0.2309822E-08  0.3298568E+04  0.7818609E-02  0.8163260E-01
       -1   -1    0    0    0  501  0.00000000000E+00  0.00000000000E+00  0.14259413656E+04  0.14259413656E+04  0.50400001928E-02 0. -1.
        1   -1    0    0  501    0  0.00000000000E+00  0.00000000000E+00 -0.19076079897E+04  0.19076079897E+04  0.50400001928E-02 0.  1.
    10030    2    1    2    0    0  0.00000000000E+00  0.00000000000E+00 -0.48166662407E+03  0.33335493554E+04  0.32985676540E+04 0.  0.
        4    1    3    3  502    0  0.27911748150E+03 -0.87778339388E+03  0.11417857684E+04  0.14669991850E+04  0.12699999809E+01 0. -1.
       -4    1    3    3    0  502 -0.27911748150E+03  0.87778339388E+03 -0.16234523924E+04  0.18665501704E+04  0.12699999809E+01 0.  1.
</event>
<event>
 5   0  0.7084130E-08  0.3301333E+04  0.7818609E-02  0.8162556E-01
        2   -1    0    0  501    0  0.00000000000E+00  0.00000000000E+00  0.17742516629E+04  0.17742516629E+04  0.25500000920E-02 0. -1.
       -2   -1    0    0    0  501  0.00000000000E+00  0.00000000000E+00 -0.15356899713E+04  0.15356899713E+04  0.25500000920E-02 0.  1.
    10030    2    1    2    0    0  0.00000000000E+00  0.00000000000E+00  0.23856169155E+03  0.33099416342E+04  0.33013333580E+04 0.  0.
        3    1    3    3  502    0 -0.10640874883E+04 -0.41557368461E+03 -0.10753447539E+04  0.15688690258E+04  0.10100000352E+00 0.  1.
       -3    1    3    3    0  502  0.10640874883E+04  0.41557368461E+03  0.13139064454E+04  0.17410726084E+04  0.10100000352E+00 0. -1.
</event>
<event>
 5   0  0.6765252E-08  0.3296967E+04  0.7818609E-02  0.8163668E-01
       -2   -1    0    0    0  501  0.00000000000E+00  0.00000000000E+00  0.19351698780E+04  0.19351698780E+04  0.25500000920E-02 0.  1.
        2   -1    0    0  501    0  0.00000000000E+00  0.00000000000E+00 -0.14042683404E+04  0.14042683404E+04  0.25500000920E-02 0. -1.
    10030    2    1    2    0    0  0.00000000000E+00  0.00000000000E+00  0.53090153764E+03  0.33394382184E+04  0.32969669655E+04 0.  0.
        2    1    3    3  502    0 -0.10195339192E+04  0.34158728795E+03 -0.10001923048E+04  0.14685080641E+04  0.25500000920E-02 0. -1.
       -2    1    3    3    0  502  0.10195339192E+04 -0.34158728795E+03  0.15310938424E+04  0.18709301543E+04  0.25500000920E-02 0.  1.
</event>
<event>
 5   0  0.7084130E-08  0.3302345E+04  0.7818609E-02  0.8162299E-01
        2   -1    0    0  501    0  0.00000000000E+00  0.00000000000E+00  0.21477571176E+04  0.21477571176E+04  0.25500000920E-02 0. -1.
       -2   -1    0    0    0  501  0.00000000000E+00  0.00000000000E+00 -0.12694034891E+04  0.12694034891E+04  0.25500000920E-02 0.  1.
    10030    2    1    2    0    0  0.00000000000E+00  0.00000000000E+00  0.87835362857E+03  0.34171606067E+04  0.33023448511E+04 0.  0.
        3    1    3    3  502    0  0.84340879978E+03 -0.31785599188E+03 -0.99239744859E+03  0.13406056621E+04  0.10100000352E+00 0.  1.
       -3    1    3    3    0  502 -0.84340879978E+03  0.31785599188E+03  0.18707510772E+04  0.20765549446E+04  0.10100000352E+00 0. -1.
</event>
<event>
 5   0  0.6765252E-08  0.3304284E+04  0.7818609E-02  0.8161806E-01
        2   -1    0    0  501    0  0.00000000000E+00  0.00000000000E+00  0.22677157222E+04  0.22677157222E+04  0.25500000920E-02 0.  1.
       -2   -1    0    0    0  501  0.00000000000E+00  0.00000000000E+00 -0.12036661658E+04  0.12036661658E+04  0.25500000920E-02 0. -1.
    10030    2    1    2    0    0  0.00000000000E+00  0.00000000000E+00  0.10640495563E+04  0.34713818880E+04  0.33042836976E+04 0.  0.
        2    1    3    3  502    0 -0.42314432408E+03  0.11181819747E+04  0.17299468952E+04  0.21028785766E+04  0.25500000920E-02 0.  1.
       -2    1    3    3    0  502  0.42314432408E+03 -0.11181819747E+04 -0.66589733885E+03  0.13685033115E+04  0.25500000920E-02 0. -1.
</event>
<event>
 5   0  0.7084130E-08  0.3298124E+04  0.7818609E-02  0.8163373E-01
       -2   -1    0    0    0  501  0.00000000000E+00  0.00000000000E+00  0.12652351112E+04  0.12652351112E+04  0.25500000920E-02 0. -1.
        2   -1    0    0  501    0  0.00000000000E+00  0.00000000000E+00 -0.21493282492E+04  0.21493282492E+04  0.25500000920E-02 0.  1.
    10030    2    1    2    0    0  0.00000000000E+00  0.00000000000E+00 -0.88409313806E+03  0.34145633604E+04  0.32981240525E+04 0.  0.
        3    1    3    3  502    0  0.14224345160E+04  0.18923417799E+03 -0.12833079541E+04  0.19250996966E+04  0.10100000352E+00 0.  1.
       -3    1    3    3    0  502 -0.14224345160E+04 -0.18923417799E+03  0.39921481602E+03  0.14894636639E+04  0.10100000352E+00 0. -1.
</event>
<event>
 5   0  0.6821287E-08  0.3300485E+04  0.7818609E-02  0.8162772E-01
        2   -1    0    0  501    0  0.00000000000E+00  0.00000000000E+00  0.23243924911E+04  0.23243924911E+04  0.25500000920E-02 0.  1.
       -2   -1    0    0    0  501  0.00000000000E+00  0.00000000000E+00 -0.11716178715E+04  0.11716178715E+04  0.25500000920E-02 0. -1.
    10030    2    1    2    0    0  0.00000000000E+00  0.00000000000E+00  0.11527746196E+04  0.34960103627E+04  0.33004846814E+04 0.  0.
        5    1    3    3  502    0 -0.68972081466E+03 -0.16086472413E+03 -0.10024459746E+04  0.12274006207E+04  0.46999998093E+01 0. -1.
       -5    1    3    3    0  502  0.68972081466E+03  0.16086472413E+03  0.21552205942E+04  0.22686097420E+04  0.46999998093E+01 0.  1.
</event>
<event>
 5   0  0.6706080E-08  0.3296849E+04  0.7818609E-02  0.8163698E-01
        2   -1    0    0  501    0  0.00000000000E+00  0.00000000000E+00  0.13703322606E+04  0.13703322606E+04  0.25500000920E-02 0.  1.
       -2   -1    0    0    0  501  0.00000000000E+00  0.00000000000E+00 -0.19829520176E+04  0.19829520176E+04  0.25500000920E-02 0. -1.
    10030    2    1    2    0    0  0.00000000000E+00  0.00000000000E+00 -0.61261975702E+03  0.33532842783E+04  0.32968488719E+04 0.  0.
        4    1    3    3  502    0  0.62340627208E+03  0.63669428677E+03  0.11042558451E+04  0.14189424158E+04  0.12699999809E+01 0.  1.
       -4    1    3    3    0  502 -0.62340627208E+03 -0.63669428677E+03 -0.17168756022E+04  0.19343418625E+04  0.12699999809E+01 0. -1.
</event>
<event>
 5   0  0.6706080E-08  0.3299722E+04  0.7818609E-02  0.8162966E-01
        2   -1    0    0  501    0  0.00000000000E+00  0.00000000000E+00  0.19375269346E+04  0.19375269346E+04  0.25500000920E-02 0. -1.
       -2   -1    0    0    0  501  0.00000000000E+00  0.00000000000E+00 -0.14049049742E+04  0.14049049742E+04  0.25500000920E-02 0.  1.
    10030    2    1    2    0    0  0.00000000000E+00  0.00000000000E+00  0.53262196041E+03  0.33424319087E+04  0.32997219446E+04 0.  0.
        4    1    3    3  502    0  0.12697897158E+04 -0.78069983338E+03 -0.45007820308E+03  0.15570581730E+04  0.12699999809E+01 0.  1.
       -4    1    3    3    0  502 -0.12697897158E+04  0.78069983338E+03  0.98270016349E+03  0.17853737358E+04  0.12699999809E+01 0. -1.
</event>
<event>
 5   0  0.2244093E-08  0.3299619E+04  0.7818609E-02  0.8162992E-01
        1   -1    0    0  501    0  0.00000000000E+00  0.00000000000E+00  0.16763390308E+04  0.16763390308E+04  0.50400001928E-02 0. -1.
       -1   -1    0    0    0  501  0.00000000000E+00  0.00000000000E+00 -0.16236995485E+04  0.16236995485E+04  0.50400001928E-02 0.  1.
    10030    2    1    2    0    0  0.00000000000E+00  0.00000000000E+00  0.52639482370E+02  0.33000385793E+04  0.32996187219E+04 0.  0.
        1    1    3    3  502    0 -0.13867584358E+04 -0.83513213486E+03  0.34467814539E+03  0.16550974793E+04  0.50400001928E-02 0. -1.
       -1    1    3    3    0  502  0.13867584358E+04  0.83513213486E+03 -0.29203866301E+03  0.16449411000E+04  0.50400001928E-02 0.  1.
</event>
<event>
 5   0  0.6765252E-08  0.3300330E+04  0.7818609E-02  0.8162811E-01
        2   -1    0    0  501    0  0.00000000000E+00  0.00000000000E+00  0.15351893771E+04  0.15351893771E+04  0.25500000920E-02 0. -1.
       -2   -1    0    0    0  501  0.00000000000E+00  0.00000000000E+00 -0.17737517257E+04  0.17737517257E+04  0.25500000920E-02 0.  1.
    10030    2    1    2    0    0  0.00000000000E+00  0.00000000000E+00 -0.23856234852E+03  0.33089411028E+04  0.33003301695E+04 0.  0.
        2    1    3    3  502    0  0.20306610179E+03 -0.63246830676E+03  0.13952204760E+04  0.15452806144E+04  0.25500000920E-02 0. -1.
       -2    1    3    3    0  502 -0.20306610179E+03  0.63246830676E+03 -0.16337828245E+04  0.17636604884E+04  0.25500000920E-02 0.  1.
</event>
<event>
 5   0  0.2383270E-08  0.3299714E+04  0.7818609E-02  0.8162968E-01
        1   -1    0    0  501    0  0.00000000000E+00  0.00000000000E+00  0.21216023777E+04  0.21216023777E+04  0.50400001928E-02 0.  1.
       -1   -1    0    0    0  501  0.00000000000E+00  0.00000000000E+00 -0.12830055845E+04  0.12830055845E+04  0.50400001928E-02 0. -1.
    10030    2    1    2    0    0  0.00000000000E+00  0.00000000000E+00  0.83859679322E+03  0.34046079622E+04  0.32997137444E+04 0.  0.
        5    1    3    3  502    0 -0.14053322150E+04 -0.84839946865E+03  0.58966956854E+03  0.17442684951E+04  0.46999998093E+01 0. -1.
       -5    1    3    3    0  502  0.14053322150E+04  0.84839946865E+03  0.24892722468E+03  0.16603394671E+04  0.46999998093E+01 0.  1.
</event>
<event>
 5   0  0.2309822E-08  0.3303426E+04  0.7818609E-02  0.8162024E-01
       -1   -1    0    0    0  501  0.00000000000E+00  0.00000000000E+00  0.99277370270E+03  0.99277370271E+03  0.50400001928E-02 0.  1.
        1   -1    0    0  501    0  0.00000000000E+00  0.00000000000E+00 -0.27480130688E+04  0.27480130688E+04  0.50400001928E-02 0. -1.
    10030    2    1    2    0    0  0.00000000000E+00  0.00000000000E+00 -0.17552393661E+04  0.37407867715E+04  0.33034255611E+04 0.  0.
        4    1    3    3  502    0 -0.83890300283E+03 -0.92358903244E+01  0.73353386971E+03  0.11144133438E+04  0.12699999809E+01 0.  1.
       -4    1    3    3    0  502  0.83890300283E+03  0.92358903244E+01 -0.24887732358E+04  0.26263734277E+04  0.12699999809E+01 0. -1.
</event>
<event>
 5   0  0.2383270E-08  0.3297505E+04  0.7818609E-02  0.8163531E-01
        1   -1    0    0  501    0  0.00000000000E+00  0.00000000000E+00  0.12906359941E+04  0.12906359941E+04  0.50400001928E-02 0. -1.
       -1   -1    0    0    0  501  0.00000000000E+00  0.00000000000E+00 -0.21062366788E+04  0.21062366788E+04  0.50400001928E-02 0.  1.
    10030    2    1    2    0    0  0.00000000000E+00  0.00000000000E+00 -0.81560068472E+03  0.33968726729E+04  0.32975050385E+04 0.  0.
        5    1    3    3  502    0 -0.13314198199E+04  0.66087616746E+03 -0.11426888115E+04  0.18748855579E+04  0.46999998093E+01 0.  1.
       -5    1    3    3    0  502  0.13314198199E+04 -0.66087616746E+03  0.32708812673E+03  0.15219871150E+04  0.46999998093E+01 0. -1.
</event>
<event>
 5   0  0.6603516E-08  0.3296451E+04  0.7818609E-02  0.8163799E-01
       -2   -1    0    0    0  501  0.00000000000E+00  0.00000000000E+00  0.12310714023E+04  0.12310714023E+04  0.25500000920E-02 0.  1.
        2   -1    0    0  501    0  0.00000000000E+00  0.00000000000E+00 -0.22067340418E+04  0.22067340418E+04  0.25500000920E-02 0. -1.
    10030    2    1    2    0    0  0.00000000000E+00  0.00000000000E+00 -0.97566263956E+03  0.34378054441E+04  0.32964509226E+04 0.  0.
        1    1    3    3  502    0 -0.11726023116E+04 -0.10477128102E+04  0.27259814550E+02  0.15727178422E+04  0.50400001928E-02 0.  1.
       -1    1    3    3    0  502  0.11726023116E+04  0.10477128102E+04 -0.10029224541E+04  0.18650876019E+04  0.50400001928E-02 0. -1.
</event>
<event>
 5   0  0.7084130E-08  0.3300908E+04  0.7818609E-02  0.8162664E-01
        2   -1    0    0  501    0  0.00000000000E+00  0.00000000000E+00  0.18486649622E+04  0.18486649622E+04  0.25500000920E-02 0.  1.
       -2   -1    0    0    0  501  0.00000000000E+00  0.00000000000E+00 -0.14734948435E+04  0.14734948435E+04  0.25500000920E-02 0. -1.
    10030    2    1    2    0    0  0.00000000000E+00  0.00000000000E+00  0.37517011873E+03  0.33221598057E+04  0.33009079291E+04 0.  0.
        3    1    3    3  502    0 -0.70024715637E+03 -0.34159271732E+03 -0.12767623158E+04  0.14957117656E+04  0.10100000352E+00 0. -1.
       -3    1    3    3    0  502  0.70024715637E+03  0.34159271732E+03  0.16519324345E+04  0.18264480401E+04  0.10100000352E+00 0.  1.
</event>
<event>
 5   0  0.6821287E-08  0.3299559E+04  0.7818609E-02  0.8163008E-01
        2   -1    0    0  501    0  0.00000000000E+00  0.00000000000E+00  0.16758151112E+04  0.16758151112E+04  0.25500000920E-02 0. -1.
       -2   -1    0    0    0  501  0.00000000000E+00  0.00000000000E+00 -0.16241482210E+04  0.16241482210E+04  0.25500000920E-02 0.  1.
    10030    2    1    2    0    0  0.00000000000E+00  0.00000000000E+00  0.51666890180E+02  0.32999633321E+04  0.32995588381E+04 0.  0.
        5    1    3    3  502    0 -0.90952018126E+03  0.13745500829E+04 -0.45835306951E+02  0.16488595622E+04  0.46999998093E+01 0.  1.
       -5    1    3    3    0  502  0.90952018126E+03 -0.13745500829E+04  0.97502197132E+02  0.16511037699E+04  0.46999998093E+01 0. -1.
</event>
<event>
 5   0  0.2383270E-08  0.3297592E+04  0.7818609E-02  0.8163508E-01
       -1   -1    0    0    0  501  0.00000000000E+00  0.00000000000E+00  0.15435218795E+04  0.15435218795E+04  0.50400001928E-02 0. -1.
        1   -1    0    0  501    0  0.00000000000E+00  0.00000000000E+00 -0.17612505304E+04  0.17612505304E+04  0.50400001928E-02 0.  1.
    10030    2    1    2    0    0  0.00000000000E+00  0.00000000000E+00 -0.21772865086E+03  0.33047724099E+04  0.32975922907E+04 0.  0.
        5    1    3    3  502    0 -0.10462352021E+04 -0.74159314384E+03 -0.11474306398E+04  0.17208101732E+04  0.46999998093E+01 0.  1.
       -5    1    3    3    0  502  0.10462352021E+04  0.74159314384E+03  0.92970198890E+03  0.15839622367E+04  0.46999998093E+01 0. -1.
</event>
<event>
 5   0  0.7084130E-08  0.3299141E+04  0.7818609E-02  0.8163114E-01
       -2   -1    0    0    0  501  0.00000000000E+00  0.00000000000E+00  0.13932620848E+04  0.13932620848E+04  0.25500000920E-02 0. -1.
        2   -1    0    0  501    0  0.00000000000E+00  0.00000000000E+00 -0.19530301925E+04  0.19530301925E+04  0.25500000920E-02 0.  1.
    10030    2    1    2    0    0  0.00000000000E+00  0.00000000000E+00 -0.55976810769E+03  0.33462922772E+04  0.32991410504E+04 0.  0.
        3    1    3    3  502    0  0.13743730321E+04  0.87678901439E+03 -0.24446144095E+02  0.16304164595E+04  0.10100000352E+00 0. -1.
       -3    1    3    3    0  502 -0.13743730321E+04 -0.87678901439E+03 -0.53532196359E+03  0.17158758178E+04  0.10100000352E+00 0.  1.
</event>
<event>
 5   0  0.6706080E-08  0.3299411E+04  0.7818609E-02  0.8163045E-01
       -2   -1    0    0    0  501  0.00000000000E+00  0.00000000000E+00  0.14453407015E+04  0.14453407015E+04  0.25500000920E-02 0.  1.
        2   -1    0    0  501    0  0.00000000000E+00  0.00000000000E+00 -0.18829661601E+04  0.18829661601E+04  0.25500000920E-02 0. -1.
    10030    2    1    2    0    0  0.00000000000E+00  0.00000000000E+00 -0.43762545866E+03  0.33283068616E+04  0.32994106327E+04 0.  0.
        4    1    3    3  502    0  0.34933935152E+03  0.15928326478E+04  0.33118781944E+02  0.16310279866E+04  0.12699999809E+01 0.  1.
       -4    1    3    3    0  502 -0.34933935152E+03 -0.15928326478E+04 -0.47074424060E+03  0.16972788750E+04  0.12699999809E+01 0. -1.
</event>
<event>
 5   0  0.6821287E-08  0.3303575E+04  0.7818609E-02  0.8161986E-01
       -2   -1    0    0    0  501  0.00000000000E+00  0.00000000000E+00  0.13855037436E+04  0.13855037436E+04  0.25500000920E-02 0.  1.
        2   -1    0    0  501    0  0.00000000000E+00  0.00000000000E+00 -0.19692489475E+04  0.19692489475E+04  0.25500000920E-02 0. -1.
    10030    2    1    2    0    0  0.00000000000E+00  0.00000000000E+00 -0.58374520382E+03  0.33547526911E+04  0.33035749054E+04 0.  0.
        5    1    3    3  502    0  0.10654173743E+03 -0.79742966103E+03  0.11730896192E+04  0.14224649559E+04  0.46999998093E+01 0.  1.
       -5    1    3    3    0  502 -0.10654173743E+03  0.79742966103E+03 -0.17568348230E+04  0.19322877352E+04  0.46999998093E+01 0. -1.
</event>
<event>
 5   0  0.2383270E-08  0.3298756E+04  0.7818609E-02  0.8163212E-01
        1   -1    0    0  501    0  0.00000000000E+00  0.00000000000E+00  0.13342930375E+04  0.13342930375E+04  0.50400001928E-02 0. -1.
       -1   -1    0    0    0  501  0.00000000000E+00  0.00000000000E+00 -0.20388689192E+04  0.20388689192E+04  0.50400001928E-02 0.  1.
    10030    2    1    2    0    0  0.00000000000E+00  0.00000000000E+00 -0.70457588171E+03  0.33731619568E+04  0.32987564950E+04 0.  0.
        5    1    3    3  502    0 -0.12188507215E+04 -0.11112279716E+04 -0.35090568433E+03  0.16862922568E+04  0.46999998093E+01 0.  1.
       -5    1    3    3    0  502  0.12188507215E+04  0.11112279716E+04 -0.35367019737E+03  0.16868696999E+04  0.46999998093E+01 0. -1.
</event>
<event>
 5   0  0.7084130E-08  0.3299730E+04  0.7818609E-02  0.8162964E-01
        2   -1    0    0  501    0  0.00000000000E+00  0.00000000000E+00  0.16694585965E+04  0.16694585965E+04  0.25500000920E-02 0. -1.
       -2   -1    0    0    0  501  0.00000000000E+00  0.00000000000E+00 -0.16305012315E+04  0.16305012315E+04  0.25500000920E-02 0.  1.
    10030    2    1    2    0    0  0.00000000000E+00  0.00000000000E+00  0.38957364974E+02  0.32999598280E+04  0.32997298662E+04 0.  0.
        3    1    3    3  502    0 -0.42892949630E+03  0.99997608949E+03 -0.12208180518E+04  0.16353377077E+04  0.10100000352E+00 0.  1.
       -3    1    3    3    0  502  0.42892949630E+03 -0.99997608949E+03  0.12597754168E+04  0.16646221203E+04  0.10100000352E+00 0. -1.
</event>
<event>
 5   0  0.6603516E-08  0.3304438E+04  0.7818609E-02  0.8161767E-01
        2   -1    0    0  501    0  0.00000000000E+00  0.00000000000E+00  0.23380043012E+04  0.23380043012E+04  0.25500000920E-02 0.  1.
       -2   -1    0    0    0  501  0.00000000000E+00  0.00000000000E+00 -0.11675886858E+04  0.11675886858E+04  0.25500000920E-02 0. -1.
    10030    2    1    2    0    0  0.00000000000E+00  0.00000000000E+00  0.11704156154E+04  0.35055929870E+04  0.33044378460E+04 0.  0.
        1    1    3    3  502    0  0.26012012264E+03  0.16182074535E+04  0.80664743150E+03  0.18267287482E+04  0.50400001928E-02 0.  1.
       -1    1    3    3    0  502 -0.26012012264E+03 -0.16182074535E+04  0.36376818387E+03  0.16788642388E+04  0.50400001928E-02 0. -1.
</event>
<event>
 5   0  0.6706080E-08  0.3301070E+04  0.7818609E-02  0.8162623E-01
       -2   -1    0    0    0  501  0.00000000000E+00  0.00000000000E+00  0.14913797264E+04  0.14913797264E+04  0.25500000920E-02 0.  1.
        2   -1    0    0  501    0  0.00000000000E+00  0.00000000000E+00 -0.18266750189E+04  0.18266750189E+04  0.25500000920E-02 0. -1.
    10030    2    1    2    0    0  0.00000000000E+00  0.00000000000E+00 -0.33529529250E+03  0.33180547453E+04  0.33010701840E+04 0.  0.
        4    1    3    3  502    0 -0.69848607046E+03 -0.11623994583E+04  0.77804877432E+03  0.15634630790E+04  0.12699999809E+01 0.  1.
       -4    1    3    3    0  502  0.69848607046E+03  0.11623994583E+04 -0.11133440668E+04  0.17545916663E+04  0.12699999809E+01 0. -1.
</event>
<event>
 5   0  0.6603516E-08  0.3299989E+04  0.7818609E-02  0.8162898E-01
       -2   -1    0    0    0  501  0.00000000000E+00  0.00000000000E+00  0.16699534716E+04  0.16699534716E+04  0.25500000920E-02 0. -1.
        2   -1    0    0  501    0  0.00000000000E+00  0.00000000000E+00 -0.16302736264E+04  0.16302736264E+04  0.25500000920E-02 0.  1.
    10030    2    1    2    0    0  0.00000000000E+00  0.00000000000E+00  0.39679845215E+02  0.33002270979E+04  0.32999885466E+04 0.  0.
        1    1    3    3  502    0 -0.52821082814E+03 -0.15630218339E+04 -0.10701947167E+01  0.16498621389E+04  0.50400001928E-02 0. -1.
       -1    1    3    3    0  502  0.52821082814E+03  0.15630218339E+04  0.40750039932E+02  0.16503649590E+04  0.50400001928E-02 0.  1.
</event>
<event>
 5   0  0.7084130E-08  0.3298418E+04  0.7818609E-02  0.8163298E-01
        2   -1    0    0  501    0  0.00000000000E+00  0.00000000000E+00  0.20929916927E+04  0.20929916927E+04  0.25500000920E-02 0. -1.
       -2   -1    0    0    0  501  0.00000000000E+00  0.00000000000E+00 -0.12995229223E+04  0.12995229223E+04  0.25500000920E-02 0.  1.
    10030    2    1    2    0    0  0.00000000000E+00  0.00000000000E+00  0.79346877041E+03  0.33925146150E+04  0.32984182153E+04 0.  0.
        3    1    3    3  502    0  0.11419602799E+04  0.13336183518E+03  0.16128491602E+04  0.19806920719E+04  0.10100000352E+00 0. -1.
       -3    1    3    3    0  502 -0.11419602799E+04 -0.13336183518E+03 -0.81938038977E+03  0.14118225431E+04  0.10100000352E+00 0.  1.
</event>
<event>
 5   0  0.6765252E-08  0.3298518E+04  0.7818609E-02  0.8163273E-01
        2   -1    0    0  501    0  0.00000000000E+00  0.00000000000E+00  0.15150093568E+04  0.15150093568E+04  0.25500000920E-02 0. -1.
       -2   -1    0    0    0  501  0.00000000000E+00  0.00000000000E+00 -0.17954047184E+04  0.17954047184E+04  0.25500000920E-02 0.  1.
    10030    2    1    2    0    0  0.00000000000E+00  0.00000000000E+00 -0.28039536159E+03  0.33104140751E+04  0.32985178172E+04 0.  0.
        2    1    3    3  502    0 -0.62163602617E+03  0.12127830811E+04  0.79201224042E+03  0.15762479309E+04  0.25500000920E-02 0. -1.
       -2    1    3    3    0  502  0.62163602617E+03 -0.12127830811E+04 -0.10724076020E+04  0.17341661442E+04  0.25500000920E-02 0.  1.
</event>
<event>
 5   0  0.6603516E-08  0.3294857E+04  0.7818609E-02  0.8164205E-01
        2   -1    0    0  501    0  0.00000000000E+00  0.00000000000E+00  0.21567341016E+04  0.21567341016E+04  0.25500000920E-02 0.  1.
       -2   -1    0    0    0  501  0.00000000000E+00  0.00000000000E+00 -0.12583938921E+04  0.12583938921E+04  0.25500000920E-02 0. -1.
    10030    2    1    2    0    0  0.00000000000E+00  0.00000000000E+00  0.89834020953E+03  0.34151279938E+04  0.32948572172E+04 0.  0.
        1    1    3    3  502    0  0.44227325418E+03  0.34103572026E+03 -0.11572784932E+04  0.12849920251E+04  0.50400001928E-02 0. -1.
       -1    1    3    3    0  502 -0.44227325418E+03 -0.34103572026E+03  0.20556187027E+04  0.21301359686E+04  0.50400001928E-02 0.  1.
</event>
<event>
 5   0  0.6765252E-08  0.3300470E+04  0.7818609E-02  0.8162776E-01
        2   -1    0    0  501    0  0.00000000000E+00  0.00000000000E+00  0.19597920832E+04  0.19597920832E+04  0.25500000920E-02 0. -1.
       -2   -1    0    0    0  501  0.00000000000E+00  0.00000000000E+00 -0.13895738886E+04  0.13895738886E+04  0.25500000920E-02 0.  1.
    10030    2    1    2    0    0  0.00000000000E+00  0.00000000000E+00  0.57021819461E+03  0.33493659718E+04  0.33004702125E+04 0.  0.
        2    1    3    3  502    0 -0.89900652073E+03  0.13031799815E+04 -0.18739058209E+03  0.15942415183E+04  0.25500000920E-02 0.  1.
       -2    1    3    3    0  502  0.89900652073E+03 -0.13031799815E+04  0.75760877671E+03  0.17551244534E+04  0.25500000920E-02 0. -1.
</event>
<event>
 5   0  0.2244093E-08  0.3314150E+04  0.7818609E-02  0.8159304E-01
       -1   -1    0    0    0  501  0.00000000000E+00  0.00000000000E+00  0.11675477762E+04  0.11675477762E+04  0.50400001928E-02 0. -1.
        1   -1    0    0  501    0  0.00000000000E+00  0.00000000000E+00 -0.23518498444E+04  0.23518498444E+04  0.50400001928E-02 0.  1.
    10030    2    1    2    0    0  0.00000000000E+00  0.00000000000E+00 -0.11843020682E+04  0.35193976206E+04  0.33141496984E+04 0.  0.
        1    1    3    3  502    0 -0.14396387605E+04 -0.61374025504E+03 -0.11705477963E+04  0.19543333914E+04  0.50400001928E-02 0.  1.
       -1    1    3    3    0  502  0.14396387605E+04  0.61374025504E+03 -0.13754271905E+02  0.15650642292E+04  0.50400001928E-02 0. -1.
</event>
<event>
 5   0  0.2291682E-08  0.3299512E+04  0.7818609E-02  0.8163019E-01
       -1   -1    0    0    0  501  0.00000000000E+00  0.00000000000E+00  0.17513331110E+04  0.17513331110E+04  0.50400001928E-02 0.  1.
        1   -1    0    0  501    0  0.00000000000E+00  0.00000000000E+00 -0.15540706138E+04  0.15540706138E+04  0.50400001928E-02 0. -1.
    10030    2    1    2    0    0  0.00000000000E+00  0.00000000000E+00  0.19726249717E+03  0.33054037248E+04  0.32995122808E+04 0.  0.
        2    1    3    3  502    0  0.80316799621E+03 -0.32991673098E+03  0.15039087391E+04  0.17365671237E+04  0.25500000920E-02 0.  1.
       -2    1    3    3    0  502 -0.80316799621E+03  0.32991673098E+03 -0.13066462419E+04  0.15688366011E+04  0.25500000920E-02 0. -1.
</event>
<event>
 5   0  0.2309822E-08  0.3299950E+04  0.7818609E-02  0.8162908E-01
       -1   -1    0    0    0  501  0.00000000000E+00  0.00000000000E+00  0.20827431127E+04  0.20827431127E+04  0.50400001928E-02 0. -1.
        1   -1    0    0  501    0  0.00000000000E+00  0.00000000000E+00 -0.13071306599E+04  0.13071306599E+04  0.50400001928E-02 0.  1.
    10030    2    1    2    0    0  0.00000000000E+00  0.00000000000E+00  0.77561245272E+03  0.33898737726E+04  0.32999499265E+04 0.  0.
        4    1    3    3  502    0 -0.39989849430E+03 -0.12359542488E+04  0.14328351713E+04  0.19340423863E+04  0.12699999809E+01 0. -1.
       -4    1    3    3    0  502  0.39989849430E+03  0.12359542488E+04 -0.65722271860E+03  0.14558313864E+04  0.12699999809E+01 0.  1.
</event>
<event>
 5   0  0.2383270E-08  0.3298713E+04  0.7818609E-02  0.8163223E-01
       -1   -1    0    0    0  501  0.00000000000E+00  0.00000000000E+00  0.14196956409E+04  0.14196956409E+04  0.50400001928E-02 0.  1.
        1   -1    0    0  501    0  0.00000000000E+00  0.00000000000E+00 -0.19161686916E+04  0.19161686916E+04  0.50400001928E-02 0. -1.
    10030    2    1    2    0    0  0.00000000000E+00  0.00000000000E+00 -0.49647305076E+03  0.33358643325E+04  0.32987126815E+04 0.  0.
        5    1    3    3  502    0 -0.10535355440E+04 -0.73738246517E+03 -0.12926724998E+04  0.18233744334E+04  0.46999998093E+01 0. -1.
       -5    1    3    3    0  502  0.10535355440E+04  0.73738246517E+03  0.79619944906E+03  0.15124898992E+04  0.46999998093E+01 0.  1.
</event>
<event>
 5   0  0.7084130E-08  0.3300871E+04  0.7818609E-02  0.8162674E-01
        2   -1    0    0  501    0  0.00000000000E+00  0.00000000000E+00  0.21305552470E+04  0.21305552470E+04  0.25500000920E-02 0.  1.
       -2   -1    0    0    0  501  0.00000000000E+00  0.00000000000E+00 -0.12785106585E+04  0.12785106585E+04  0.25500000920E-02 0. -1.
    10030    2    1    2    0    0  0.00000000000E+00  0.00000000000E+00  0.85204458856E+03  0.34090659055E+04  0.33008711528E+04 0.  0.
        3    1    3    3  502    0  0.50917734793E+03  0.89881707407E+03 -0.90333699942E+03  0.13722796541E+04  0.10100000352E+00 0. -1.
       -3    1    3    3    0  502 -0.50917734793E+03 -0.89881707407E+03  0.17553815880E+04  0.20367862514E+04  0.10100000352E+00 0.  1.
</event>
<event>
 5   0  0.7084130E-08  0.3299946E+04  0.7818609E-02  0.8162909E-01
        2   -1    0    0  501    0  0.00000000000E+00  0.00000000000E+00  0.10935258125E+04  0.10935258125E+04  0.25500000920E-02 0.  1.
       -2   -1    0    0    0  501  0.00000000000E+00  0.00000000000E+00 -0.24895713685E+04  0.24895713685E+04  0.25500000920E-02 0. -1.
    10030    2    1    2    0    0  0.00000000000E+00  0.00000000000E+00 -0.13960455560E+04  0.35830971811E+04  0.32999457896E+04 0.  0.
        3    1    3    3  502    0  0.14212214392E+04  0.10279583274E+03  0.20520318574E+03  0.14396338841E+04  0.10100000352E+00 0.  1.
       -3    1    3    3    0  502 -0.14212214392E+04 -0.10279583274E+03 -0.16012487417E+04  0.21434632970E+04  0.10100000352E+00 0. -1.
</event>
<event>
 5   0  0.2279938E-08  0.3299755E+04  0.7818609E-02  0.8162958E-01
        1   -1    0    0  501    0  0.00000000000E+00  0.00000000000E+00  0.27194265983E+04  0.27194265983E+04  0.50400001928E-02 0.  1.
       -1   -1    0    0    0  501  0.00000000000E+00  0.00000000000E+00 -0.10009814007E+04  0.10009814007E+04  0.50400001928E-02 0. -1.
    10030    2    1    2    0    0  0.00000000000E+00  0.00000000000E+00  0.17184451976E+04  0.37204079989E+04  0.32997548063E+04 0.  0.
        3    1    3    3  502    0  0.73731163828E+03  0.14500332652E+04  0.54866267599E+03  0.17167573108E+04  0.10100000352E+00 0. -1.
       -3    1    3    3    0  502 -0.73731163828E+03 -0.14500332652E+04  0.11697825216E+04  0.20036506881E+04  0.10100000352E+00 0.  1.
</event>
<event>
 5   0  0.2309822E-08  0.3302710E+04  0.7818609E-02  0.8162206E-01
       -1   -1    0    0    0  501  0.00000000000E+00  0.00000000000E+00  0.13877211869E+04  0.13877211869E+04  0.50400001928E-02 0.  1.
        1   -1    0    0  501    0  0.00000000000E+00  0.00000000000E+00 -0.19650726976E+04  0.19650726976E+04  0.50400001928E-02 0. -1.
    10030    2    1    2    0    0  0.00000000000E+00  0.00000000000E+00 -0.57735151075E+03  0.33527938845E+04  0.33027098063E+04 0.  0.
        4    1    3    3  502    0 -0.31863990430E+03  0.88427462599E+03 -0.16670203972E+04  0.19137480556E+04  0.12699999809E+01 0. -1.
       -4    1    3    3    0  502  0.31863990430E+03 -0.88427462599E+03  0.10896688864E+04  0.14390458289E+04  0.12699999809E+01 0.  1.
</event>
<event>
 5   0  0.2383270E-08  0.3302408E+04  0.7818609E-02  0.8162283E-01
       -1   -1    0    0    0  501  0.00000000000E+00  0.00000000000E+00  0.14413836827E+04  0.14413836827E+04  0.50400001928E-02 0. -1.
        1   -1    0    0  501    0  0.00000000000E+00  0.00000000000E+00 -0.18915672149E+04  0.18915672149E+04  0.50400001928E-02 0.  1.
    10030    2    1    2    0    0  0.00000000000E+00  0.00000000000E+00 -0.45018353215E+03  0.33329508976E+04  0.33024076782E+04 0.  0.
        5    1    3    3  502    0 -0.13257634980E+04  0.86081956087E+03  0.25659895793E+03  0.16014132147E+04  0.46999998093E+01 0.  1.
       -5    1    3    3    0  502  0.13257634980E+04 -0.86081956087E+03 -0.70678249008E+03  0.17315376829E+04  0.46999998093E+01 0. -1.
</event>
<event>
 5   0  0.6706080E-08  0.3301613E+04  0.7818609E-02  0.8162485E-01
        2   -1    0    0  501    0  0.00000000000E+00  0.00000000000E+00  0.21456618014E+04  0.21456618014E+04  0.25500000920E-02 0.  1.
       -2   -1    0    0    0  501  0.00000000000E+00  0.00000000000E+00 -0.12700798224E+04  0.12700798224E+04  0.25500000920E-02 0. -1.
    10030    2    1    2    0    0  0.00000000000E+00  0.00000000000E+00  0.87558197907E+03  0.34157416238E+04  0.33016127935E+04 0.  0.
        4    1    3    3  502    0  0.15955306676E+04 -0.38015825155E+03  0.24445762673E+03  0.16583122600E+04  0.12699999809E+01 0.  1.
       -4    1    3    3    0  502 -0.15955306676E+04  0.38015825155E+03  0.63112435234E+03  0.17574293638E+04  0.12699999809E+01 0. -1.
</event>
<event>
 5   0  0.6706080E-08  0.3298991E+04  0.7818609E-02  0.8163152E-01
        2   -1    0    0  501    0  0.00000000000E+00  0.00000000000E+00  0.25313305031E+04  0.25313305031E+04  0.25500000920E-02 0. -1.
       -2   -1    0    0    0  501  0.00000000000E+00  0.00000000000E+00 -0.10748640502E+04  0.10748640502E+04  0.25500000920E-02 0.  1.
    10030    2    1    2    0    0  0.00000000000E+00  0.00000000000E+00  0.14564664529E+04  0.36061945533E+04  0.32989914562E+04 0.  0.
        4    1    3    3  502    0 -0.67186376935E+03  0.55775697747E+03 -0.80148730402E+03  0.11852751925E+04  0.12699999809E+01 0.  1.
       -4    1    3    3    0  502  0.67186376935E+03 -0.55775697747E+03  0.22579537569E+04  0.24209193608E+04  0.12699999809E+01 0. -1.
</event>
<event>
 5   0  0.7084130E-08  0.3299459E+04  0.7818609E-02  0.8163033E-01
       -2   -1    0    0    0  501  0.00000000000E+00  0.00000000000E+00  0.14984701604E+04  0.14984701604E+04  0.25500000920E-02 0. -1.
        2   -1    0    0  501    0  0.00000000000E+00  0.00000000000E+00 -0.18162570367E+04  0.18162570367E+04  0.25500000920E-02 0.  1.
    10030    2    1    2    0    0  0.00000000000E+00  0.00000000000E+00 -0.31778687632E+03  0.33147271971E+04  0.32994587272E+04 0.  0.
        3    1    3    3  502    0 -0.11671233021E+04 -0.54215407419E+03  0.87811344562E+03  0.15579445035E+04  0.10100000352E+00 0. -1.
       -3    1    3    3    0  502  0.11671233021E+04  0.54215407419E+03 -0.11959003219E+04  0.17567826936E+04  0.10100000352E+00 0.  1.
</event>
<event>
 5   0  0.2244093E-08  0.3297153E+04  0.7818609E-02  0.8163620E-01
       -1   -1    0    0    0  501  0.00000000000E+00  0.00000000000E+00  0.87823549695E+03  0.87823549696E+03  0.50400001928E-02 0.  1.
        1   -1    0    0  501    0  0.00000000000E+00  0.00000000000E+00 -0.30946200220E+04  0.30946200220E+04  0.50400001928E-02 0. -1.
    10030    2    1    2    0    0  0.00000000000E+00  0.00000000000E+00 -0.22163845251E+04  0.39728555190E+04  0.32971534104E+04 0.  0.
        1    1    3    3  502    0 -0.11503587062E+04 -0.77019934655E+03 -0.29608539159E+02  0.13847053304E+04  0.50400001928E-02 0.  1.
       -1    1    3    3    0  502  0.11503587062E+04  0.77019934655E+03 -0.21867759859E+04  0.25881501886E+04  0.50400001928E-02 0. -1.
</event>
<event>
 5   0  0.6706080E-08  0.3300387E+04  0.7818609E-02  0.8162797E-01
        2   -1    0    0  501    0  0.00000000000E+00  0.00000000000E+00  0.21165733417E+04  0.21165733417E+04  0.25500000920E-02 0.  1.
       -2   -1    0    0    0  501  0.00000000000E+00  0.00000000000E+00 -0.12865785036E+04  0.12865785036E+04  0.25500000920E-02 0. -1.
    10030    2    1    2    0    0  0.00000000000E+00  0.00000000000E+00  0.82999483812E+03  0.34031518453E+04  0.33003865002E+04 0.  0.
        4    1    3    3  502    0 -0.10071952196E+04 -0.13030340608E+04  0.52213738334E+03  0.17277062928E+04  0.12699999809E+01 0. -1.
       -4    1    3    3    0  502  0.10071952196E+04  0.13030340608E+04  0.30785745477E+03  0.16754455525E+04  0.12699999809E+01 0.  1.
</event>
<event>
 5   0  0.2309822E-08  0.3300385E+04  0.7818609E-02  0.8162797E-01
        1   -1    0    0  501    0  0.00000000000E+00  0.00000000000E+00  0.21278309759E+04  0.21278309760E+04  0.50400001928E-02 0.  1.
       -1   -1    0    0    0  501  0.00000000000E+00  0.00000000000E+00 -0.12797704851E+04  0.12797704851E+04  0.50400001928E-02 0. -1.
    10030    2    1    2    0    0  0.00000000000E+00  0.00000000000E+00  0.84806049082E+03  0.34076014611E+04  0.33003849960E+04 0.  0.
        4    1    3    3  502    0  0.92760189629E+02  0.44962101024E+03  0.20605679107E+04  0.21110910054E+04  0.12699999809E+01 0.  1.
       -4    1    3    3    0  502 -0.92760189629E+02 -0.44962101024E+03 -0.12125074199E+04  0.12965104557E+04  0.12699999809E+01 0. -1.
</event>
<event>
 5   0  0.6603516E-08  0.3302200E+04  0.7818609E-02  0.8162336E-01
       -2   -1    0    0    0  501  0.00000000000E+00  0.00000000000E+00  0.10964264434E+04  0.10964264434E+04  0.25500000920E-02 0.  1.
        2   -1    0    0  501    0  0.00000000000E+00  0.00000000000E+00 -0.24863780175E+04  0.24863780175E+04  0.25500000920E-02 0. -1.
    10030    2    1    2    0    0  0.00000000000E+00  0.00000000000E+00 -0.13899515741E+04  0.35828044609E+04  0.33021996346E+04 0.  0.
        1    1    3    3  502    0  0.61148206997E+03 -0.13737295166E+04  0.44948214133E+02  0.15043481807E+04  0.50400001928E-02 0.  1.
       -1    1    3    3    0  502 -0.61148206997E+03  0.13737295166E+04 -0.14348997882E+04  0.20784562803E+04  0.50400001928E-02 0. -1.
</event>
<event>
 5   0  0.6821287E-08  0.3298927E+04  0.7818609E-02  0.8163168E-01
        2   -1    0    0  501    0  0.00000000000E+00  0.00000000000E+00  0.25221772869E+04  0.25221772869E+04  0.25500000920E-02 0. -1.
       -2   -1    0    0    0  501  0.00000000000E+00  0.00000000000E+00 -0.10787225967E+04  0.10787225967E+04  0.25500000920E-02 0.  1.
    10030    2    1    2    0    0  0.00000000000E+00  0.00000000000E+00  0.14434546902E+04  0.36008998835E+04  0.32989268753E+04 0.  0.
        5    1    3    3  502    0  0.68264673722E+03 -0.11214291965E+04  0.18116788575E+04  0.22373672884E+04  0.46999998093E+01 0.  1.
       -5    1    3    3    0  502 -0.68264673722E+03  0.11214291965E+04 -0.36822416732E+03  0.13635325951E+04  0.46999998093E+01 0. -1.
</event>
<event>
 5   0  0.2244093E-08  0.3299555E+04  0.7818609E-02  0.8163009E-01
        1   -1    0    0  501    0  0.00000000000E+00  0.00000000000E+00  0.16248162759E+04  0.16248162759E+04  0.50400001928E-02 0. -1.
       -1   -1    0    0    0  501  0.00000000000E+00  0.00000000000E+00 -0.16751217332E+04  0.16751217332E+04  0.50400001928E-02 0.  1.
    10030    2    1    2    0    0  0.00000000000E+00  0.00000000000E+00 -0.50305457276E+02  0.32999380091E+04  0.32995545495E+04 0.  0.
        1    1    3    3  502    0  0.48784842811E+03  0.34841200881E+03  0.15120288357E+04  0.16265356488E+04  0.50400001928E-02 0. -1.
       -1    1    3    3    0  502 -0.48784842811E+03 -0.34841200881E+03 -0.15623342930E+04  0.16734023604E+04  0.50400001928E-02 0.  1.
</event>
<event>
 5   0  0.2244093E-08  0.3298467E+04  0.7818609E-02  0.8163286E-01
       -1   -1    0    0    0  501  0.00000000000E+00  0.00000000000E+00  0.15516135556E+04  0.15516135557E+04  0.50400001928E-02 0. -1.
        1   -1    0    0  501    0  0.00000000000E+00  0.00000000000E+00 -0.17529952782E+04  0.17529952782E+04  0.50400001928E-02 0.  1.
    10030    2    1    2    0    0  0.00000000000E+00  0.00000000000E+00 -0.20138172256E+03  0.33046088339E+04  0.32984670601E+04 0.  0.
        1    1    3    3  502    0 -0.12207215431E+04  0.38371220003E+03  0.94171519203E+03  0.15887805516E+04  0.50400001928E-02 0. -1.
       -1    1    3    3    0  502  0.12207215431E+04 -0.38371220003E+03 -0.11430969146E+04  0.17158282823E+04  0.50400001928E-02 0.  1.
</event>
<event>
 5   0  0.2309822E-08  0.3302820E+04  0.7818609E-02  0.8162178E-01
        1   -1    0    0  501    0  0.00000000000E+00  0.00000000000E+00  0.78155293621E+03  0.78155293623E+03  0.50400001928E-02 0. -1.
       -1   -1    0    0    0  501  0.00000000000E+00  0.00000000000E+00 -0.34894059807E+04  0.34894059807E+04  0.50400001928E-02 0.  1.
    10030    2    1    2    0    0  0.00000000000E+00  0.00000000000E+00 -0.27078530445E+04  0.42709589169E+04  0.33028203038E+04 0.  0.
        4    1    3    3  502    0  0.15276650256E+04  0.59562261684E+03 -0.16080745553E+04  0.22966131847E+04  0.12699999809E+01 0. -1.
       -4    1    3    3    0  502 -0.15276650256E+04 -0.59562261684E+03 -0.10997784892E+04  0.19743457322E+04  0.12699999809E+01 0.  1.
</event>
<event>
 5   0  0.6706080E-08  0.3299382E+04  0.7818609E-02  0.8163053E-01
       -2   -1    0    0    0  501  0.00000000000E+00  0.00000000000E+00  0.15016447871E+04  0.15016447871E+04  0.25500000920E-02 0.  1.
        2   -1    0    0  501    0  0.00000000000E+00  0.00000000000E+00 -0.18123324956E+04  0.18123324956E+04  0.25500000920E-02 0. -1.
    10030    2    1    2    0    0  0.00000000000E+00  0.00000000000E+00 -0.31068770848E+03  0.33139772827E+04  0.32993815447E+04 0.  0.
        4    1    3    3  502    0 -0.14938366198E+03 -0.40827393091E+03 -0.17537589237E+04  0.18068411819E+04  0.12699999809E+01 0. -1.
       -4    1    3    3    0  502  0.14938366198E+03  0.40827393091E+03  0.14430712152E+04  0.15071361008E+04  0.12699999809E+01 0.  1.
</event>
<event>
 5   0  0.2244093E-08  0.3293413E+04  0.7818609E-02  0.8164574E-01
        1   -1    0    0  501    0  0.00000000000E+00  0.00000000000E+00  0.14234654517E+04  0.14234654517E+04  0.50400001928E-02 0.  1.
       -1   -1    0    0    0  501  0.00000000000E+00  0.00000000000E+00 -0.19049580521E+04  0.19049580521E+04  0.50400001928E-02 0. -1.
    10030    2    1    2    0    0  0.00000000000E+00  0.00000000000E+00 -0.48149260034E+03  0.33284235038E+04  0.32934128038E+04 0.  0.
        1    1    3    3  502    0  0.15990934036E+04  0.37681147275E+03 -0.35398822668E+03  0.16805934262E+04  0.50400001928E-02 0.  1.
       -1    1    3    3    0  502 -0.15990934036E+04 -0.37681147275E+03 -0.12750437366E+03  0.16478300776E+04  0.50400001928E-02 0. -1.
</event>
<event>
 5   0  0.6603516E-08  0.3300505E+04  0.7818609E-02  0.8162767E-01
        2   -1    0    0  501    0  0.00000000000E+00  0.00000000000E+00  0.22059145383E+04  0.22059145383E+04  0.25500000920E-02 0. -1.
       -2   -1    0    0    0  501  0.00000000000E+00  0.00000000000E+00 -0.12345599045E+04  0.12345599045E+04  0.25500000920E-02 0.  1.
    10030    2    1    2    0    0  0.00000000000E+00  0.00000000000E+00  0.97135463385E+03  0.34404744428E+04  0.33005051988E+04 0.  0.
        1    1    3    3  502    0  0.25667573357E+03  0.73068674822E+03 -0.10333618250E+04  0.12913644790E+04  0.50400001928E-02 0.  1.
       -1    1    3    3    0  502 -0.25667573357E+03 -0.73068674822E+03  0.20047164589E+04  0.21491099638E+04  0.50400001928E-02 0. -1.
</event>
<event>
 5   0  0.2383270E-08  0.3300294E+04  0.7818609E-02  0.8162821E-01
        1   -1    0    0  501    0  0.00000000000E+00  0.00000000000E+00  0.19684308324E+04  0.19684308325E+04  0.50400001928E-02 0.  1.
       -1   -1    0    0    0  501  0.00000000000E+00  0.00000000000E+00 -0.13833274099E+04  0.13833274099E+04  0.50400001928E-02 0. -1.
    10030    2    1    2    0    0  0.00000000000E+00  0.00000000000E+00  0.58510342259E+03  0.33517582423E+04  0.33002935172E+04 0.  0.
        5    1    3    3  502    0  0.58218111435E+03 -0.15093282408E+04  0.62313597205E+03  0.17335879320E+04  0.46999998093E+01 0.  1.
       -5    1    3    3    0  502 -0.58218111435E+03  0.15093282408E+04 -0.38032549452E+02  0.16181703103E+04  0.46999998093E+01 0. -1.
</event>
<event>
 5   0  0.7084130E-08  0.3296089E+04  0.7818609E-02  0.8163891E-01
       -2   -1    0    0    0  501  0.00000000000E+00  0.00000000000E+00  0.13664848131E+04  0.13664848131E+04  0.25500000920E-02 0. -1.
        2   -1    0    0  501    0  0.00000000000E+00  0.00000000000E+00 -0.19876188252E+04  0.19876188252E+04  0.25500000920E-02 0.  1.
    10030    2    1    2    0    0  0.00000000000E+00  0.00000000000E+00 -0.62113401215E+03  0.33541036383E+04  0.32960891607E+04 0.  0.
        3    1    3    3  502    0 -0.80335520974E+03 -0.48552071402E+03  0.10678752429E+04  0.14217832118E+04  0.10100000352E+00 0. -1.
       -3    1    3    3    0  502  0.80335520974E+03  0.48552071402E+03 -0.16890092550E+04  0.19323204265E+04  0.10100000352E+00 0.  1.
</event>
<event>
 5   0  0.2244093E-08  0.3300110E+04  0.7818609E-02  0.8162868E-01
        1   -1    0    0  501    0  0.00000000000E+00  0.00000000000E+00  0.16176726405E+04  0.16176726405E+04  0.50400001928E-02 0.  1.
       -1   -1    0    0    0  501  0.00000000000E+00  0.00000000000E+00 -0.16830851673E+04  0.16830851673E+04  0.50400001928E-02 0. -1.
    10030    2    1    2    0    0  0.00000000000E+00  0.00000000000E+00 -0.65412526838E+02  0.33007578078E+04  0.33001095901E+04 0.  0.
        1    1    3    3  502    0 -0.67656339314E+03 -0.76641709521E+03 -0.13281624459E+04  0.16760515122E+04  0.50400001928E-02 0. -1.
       -1    1    3    3    0  502  0.67656339314E+03  0.76641709521E+03  0.12627499191E+04  0.16247062956E+04  0.50400001928E-02 0.  1.
</event>
<event>
 5   0  0.2383270E-08  0.3299745E+04  0.7818609E-02  0.8162960E-01
       -1   -1    0    0    0  501  0.00000000000E+00  0.00000000000E+00  0.11402034189E+04  0.11402034189E+04  0.50400001928E-02 0. -1.
        1   -1    0    0  501    0  0.00000000000E+00  0.00000000000E+00 -0.23873631720E+04  0.23873631720E+04  0.50400001928E-02 0.  1.
    10030    2    1    2    0    0  0.00000000000E+00  0.00000000000E+00 -0.12471597531E+04  0.35275665910E+04  0.32997452332E+04 0.  0.
        5    1    3    3  502    0 -0.21790685920E+03  0.16354124963E+04 -0.62396341999E+03  0.17639188960E+04  0.46999998093E+01 0. -1.
       -5    1    3    3    0  502  0.21790685920E+03 -0.16354124963E+04 -0.62319633311E+03  0.17636476949E+04  0.46999998093E+01 0.  1.
</event>
<event>
 5   0  0.6821287E-08  0.3298934E+04  0.7818609E-02  0.8163167E-01
        2   -1    0    0  501    0  0.00000000000E+00  0.00000000000E+00  0.18024636840E+04  0.18024636840E+04  0.25500000920E-02 0. -1.
       -2   -1    0    0    0  501  0.00000000000E+00  0.00000000000E+00 -0.15094573268E+04  0.15094573268E+04  0.25500000920E-02 0.  1.
    10030    2    1    2    0    0  0.00000000000E+00  0.00000000000E+00  0.29300635719E+03  0.33119210108E+04  0.32989343819E+04 0.  0.
        5    1    3    3  502    0  0.10870744780E+04 -0.29169297325E+03 -0.10640230132E+04  0.15488649954E+04  0.46999998093E+01 0.  1.
       -5    1    3    3    0  502 -0.10870744780E+04  0.29169297325E+03  0.13570293704E+04  0.17630560154E+04  0.46999998093E+01 0. -1.
</event>
<event>
 5   0  0.2244093E-08  0.3299559E+04  0.7818609E-02  0.8163008E-01
        1   -1    0    0  501    0  0.00000000000E+00  0.00000000000E+00  0.23082669705E+04  0.23082669705E+04  0.50400001928E-02 0.  1.
       -1   -1    0    0    0  501  0.00000000000E+00  0.00000000000E+00 -0.11791413024E+04  0.11791413024E+04  0.50400001928E-02 0. -1.
    10030    2    1    2    0    0  0.00000000000E+00  0.00000000000E+00  0.11291256681E+04  0.34874082729E+04  0.32995593172E+04 0.  0.
        1    1    3    3  502    0  0.51238875611E+03  0.10083278231E+04 -0.70485799495E+03  0.13327010277E+04  0.50400001928E-02 0. -1.
       -1    1    3    3    0  502 -0.51238875611E+03 -0.10083278231E+04  0.18339836631E+04  0.21547072452E+04  0.50400001928E-02 0.  1.
</event>
<event>
 5   0  0.2383270E-08  0.3298669E+04  0.7818609E-02  0.8163234E-01
        1   -1    0    0  501    0  0.00000000000E+00  0.00000000000E+00  0.14684955571E+04  0.14684955571E+04  0.50400001928E-02 0. -1.
       -1   -1    0    0    0  501  0.00000000000E+00  0.00000000000E+00 -0.18524429323E+04  0.18524429323E+04  0.50400001928E-02 0.  1.
    10030    2    1    2    0    0  0.00000000000E+00  0.00000000000E+00 -0.38394737521E+03  0.33209384895E+04  0.32986689534E+04 0.  0.
        5    1    3    3  502    0  0.41826089263E+03  0.32697109133E+03 -0.17640630621E+04  0.18422249716E+04  0.46999998093E+01 0.  1.
       -5    1    3    3    0  502 -0.41826089263E+03 -0.32697109133E+03  0.13801156869E+04  0.14787135179E+04  0.46999998093E+01 0. -1.
</event>
<event>
 5   0  0.2279938E-08  0.3303508E+04  0.7818609E-02  0.8162003E-01
       -1   -1    0    0    0  501  0.00000000000E+00  0.00000000000E+00  0.15740580517E+04  0.15740580517E+04  0.50400001928E-02 0.  1.
        1   -1    0    0  501    0  0.00000000000E+00  0.00000000000E+00 -0.17332846019E+04  0.17332846019E+04  0.50400001928E-02 0. -1.
    10030    2    1    2    0    0  0.00000000000E+00  0.00000000000E+00 -0.15922655019E+03  0.33073426536E+04  0.33035075804E+04 0.  0.
        3    1    3    3  502    0 -0.14899371965E+04  0.71099426538E+03 -0.26026578028E+02  0.16510914838E+04  0.10100000352E+00 0. -1.
       -3    1    3    3    0  502  0.14899371965E+04 -0.71099426538E+03 -0.13319997216E+03  0.16562511698E+04  0.10100000352E+00 0.  1.
</event>
<event>
 5   0  0.6706080E-08  0.3301206E+04  0.7818609E-02  0.8162589E-01
       -2   -1    0    0    0  501  0.00000000000E+00  0.00000000000E+00  0.18391764919E+04  0.18391764919E+04  0.25500000920E-02 0.  1.
        2   -1    0    0  501    0  0.00000000000E+00  0.00000000000E+00 -0.14813640588E+04  0.14813640588E+04  0.25500000920E-02 0. -1.
    10030    2    1    2    0    0  0.00000000000E+00  0.00000000000E+00  0.35781243310E+03  0.33205405506E+04  0.33012058117E+04 0.  0.
        4    1    3    3  502    0 -0.18281231533E+03 -0.12367448719E+04  0.12629614867E+04  0.17770851276E+04  0.12699999809E+01 0.  1.
       -4    1    3    3    0  502  0.18281231533E+03  0.12367448719E+04 -0.90514905360E+03  0.15434554231E+04  0.12699999809E+01 0. -1.
</event>
<event>
 5   0  0.2291682E-08  0.3300086E+04  0.7818609E-02  0.8162874E-01
       -1   -1    0    0    0  501  0.00000000000E+00  0.00000000000E+00  0.24679680660E+04  0.24679680660E+04  0.50400001928E-02 0.  1.
        1   -1    0    0  501    0  0.00000000000E+00  0.00000000000E+00 -0.11031914792E+04  0.11031914792E+04  0.50400001928E-02 0. -1.
    10030    2    1    2    0    0  0.00000000000E+00  0.00000000000E+00  0.13647765868E+04  0.35711595452E+04  0.33000856603E+04 0.  0.
        2    1    3    3  502    0 -0.11927832488E+04 -0.16081235901E+03  0.19038421917E+04  0.22523782063E+04  0.25500000920E-02 0.  1.
       -2    1    3    3    0  502  0.11927832488E+04  0.16081235901E+03 -0.53906560489E+03  0.13187813389E+04  0.25500000920E-02 0. -1.
</event>
<event>
 5   0  0.2200750E-08  0.3299284E+04  0.7818609E-02  0.8163078E-01
        3   -1    0    0  501    0  0.00000000000E+00  0.00000000000E+00  0.13012592558E+04  0.13012592597E+04  0.10100000352E+00 0.  1.
       -3   -1    0    0    0  501  0.00000000000E+00  0.00000000000E+00 -0.20912963272E+04  0.20912963296E+04  0.10100000352E+00 0. -1.
    10030    2    1    2    0    0  0.00000000000E+00  0.00000000000E+00 -0.79003707144E+03  0.33925555893E+04  0.32992839909E+04 0.  0.
        5    1    3    3  502    0  0.31212573519E+03 -0.97547334865E+03 -0.17247615888E+04  0.20059400183E+04  0.46999998093E+01 0. -1.
       -5    1    3    3    0  502 -0.31212573519E+03  0.97547334865E+03  0.93472451740E+03  0.13866155711E+04  0.46999998093E+01 0.  1.
</event>
<event>
 5   0  0.6603516E-08  0.3298119E+04  0.7818609E-02  0.8163374E-01
        2   -1    0    0  501    0  0.00000000000E+00  0.00000000000E+00  0.20326422133E+04  0.20326422133E+04  0.25500000920E-02 0.  1.
       -2   -1    0    0    0  501  0.00000000000E+00  0.00000000000E+00 -0.13378628434E+04  0.13378628434E+04  0.25500000920E-02 0. -1.
    10030    2    1    2    0    0  0.00000000000E+00  0.00000000000E+00  0.69477936984E+03  0.33705050567E+04  0.32981185492E+04 0.  0.
        1    1    3    3  502    0  0.11359832191E+04 -0.21281449624E+03 -0.85471316314E+03  0.14374569472E+04  0.50400001928E-02 0. -1.
       -1    1    3    3    0  502 -0.11359832191E+04  0.21281449624E+03  0.15494925330E+04  0.19330481095E+04  0.50400001928E-02 0.  1.
</event>
<event>
 5   0  0.6706080E-08  0.3300464E+04  0.7818609E-02  0.8162777E-01
       -2   -1    0    0    0  501  0.00000000000E+00  0.00000000000E+00  0.17985415954E+04  0.17985415954E+04  0.25500000920E-02 0. -1.
        2   -1    0    0  501    0  0.00000000000E+00  0.00000000000E+00 -0.15141518717E+04  0.15141518717E+04  0.25500000920E-02 0.  1.
    10030    2    1    2    0    0  0.00000000000E+00  0.00000000000E+00  0.28438972366E+03  0.33126934671E+04  0.33004636783E+04 0.  0.
        4    1    3    3  502    0 -0.54184873577E+03  0.14533188409E+04 -0.42338921445E+03  0.16077921960E+04  0.12699999809E+01 0.  1.
       -4    1    3    3    0  502  0.54184873577E+03 -0.14533188409E+04  0.70777893810E+03  0.17049012710E+04  0.12699999809E+01 0. -1.
</event>
<event>
 5   0  0.6706080E-08  0.3299760E+04  0.7818609E-02  0.8162956E-01
        2   -1    0    0  501    0  0.00000000000E+00  0.00000000000E+00  0.14495004804E+04  0.14495004804E+04  0.25500000920E-02 0.  1.
       -2   -1    0    0    0  501  0.00000000000E+00  0.00000000000E+00 -0.18779599889E+04  0.18779599889E+04  0.25500000920E-02 0. -1.
    10030    2    1    2    0    0  0.00000000000E+00  0.00000000000E+00 -0.42845950849E+03  0.33274604694E+04  0.32997599344E+04 0.  0.
        4    1    3    3  502    0  0.10104728620E+04 -0.75563761725E+03  0.85773636054E+03  0.15256988204E+04  0.12699999809E+01 0. -1.
       -4    1    3    3    0  502 -0.10104728620E+04  0.75563761725E+03 -0.12861958690E+04  0.18017616490E+04  0.12699999809E+01 0.  1.
</event>
<event>
 5   0  0.6765252E-08  0.3300631E+04  0.7818609E-02  0.8162735E-01
        2   -1    0    0  501    0  0.00000000000E+00  0.00000000000E+00  0.21169544301E+04  0.21169544301E+04  0.25500000920E-02 0. -1.
       -2   -1    0    0    0  501  0.00000000000E+00  0.00000000000E+00 -0.12865373524E+04  0.12865373524E+04  0.25500000920E-02 0.  1.
    10030    2    1    2    0    0  0.00000000000E+00  0.00000000000E+00  0.83041707774E+03  0.34034917825E+04  0.33006308170E+04 0.  0.
        2    1    3    3  502    0 -0.33413736238E+03  0.10740922190E+04 -0.82999155204E+03  0.13979298438E+04  0.25500000920E-02 0.  1.
       -2    1    3    3    0  502  0.33413736238E+03 -0.10740922190E+04  0.16604086298E+04  0.20055619386E+04  0.25500000920E-02 0. -1.
</event>
<event>
 5   0  0.7084130E-08  0.3299349E+04  0.7818609E-02  0.8163061E-01
       -2   -1    0    0    0  501  0.00000000000E+00  0.00000000000E+00  0.17471656345E+04  0.17471656345E+04  0.25500000920E-02 0.  1.
        2   -1    0    0  501    0  0.00000000000E+00  0.00000000000E+00 -0.15576236931E+04  0.15576236931E+04  0.25500000920E-02 0. -1.
    10030    2    1    2    0    0  0.00000000000E+00  0.00000000000E+00  0.18954194144E+03  0.33047893276E+04  0.32993493832E+04 0.  0.
        3    1    3    3  502    0  0.29164246162E+03  0.15996579995E+04  0.37355618728E+03  0.16683840313E+04  0.10100000352E+00 0.  1.
       -3    1    3    3    0  502 -0.29164246162E+03 -0.15996579995E+04 -0.18401424584E+03  0.16364052963E+04  0.10100000352E+00 0. -1.
</event>
<event>
 5   0  0.2279938E-08  0.3298095E+04  0.7818609E-02  0.8163380E-01
       -1   -1    0    0    0  501  0.00000000000E+00  0.00000000000E+00  0.11797175379E+04  0.11797175379E+04  0.50400001928E-02 0.  1.
        1   -1    0    0  501    0  0.00000000000E+00  0.00000000000E+00 -0.23050916837E+04  0.23050916837E+04  0.50400001928E-02 0. -1.
    10030    2    1    2    0    0  0.00000000000E+00  0.00000000000E+00 -0.11253741458E+04  0.34848092215E+04  0.32980946534E+04 0.  0.
        3    1    3    3  502    0 -0.27980709097E+03 -0.35235024077E+01 -0.22798219982E+04  0.22969311650E+04  0.10100000352E+00 0. -1.
       -3    1    3    3    0  502  0.27980709097E+03  0.35235024077E+01  0.11544478524E+04  0.11878780566E+04  0.10100000352E+00 0.  1.
</event>
<event>
 5   0  0.2309822E-08  0.3300011E+04  0.7818609E-02  0.8162893E-01
        1   -1    0    0  501    0  0.00000000000E+00  0.00000000000E+00  0.25117694422E+04  0.25117694422E+04  0.50400001928E-02 0.  1.
       -1   -1    0    0    0  501  0.00000000000E+00  0.00000000000E+00 -0.10839046669E+04  0.10839046669E+04  0.50400001928E-02 0. -1.
    10030    2    1    2    0    0  0.00000000000E+00  0.00000000000E+00  0.14278647752E+04  0.35956741091E+04  0.33000112852E+04 0.  0.
        4    1    3    3  502    0 -0.63634581851E+03  0.57739661979E+03 -0.82088595339E+03  0.11883510503E+04  0.12699999809E+01 0. -1.
       -4    1    3    3    0  502  0.63634581851E+03 -0.57739661979E+03  0.22487507286E+04  0.24073230589E+04  0.12699999809E+01 0.  1.
</event>
<event>
 5   0  0.7084130E-08  0.3300550E+04  0.7818609E-02  0.8162755E-01
       -2   -1    0    0    0  501  0.00000000000E+00  0.00000000000E+00  0.17196838587E+04  0.17196838587E+04  0.25500000920E-02 0.  1.
        2   -1    0    0  501    0  0.00000000000E+00  0.00000000000E+00 -0.15836676245E+04  0.15836676245E+04  0.25500000920E-02 0. -1.
    10030    2    1    2    0    0  0.00000000000E+00  0.00000000000E+00  0.13601623422E+03  0.33033514831E+04  0.33005500458E+04 0.  0.
        3    1    3    3  502    0 -0.95549588191E+03  0.39197965357E+03  0.13562630987E+04  0.17047199278E+04  0.10100000352E+00 0.  1.
       -3    1    3    3    0  502  0.95549588191E+03 -0.39197965357E+03 -0.12202468645E+04  0.15986315553E+04  0.10100000352E+00 0. -1.
</event>
<event>
 5   0  0.6765252E-08  0.3300023E+04  0.7818609E-02  0.8162890E-01
        2   -1    0    0  501    0  0.00000000000E+00  0.00000000000E+00  0.18298520263E+04  0.18298520263E+04  0.25500000920E-02 0. -1.
       -2   -1    0    0    0  501  0.00000000000E+00  0.00000000000E+00 -0.14878455920E+04  0.14878455920E+04  0.25500000920E-02 0.  1.
    10030    2    1    2    0    0  0.00000000000E+00  0.00000000000E+00  0.34200643426E+03  0.33176976183E+04  0.33000225886E+04 0.  0.
        2    1    3    3  502    0  0.65161901671E+03 -0.12542571159E+04 -0.68489022283E+03  0.15706186275E+04  0.25500000920E-02 0.  1.
       -2    1    3    3    0  502 -0.65161901671E+03  0.12542571159E+04  0.10268966571E+04  0.17470789908E+04  0.25500000920E-02 0. -1.
</event>
<event>
 5   0  0.2244093E-08  0.3299685E+04  0.7818609E-02  0.8162976E-01
        1   -1    0    0  501    0  0.00000000000E+00  0.00000000000E+00  0.28782251484E+04  0.28782251484E+04  0.50400001928E-02 0. -1.
       -1   -1    0    0    0  501  0.00000000000E+00  0.00000000000E+00 -0.94571465787E+03  0.94571465788E+03  0.50400001928E-02 0.  1.
    10030    2    1    2    0    0  0.00000000000E+00  0.00000000000E+00  0.19325104905E+04  0.38239398063E+04  0.32996846586E+04 0.  0.
        1    1    3    3  502    0 -0.74985279807E+02 -0.12618480189E+04 -0.26242933168E+03  0.12910276408E+04  0.50400001928E-02 0.  1.
       -1    1    3    3    0  502  0.74985279807E+02  0.12618480189E+04  0.21949398222E+04  0.25329121655E+04  0.50400001928E-02 0. -1.
</event>
<event>
 5   0  0.6603516E-08  0.3301320E+04  0.7818609E-02  0.8162560E-01
        2   -1    0    0  501    0  0.00000000000E+00  0.00000000000E+00  0.17010369962E+04  0.17010369962E+04  0.25500000920E-02 0. -1.
       -2   -1    0    0    0  501  0.00000000000E+00  0.00000000000E+00 -0.16017752963E+04  0.16017752963E+04  0.25500000920E-02 0.  1.
    10030    2    1    2    0    0  0.00000000000E+00  0.00000000000E+00  0.99261699937E+02  0.33028122925E+04  0.33013203653E+04 0.  0.
        1    1    3    3  502    0  0.45955020582E+03  0.13586104086E+04 -0.76784942862E+03  0.16268378466E+04  0.50400001928E-02 0.  1.
       -1    1    3    3    0  502 -0.45955020582E+03 -0.13586104086E+04  0.86711112856E+03  0.16759744459E+04  0.50400001928E-02 0. -1.
</event>
<event>
 5   0  0.2291682E-08  0.3300144E+04  0.7818609E-02  0.8162859E-01
        1   -1    0    0  501    0  0.00000000000E+00  0.00000000000E+00  0.13280368729E+04  0.13280368729E+04  0.50400001928E-02 0. -1.
       -1   -1    0    0    0  501  0.00000000000E+00  0.00000000000E+00 -0.20501974008E+04  0.20501974008E+04  0.50400001928E-02 0.  1.
    10030    2    1    2    0    0  0.00000000000E+00  0.00000000000E+00 -0.72216052791E+03  0.33782342737E+04  0.33001440847E+04 0.  0.
        2    1    3    3  502    0 -0.12945203017E+04  0.12908571426E+03  0.67797102690E+03  0.14670005612E+04  0.25500000920E-02 0. -1.
       -2    1    3    3    0  502  0.12945203017E+04 -0.12908571426E+03 -0.14001315548E+04  0.19112337125E+04  0.25500000920E-02 0.  1.
</event>
<event>
 5   0  0.6821287E-08  0.3299595E+04  0.7818609E-02  0.8162998E-01
        2   -1    0    0  501    0  0.00000000000E+00  0.00000000000E+00  0.21241172689E+04  0.21241172689E+04  0.25500000920E-02 0. -1.
       -2   -1    0    0    0  501  0.00000000000E+00  0.00000000000E+00 -0.12813945354E+04  0.12813945354E+04  0.25500000920E-02 0.  1.
    10030    2    1    2    0    0  0.00000000000E+00  0.00000000000E+00  0.84272273352E+03  0.34055118043E+04  0.32995952848E+04 0.  0.
        5    1    3    3  502    0  0.37202387781E+03 -0.10688294706E+04 -0.81759356723E+03  0.13961660124E+04  0.46999998093E+01 0.  1.
       -5    1    3    3    0  502 -0.37202387781E+03  0.10688294706E+04  0.16603163007E+04  0.20093457919E+04  0.46999998093E+01 0. -1.
</event>
<event>
 5   0  0.2291682E-08  0.3298039E+04  0.7818609E-02  0.8163395E-01
        1   -1    0    0  501    0  0.00000000000E+00  0.00000000000E+00  0.17444168067E+04  0.17444168067E+04  0.50400001928E-02 0. -1.
       -1   -1    0    0    0  501  0.00000000000E+00  0.00000000000E+00 -0.15588387970E+04  0.15588387970E+04  0.50400001928E-02 0.  1.
    10030    2    1    2    0    0  0.00000000000E+00  0.00000000000E+00  0.18557800968E+03  0.33032556037E+04  0.32980385664E+04 0.  0.
        2    1    3    3  502    0 -0.78613407283E+03  0.17545203449E+03 -0.13484014698E+04  0.15706612367E+04  0.25500000920E-02 0.  1.
       -2    1    3    3    0  502  0.78613407283E+03 -0.17545203449E+03  0.15339794795E+04  0.17325943669E+04  0.25500000920E-02 0. -1.
</event>
<event>
 5   0  0.2279938E-08  0.3303443E+04  0.7818609E-02  0.8162020E-01
        1   -1    0    0  501    0  0.00000000000E+00  0.00000000000E+00  0.15257768845E+04  0.15257768845E+04  0.50400001928E-02 0. -1.
       -1   -1    0    0    0  501  0.00000000000E+00  0.00000000000E+00 -0.17880619330E+04  0.17880619330E+04  0.50400001928E-02 0.  1.
    10030    2    1    2    0    0  0.00000000000E+00  0.00000000000E+00 -0.26228504849E+03  0.33138388176E+04  0.33034427893E+04 0.  0.
        3    1    3    3  502    0 -0.64120363892E+03  0.57472476276E+03 -0.15450934363E+04  0.17688313647E+04  0.10100000352E+00 0.  1.
       -3    1    3    3    0  502  0.64120363892E+03 -0.57472476276E+03  0.12828083878E+04  0.15450074529E+04  0.10100000352E+00 0. -1.
</event>
<event>
 5   0  0.2383270E-08  0.3304484E+04  0.7818609E-02  0.8161755E-01
       -1   -1    0    0    0  501  0.00000000000E+00  0.00000000000E+00  0.11732119363E+04  0.11732119363E+04  0.50400001928E-02 0.  1.
        1   -1    0    0  501    0  0.00000000000E+00  0.00000000000E+00 -0.23268630323E+04  0.23268630323E+04  0.50400001928E-02 0. -1.
    10030    2    1    2    0    0  0.00000000000E+00  0.00000000000E+00 -0.11536510961E+04  0.35000749686E+04  0.33044839135E+04 0.  0.
        5    1    3    3  502    0 -0.10921002125E+04 -0.51875647055E+03 -0.17695737905E+04  0.21431762969E+04  0.46999998093E+01 0. -1.
       -5    1    3    3    0  502  0.10921002125E+04  0.51875647055E+03  0.61592269438E+03  0.13568986717E+04  0.46999998093E+01 0.  1.
</event>
<event>
 5   0  0.6603516E-08  0.3300346E+04  0.7818609E-02  0.8162807E-01
       -2   -1    0    0    0  501  0.00000000000E+00  0.00000000000E+00  0.14594889242E+04  0.14594889242E+04  0.25500000920E-02 0.  1.
        2   -1    0    0  501    0  0.00000000000E+00  0.00000000000E+00 -0.18657700275E+04  0.18657700275E+04  0.25500000920E-02 0. -1.
    10030    2    1    2    0    0  0.00000000000E+00  0.00000000000E+00 -0.40628110332E+03  0.33252589517E+04  0.33003458547E+04 0.  0.
        1    1    3    3  502    0  0.68964985131E+03 -0.13834084081E+04  0.37883104146E+03  0.15915240178E+04  0.50400001928E-02 0.  1.
       -1    1    3    3    0  502 -0.68964985131E+03  0.13834084081E+04 -0.78511214478E+03  0.17337349339E+04  0.50400001928E-02 0. -1.
</event>
<event>
 5   0  0.2279938E-08  0.3299349E+04  0.7818609E-02  0.8163061E-01
       -1   -1    0    0    0  501  0.00000000000E+00  0.00000000000E+00  0.12980045771E+04  0.12980045772E+04  0.50400001928E-02 0.  1.
        1   -1    0    0  501    0  0.00000000000E+00  0.00000000000E+00 -0.20966232823E+04  0.20966232823E+04  0.50400001928E-02 0. -1.
    10030    2    1    2    0    0  0.00000000000E+00  0.00000000000E+00 -0.79861870515E+03  0.33946278595E+04  0.32993494007E+04 0.  0.
        3    1    3    3  502    0  0.15284547821E+04  0.33874990327E+02  0.23835021713E+03  0.15472984108E+04  0.10100000352E+00 0.  1.
       -3    1    3    3    0  502 -0.15284547821E+04 -0.33874990327E+02 -0.10369689223E+04  0.18473294486E+04  0.10100000352E+00 0. -1.
</event>
<event>
 5   0  0.6765252E-08  0.3300735E+04  0.7818609E-02  0.8162708E-01
       -2   -1    0    0    0  501  0.00000000000E+00  0.00000000000E+00  0.10705294843E+04  0.10705294843E+04  0.25500000920E-02 0.  1.
        2   -1    0    0  501    0  0.00000000000E+00  0.00000000000E+00 -0.25442664378E+04  0.25442664378E+04  0.25500000920E-02 0. -1.
    10030    2    1    2    0    0  0.00000000000E+00  0.00000000000E+00 -0.14737369536E+04  0.36147959221E+04  0.33007346077E+04 0.  0.
        2    1    3    3  502    0  0.15303782941E+04  0.15840594009E+03 -0.82924190093E+02  0.15407876512E+04  0.25500000920E-02 0. -1.
       -2    1    3    3    0  502 -0.15303782941E+04 -0.15840594009E+03 -0.13908127635E+04  0.20740082709E+04  0.25500000920E-02 0.  1.
</event>
<event>
 5   0  0.2309822E-08  0.3299794E+04  0.7818609E-02  0.8162948E-01
        1   -1    0    0  501    0  0.00000000000E+00  0.00000000000E+00  0.23489411330E+04  0.23489411330E+04  0.50400001928E-02 0. -1.
       -1   -1    0    0    0  501  0.00000000000E+00  0.00000000000E+00 -0.11588878925E+04  0.11588878925E+04  0.50400001928E-02 0.  1.
    10030    2    1    2    0    0  0.00000000000E+00  0.00000000000E+00  0.11900532405E+04  0.35078290255E+04  0.32997935931E+04 0.  0.
        4    1    3    3  502    0  0.31567194907E+03  0.15115766918E+04 -0.22679312721E+02  0.15443538580E+04  0.12699999809E+01 0. -1.
       -4    1    3    3    0  502 -0.31567194907E+03 -0.15115766918E+04  0.12127325532E+04  0.19634751675E+04  0.12699999809E+01 0.  1.
</event>
<event>
 5   0  0.2383270E-08  0.3299478E+04  0.7818609E-02  0.8163028E-01
       -1   -1    0    0    0  501  0.00000000000E+00  0.00000000000E+00  0.34032352083E+04  0.34032352083E+04  0.50400001928E-02 0.  1.
        1   -1    0    0  501    0  0.00000000000E+00  0.00000000000E+00 -0.79972121574E+03  0.79972121576E+03  0.50400001928E-02 0. -1.
    10030    2    1    2    0    0  0.00000000000E+00  0.00000000000E+00  0.26035139925E+04  0.42029564240E+04  0.32994783820E+04 0.  0.
        5    1    3    3  502    0 -0.15977960996E+04  0.17417359296E+02  0.77908277469E+03  0.17777085813E+04  0.46999998093E+01 0. -1.
       -5    1    3    3    0  502  0.15977960996E+04 -0.17417359296E+02  0.18244312178E+04  0.24252478427E+04  0.46999998093E+01 0.  1.
</event>
<event>
 5   0  0.6821287E-08  0.3299586E+04  0.7818609E-02  0.8163001E-01
        2   -1    0    0  501    0  0.00000000000E+00  0.00000000000E+00  0.16394863226E+04  0.16394863226E+04  0.25500000920E-02 0.  1.
       -2   -1    0    0    0  501  0.00000000000E+00  0.00000000000E+00 -0.16601648611E+04  0.16601648611E+04  0.25500000920E-02 0. -1.
    10030    2    1    2    0    0  0.00000000000E+00  0.00000000000E+00 -0.20678538442E+02  0.32996511837E+04  0.32995863880E+04 0.  0.
        5    1    3    3  502    0  0.85010066455E+03  0.59662187859E+03 -0.12922250766E+04  0.16578590243E+04  0.46999998093E+01 0. -1.
       -5    1    3    3    0  502 -0.85010066455E+03 -0.59662187859E+03  0.12715465382E+04  0.16417921594E+04  0.46999998093E+01 0.  1.
</event>
<event>
 5   0  0.2383270E-08  0.3300524E+04  0.7818609E-02  0.8162762E-01
        1   -1    0    0  501    0  0.00000000000E+00  0.00000000000E+00  0.19171562327E+04  0.19171562327E+04  0.50400001928E-02 0. -1.
       -1   -1    0    0    0  501  0.00000000000E+00  0.00000000000E+00 -0.14205227183E+04  0.14205227183E+04  0.50400001928E-02 0.  1.
    10030    2    1    2    0    0  0.00000000000E+00  0.00000000000E+00  0.49663351444E+03  0.33376789510E+04  0.33005235845E+04 0.  0.
        5    1    3    3  502    0 -0.40581739457E+03 -0.84494330402E+02  0.18636449352E+04  0.19091939619E+04  0.46999998093E+01 0. -1.
       -5    1    3    3    0  502  0.40581739457E+03  0.84494330402E+02 -0.13670114208E+04  0.14284849891E+04  0.46999998093E+01 0.  1.
</event>
<event>
 5   0  0.2291682E-08  0.3301342E+04  0.7818609E-02  0.8162554E-01
       -1   -1    0    0    0  501  0.00000000000E+00  0.00000000000E+00  0.13459218721E+04  0.13459218721E+04  0.50400001928E-02 0.  1.
        1   -1    0    0  501    0  0.00000000000E+00  0.00000000000E+00 -0.20244221271E+04  0.20244221271E+04  0.50400001928E-02 0. -1.
    10030    2    1    2    0    0  0.00000000000E+00  0.00000000000E+00 -0.67850025504E+03  0.33703439992E+04  0.33013415571E+04 0.  0.
        2    1    3    3  502    0  0.42874365785E+03 -0.15805522871E+04 -0.12817433239E+03  0.16426793102E+04  0.25500000920E-02 0. -1.
       -2    1    3    3    0  502 -0.42874365785E+03  0.15805522871E+04 -0.55032592265E+03  0.17276646890E+04  0.25500000920E-02 0.  1.
</event>
<event>
 5   0  0.6603516E-08  0.3299234E+04  0.7818609E-02  0.8163090E-01
       -2   -1    0    0    0  501  0.00000000000E+00  0.00000000000E+00  0.12326251661E+04  0.12326251661E+04  0.25500000920E-02 0.  1.
        2   -1    0    0  501    0  0.00000000000E+00  0.00000000000E+00 -0.22076754966E+04  0.22076754966E+04  0.25500000920E-02 0. -1.
    10030    2    1    2    0    0  0.00000000000E+00  0.00000000000E+00 -0.97505033051E+03  0.34403006626E+04  0.32992340781E+04 0.  0.
        1    1    3    3  502    0  0.72796027662E+03 -0.40807687396E+03  0.99626525753E+03  0.12996143131E+04  0.50400001928E-02 0.  1.
       -1    1    3    3    0  502 -0.72796027662E+03  0.40807687396E+03 -0.19713155880E+04  0.21406863495E+04  0.50400001928E-02 0. -1.
</event>
<event>
 5   0  0.2309822E-08  0.3299568E+04  0.7818609E-02  0.8163005E-01
       -1   -1    0    0    0  501  0.00000000000E+00  0.00000000000E+00  0.14497849965E+04  0.14497849965E+04  0.50400001928E-02 0.  1.
        1   -1    0    0  501    0  0.00000000000E+00  0.00000000000E+00 -0.18773732192E+04  0.18773732192E+04  0.50400001928E-02 0. -1.
    10030    2    1    2    0    0  0.00000000000E+00  0.00000000000E+00 -0.42758822265E+03  0.33271582157E+04  0.32995681694E+04 0.  0.
        4    1    3    3  502    0 -0.10888986024E+04 -0.12225024185E+04 -0.81931789584E+01  0.16371563977E+04  0.12699999809E+01 0. -1.
       -4    1    3    3    0  502  0.10888986024E+04  0.12225024185E+04 -0.41939504370E+03  0.16900018180E+04  0.12699999809E+01 0.  1.
</event>
<event>
 5   0  0.6603516E-08  0.3300201E+04  0.7818609E-02  0.8162844E-01
        2   -1    0    0  501    0  0.00000000000E+00  0.00000000000E+00  0.11811151718E+04  0.11811151718E+04  0.25500000920E-02 0.  1.
       -2   -1    0    0    0  501  0.00000000000E+00  0.00000000000E+00 -0.23053054754E+04  0.23053054754E+04  0.25500000920E-02 0. -1.
    10030    2    1    2    0    0  0.00000000000E+00  0.00000000000E+00 -0.11241903037E+04  0.34864206472E+04  0.33002007651E+04 0.  0.
        1    1    3    3  502    0 -0.14476403394E+04  0.36893736405E+02 -0.13978132960E+04  0.20126861928E+04  0.50400001928E-02 0. -1.
       -1    1    3    3    0  502  0.14476403394E+04 -0.36893736405E+02  0.27362299229E+03  0.14737344544E+04  0.50400001928E-02 0.  1.
</event>
<event>
 5   0  0.6603516E-08  0.3297171E+04  0.7818609E-02  0.8163616E-01
       -2   -1    0    0    0  501  0.00000000000E+00  0.00000000000E+00  0.14293093852E+04  0.14293093852E+04  0.25500000920E-02 0.  1.
        2   -1    0    0  501    0  0.00000000000E+00  0.00000000000E+00 -0.19015015292E+04  0.19015015292E+04  0.25500000920E-02 0. -1.
    10030    2    1    2    0    0  0.00000000000E+00  0.00000000000E+00 -0.47219214396E+03  0.33308109144E+04  0.32971708974E+04 0.  0.
        1    1    3    3  502    0 -0.38814588545E+03  0.14343112868E+04 -0.95747408684E+03  0.17676715540E+04  0.50400001928E-02 0. -1.
       -1    1    3    3    0  502  0.38814588545E+03 -0.14343112868E+04  0.48528194288E+03  0.15631393604E+04  0.50400001928E-02 0.  1.
</event>
<event>
 5   0  0.2309822E-08  0.3300367E+04  0.7818609E-02  0.8162802E-01
       -1   -1    0    0    0  501  0.00000000000E+00  0.00000000000E+00  0.14549633131E+04  0.14549633131E+04  0.50400001928E-02 0. -1.
        1   -1    0    0  501    0  0.00000000000E+00  0.00000000000E+00 -0.18715976241E+04  0.18715976241E+04  0.50400001928E-02 0.  1.
    10030    2    1    2    0    0  0.00000000000E+00  0.00000000000E+00 -0.41663431104E+03  0.33265609372E+04  0.33003671795E+04 0.  0.
        4    1    3    3  502    0 -0.10287602621E+04 -0.37620106870E+03  0.10356699332E+04  0.15074776099E+04  0.12699999809E+01 0. -1.
       -4    1    3    3    0  502  0.10287602621E+04  0.37620106870E+03 -0.14523042442E+04  0.18190833273E+04  0.12699999809E+01 0.  1.
</event>
<event>
 5   0  0.2279938E-08  0.3299482E+04  0.7818609E-02  0.8163027E-01
       -1   -1    0    0    0  501  0.00000000000E+00  0.00000000000E+00  0.90896702950E+03  0.90896702952E+03  0.50400001928E-02 0.  1.
        1   -1    0    0  501    0  0.00000000000E+00  0.00000000000E+00 -0.29942178972E+04  0.29942178972E+04  0.50400001928E-02 0. -1.
    10030    2    1    2    0    0  0.00000000000E+00  0.00000000000E+00 -0.20852508677E+04  0.39031849268E+04  0.32994819883E+04 0.  0.
        3    1    3    3  502    0  0.10970145609E+04 -0.54461866989E+03  0.26486033529E+03  0.12530767933E+04  0.10100000352E+00 0.  1.
       -3    1    3    3    0  502 -0.10970145609E+04  0.54461866989E+03 -0.23501112030E+04  0.26501081335E+04  0.10100000352E+00 0. -1.
</event>
<event>
 5   0  0.6706080E-08  0.3300041E+04  0.7818609E-02  0.8162885E-01
       -2   -1    0    0    0  501  0.00000000000E+00  0.00000000000E+00  0.14158001210E+04  0.14158001210E+04  0.25500000920E-02 0.  1.
        2   -1    0    0  501    0  0.00000000000E+00  0.00000000000E+00 -0.19229882819E+04  0.19229882819E+04  0.25500000920E-02 0. -1.
    10030    2    1    2    0    0  0.00000000000E+00  0.00000000000E+00 -0.50718816088E+03  0.33387884029E+04  0.33000406314E+04 0.  0.
        4    1    3    3  502    0 -0.77520725359E+03 -0.87854279082E+03  0.92184839015E+03  0.14908352654E+04  0.12699999809E+01 0.  1.
       -4    1    3    3    0  502  0.77520725359E+03  0.87854279082E+03 -0.14290365510E+04  0.18479531375E+04  0.12699999809E+01 0. -1.
</event>
<event>
 5   0  0.2309822E-08  0.3302768E+04  0.7818609E-02  0.8162191E-01
        1   -1    0    0  501    0  0.00000000000E+00  0.00000000000E+00  0.15273956670E+04  0.15273956670E+04  0.50400001928E-02 0.  1.
       -1   -1    0    0    0  501  0.00000000000E+00  0.00000000000E+00 -0.17854373722E+04  0.17854373722E+04  0.50400001928E-02 0. -1.
    10030    2    1    2    0    0  0.00000000000E+00  0.00000000000E+00 -0.25804170522E+03  0.33128330392E+04  0.33027681154E+04 0.  0.
        4    1    3    3  502    0  0.72476285389E+03  0.12396698260E+04  0.68894277642E+03  0.15927040635E+04  0.12699999809E+01 0. -1.
       -4    1    3    3    0  502 -0.72476285389E+03 -0.12396698260E+04 -0.94698448164E+03  0.17201289757E+04  0.12699999809E+01 0.  1.
</event>
<event>
 5   0  0.2244093E-08  0.3300038E+04  0.7818609E-02  0.8162886E-01
       -1   -1    0    0    0  501  0.00000000000E+00  0.00000000000E+00  0.86799723070E+03  0.86799723072E+03  0.50400001928E-02 0.  1.
        1   -1    0    0  501    0  0.00000000000E+00  0.00000000000E+00 -0.31366028122E+04  0.31366028122E+04  0.50400001928E-02 0. -1.
    10030    2    1    2    0    0  0.00000000000E+00  0.00000000000E+00 -0.22686055815E+04  0.40046000429E+04  0.33000379118E+04 0.  0.
        1    1    3    3  502    0  0.75275965649E+03  0.13509860636E+04 -0.18322001103E+04  0.23976587933E+04  0.50400001928E-02 0. -1.
       -1    1    3    3    0  502 -0.75275965649E+03 -0.13509860636E+04 -0.43640547115E+03  0.16069412497E+04  0.50400001928E-02 0.  1.
</event>
<event>
 5   0  0.2383270E-08  0.3302316E+04  0.7818609E-02  0.8162306E-01
        1   -1    0    0  501    0  0.00000000000E+00  0.00000000000E+00  0.21092274385E+04  0.21092274385E+04  0.50400001928E-02 0.  1.
       -1   -1    0    0    0  501  0.00000000000E+00  0.00000000000E+00 -0.12925691548E+04  0.12925691548E+04  0.50400001928E-02 0. -1.
    10030    2    1    2    0    0  0.00000000000E+00  0.00000000000E+00  0.81665828374E+03  0.34017965933E+04  0.33023157495E+04 0.  0.
        5    1    3    3  502    0 -0.94259444621E+01 -0.94248350499E+03 -0.98821595923E+03  0.13656342401E+04  0.46999998093E+01 0. -1.
       -5    1    3    3    0  502  0.94259444621E+01  0.94248350499E+03  0.18048742430E+04  0.20361623532E+04  0.46999998093E+01 0.  1.
</event>
<event>
 5   0  0.6706080E-08  0.3299775E+04  0.7818609E-02  0.8162953E-01
       -2   -1    0    0    0  501  0.00000000000E+00  0.00000000000E+00  0.13434280800E+04  0.13434280800E+04  0.25500000920E-02 0.  1.
        2   -1    0    0  501    0  0.00000000000E+00  0.00000000000E+00 -0.20262562262E+04  0.20262562262E+04  0.25500000920E-02 0. -1.
    10030    2    1    2    0    0  0.00000000000E+00  0.00000000000E+00 -0.68282814617E+03  0.33696843062E+04  0.32997754539E+04 0.  0.
        4    1    3    3  502    0 -0.12827015244E+04  0.93555304279E+03 -0.79986310455E+03  0.17777416279E+04  0.12699999809E+01 0. -1.
       -4    1    3    3    0  502  0.12827015244E+04 -0.93555304279E+03  0.11703495837E+03  0.15919426783E+04  0.12699999809E+01 0.  1.
</event>
<event>
 5   0  0.6765252E-08  0.3300299E+04  0.7818609E-02  0.8162819E-01
       -2   -1    0    0    0  501  0.00000000000E+00  0.00000000000E+00  0.17770631909E+04  0.17770631909E+04  0.25500000920E-02 0.  1.
        2   -1    0    0  501    0  0.00000000000E+00  0.00000000000E+00 -0.15322997728E+04  0.15322997728E+04  0.25500000920E-02 0. -1.
    10030    2    1    2    0    0  0.00000000000E+00  0.00000000000E+00  0.24476341808E+03  0.33093629637E+04  0.33002990917E+04 0.  0.
        2    1    3    3  502    0 -0.60018979403E+03  0.15167822274E+04 -0.12757665526E+03  0.16361943397E+04  0.25500000920E-02 0. -1.
       -2    1    3    3    0  502  0.60018979403E+03 -0.15167822274E+04  0.37234007335E+03  0.16731686240E+04  0.25500000920E-02 0.  1.
</event>
<event>
 5   0  0.2383270E-08  0.3300022E+04  0.7818609E-02  0.8162890E-01
        1   -1    0    0  501    0  0.00000000000E+00  0.00000000000E+00  0.10554359554E+04  0.10554359554E+04  0.50400001928E-02 0. -1.
       -1   -1    0    0    0  501  0.00000000000E+00  0.00000000000E+00 -0.25795378712E+04  0.25795378712E+04  0.50400001928E-02 0.  1.
    10030    2    1    2    0    0  0.00000000000E+00  0.00000000000E+00 -0.15241019158E+04  0.36349738265E+04  0.33000224348E+04 0.  0.
        5    1    3    3  502    0  0.54148090529E+03  0.94698342851E+03 -0.21256594645E+04  0.23892319757E+04  0.46999998093E+01 0.  1.
       -5    1    3    3    0  502 -0.54148090529E+03 -0.94698342851E+03  0.60155754867E+03  0.12457418509E+04  0.46999998093E+01 0. -1.
</event>
<event>
 5   0  0.2244093E-08  0.3300379E+04  0.7818609E-02  0.8162799E-01
       -1   -1    0    0    0  501  0.00000000000E+00  0.00000000000E+00  0.10571358795E+04  0.10571358796E+04  0.50400001928E-02 0. -1.
        1   -1    0    0  501    0  0.00000000000E+00  0.00000000000E+00 -0.25759463994E+04  0.25759463995E+04  0.50400001928E-02 0.  1.
    10030    2    1    2    0    0  0.00000000000E+00  0.00000000000E+00 -0.15188105199E+04  0.36330822790E+04  0.33003789859E+04 0.  0.
        1    1    3    3  502    0 -0.13328431578E+03  0.14194689813E+04 -0.16741150860E+04  0.21989357014E+04  0.50400001928E-02 0.  1.
       -1    1    3    3    0  502  0.13328431578E+03 -0.14194689813E+04  0.15530456607E+03  0.14341465776E+04  0.50400001928E-02 0. -1.
</event>
<event>
 5   0  0.7084130E-08  0.3301911E+04  0.7818609E-02  0.8162409E-01
        2   -1    0    0  501    0  0.00000000000E+00  0.00000000000E+00  0.27227256125E+04  0.27227256125E+04  0.25500000920E-02 0.  1.
       -2   -1    0    0    0  501  0.00000000000E+00  0.00000000000E+00 -0.10010753527E+04  0.10010753527E+04  0.25500000920E-02 0. -1.
    10030    2    1    2    0    0  0.00000000000E+00  0.00000000000E+00  0.17216502598E+04  0.37238009652E+04  0.33019106607E+04 0.  0.
        3    1    3    3  502    0  0.49777874919E+03  0.51886051808E+03  0.25368673047E+04  0.26367964754E+04  0.10100000352E+00 0.  1.
       -3    1    3    3    0  502 -0.49777874919E+03 -0.51886051808E+03 -0.81521704492E+03  0.10870044898E+04  0.10100000352E+00 0. -1.
</event>
<event>
 5   0  0.6706080E-08  0.3301785E+04  0.7818609E-02  0.8162441E-01
       -2   -1    0    0    0  501  0.00000000000E+00  0.00000000000E+00  0.88925225064E+03  0.88925225064E+03  0.25500000920E-02 0.  1.
        2   -1    0    0  501    0  0.00000000000E+00  0.00000000000E+00 -0.30648732198E+04  0.30648732198E+04  0.25500000920E-02 0. -1.
    10030    2    1    2    0    0  0.00000000000E+00  0.00000000000E+00 -0.21756209691E+04  0.39541254704E+04  0.33017846136E+04 0.  0.
        4    1    3    3  502    0  0.26931586040E+03  0.99615575428E+03 -0.26310468726E+04  0.28261752561E+04  0.12699999809E+01 0. -1.
       -4    1    3    3    0  502 -0.26931586040E+03 -0.99615575428E+03  0.45542590350E+03  0.11279502143E+04  0.12699999809E+01 0.  1.
</event>
<event>
 5   0  0.6706080E-08  0.3301226E+04  0.7818609E-02  0.8162584E-01
        2   -1    0    0  501    0  0.00000000000E+00  0.00000000000E+00  0.24964975165E+04  0.24964975165E+04  0.25500000920E-02 0. -1.
       -2   -1    0    0    0  501  0.00000000000E+00  0.00000000000E+00 -0.10913381973E+04  0.10913381973E+04  0.25500000920E-02 0.  1.
    10030    2    1    2    0    0  0.00000000000E+00  0.00000000000E+00  0.14051593191E+04  0.35878357138E+04  0.33012258931E+04 0.  0.
        4    1    3    3  502    0 -0.51838043582E+03  0.15090988581E+04  0.11616547777E+04  0.19737125108E+04  0.12699999809E+01 0. -1.
       -4    1    3    3    0  502  0.51838043582E+03 -0.15090988581E+04  0.24350454145E+03  0.16141232030E+04  0.12699999809E+01 0.  1.
</event>
<event>
 5   0  0.2279938E-08  0.3311264E+04  0.7818609E-02  0.8160035E-01
       -1   -1    0    0    0  501  0.00000000000E+00  0.00000000000E+00  0.19279496481E+04  0.19279496481E+04  0.50400001928E-02 0. -1.
        1   -1    0    0  501    0  0.00000000000E+00  0.00000000000E+00 -0.14217783737E+04  0.14217783737E+04  0.50400001928E-02 0.  1.
    10030    2    1    2    0    0  0.00000000000E+00  0.00000000000E+00  0.50617127439E+03  0.33497280219E+04  0.33112638767E+04 0.  0.
        3    1    3    3  502    0 -0.36534894777E+03  0.13186734263E+04  0.11959735663E+04  0.18173420813E+04  0.10100000352E+00 0. -1.
       -3    1    3    3    0  502  0.36534894777E+03 -0.13186734263E+04 -0.68980229190E+03  0.15323859406E+04  0.10100000352E+00 0.  1.
</event>
<event>
 5   0  0.2279938E-08  0.3300322E+04  0.7818609E-02  0.8162813E-01
       -1   -1    0    0    0  501  0.00000000000E+00  0.00000000000E+00  0.11931108053E+04  0.11931108053E+04  0.50400001928E-02 0. -1.
        1   -1    0    0  501    0  0.00000000000E+00  0.00000000000E+00 -0.22822957286E+04  0.22822957286E+04  0.50400001928E-02 0.  1.
    10030    2    1    2    0    0  0.00000000000E+00  0.00000000000E+00 -0.10891849233E+04  0.34754065339E+04  0.33003222235E+04 0.  0.
        3    1    3    3  502    0  0.16940348508E+03 -0.13396107874E+04 -0.15434803172E+04  0.20507525698E+04  0.10100000352E+00 0.  1.
       -3    1    3    3    0  502 -0.16940348508E+03  0.13396107874E+04  0.45429539396E+03  0.14246539642E+04  0.10100000352E+00 0. -1.
</event>
<event>
 5   0  0.2244093E-08  0.3298556E+04  0.7818609E-02  0.8163263E-01
        1   -1    0    0  501    0  0.00000000000E+00  0.00000000000E+00  0.15760947997E+04  0.15760947997E+04  0.50400001928E-02 0. -1.
       -1   -1    0    0    0  501  0.00000000000E+00  0.00000000000E+00 -0.17258596383E+04  0.17258596383E+04  0.50400001928E-02 0.  1.
    10030    2    1    2    0    0  0.00000000000E+00  0.00000000000E+00 -0.14976483860E+03  0.33019544381E+04  0.32985562909E+04 0.  0.
        1    1    3    3  502    0 -0.89931560976E+03  0.10834916036E+04  0.78471974533E+03  0.16119887406E+04  0.50400001928E-02 0. -1.
       -1    1    3    3    0  502  0.89931560976E+03 -0.10834916036E+04 -0.93448458393E+03  0.16899656975E+04  0.50400001928E-02 0.  1.
</event>
<event>
 5   0  0.2291682E-08  0.3299104E+04  0.7818609E-02  0.8163123E-01
        1   -1    0    0  501    0  0.00000000000E+00  0.00000000000E+00  0.18889648877E+04  0.18889648877E+04  0.50400001928E-02 0.  1.
       -1   -1    0    0    0  501  0.00000000000E+00  0.00000000000E+00 -0.14404832070E+04  0.14404832070E+04  0.50400001928E-02 0. -1.
    10030    2    1    2    0    0  0.00000000000E+00  0.00000000000E+00  0.44848168068E+03  0.33294480947E+04  0.32991042417E+04 0.  0.
        2    1    3    3  502    0 -0.82577304480E+02 -0.76759067027E+03 -0.12469075124E+04  0.14665581451E+04  0.25500000920E-02 0. -1.
       -2    1    3    3    0  502  0.82577304480E+02  0.76759067027E+03  0.16953891931E+04  0.18628899496E+04  0.25500000920E-02 0.  1.
</event>
<event>
 5   0  0.7084130E-08  0.3301320E+04  0.7818609E-02  0.8162560E-01
        2   -1    0    0  501    0  0.00000000000E+00  0.00000000000E+00  0.19545387050E+04  0.19545387050E+04  0.25500000920E-02 0.  1.
       -2   -1    0    0    0  501  0.00000000000E+00  0.00000000000E+00 -0.13940259642E+04  0.13940259642E+04  0.25500000920E-02 0. -1.
    10030    2    1    2    0    0  0.00000000000E+00  0.00000000000E+00  0.56051274075E+03  0.33485646692E+04  0.33013195561E+04 0.  0.
        3    1    3    3  502    0  0.13422383888E+04  0.34679312116E+02 -0.69362540115E+03  0.15112652826E+04  0.10100000352E+00 0. -1.
       -3    1    3    3    0  502 -0.13422383888E+04 -0.34679312116E+02  0.12541381419E+04  0.18372993866E+04  0.10100000352E+00 0.  1.
</event>
<event>
 5   0  0.7084130E-08  0.3300401E+04  0.7818609E-02  0.8162793E-01
       -2   -1    0    0    0  501  0.00000000000E+00  0.00000000000E+00  0.11471412436E+04  0.11471412436E+04  0.25500000920E-02 0. -1.
        2   -1    0    0  501    0  0.00000000000E+00  0.00000000000E+00 -0.23738683386E+04  0.23738683386E+04  0.25500000920E-02 0.  1.
    10030    2    1    2    0    0  0.00000000000E+00  0.00000000000E+00 -0.12267270950E+04  0.35210095821E+04  0.33004013562E+04 0.  0.
        3    1    3    3  502    0  0.11700903400E+04  0.32060434853E+03  0.58000579196E+03  0.13447324198E+04  0.10100000352E+00 0. -1.
       -3    1    3    3    0  502 -0.11700903400E+04 -0.32060434853E+03 -0.18067328870E+04  0.21762771623E+04  0.10100000352E+00 0.  1.
</event>
<event>
 5   0  0.2279938E-08  0.3299140E+04  0.7818609E-02  0.8163114E-01
        1   -1    0    0  501    0  0.00000000000E+00  0.00000000000E+00  0.21445861837E+04  0.21445861837E+04  0.50400001928E-02 0.  1.
       -1   -1    0    0    0  501  0.00000000000E+00  0.00000000000E+00 -0.12688143579E+04  0.12688143579E+04  0.50400001928E-02 0. -1.
    10030    2    1    2    0    0  0.00000000000E+00  0.00000000000E+00  0.87577182578E+03  0.34134005416E+04  0.32991403375E+04 0.  0.
        3    1    3    3  502    0 -0.11802226863E+04  0.34614967143E+02  0.16297179162E+04  0.20124870886E+04  0.10100000352E+00 0.  1.
       -3    1    3    3    0  502  0.11802226863E+04 -0.34614967143E+02 -0.75394609043E+03  0.14009134530E+04  0.10100000352E+00 0. -1.
</event>
<event>
 5   0  0.6765252E-08  0.3301452E+04  0.7818609E-02  0.8162526E-01
        2   -1    0    0  501    0  0.00000000000E+00  0.00000000000E+00  0.11735907253E+04  0.11735907253E+04  0.25500000920E-02 0. -1.
       -2   -1    0    0    0  501  0.00000000000E+00  0.00000000000E+00 -0.23218459593E+04  0.23218459593E+04  0.25500000920E-02 0.  1.
    10030    2    1    2    0    0  0.00000000000E+00  0.00000000000E+00 -0.11482552340E+04  0.34954366846E+04  0.33014523370E+04 0.  0.
        2    1    3    3  502    0 -0.71045522558E+03  0.38942244729E+03  0.94860697628E+03  0.12474981625E+04  0.25500000920E-02 0. -1.
       -2    1    3    3    0  502  0.71045522558E+03 -0.38942244729E+03 -0.20968622103E+04  0.22479385221E+04  0.25500000920E-02 0.  1.
</event>
<event>
 5   0  0.6603516E-08  0.3300095E+04  0.7818609E-02  0.8162871E-01
        2   -1    0    0  501    0  0.00000000000E+00  0.00000000000E+00  0.17660349122E+04  0.17660349122E+04  0.25500000920E-02 0. -1.
       -2   -1    0    0    0  501  0.00000000000E+00  0.00000000000E+00 -0.15416781612E+04  0.15416781612E+04  0.25500000920E-02 0.  1.
    10030    2    1    2    0    0  0.00000000000E+00  0.00000000000E+00  0.22435675099E+03  0.33077130735E+04  0.33000954266E+04 0.  0.
        1    1    3    3  502    0 -0.10897422614E+04  0.67879989502E+03 -0.92672275301E+03  0.15833895777E+04  0.50400001928E-02 0.  1.
       -1    1    3    3    0  502  0.10897422614E+04 -0.67879989502E+03  0.11510795040E+04  0.17243234958E+04  0.50400001928E-02 0. -1.
</event>
<event>
 5   0  0.6706080E-08  0.3299754E+04  0.7818609E-02  0.8162958E-01
        2   -1    0    0  501    0  0.00000000000E+00  0.00000000000E+00  0.19459489990E+04  0.19459489990E+04  0.25500000920E-02 0.  1.
       -2   -1    0    0    0  501  0.00000000000E+00  0.00000000000E+00 -0.13988515047E+04  0.13988515047E+04  0.25500000920E-02 0. -1.
    10030    2    1    2    0    0  0.00000000000E+00  0.00000000000E+00  0.54709749435E+03  0.33448005037E+04  0.32997537395E+04 0.  0.
        4    1    3    3  502    0  0.43791825658E+03  0.15852162697E+04  0.40729334286E+03  0.16942763946E+04  0.12699999809E+01 0. -1.
       -4    1    3    3    0  502 -0.43791825658E+03 -0.15852162697E+04  0.13980415149E+03  0.16505241092E+04  0.12699999809E+01 0.  1.
</event>
<event>
 5   0  0.2383270E-08  0.3300631E+04  0.7818609E-02  0.8162735E-01
        1   -1    0    0  501    0  0.00000000000E+00  0.00000000000E+00  0.24052578504E+04  0.24052578504E+04  0.50400001928E-02 0. -1.
       -1   -1    0    0    0  501  0.00000000000E+00  0.00000000000E+00 -0.11323283879E+04  0.11323283879E+04  0.50400001928E-02 0.  1.
    10030    2    1    2    0    0  0.00000000000E+00  0.00000000000E+00  0.12729294625E+04  0.35375862383E+04  0.33006312997E+04 0.  0.
        5    1    3    3  502    0  0.65083355604E+03  0.11611494218E+04 -0.40910405209E+03  0.13925661611E+04  0.46999998093E+01 0. -1.
       -5    1    3    3    0  502 -0.65083355604E+03 -0.11611494218E+04  0.16820335146E+04  0.21450200772E+04  0.46999998093E+01 0.  1.
</event>
<event>
 5   0  0.6603516E-08  0.3298546E+04  0.7818609E-02  0.8163265E-01
       -2   -1    0    0    0  501  0.00000000000E+00  0.00000000000E+00  0.24368443502E+04  0.24368443502E+04  0.25500000920E-02 0.  1.
        2   -1    0    0  501    0  0.00000000000E+00  0.00000000000E+00 -0.11162393377E+04  0.11162393377E+04  0.25500000920E-02 0. -1.
    10030    2    1    2    0    0  0.00000000000E+00  0.00000000000E+00  0.13206050125E+04  0.35530836880E+04  0.32985460577E+04 0.  0.
        1    1    3    3  502    0  0.68946716597E+03  0.24838735418E+02  0.22739396513E+04  0.23762961671E+04  0.50400001928E-02 0.  1.
       -1    1    3    3    0  502 -0.68946716597E+03 -0.24838735418E+02 -0.95333463881E+03  0.11767875209E+04  0.50400001928E-02 0. -1.
</event>
<event>
 5   0  0.7084130E-08  0.3302925E+04  0.7818609E-02  0.8162151E-01
        2   -1    0    0  501    0  0.00000000000E+00  0.00000000000E+00  0.18410977824E+04  0.18410977824E+04  0.25500000920E-02 0. -1.
       -2   -1    0    0    0  501  0.00000000000E+00  0.00000000000E+00 -0.14813600095E+04  0.14813600095E+04  0.25500000920E-02 0.  1.
    10030    2    1    2    0    0  0.00000000000E+00  0.00000000000E+00  0.35973777297E+03  0.33224577919E+04  0.33029251450E+04 0.  0.
        3    1    3    3  502    0  0.75865954126E+03  0.11153586356E+04 -0.77851905781E+03  0.15574598291E+04  0.10100000352E+00 0.  1.
       -3    1    3    3    0  502 -0.75865954126E+03 -0.11153586356E+04  0.11382568308E+04  0.17649979628E+04  0.10100000352E+00 0. -1.
</event>
<event>
 5   0  0.2309822E-08  0.3298288E+04  0.7818609E-02  0.8163331E-01
        1   -1    0    0  501    0  0.00000000000E+00  0.00000000000E+00  0.15263317139E+04  0.15263317139E+04  0.50400001928E-02 0. -1.
       -1   -1    0    0    0  501  0.00000000000E+00  0.00000000000E+00 -0.17818382308E+04  0.17818382308E+04  0.50400001928E-02 0.  1.
    10030    2    1    2    0    0  0.00000000000E+00  0.00000000000E+00 -0.25550651692E+03  0.33081699447E+04  0.32982881625E+04 0.  0.
        4    1    3    3  502    0  0.99992302175E+03  0.55100661790E+02  0.11864366066E+04  0.15525835136E+04  0.12699999809E+01 0. -1.
       -4    1    3    3    0  502 -0.99992302175E+03 -0.55100661790E+02 -0.14419431236E+04  0.17555864310E+04  0.12699999809E+01 0.  1.
</event>
<event>
 5   0  0.6821287E-08  0.3301839E+04  0.7818609E-02  0.8162428E-01
        2   -1    0    0  501    0  0.00000000000E+00  0.00000000000E+00  0.19081662121E+04  0.19081662121E+04  0.25500000920E-02 0. -1.
       -2   -1    0    0    0  501  0.00000000000E+00  0.00000000000E+00 -0.14283534616E+04  0.14283534616E+04  0.25500000920E-02 0.  1.
    10030    2    1    2    0    0  0.00000000000E+00  0.00000000000E+00  0.47981275044E+03  0.33365196737E+04  0.33018393748E+04 0.  0.
        5    1    3    3  502    0  0.11921874171E+04  0.55867266552E+03 -0.76659132995E+03  0.15235190652E+04  0.46999998093E+01 0.  1.
       -5    1    3    3    0  502 -0.11921874171E+04 -0.55867266552E+03  0.12464040804E+04  0.18130006085E+04  0.46999998093E+01 0. -1.
</event>
<event>
 5   0  0.6765252E-08  0.3300553E+04  0.7818609E-02  0.8162755E-01
        2   -1    0    0  501    0  0.00000000000E+00  0.00000000000E+00  0.15083502450E+04  0.15083502450E+04  0.25500000920E-02 0. -1.
       -2   -1    0    0    0  501  0.00000000000E+00  0.00000000000E+00 -0.18055573892E+04  0.18055573892E+04  0.25500000920E-02 0.  1.
    10030    2    1    2    0    0  0.00000000000E+00  0.00000000000E+00 -0.29720714423E+03  0.33139076342E+04  0.33005532448E+04 0.  0.
        2    1    3    3  502    0  0.20202845704E+03 -0.59097040826E+03  0.13851081298E+04  0.15194031895E+04  0.25500000920E-02 0. -1.
       -2    1    3    3    0  502 -0.20202845704E+03  0.59097040826E+03 -0.16823152741E+04  0.17945044447E+04  0.25500000920E-02 0.  1.
</event>
<event>
 5   0  0.6765252E-08  0.3296306E+04  0.7818609E-02  0.8163836E-01
       -2   -1    0    0    0  501  0.00000000000E+00  0.00000000000E+00  0.19204351163E+04  0.19204351163E+04  0.25500000920E-02 0.  1.
        2   -1    0    0  501    0  0.00000000000E+00  0.00000000000E+00 -0.14144758063E+04  0.14144758063E+04  0.25500000920E-02 0. -1.
    10030    2    1    2    0    0  0.00000000000E+00  0.00000000000E+00  0.50595931000E+03  0.33349109227E+04  0.32963064237E+04 0.  0.
        2    1    3    3  502    0 -0.78502759578E+03 -0.14255045096E+04  0.51695216719E+03  0.17075043122E+04  0.25500000920E-02 0.  1.
       -2    1    3    3    0  502  0.78502759578E+03  0.14255045096E+04 -0.10992857195E+02  0.16274066105E+04  0.25500000920E-02 0. -1.
</event>
<event>
 5   0  0.2279938E-08  0.3298904E+04  0.7818609E-02  0.8163174E-01
        1   -1    0    0  501    0  0.00000000000E+00  0.00000000000E+00  0.14531913591E+04  0.14531913592E+04  0.50400001928E-02 0. -1.
       -1   -1    0    0    0  501  0.00000000000E+00  0.00000000000E+00 -0.18722190020E+04  0.18722190020E+04  0.50400001928E-02 0.  1.
    10030    2    1    2    0    0  0.00000000000E+00  0.00000000000E+00 -0.41902764288E+03  0.33254103612E+04  0.32989043491E+04 0.  0.
        3    1    3    3  502    0  0.16229960780E+04 -0.21299736583E+03 -0.48844494312E+01  0.16369202837E+04  0.10100000352E+00 0. -1.
       -3    1    3    3    0  502 -0.16229960780E+04  0.21299736583E+03 -0.41414319344E+03  0.16884900775E+04  0.10100000352E+00 0.  1.
</event>
<event>
 5   0  0.2291682E-08  0.3300293E+04  0.7818609E-02  0.8162821E-01
       -1   -1    0    0    0  501  0.00000000000E+00  0.00000000000E+00  0.16788173674E+04  0.16788173674E+04  0.50400001928E-02 0. -1.
        1   -1    0    0  501    0  0.00000000000E+00  0.00000000000E+00 -0.16219656643E+04  0.16219656643E+04  0.50400001928E-02 0.  1.
    10030    2    1    2    0    0  0.00000000000E+00  0.00000000000E+00  0.56851703128E+02  0.33007830317E+04  0.33002933970E+04 0.  0.
        2    1    3    3  502    0 -0.15039852480E+04 -0.50313340229E+03  0.48442032948E+03  0.16582454288E+04  0.25500000920E-02 0. -1.
       -2    1    3    3    0  502  0.15039852480E+04  0.50313340229E+03 -0.42756862635E+03  0.16425376029E+04  0.25500000920E-02 0.  1.
</event>
<event>
 5   0  0.6603516E-08  0.3300761E+04  0.7818609E-02  0.8162702E-01
        2   -1    0    0  501    0  0.00000000000E+00  0.00000000000E+00  0.18840619759E+04  0.18840619759E+04  0.25500000920E-02 0.  1.
       -2   -1    0    0    0  501  0.00000000000E+00  0.00000000000E+00 -0.14456827838E+04  0.14456827838E+04  0.25500000920E-02 0. -1.
    10030    2    1    2    0    0  0.00000000000E+00  0.00000000000E+00  0.43837919207E+03  0.33297447598E+04  0.33007611015E+04 0.  0.
        1    1    3    3  502    0 -0.56688411027E+03 -0.14997472081E+03  0.17754302238E+04  0.18697600089E+04  0.50400001928E-02 0.  1.
       -1    1    3    3    0  502  0.56688411027E+03  0.14997472081E+03 -0.13370510317E+04  0.14599847509E+04  0.50400001928E-02 0. -1.
</event>
<event>
 5   0  0.2291682E-08  0.3297234E+04  0.7818609E-02  0.8163600E-01
       -1   -1    0    0    0  501  0.00000000000E+00  0.00000000000E+00  0.98892637139E+03  0.98892637140E+03  0.50400001928E-02 0.  1.
        1   -1    0    0  501    0  0.00000000000E+00  0.00000000000E+00 -0.27483725234E+04  0.27483725234E+04  0.50400001928E-02 0. -1.
    10030    2    1    2    0    0  0.00000000000E+00  0.00000000000E+00 -0.17594461520E+04  0.37372988948E+04  0.32972340328E+04 0.  0.
        2    1    3    3  502    0 -0.12116413862E+04 -0.38512983588E+03 -0.20693419484E+04  0.24286984042E+04  0.25500000920E-02 0. -1.
       -2    1    3    3    0  502  0.12116413862E+04  0.38512983588E+03  0.30989579643E+03  0.13086004905E+04  0.25500000920E-02 0.  1.
</event>
<event>
 5   0  0.2383270E-08  0.3302175E+04  0.7818609E-02  0.8162342E-01
        1   -1    0    0  501    0  0.00000000000E+00  0.00000000000E+00  0.18733453699E+04  0.18733453699E+04  0.50400001928E-02 0. -1.
       -1   -1    0    0    0  501  0.00000000000E+00  0.00000000000E+00 -0.14551991079E+04  0.14551991079E+04  0.50400001928E-02 0.  1.
    10030    2    1    2    0    0  0.00000000000E+00  0.00000000000E+00  0.41814626197E+03  0.33285444778E+04  0.33021753503E+04 0.  0.
        5    1    3    3  502    0 -0.26093282112E+03 -0.77665930751E+03  0.16539711468E+04  0.18457866240E+04  0.46999998093E+01 0. -1.
       -5    1    3    3    0  502  0.26093282112E+03  0.77665930751E+03 -0.12358248848E+04  0.14827578538E+04  0.46999998093E+01 0.  1.
</event>
<event>
 5   0  0.6821287E-08  0.3299352E+04  0.7818609E-02  0.8163060E-01
        2   -1    0    0  501    0  0.00000000000E+00  0.00000000000E+00  0.11346210042E+04  0.11346210042E+04  0.25500000920E-02 0.  1.
       -2   -1    0    0    0  501  0.00000000000E+00  0.00000000000E+00 -0.23985377403E+04  0.23985377403E+04  0.25500000920E-02 0. -1.
    10030    2    1    2    0    0  0.00000000000E+00  0.00000000000E+00 -0.12639167360E+04  0.35331587445E+04  0.32993522392E+04 0.  0.
        5    1    3    3  502    0 -0.14958348090E+04  0.41102565698E+03 -0.12329273578E+04  0.19815639849E+04  0.46999998093E+01 0. -1.
       -5    1    3    3    0  502  0.14958348090E+04 -0.41102565698E+03 -0.30989378189E+02  0.15515947596E+04  0.46999998093E+01 0.  1.
</event>
<event>
 5   0  0.2291682E-08  0.3299952E+04  0.7818609E-02  0.8162908E-01
       -1   -1    0    0    0  501  0.00000000000E+00  0.00000000000E+00  0.10083886417E+04  0.10083886417E+04  0.50400001928E-02 0. -1.
        1   -1    0    0  501    0  0.00000000000E+00  0.00000000000E+00 -0.26997730736E+04  0.26997730736E+04  0.50400001928E-02 0.  1.
    10030    2    1    2    0    0  0.00000000000E+00  0.00000000000E+00 -0.16913844319E+04  0.37081617153E+04  0.32999518194E+04 0.  0.
        2    1    3    3  502    0  0.16217943361E+04  0.53043436168E+02 -0.11816584282E+04  0.20073233710E+04  0.25500000920E-02 0.  1.
       -2    1    3    3    0  502 -0.16217943361E+04 -0.53043436168E+02 -0.50972600372E+03  0.17008383443E+04  0.25500000920E-02 0. -1.
</event>
<event>
 5   0  0.2279938E-08  0.3300187E+04  0.7818609E-02  0.8162848E-01
        1   -1    0    0  501    0  0.00000000000E+00  0.00000000000E+00  0.15780891016E+04  0.15780891016E+04  0.50400001928E-02 0. -1.
       -1   -1    0    0    0  501  0.00000000000E+00  0.00000000000E+00 -0.17253837589E+04  0.17253837590E+04  0.50400001928E-02 0.  1.
    10030    2    1    2    0    0  0.00000000000E+00  0.00000000000E+00 -0.14729465732E+03  0.33034728606E+04  0.33001874530E+04 0.  0.
        3    1    3    3  502    0  0.16418780244E+03  0.12192476170E+04 -0.11744179000E+04  0.17008173917E+04  0.10100000352E+00 0.  1.
       -3    1    3    3    0  502 -0.16418780244E+03 -0.12192476170E+04  0.10271232427E+04  0.16026554689E+04  0.10100000352E+00 0. -1.
</event>
<event>
 5   0  0.2383270E-08  0.3300140E+04  0.7818609E-02  0.8162860E-01
       -1   -1    0    0    0  501  0.00000000000E+00  0.00000000000E+00  0.15290864663E+04  0.15290864663E+04  0.50400001928E-02 0.  1.
        1   -1    0    0  501    0  0.00000000000E+00  0.00000000000E+00 -0.17806261023E+04  0.17806261023E+04  0.50400001928E-02 0. -1.
    10030    2    1    2    0    0  0.00000000000E+00  0.00000000000E+00 -0.25153963607E+03  0.33097125686E+04  0.33001401634E+04 0.  0.
        5    1    3    3  502    0  0.95388968059E+02  0.15668722919E+04  0.38415494343E+03  0.16161017743E+04  0.46999998093E+01 0.  1.
       -5    1    3    3    0  502 -0.95388968059E+02 -0.15668722919E+04 -0.63569457951E+03  0.16936107943E+04  0.46999998093E+01 0. -1.
</event>
<event>
 5   0  0.6765252E-08  0.3300208E+04  0.7818609E-02  0.8162842E-01
       -2   -1    0    0    0  501  0.00000000000E+00  0.00000000000E+00  0.13415526756E+04  0.13415526756E+04  0.25500000920E-02 0. -1.
        2   -1    0    0  501    0  0.00000000000E+00  0.00000000000E+00 -0.20296209212E+04  0.20296209212E+04  0.25500000920E-02 0.  1.
    10030    2    1    2    0    0  0.00000000000E+00  0.00000000000E+00 -0.68806824554E+03  0.33711735968E+04  0.33002081009E+04 0.  0.
        2    1    3    3  502    0 -0.21401064493E+03  0.70037870084E+03  0.11664486371E+04  0.13772920183E+04  0.25500000920E-02 0. -1.
       -2    1    3    3    0  502  0.21401064493E+03 -0.70037870084E+03 -0.18545168827E+04  0.19938815784E+04  0.25500000920E-02 0.  1.
</event>
<event>
 5   0  0.6603516E-08  0.3298459E+04  0.7818609E-02  0.8163287E-01
        2   -1    0    0  501    0  0.00000000000E+00  0.00000000000E+00  0.27209521720E+04  0.27209521720E+04  0.25500000920E-02 0. -1.
       -2   -1    0    0    0  501  0.00000000000E+00  0.00000000000E+00 -0.99963489787E+03  0.99963489788E+03  0.25500000920E-02 0.  1.
    10030    2    1    2    0    0  0.00000000000E+00  0.00000000000E+00  0.17213172742E+04  0.37205870699E+04  0.32984594869E+04 0.  0.
        1    1    3    3  502    0  0.15582450090E+04 -0.30417767390E+03  0.35708638480E+03  0.16273175018E+04  0.50400001928E-02 0.  1.
       -1    1    3    3    0  502 -0.15582450090E+04  0.30417767390E+03  0.13642308894E+04  0.20932695681E+04  0.50400001928E-02 0. -1.
</event>
<event>
 5   0  0.2279938E-08  0.3301536E+04  0.7818609E-02  0.8162505E-01
       -1   -1    0    0    0  501  0.00000000000E+00  0.00000000000E+00  0.15527321678E+04  0.15527321678E+04  0.50400001928E-02 0.  1.
        1   -1    0    0  501    0  0.00000000000E+00  0.00000000000E+00 -0.17549938172E+04  0.17549938173E+04  0.50400001928E-02 0. -1.
    10030    2    1    2    0    0  0.00000000000E+00  0.00000000000E+00 -0.20226164947E+03  0.33077259850E+04  0.33015362208E+04 0.  0.
        3    1    3    3  502    0 -0.10989586257E+04 -0.38821506417E+02  0.11323630967E+04  0.15784370001E+04  0.10100000352E+00 0. -1.
       -3    1    3    3    0  502  0.10989586257E+04  0.38821506417E+02 -0.13346247461E+04  0.17292889850E+04  0.10100000352E+00 0.  1.
</event>
<event>
 5   0  0.6603516E-08  0.3300480E+04  0.7818609E-02  0.8162773E-01
        2   -1    0    0  501    0  0.00000000000E+00  0.00000000000E+00  0.22301935853E+04  0.22301935853E+04  0.25500000920E-02 0.  1.
       -2   -1    0    0    0  501  0.00000000000E+00  0.00000000000E+00 -0.12211013468E+04  0.12211013468E+04  0.25500000920E-02 0. -1.
    10030    2    1    2    0    0  0.00000000000E+00  0.00000000000E+00  0.10090922385E+04  0.34512949322E+04  0.33004802019E+04 0.  0.
        1    1    3    3  502    0 -0.62968008328E+03  0.79663685021E+02 -0.10883628702E+04  0.12599115236E+04  0.50400001928E-02 0. -1.
       -1    1    3    3    0  502  0.62968008328E+03 -0.79663685021E+02  0.20974551088E+04  0.21913834086E+04  0.50400001928E-02 0.  1.
</event>
<event>
 5   0  0.6603516E-08  0.3301500E+04  0.7818609E-02  0.8162514E-01
       -2   -1    0    0    0  501  0.00000000000E+00  0.00000000000E+00  0.16373827965E+04  0.16373827965E+04  0.25500000920E-02 0. -1.
        2   -1    0    0  501    0  0.00000000000E+00  0.00000000000E+00 -0.16642259950E+04  0.16642259950E+04  0.25500000920E-02 0.  1.
    10030    2    1    2    0    0  0.00000000000E+00  0.00000000000E+00 -0.26843198451E+02  0.33016087915E+04  0.33014996675E+04 0.  0.
        1    1    3    3  502    0  0.15775131115E+04  0.26023319520E+03 -0.42417363341E+03  0.16541439490E+04  0.50400001928E-02 0.  1.
       -1    1    3    3    0  502 -0.15775131115E+04 -0.26023319520E+03  0.39733043496E+03  0.16474648425E+04  0.50400001928E-02 0. -1.
</event>
<event>
 5   0  0.6821287E-08  0.3296341E+04  0.7818609E-02  0.8163827E-01
       -2   -1    0    0    0  501  0.00000000000E+00  0.00000000000E+00  0.22521492017E+04  0.22521492017E+04  0.25500000920E-02 0. -1.
        2   -1    0    0  501    0  0.00000000000E+00  0.00000000000E+00 -0.12061659075E+04  0.12061659075E+04  0.25500000920E-02 0.  1.
    10030    2    1    2    0    0  0.00000000000E+00  0.00000000000E+00  0.10459832941E+04  0.34583151092E+04  0.32963407504E+04 0.  0.
        5    1    3    3  502    0  0.61932997367E+03 -0.81817810971E+03 -0.83013498793E+03  0.13198981869E+04  0.46999998093E+01 0.  1.
       -5    1    3    3    0  502 -0.61932997367E+03  0.81817810971E+03  0.18761182821E+04  0.21384169223E+04  0.46999998093E+01 0. -1.
</event>
<event>
 5   0  0.6603516E-08  0.3300016E+04  0.7818609E-02  0.8162891E-01
        2   -1    0    0  501    0  0.00000000000E+00  0.00000000000E+00  0.20013181667E+04  0.20013181667E+04  0.25500000920E-02 0. -1.
       -2   -1    0    0    0  501  0.00000000000E+00  0.00000000000E+00 -0.13603663858E+04  0.13603663858E+04  0.25500000920E-02 0.  1.
    10030    2    1    2    0    0  0.00000000000E+00  0.00000000000E+00  0.64095178081E+03  0.33616845525E+04  0.33000157341E+04 0.  0.
        1    1    3    3  502    0  0.31516183607E+03  0.89083434447E+03  0.16983850413E+04  0.19435597651E+04  0.50400001928E-02 0. -1.
       -1    1    3    3    0  502 -0.31516183607E+03 -0.89083434447E+03 -0.10574332605E+04  0.14181247874E+04  0.50400001928E-02 0.  1.
</event>
<event>
 5   0  0.2244093E-08  0.3293719E+04  0.7818609E-02  0.8164495E-01
        1   -1    0    0  501    0  0.00000000000E+00  0.00000000000E+00  0.18711057965E+04  0.18711057965E+04  0.50400001928E-02 0. -1.
       -1   -1    0    0    0  501  0.00000000000E+00  0.00000000000E+00 -0.14494883322E+04  0.14494883322E+04  0.50400001928E-02 0.  1.
    10030    2    1    2    0    0  0.00000000000E+00  0.00000000000E+00  0.42161746429E+03  0.33205941287E+04  0.32937188831E+04 0.  0.
        1    1    3    3  502    0  0.33123398108E+03  0.11419589962E+04 -0.93794459690E+03  0.15144392910E+04  0.50400001928E-02 0.  1.
       -1    1    3    3    0  502 -0.33123398108E+03 -0.11419589962E+04  0.13595620612E+04  0.18061548376E+04  0.50400001928E-02 0. -1.
</event>
<event>
 5   0  0.2244093E-08  0.3299763E+04  0.7818609E-02  0.8162956E-01
       -1   -1    0    0    0  501  0.00000000000E+00  0.00000000000E+00  0.15784456515E+04  0.15784456515E+04  0.50400001928E-02 0. -1.
        1   -1    0    0  501    0  0.00000000000E+00  0.00000000000E+00 -0.17245501442E+04  0.17245501442E+04  0.50400001928E-02 0.  1.
    10030    2    1    2    0    0  0.00000000000E+00  0.00000000000E+00 -0.14610449274E+03  0.33029957957E+04  0.32997628253E+04 0.  0.
        1    1    3    3  502    0 -0.61195816795E+03  0.31620988660E+03 -0.15737299616E+04  0.17178787744E+04  0.50400001928E-02 0.  1.
       -1    1    3    3    0  502  0.61195816795E+03 -0.31620988660E+03  0.14276254688E+04  0.15851170212E+04  0.50400001928E-02 0. -1.
</event>
<event>
 5   0  0.2244093E-08  0.3300348E+04  0.7818609E-02  0.8162807E-01
        1   -1    0    0  501    0  0.00000000000E+00  0.00000000000E+00  0.20460481829E+04  0.20460481829E+04  0.50400001928E-02 0. -1.
       -1   -1    0    0    0  501  0.00000000000E+00  0.00000000000E+00 -0.13308946380E+04  0.13308946380E+04  0.50400001928E-02 0.  1.
    10030    2    1    2    0    0  0.00000000000E+00  0.00000000000E+00  0.71515354493E+03  0.33769428209E+04  0.33003481972E+04 0.  0.
        1    1    3    3  502    0  0.71086828816E+03 -0.67577892885E+03  0.17154257655E+04  0.19760304756E+04  0.50400001928E-02 0. -1.
       -1    1    3    3    0  502 -0.71086828816E+03  0.67577892885E+03 -0.10002722205E+04  0.14009123452E+04  0.50400001928E-02 0.  1.
</event>
<event>
 5   0  0.6821287E-08  0.3297688E+04  0.7818609E-02  0.8163484E-01
       -2   -1    0    0    0  501  0.00000000000E+00  0.00000000000E+00  0.18555182480E+04  0.18555182480E+04  0.25500000920E-02 0.  1.
        2   -1    0    0  501    0  0.00000000000E+00  0.00000000000E+00 -0.14651894491E+04  0.14651894491E+04  0.25500000920E-02 0. -1.
    10030    2    1    2    0    0  0.00000000000E+00  0.00000000000E+00  0.39032879884E+03  0.33207076971E+04  0.32976875289E+04 0.  0.
        5    1    3    3  502    0 -0.55178541405E+03 -0.30272888613E+03 -0.13394661755E+04  0.14799674479E+04  0.46999998093E+01 0. -1.
       -5    1    3    3    0  502  0.55178541405E+03  0.30272888613E+03  0.17297949743E+04  0.18407402492E+04  0.46999998093E+01 0.  1.
</event>
<event>
 5   0  0.6603516E-08  0.3300898E+04  0.7818609E-02  0.8162667E-01
        2   -1    0    0  501    0  0.00000000000E+00  0.00000000000E+00  0.31272947671E+04  0.31272947671E+04  0.25500000920E-02 0. -1.
       -2   -1    0    0    0  501  0.00000000000E+00  0.00000000000E+00 -0.87103461371E+03  0.87103461372E+03  0.25500000920E-02 0.  1.
    10030    2    1    2    0    0  0.00000000000E+00  0.00000000000E+00  0.22562601534E+04  0.39983293808E+04  0.33008980532E+04 0.  0.
        1    1    3    3  502    0  0.71898532400E+03 -0.10142641959E+04 -0.18672013791E+03  0.12571937660E+04  0.50400001928E-02 0.  1.
       -1    1    3    3    0  502 -0.71898532400E+03  0.10142641959E+04  0.24429802913E+04  0.27411356148E+04  0.50400001928E-02 0. -1.
</event>
<event>
 5   0  0.2383270E-08  0.3301399E+04  0.7818609E-02  0.8162539E-01
       -1   -1    0    0    0  501  0.00000000000E+00  0.00000000000E+00  0.14851565165E+04  0.14851565165E+04  0.50400001928E-02 0. -1.
        1   -1    0    0  501    0  0.00000000000E+00  0.00000000000E+00 -0.18346951044E+04  0.18346951044E+04  0.50400001928E-02 0.  1.
    10030    2    1    2    0    0  0.00000000000E+00  0.00000000000E+00 -0.34953858785E+03  0.33198516209E+04  0.33013993337E+04 0.  0.
        5    1    3    3  502    0  0.51628857542E+03 -0.42944923441E+02 -0.17508164173E+04  0.18258637344E+04  0.46999998093E+01 0.  1.
       -5    1    3    3    0  502 -0.51628857542E+03  0.42944923441E+02  0.14012778295E+04  0.14939878865E+04  0.46999998093E+01 0. -1.
</event>
<event>
 5   0  0.2279938E-08  0.3297422E+04  0.7818609E-02  0.8163552E-01
        1   -1    0    0  501    0  0.00000000000E+00  0.00000000000E+00  0.20170729513E+04  0.20170729513E+04  0.50400001928E-02 0.  1.
       -1   -1    0    0    0  501  0.00000000000E+00  0.00000000000E+00 -0.13476196520E+04  0.13476196520E+04  0.50400001928E-02 0. -1.
    10030    2    1    2    0    0  0.00000000000E+00  0.00000000000E+00  0.66945329930E+03  0.33646926033E+04  0.32974215070E+04 0.  0.
        3    1    3    3  502    0 -0.44070155845E+03 -0.10965788717E+04 -0.83831045479E+03  0.14489539380E+04  0.10100000352E+00 0. -1.
       -3    1    3    3    0  502  0.44070155845E+03  0.10965788717E+04  0.15077637541E+04  0.19157386653E+04  0.10100000352E+00 0.  1.
</event>
<event>
 5   0  0.6603516E-08  0.3298840E+04  0.7818609E-02  0.8163191E-01
       -2   -1    0    0    0  501  0.00000000000E+00  0.00000000000E+00  0.26258758213E+04  0.26258758213E+04  0.25500000920E-02 0. -1.
        2   -1    0    0  501    0  0.00000000000E+00  0.00000000000E+00 -0.10360681759E+04  0.10360681759E+04  0.25500000920E-02 0.  1.
    10030    2    1    2    0    0  0.00000000000E+00  0.00000000000E+00  0.15898076454E+04  0.36619439972E+04  0.32988400218E+04 0.  0.
        1    1    3    3  502    0 -0.48083390125E+03  0.56625954404E+03  0.24296627350E+04  0.25406912677E+04  0.50400001928E-02 0. -1.
       -1    1    3    3    0  502  0.48083390125E+03 -0.56625954404E+03 -0.83985508964E+03  0.11212527295E+04  0.50400001928E-02 0.  1.
</event>
<event>
 5   0  0.2244093E-08  0.3299836E+04  0.7818609E-02  0.8162937E-01
       -1   -1    0    0    0  501  0.00000000000E+00  0.00000000000E+00  0.12432442520E+04  0.12432442520E+04  0.50400001928E-02 0. -1.
        1   -1    0    0  501    0  0.00000000000E+00  0.00000000000E+00 -0.21896176478E+04  0.21896176478E+04  0.50400001928E-02 0.  1.
    10030    2    1    2    0    0  0.00000000000E+00  0.00000000000E+00 -0.94637339587E+03  0.34328618998E+04  0.32998360897E+04 0.  0.
        1    1    3    3  502    0  0.26096202441E+03 -0.10562622323E+04 -0.17635263124E+04  0.20721525369E+04  0.50400001928E-02 0.  1.
       -1    1    3    3    0  502 -0.26096202441E+03  0.10562622323E+04  0.81715291650E+03  0.13607093630E+04  0.50400001928E-02 0. -1.
</event>
<event>
 5   0  0.2291682E-08  0.3299124E+04  0.7818609E-02  0.8163118E-01
        1   -1    0    0  501    0  0.00000000000E+00  0.00000000000E+00  0.21012719677E+04  0.21012719677E+04  0.50400001928E-02 0. -1.
       -1   -1    0    0    0  501  0.00000000000E+00  0.00000000000E+00 -0.12949556914E+04  0.12949556914E+04  0.50400001928E-02 0.  1.
    10030    2    1    2    0    0  0.00000000000E+00  0.00000000000E+00  0.80631627629E+03  0.33962276590E+04  0.32991235768E+04 0.  0.
        2    1    3    3  502    0 -0.94311484065E+03 -0.91697719354E+03  0.14278147545E+04  0.19413829476E+04  0.25500000920E-02 0. -1.
       -2    1    3    3    0  502  0.94311484065E+03  0.91697719354E+03 -0.62149847817E+03  0.14548447115E+04  0.25500000920E-02 0.  1.
</event>
<event>
 5   0  0.2309822E-08  0.3299700E+04  0.7818609E-02  0.8162972E-01
       -1   -1    0    0    0  501  0.00000000000E+00  0.00000000000E+00  0.15244298462E+04  0.15244298462E+04  0.50400001928E-02 0. -1.
        1   -1    0    0  501    0  0.00000000000E+00  0.00000000000E+00 -0.17855893540E+04  0.17855893540E+04  0.50400001928E-02 0.  1.
    10030    2    1    2    0    0  0.00000000000E+00  0.00000000000E+00 -0.26115950776E+03  0.33100192002E+04  0.32997004132E+04 0.  0.
        4    1    3    3  502    0  0.51379044542E+03  0.15261695494E+04  0.22947161354E+03  0.16266016568E+04  0.12699999809E+01 0. -1.
       -4    1    3    3    0  502 -0.51379044542E+03 -0.15261695494E+04 -0.49063112130E+03  0.16834175434E+04  0.12699999809E+01 0.  1.
</event>
<event>
 5   0  0.2309822E-08  0.3294706E+04  0.7818609E-02  0.8164244E-01
       -1   -1    0    0    0  501  0.00000000000E+00  0.00000000000E+00  0.10183038857E+04  0.10183038857E+04  0.50400001928E-02 0.  1.
        1   -1    0    0  501    0  0.00000000000E+00  0.00000000000E+00 -0.26649914545E+04  0.26649914545E+04  0.50400001928E-02 0. -1.
    10030    2    1    2    0    0  0.00000000000E+00  0.00000000000E+00 -0.16466875688E+04  0.36832953402E+04  0.32947055428E+04 0.  0.
        4    1    3    3  502    0  0.11618712905E+04 -0.56260993419E+03 -0.19674185097E+04  0.23531281390E+04  0.12699999809E+01 0. -1.
       -4    1    3    3    0  502 -0.11618712905E+04  0.56260993419E+03  0.32073094086E+03  0.13301672011E+04  0.12699999809E+01 0.  1.
</event>
<event>
 5   0  0.2244093E-08  0.3300327E+04  0.7818609E-02  0.8162812E-01
       -1   -1    0    0    0  501  0.00000000000E+00  0.00000000000E+00  0.13299123567E+04  0.13299123567E+04  0.50400001928E-02 0.  1.
        1   -1    0    0  501    0  0.00000000000E+00  0.00000000000E+00 -0.20475331819E+04  0.20475331819E+04  0.50400001928E-02 0. -1.
    10030    2    1    2    0    0  0.00000000000E+00  0.00000000000E+00 -0.71762082522E+03  0.33774455386E+04  0.33003270622E+04 0.  0.
        1    1    3    3  502    0 -0.46420695133E+03 -0.10021299718E+04  0.89592553440E+03  0.14221234606E+04  0.50400001928E-02 0.  1.
       -1    1    3    3    0  502  0.46420695133E+03  0.10021299718E+04 -0.16135463596E+04  0.19553220780E+04  0.50400001928E-02 0. -1.
</event>
<event>
 5   0  0.2279938E-08  0.3300998E+04  0.7818609E-02  0.8162641E-01
       -1   -1    0    0    0  501  0.00000000000E+00  0.00000000000E+00  0.10590365926E+04  0.10590365926E+04  0.50400001928E-02 0.  1.
        1   -1    0    0  501    0  0.00000000000E+00  0.00000000000E+00 -0.25722879090E+04  0.25722879090E+04  0.50400001928E-02 0. -1.
    10030    2    1    2    0    0  0.00000000000E+00  0.00000000000E+00 -0.15132513165E+04  0.36313245016E+04  0.33009980444E+04 0.  0.
        3    1    3    3  502    0  0.10516891564E+04 -0.10021605384E+04 -0.16184585025E+04  0.21748066031E+04  0.10100000352E+00 0. -1.
       -3    1    3    3    0  502 -0.10516891564E+04  0.10021605384E+04  0.10520718604E+03  0.14565178985E+04  0.10100000352E+00 0.  1.
</event>
<event>
 5   0  0.2309822E-08  0.3299172E+04  0.7818609E-02  0.8163106E-01
        1   -1    0    0  501    0  0.00000000000E+00  0.00000000000E+00  0.16911858889E+04  0.16911858889E+04  0.50400001928E-02 0. -1.
       -1   -1    0    0    0  501  0.00000000000E+00  0.00000000000E+00 -0.16090089592E+04  0.16090089592E+04  0.50400001928E-02 0.  1.
    10030    2    1    2    0    0  0.00000000000E+00  0.00000000000E+00  0.82176929685E+02  0.33001948482E+04  0.32991715609E+04 0.  0.
        4    1    3    3  502    0  0.64450141613E+03  0.12933651821E+04  0.83692058716E+03  0.16699141450E+04  0.12699999809E+01 0.  1.
       -4    1    3    3    0  502 -0.64450141613E+03 -0.12933651821E+04 -0.75474365748E+03  0.16302807032E+04  0.12699999809E+01 0. -1.
</event>
<event>
 5   0  0.7084130E-08  0.3298537E+04  0.7818609E-02  0.8163268E-01
        2   -1    0    0  501    0  0.00000000000E+00  0.00000000000E+00  0.19757269550E+04  0.19757269550E+04  0.25500000920E-02 0.  1.
       -2   -1    0    0    0  501  0.00000000000E+00  0.00000000000E+00 -0.13767518759E+04  0.13767518759E+04  0.25500000920E-02 0. -1.
    10030    2    1    2    0    0  0.00000000000E+00  0.00000000000E+00  0.59897507913E+03  0.33524788309E+04  0.32985365189E+04 0.  0.
        3    1    3    3  502    0  0.13432670778E+04  0.68361447606E+03 -0.38108275812E+03  0.15546444201E+04  0.10100000352E+00 0. -1.
       -3    1    3    3    0  502 -0.13432670778E+04 -0.68361447606E+03  0.98005783724E+03  0.17978344108E+04  0.10100000352E+00 0.  1.
</event>
<event>
 5   0  0.2291682E-08  0.3300410E+04  0.7818609E-02  0.8162791E-01
       -1   -1    0    0    0  501  0.00000000000E+00  0.00000000000E+00  0.24004357840E+04  0.24004357840E+04  0.50400001928E-02 0.  1.
        1   -1    0    0  501    0  0.00000000000E+00  0.00000000000E+00 -0.11344509843E+04  0.11344509843E+04  0.50400001928E-02 0. -1.
    10030    2    1    2    0    0  0.00000000000E+00  0.00000000000E+00  0.12659847998E+04  0.35348867683E+04  0.33004101187E+04 0.  0.
        2    1    3    3  502    0  0.41581525751E+03 -0.12599776528E+04 -0.41790426246E+03  0.13910751190E+04  0.25500000920E-02 0. -1.
       -2    1    3    3    0  502 -0.41581525751E+03  0.12599776528E+04  0.16838890622E+04  0.21438116494E+04  0.25500000920E-02 0.  1.
</event>
<event>
 5   0  0.2279938E-08  0.3298389E+04  0.7818609E-02  0.8163305E-01
        1   -1    0    0  501    0  0.00000000000E+00  0.00000000000E+00  0.16763429848E+04  0.16763429848E+04  0.50400001928E-02 0. -1.
       -1   -1    0    0    0  501  0.00000000000E+00  0.00000000000E+00 -0.16224856928E+04  0.16224856928E+04  0.50400001928E-02 0.  1.
    10030    2    1    2    0    0  0.00000000000E+00  0.00000000000E+00  0.53857292051E+02  0.32988286776E+04  0.32983890062E+04 0.  0.
        3    1    3    3  502    0 -0.14221656474E+04 -0.78620892423E+03  0.30832516975E+03  0.16540084709E+04  0.10100000352E+00 0.  1.
       -3    1    3    3    0  502  0.14221656474E+04  0.78620892423E+03 -0.25446787769E+03  0.16448202067E+04  0.10100000352E+00 0. -1.
</event>
<event>
 5   0  0.2291682E-08  0.3296705E+04  0.7818609E-02  0.8163734E-01
        1   -1    0    0  501    0  0.00000000000E+00  0.00000000000E+00  0.14853149628E+04  0.14853149628E+04  0.50400001928E-02 0. -1.
       -1   -1    0    0    0  501  0.00000000000E+00  0.00000000000E+00 -0.18292862957E+04  0.18292862957E+04  0.50400001928E-02 0.  1.
    10030    2    1    2    0    0  0.00000000000E+00  0.00000000000E+00 -0.34397133289E+03  0.33146012586E+04  0.32967052076E+04 0.  0.
        2    1    3    3  502    0 -0.14213173432E+04 -0.32553337933E+03 -0.94489230215E+03  0.17375086860E+04  0.25500000920E-02 0.  1.
       -2    1    3    3    0  502  0.14213173432E+04  0.32553337933E+03  0.60092096927E+03  0.15770925726E+04  0.25500000920E-02 0. -1.
</event>
<event>
 5   0  0.6603516E-08  0.3303428E+04  0.7818609E-02  0.8162024E-01
       -2   -1    0    0    0  501  0.00000000000E+00  0.00000000000E+00  0.14889739887E+04  0.14889739887E+04  0.25500000920E-02 0. -1.
        2   -1    0    0  501    0  0.00000000000E+00  0.00000000000E+00 -0.18322407850E+04  0.18322407850E+04  0.25500000920E-02 0.  1.
    10030    2    1    2    0    0  0.00000000000E+00  0.00000000000E+00 -0.34326679624E+03  0.33212147737E+04  0.33034278378E+04 0.  0.
        1    1    3    3  502    0 -0.50534792643E+03 -0.12585192820E+04  0.77626418058E+03  0.15626366782E+04  0.50400001928E-02 0. -1.
       -1    1    3    3    0  502  0.50534792643E+03  0.12585192820E+04 -0.11195309768E+04  0.17585780955E+04  0.50400001928E-02 0.  1.
</event>
<event>
 5   0  0.2244093E-08  0.3286866E+04  0.7818609E-02  0.8166245E-01
       -1   -1    0    0    0  501  0.00000000000E+00  0.00000000000E+00  0.14718492760E+04  0.14718492760E+04  0.50400001928E-02 0. -1.
        1   -1    0    0  501    0  0.00000000000E+00  0.00000000000E+00 -0.18350191484E+04  0.18350191484E+04  0.50400001928E-02 0.  1.
    10030    2    1    2    0    0  0.00000000000E+00  0.00000000000E+00 -0.36316987246E+03  0.33068684244E+04  0.32868657441E+04 0.  0.
        1    1    3    3  502    0  0.82317271606E+03 -0.41568014712E+03 -0.15501825389E+04  0.18037375666E+04  0.50400001928E-02 0.  1.
       -1    1    3    3    0  502 -0.82317271606E+03  0.41568014712E+03  0.11870126665E+04  0.15031308578E+04  0.50400001928E-02 0. -1.
</event>
<event>
 5   0  0.6765252E-08  0.3300347E+04  0.7818609E-02  0.8162807E-01
       -2   -1    0    0    0  501  0.00000000000E+00  0.00000000000E+00  0.13884530068E+04  0.13884530068E+04  0.25500000920E-02 0.  1.
        2   -1    0    0  501    0  0.00000000000E+00  0.00000000000E+00 -0.19612276803E+04  0.19612276803E+04  0.25500000920E-02 0. -1.
    10030    2    1    2    0    0  0.00000000000E+00  0.00000000000E+00 -0.57277467349E+03  0.33496806871E+04  0.33003469331E+04 0.  0.
        2    1    3    3  502    0 -0.74346837368E+03  0.14129924698E+04 -0.70948742873E+03  0.17471878416E+04  0.25500000920E-02 0. -1.
       -2    1    3    3    0  502  0.74346837368E+03 -0.14129924698E+04  0.13671275524E+03  0.16024928455E+04  0.25500000920E-02 0.  1.
</event>
<event>
 5   0  0.2200750E-08  0.3300424E+04  0.7818609E-02  0.8162787E-01
        3   -1    0    0  501    0  0.00000000000E+00  0.00000000000E+00  0.21051171561E+04  0.21051171585E+04  0.10100000352E+00 0. -1.
       -3   -1    0    0    0  501  0.00000000000E+00  0.00000000000E+00 -0.12936095731E+04  0.12936095771E+04  0.10100000352E+00 0.  1.
    10030    2    1    2    0    0  0.00000000000E+00  0.00000000000E+00  0.81150758300E+03  0.33987267356E+04  0.33004240434E+04 0.  0.
        2    1    3    3  502    0 -0.14872698905E+04 -0.54208105531E+03  0.88587669143E+03  0.18140014086E+04  0.25500000920E-02 0.  1.
       -2    1    3    3    0  502  0.14872698905E+04  0.54208105531E+03 -0.74369108426E+02  0.15847253270E+04  0.25500000920E-02 0. -1.
</event>
<event>
 5   0  0.2244093E-08  0.3301132E+04  0.7818609E-02  0.8162607E-01
       -1   -1    0    0    0  501  0.00000000000E+00  0.00000000000E+00  0.11428969667E+04  0.11428969668E+04  0.50400001928E-02 0.  1.
        1   -1    0    0  501    0  0.00000000000E+00  0.00000000000E+00 -0.23837392641E+04  0.23837392641E+04  0.50400001928E-02 0. -1.
    10030    2    1    2    0    0  0.00000000000E+00  0.00000000000E+00 -0.12408422974E+04  0.35266362309E+04  0.33011321540E+04 0.  0.
        1    1    3    3  502    0 -0.14398434900E+03  0.11155557048E+03  0.11321276311E+04  0.11466861433E+04  0.50400001928E-02 0.  1.
       -1    1    3    3    0  502  0.14398434900E+03 -0.11155557048E+03 -0.23729699284E+04  0.23799500876E+04  0.50400001928E-02 0. -1.
</event>
<event>
 5   0  0.2279938E-08  0.3300529E+04  0.7818609E-02  0.8162761E-01
        1   -1    0    0  501    0  0.00000000000E+00  0.00000000000E+00  0.11452873333E+04  0.11452873333E+04  0.50400001928E-02 0.  1.
       -1   -1    0    0    0  501  0.00000000000E+00  0.00000000000E+00 -0.23778950140E+04  0.23778950140E+04  0.50400001928E-02 0. -1.
    10030    2    1    2    0    0  0.00000000000E+00  0.00000000000E+00 -0.12326076807E+04  0.35231823472E+04  0.33005290723E+04 0.  0.
        3    1    3    3  502    0  0.11343172613E+04  0.10390106146E+04  0.21635689669E+02  0.15384039846E+04  0.10100000352E+00 0.  1.
       -3    1    3    3    0  502 -0.11343172613E+04 -0.10390106146E+04 -0.12542433704E+04  0.19847783626E+04  0.10100000352E+00 0. -1.
</event>
<event>
 5   0  0.7084130E-08  0.3298543E+04  0.7818609E-02  0.8163266E-01
        2   -1    0    0  501    0  0.00000000000E+00  0.00000000000E+00  0.26665317958E+04  0.26665317958E+04  0.25500000920E-02 0.  1.
       -2   -1    0    0    0  501  0.00000000000E+00  0.00000000000E+00 -0.10200878990E+04  0.10200878990E+04  0.25500000920E-02 0. -1.
    10030    2    1    2    0    0  0.00000000000E+00  0.00000000000E+00  0.16464438968E+04  0.36866196948E+04  0.32985432040E+04 0.  0.
        3    1    3    3  502    0 -0.14424412849E+03 -0.11882460746E+03 -0.10082157452E+04  0.10253900014E+04  0.10100000352E+00 0. -1.
       -3    1    3    3    0  502  0.14424412849E+03  0.11882460746E+03  0.26546596420E+04  0.26612296934E+04  0.10100000352E+00 0.  1.
</event>
<event>
 5   0  0.6706080E-08  0.3300644E+04  0.7818609E-02  0.8162731E-01
       -2   -1    0    0    0  501  0.00000000000E+00  0.00000000000E+00  0.10864124501E+04  0.10864124501E+04  0.25500000920E-02 0. -1.
        2   -1    0    0  501    0  0.00000000000E+00  0.00000000000E+00 -0.25069331861E+04  0.25069331861E+04  0.25500000920E-02 0.  1.
    10030    2    1    2    0    0  0.00000000000E+00  0.00000000000E+00 -0.14205207360E+04  0.35933456361E+04  0.33006444370E+04 0.  0.
        4    1    3    3  502    0  0.77940479363E+03 -0.48692001743E+03 -0.22025856992E+04  0.23866185936E+04  0.12699999809E+01 0.  1.
       -4    1    3    3    0  502 -0.77940479363E+03  0.48692001743E+03  0.78206496322E+03  0.12067270426E+04  0.12699999809E+01 0. -1.
</event>
<event>
 5   0  0.2244093E-08  0.3298940E+04  0.7818609E-02  0.8163165E-01
       -1   -1    0    0    0  501  0.00000000000E+00  0.00000000000E+00  0.12393313226E+04  0.12393313226E+04  0.50400001928E-02 0.  1.
        1   -1    0    0  501    0  0.00000000000E+00  0.00000000000E+00 -0.21953382643E+04  0.21953382643E+04  0.50400001928E-02 0. -1.
    10030    2    1    2    0    0  0.00000000000E+00  0.00000000000E+00 -0.95600694179E+03  0.34346695869E+04  0.32989401175E+04 0.  0.
        1    1    3    3  502    0 -0.29966966383E+03 -0.33461076172E+03  0.11744275550E+04  0.12573966563E+04  0.50400001928E-02 0.  1.
       -1    1    3    3    0  502  0.29966966383E+03  0.33461076172E+03 -0.21304344968E+04  0.21772729306E+04  0.50400001928E-02 0. -1.
</event>
<event>
 5   0  0.2383270E-08  0.3299746E+04  0.7818609E-02  0.8162960E-01
        1   -1    0    0  501    0  0.00000000000E+00  0.00000000000E+00  0.90485410160E+03  0.90485410161E+03  0.50400001928E-02 0. -1.
       -1   -1    0    0    0  501  0.00000000000E+00  0.00000000000E+00 -0.30083091207E+04  0.30083091207E+04  0.50400001928E-02 0.  1.
    10030    2    1    2    0    0  0.00000000000E+00  0.00000000000E+00 -0.21034550191E+04  0.39131632223E+04  0.32997459580E+04 0.  0.
        5    1    3    3  502    0  0.79905346404E+03 -0.10705235464E+04  0.96545244305E+02  0.13393469214E+04  0.46999998093E+01 0. -1.
       -5    1    3    3    0  502 -0.79905346404E+03  0.10705235464E+04 -0.22000002634E+04  0.25738163009E+04  0.46999998093E+01 0.  1.
</event>
<event>
 5   0  0.7084130E-08  0.3306327E+04  0.7818609E-02  0.8161287E-01
        2   -1    0    0  501    0  0.00000000000E+00  0.00000000000E+00  0.19061211012E+04  0.19061211012E+04  0.25500000920E-02 0.  1.
       -2   -1    0    0    0  501  0.00000000000E+00  0.00000000000E+00 -0.14337750102E+04  0.14337750102E+04  0.25500000920E-02 0. -1.
    10030    2    1    2    0    0  0.00000000000E+00  0.00000000000E+00  0.47234609105E+03  0.33398961114E+04  0.33063265425E+04 0.  0.
        3    1    3    3  502    0 -0.11242471532E+04 -0.67624335597E+02  0.14586019514E+04  0.18428305335E+04  0.10100000352E+00 0.  1.
       -3    1    3    3    0  502  0.11242471532E+04  0.67624335597E+02 -0.98625586039E+03  0.14970655779E+04  0.10100000352E+00 0. -1.
</event>
<event>
 5   0  0.2309822E-08  0.3298438E+04  0.7818609E-02  0.8163293E-01
        1   -1    0    0  501    0  0.00000000000E+00  0.00000000000E+00  0.15451251368E+04  0.15451251368E+04  0.50400001928E-02 0.  1.
       -1   -1    0    0    0  501  0.00000000000E+00  0.00000000000E+00 -0.17603254380E+04  0.17603254380E+04  0.50400001928E-02 0. -1.
    10030    2    1    2    0    0  0.00000000000E+00  0.00000000000E+00 -0.21520030120E+03  0.33054505749E+04  0.32984378626E+04 0.  0.
        4    1    3    3  502    0  0.11534211943E+04  0.71658899198E+03  0.83036053450E+03  0.15916596574E+04  0.12699999809E+01 0.  1.
       -4    1    3    3    0  502 -0.11534211943E+04 -0.71658899198E+03 -0.10455608357E+04  0.17137909175E+04  0.12699999809E+01 0. -1.
</event>
<event>
 5   0  0.7084130E-08  0.3300262E+04  0.7818609E-02  0.8162829E-01
        2   -1    0    0  501    0  0.00000000000E+00  0.00000000000E+00  0.20415938336E+04  0.20415938336E+04  0.25500000920E-02 0. -1.
       -2   -1    0    0    0  501  0.00000000000E+00  0.00000000000E+00 -0.13337288409E+04  0.13337288409E+04  0.25500000920E-02 0.  1.
    10030    2    1    2    0    0  0.00000000000E+00  0.00000000000E+00  0.70786499271E+03  0.33753226744E+04  0.33002621575E+04 0.  0.
        3    1    3    3  502    0 -0.10024561370E+04 -0.10126177030E+04 -0.49723349110E+03  0.15091567426E+04  0.10100000352E+00 0.  1.
       -3    1    3    3    0  502  0.10024561370E+04  0.10126177030E+04  0.12050984838E+04  0.18661659318E+04  0.10100000352E+00 0. -1.
</event>
<event>
 5   0  0.2383270E-08  0.3299111E+04  0.7818609E-02  0.8163122E-01
       -1   -1    0    0    0  501  0.00000000000E+00  0.00000000000E+00  0.31669897323E+04  0.31669897323E+04  0.50400001928E-02 0. -1.
        1   -1    0    0  501    0  0.00000000000E+00  0.00000000000E+00 -0.85918578324E+03  0.85918578326E+03  0.50400001928E-02 0.  1.
    10030    2    1    2    0    0  0.00000000000E+00  0.00000000000E+00  0.23078039491E+04  0.40261755156E+04  0.32991105187E+04 0.  0.
        5    1    3    3  502    0  0.12375151796E+04 -0.17469413644E+03  0.24677546290E+04  0.27661881461E+04  0.46999998093E+01 0. -1.
       -5    1    3    3    0  502 -0.12375151796E+04  0.17469413644E+03 -0.15995067990E+03  0.12599873694E+04  0.46999998093E+01 0.  1.
</event>
<event>
 5   0  0.2291682E-08  0.3323530E+04  0.7818609E-02  0.8156934E-01
        1   -1    0    0  501    0  0.00000000000E+00  0.00000000000E+00  0.19413643242E+04  0.19413643242E+04  0.50400001928E-02 0. -1.
       -1   -1    0    0    0  501  0.00000000000E+00  0.00000000000E+00 -0.14224341977E+04  0.14224341977E+04  0.50400001928E-02 0.  1.
    10030    2    1    2    0    0  0.00000000000E+00  0.00000000000E+00  0.51893012658E+03  0.33637985219E+04  0.33235300540E+04 0.  0.
        2    1    3    3  502    0 -0.35618533327E+03 -0.14151199304E+04  0.10641009835E+04  0.18060297097E+04  0.25500000920E-02 0. -1.
       -2    1    3    3    0  502  0.35618533327E+03  0.14151199304E+04 -0.54517085693E+03  0.15577688122E+04  0.25500000920E-02 0.  1.
</event>
<event>
 5   0  0.6821287E-08  0.3299942E+04  0.7818609E-02  0.8162910E-01
        2   -1    0    0  501    0  0.00000000000E+00  0.00000000000E+00  0.15893362927E+04  0.15893362927E+04  0.25500000920E-02 0. -1.
       -2   -1    0    0    0  501  0.00000000000E+00  0.00000000000E+00 -0.17129185183E+04  0.17129185183E+04  0.25500000920E-02 0.  1.
    10030    2    1    2    0    0  0.00000000000E+00  0.00000000000E+00 -0.12358222559E+03  0.33022548111E+04  0.32999415557E+04 0.  0.
        5    1    3    3  502    0 -0.73319784538E+03  0.34243861567E+03 -0.15006927396E+04  0.17049762681E+04  0.46999998093E+01 0.  1.
       -5    1    3    3    0  502  0.73319784538E+03 -0.34243861567E+03  0.13771105140E+04  0.15972785430E+04  0.46999998093E+01 0. -1.
</event>
<event>
 5   0  0.2244093E-08  0.3300417E+04  0.7818609E-02  0.8162789E-01
       -1   -1    0    0    0  501  0.00000000000E+00  0.00000000000E+00  0.16667660236E+04  0.16667660236E+04  0.50400001928E-02 0.  1.
        1   -1    0    0  501    0  0.00000000000E+00  0.00000000000E+00 -0.16338152460E+04  0.16338152460E+04  0.50400001928E-02 0. -1.
    10030    2    1    2    0    0  0.00000000000E+00  0.00000000000E+00  0.32950777593E+02  0.33005812695E+04  0.33004167863E+04 0.  0.
        1    1    3    3  502    0  0.55017670496E+03  0.12496034905E+04 -0.91038494119E+03  0.16410374863E+04  0.50400001928E-02 0. -1.
       -1    1    3    3    0  502 -0.55017670496E+03 -0.12496034905E+04  0.94333571878E+03  0.16595437833E+04  0.50400001928E-02 0.  1.
</event>
<event>
 5   0  0.2244093E-08  0.3301593E+04  0.7818609E-02  0.8162490E-01
        1   -1    0    0  501    0  0.00000000000E+00  0.00000000000E+00  0.27373042984E+04  0.27373042984E+04  0.50400001928E-02 0. -1.
       -1   -1    0    0    0  501  0.00000000000E+00  0.00000000000E+00 -0.99555239315E+03  0.99555239317E+03  0.50400001928E-02 0.  1.
    10030    2    1    2    0    0  0.00000000000E+00  0.00000000000E+00  0.17417519052E+04  0.37328566916E+04  0.33015934608E+04 0.  0.
        1    1    3    3  502    0  0.99407330272E+03 -0.11970812918E+04  0.24755049818E+03  0.15755845263E+04  0.50400001928E-02 0. -1.
       -1    1    3    3    0  502 -0.99407330272E+03  0.11970812918E+04  0.14942014071E+04  0.21572721653E+04  0.50400001928E-02 0.  1.
</event>
<event>
 5   0  0.7084130E-08  0.3295533E+04  0.7818609E-02  0.8164033E-01
        2   -1    0    0  501    0  0.00000000000E+00  0.00000000000E+00  0.20694304278E+04  0.20694304278E+04  0.25500000920E-02 0.  1.
       -2   -1    0    0    0  501  0.00000000000E+00  0.00000000000E+00 -0.13120202068E+04  0.13120202068E+04  0.25500000920E-02 0. -1.
    10030    2    1    2    0    0  0.00000000000E+00  0.00000000000E+00  0.75741022108E+03  0.33814506346E+04  0.32955330603E+04 0.  0.
        3    1    3    3  502    0  0.12014022347E+04  0.37331478407E+03  0.14705927163E+04  0.19352969294E+04  0.10100000352E+00 0.  1.
       -3    1    3    3    0  502 -0.12014022347E+04 -0.37331478407E+03 -0.71318249517E+03  0.14461537052E+04  0.10100000352E+00 0. -1.
</event>
<event>
 5   0  0.2309822E-08  0.3298039E+04  0.7818609E-02  0.8163395E-01
       -1   -1    0    0    0  501  0.00000000000E+00  0.00000000000E+00  0.13451506926E+04  0.13451506926E+04  0.50400001928E-02 0. -1.
        1   -1    0    0  501    0  0.00000000000E+00  0.00000000000E+00 -0.20215322372E+04  0.20215322372E+04  0.50400001928E-02 0.  1.
    10030    2    1    2    0    0  0.00000000000E+00  0.00000000000E+00 -0.67638154462E+03  0.33666829298E+04  0.32980391077E+04 0.  0.
        4    1    3    3  502    0  0.10542743013E+04 -0.10820675842E+04 -0.10129317696E+04  0.18188999263E+04  0.12699999809E+01 0.  1.
       -4    1    3    3    0  502 -0.10542743013E+04  0.10820675842E+04  0.33655022494E+03  0.15477830035E+04  0.12699999809E+01 0. -1.
</event>
<event>
 5   0  0.2244093E-08  0.3301402E+04  0.7818609E-02  0.8162539E-01
       -1   -1    0    0    0  501  0.00000000000E+00  0.00000000000E+00  0.12377653062E+04  0.12377653062E+04  0.50400001928E-02 0. -1.
        1   -1    0    0  501    0  0.00000000000E+00  0.00000000000E+00 -0.22013978587E+04  0.22013978587E+04  0.50400001928E-02 0.  1.
    10030    2    1    2    0    0  0.00000000000E+00  0.00000000000E+00 -0.96363255247E+03  0.34391631649E+04  0.33014020626E+04 0.  0.
        1    1    3    3  502    0  0.19387916926E+02  0.33281228533E+02  0.12372971273E+04  0.12378964871E+04  0.50400001928E-02 0. -1.
       -1    1    3    3    0  502 -0.19387916926E+02 -0.33281228533E+02 -0.22009296798E+04  0.22012666778E+04  0.50400001928E-02 0.  1.
</event>
<event>
 5   0  0.6821287E-08  0.3299404E+04  0.7818609E-02  0.8163047E-01
       -2   -1    0    0    0  501  0.00000000000E+00  0.00000000000E+00  0.11191135211E+04  0.11191135211E+04  0.25500000920E-02 0.  1.
        2   -1    0    0  501    0  0.00000000000E+00  0.00000000000E+00 -0.24318506435E+04  0.24318506435E+04  0.25500000920E-02 0. -1.
    10030    2    1    2    0    0  0.00000000000E+00  0.00000000000E+00 -0.13127371223E+04  0.35509641646E+04  0.32994041501E+04 0.  0.
        5    1    3    3  502    0  0.14380323941E+03  0.11565385170E+04 -0.19129655047E+04  0.22400267465E+04  0.46999998093E+01 0. -1.
       -5    1    3    3    0  502 -0.14380323941E+03 -0.11565385170E+04  0.60022838237E+03  0.13109374181E+04  0.46999998093E+01 0.  1.
</event>
<event>
 5   0  0.2383270E-08  0.3301280E+04  0.7818609E-02  0.8162570E-01
        1   -1    0    0  501    0  0.00000000000E+00  0.00000000000E+00  0.25989773141E+04  0.25989773141E+04  0.50400001928E-02 0. -1.
       -1   -1    0    0    0  501  0.00000000000E+00  0.00000000000E+00 -0.10483404192E+04  0.10483404193E+04  0.50400001928E-02 0.  1.
    10030    2    1    2    0    0  0.00000000000E+00  0.00000000000E+00  0.15506368948E+04  0.36473177333E+04  0.33012803377E+04 0.  0.
        5    1    3    3  502    0  0.36586350076E+03  0.10447684733E+04 -0.57743937704E+03  0.12485413843E+04  0.46999998093E+01 0.  1.
       -5    1    3    3    0  502 -0.36586350076E+03 -0.10447684733E+04  0.21280762719E+04  0.23987763491E+04  0.46999998093E+01 0. -1.
</event>
<event>
 5   0  0.7084130E-08  0.3300356E+04  0.7818609E-02  0.8162805E-01
       -2   -1    0    0    0  501  0.00000000000E+00  0.00000000000E+00  0.20575115102E+04  0.20575115102E+04  0.25500000920E-02 0.  1.
        2   -1    0    0  501    0  0.00000000000E+00  0.00000000000E+00 -0.13234861323E+04  0.13234861323E+04  0.25500000920E-02 0. -1.
    10030    2    1    2    0    0  0.00000000000E+00  0.00000000000E+00  0.73402537792E+03  0.33809976425E+04  0.33003563146E+04 0.  0.
        3    1    3    3  502    0 -0.26481154759E+03  0.21647660832E+02 -0.13014298590E+04  0.13282746196E+04  0.10100000352E+00 0. -1.
       -3    1    3    3    0  502  0.26481154759E+03 -0.21647660832E+02  0.20354552369E+04  0.20527230229E+04  0.10100000352E+00 0.  1.
</event>
<event>
 5   0  0.2291682E-08  0.3298158E+04  0.7818609E-02  0.8163364E-01
        1   -1    0    0  501    0  0.00000000000E+00  0.00000000000E+00  0.20856035182E+04  0.20856035182E+04  0.50400001928E-02 0.  1.
       -1   -1    0    0    0  501  0.00000000000E+00  0.00000000000E+00 -0.13039205414E+04  0.13039205414E+04  0.50400001928E-02 0. -1.
    10030    2    1    2    0    0  0.00000000000E+00  0.00000000000E+00  0.78168297673E+03  0.33895240596E+04  0.32981578304E+04 0.  0.
        2    1    3    3  502    0  0.10971064156E+04  0.70027651495E+03 -0.64984671422E+03  0.14547612988E+04  0.25500000920E-02 0. -1.
       -2    1    3    3    0  502 -0.10971064156E+04 -0.70027651495E+03  0.14315296909E+04  0.19347627608E+04  0.25500000920E-02 0.  1.
</event>
<event>
 5   0  0.2309822E-08  0.3302060E+04  0.7818609E-02  0.8162371E-01
       -1   -1    0    0    0  501  0.00000000000E+00  0.00000000000E+00  0.14959175431E+04  0.14959175431E+04  0.50400001928E-02 0.  1.
        1   -1    0    0  501    0  0.00000000000E+00  0.00000000000E+00 -0.18222264776E+04  0.18222264776E+04  0.50400001928E-02 0. -1.
    10030    2    1    2    0    0  0.00000000000E+00  0.00000000000E+00 -0.32630893453E+03  0.33181440207E+04  0.33020602995E+04 0.  0.
        4    1    3    3  502    0  0.12530154671E+04 -0.10586731080E+04  0.25007243035E+02  0.16405680374E+04  0.12699999809E+01 0. -1.
       -4    1    3    3    0  502 -0.12530154671E+04  0.10586731080E+04 -0.35131617757E+03  0.16775759833E+04  0.12699999809E+01 0.  1.
</event>
<event>
 5   0  0.2244093E-08  0.3292691E+04  0.7818609E-02  0.8164758E-01
        1   -1    0    0  501    0  0.00000000000E+00  0.00000000000E+00  0.10167180775E+04  0.10167180775E+04  0.50400001928E-02 0. -1.
       -1   -1    0    0    0  501  0.00000000000E+00  0.00000000000E+00 -0.26658842965E+04  0.26658842965E+04  0.50400001928E-02 0.  1.
    10030    2    1    2    0    0  0.00000000000E+00  0.00000000000E+00 -0.16491662191E+04  0.36826023740E+04  0.32926905453E+04 0.  0.
        1    1    3    3  502    0 -0.73238766820E+03  0.37482958896E+01  0.82448418136E+03  0.11028054731E+04  0.50400001928E-02 0. -1.
       -1    1    3    3    0  502  0.73238766820E+03 -0.37482958896E+01 -0.24736504004E+04  0.25797969009E+04  0.50400001928E-02 0.  1.
</event>
<event>
 5   0  0.2309822E-08  0.3299997E+04  0.7818609E-02  0.8162896E-01
        1   -1    0    0  501    0  0.00000000000E+00  0.00000000000E+00  0.19922279496E+04  0.19922279497E+04  0.50400001928E-02 0. -1.
       -1   -1    0    0    0  501  0.00000000000E+00  0.00000000000E+00 -0.13665576676E+04  0.13665576676E+04  0.50400001928E-02 0.  1.
    10030    2    1    2    0    0  0.00000000000E+00  0.00000000000E+00  0.62567028207E+03  0.33587856172E+04  0.32999965940E+04 0.  0.
        4    1    3    3  502    0  0.48848829903E+03 -0.87960508006E+03  0.16438657271E+04  0.19273354811E+04  0.12699999809E+01 0. -1.
       -4    1    3    3    0  502 -0.48848829903E+03  0.87960508006E+03 -0.10181954450E+04  0.14314501361E+04  0.12699999809E+01 0.  1.
</event>
<event>
 5   0  0.6765252E-08  0.3300287E+04  0.7818609E-02  0.8162822E-01
        2   -1    0    0  501    0  0.00000000000E+00  0.00000000000E+00  0.19981901560E+04  0.19981901560E+04  0.25500000920E-02 0. -1.
       -2   -1    0    0    0  501  0.00000000000E+00  0.00000000000E+00 -0.13627197591E+04  0.13627197591E+04  0.25500000920E-02 0.  1.
    10030    2    1    2    0    0  0.00000000000E+00  0.00000000000E+00  0.63547039684E+03  0.33609099151E+04  0.33002867803E+04 0.  0.
        2    1    3    3  502    0  0.87854703608E+03 -0.13839153164E+04  0.12476377425E+03  0.16439685207E+04  0.25500000920E-02 0.  1.
       -2    1    3    3    0  502 -0.87854703608E+03  0.13839153164E+04  0.51070662258E+03  0.17169413944E+04  0.25500000920E-02 0. -1.
</event>
<event>
 5   0  0.6603516E-08  0.3301976E+04  0.7818609E-02  0.8162393E-01
       -2   -1    0    0    0  501  0.00000000000E+00  0.00000000000E+00  0.24331467247E+04  0.24331467247E+04  0.25500000920E-02 0. -1.
        2   -1    0    0  501    0  0.00000000000E+00  0.00000000000E+00 -0.11202620213E+04  0.11202620213E+04  0.25500000920E-02 0.  1.
    10030    2    1    2    0    0  0.00000000000E+00  0.00000000000E+00  0.13128847033E+04  0.35534087460E+04  0.33019762979E+04 0.  0.
        1    1    3    3  502    0 -0.51404951171E+03 -0.11160710605E+04  0.18430856972E+04  0.22151357520E+04  0.50400001928E-02 0. -1.
       -1    1    3    3    0  502  0.51404951171E+03  0.11160710605E+04 -0.53020099390E+03  0.13382729940E+04  0.50400001928E-02 0.  1.
</event>
<event>
 5   0  0.7084130E-08  0.3296003E+04  0.7818609E-02  0.8163913E-01
       -2   -1    0    0    0  501  0.00000000000E+00  0.00000000000E+00  0.15468511679E+04  0.15468511679E+04  0.25500000920E-02 0. -1.
        2   -1    0    0  501    0  0.00000000000E+00  0.00000000000E+00 -0.17557656680E+04  0.17557656680E+04  0.25500000920E-02 0.  1.
    10030    2    1    2    0    0  0.00000000000E+00  0.00000000000E+00 -0.20891450015E+03  0.33026168359E+04  0.32960025329E+04 0.  0.
        3    1    3    3  502    0  0.93561685417E+03  0.13377436087E+04  0.12176406565E+03  0.16369982768E+04  0.10100000352E+00 0.  1.
       -3    1    3    3    0  502 -0.93561685417E+03 -0.13377436087E+04 -0.33067856580E+03  0.16656185591E+04  0.10100000352E+00 0. -1.
</event>
<event>
 5   0  0.6603516E-08  0.3301427E+04  0.7818609E-02  0.8162532E-01
        2   -1    0    0  501    0  0.00000000000E+00  0.00000000000E+00  0.17548281841E+04  0.17548281841E+04  0.25500000920E-02 0. -1.
       -2   -1    0    0    0  501  0.00000000000E+00  0.00000000000E+00 -0.15527756532E+04  0.15527756532E+04  0.25500000920E-02 0.  1.
    10030    2    1    2    0    0  0.00000000000E+00  0.00000000000E+00  0.20205253091E+03  0.33076038373E+04  0.33014266490E+04 0.  0.
        1    1    3    3  502    0 -0.83299833690E+03  0.11597782326E+04  0.93075620151E+03  0.17044878659E+04  0.50400001928E-02 0.  1.
       -1    1    3    3    0  502  0.83299833690E+03 -0.11597782326E+04 -0.72870367061E+03  0.16031159714E+04  0.50400001928E-02 0. -1.
</event>
<event>
 5   0  0.6706080E-08  0.3302392E+04  0.7818609E-02  0.8162287E-01
       -2   -1    0    0    0  501  0.00000000000E+00  0.00000000000E+00  0.10666140204E+04  0.10666140204E+04  0.25500000920E-02 0.  1.
        2   -1    0    0  501    0  0.00000000000E+00  0.00000000000E+00 -0.25561719663E+04  0.25561719663E+04  0.25500000920E-02 0. -1.
    10030    2    1    2    0    0  0.00000000000E+00  0.00000000000E+00 -0.14895579458E+04  0.36227859867E+04  0.33023923800E+04 0.  0.
        4    1    3    3  502    0 -0.12493387916E+04  0.10402672142E+04 -0.42788685502E+03  0.16810984703E+04  0.12699999809E+01 0.  1.
       -4    1    3    3    0  502  0.12493387916E+04 -0.10402672142E+04 -0.10616710908E+04  0.19416875164E+04  0.12699999809E+01 0. -1.
</event>
<event>
 5   0  0.2279938E-08  0.3299762E+04  0.7818609E-02  0.8162956E-01
       -1   -1    0    0    0  501  0.00000000000E+00  0.00000000000E+00  0.12650875873E+04  0.12650875873E+04  0.50400001928E-02 0. -1.
        1   -1    0    0  501    0  0.00000000000E+00  0.00000000000E+00 -0.21517142733E+04  0.21517142733E+04  0.50400001928E-02 0.  1.
    10030    2    1    2    0    0  0.00000000000E+00  0.00000000000E+00 -0.88662668601E+03  0.34168018607E+04  0.32997618209E+04 0.  0.
        3    1    3    3  502    0  0.30225670559E+03  0.13986154909E+04 -0.12938002751E+04  0.19290939763E+04  0.10100000352E+00 0.  1.
       -3    1    3    3    0  502 -0.30225670559E+03 -0.13986154909E+04  0.40717358908E+03  0.14877078844E+04  0.10100000352E+00 0. -1.
</event>
<event>
 5   0  0.2244093E-08  0.3302738E+04  0.7818609E-02  0.8162199E-01
       -1   -1    0    0    0  501  0.00000000000E+00  0.00000000000E+00  0.22112306555E+04  0.22112306555E+04  0.50400001928E-02 0. -1.
        1   -1    0    0  501    0  0.00000000000E+00  0.00000000000E+00 -0.12332584075E+04  0.12332584075E+04  0.50400001928E-02 0.  1.
    10030    2    1    2    0    0  0.00000000000E+00  0.00000000000E+00  0.97797224794E+03  0.34444890630E+04  0.33027375293E+04 0.  0.
        1    1    3    3  502    0  0.12665807056E+04  0.50254781118E+03  0.14618895284E+04  0.19984749134E+04  0.50400001928E-02 0. -1.
       -1    1    3    3    0  502 -0.12665807056E+04 -0.50254781118E+03 -0.48391728047E+03  0.14460141496E+04  0.50400001928E-02 0.  1.
</event>
<event>
 5   0  0.2200750E-08  0.3297672E+04  0.7818609E-02  0.8163488E-01
       -3   -1    0    0    0  501  0.00000000000E+00  0.00000000000E+00  0.27065795945E+04  0.27065795964E+04  0.10100000352E+00 0. -1.
        3   -1    0    0  501    0  0.00000000000E+00  0.00000000000E+00 -0.10044636612E+04  0.10044636663E+04  0.10100000352E+00 0.  1.
    10030    2    1    2    0    0  0.00000000000E+00  0.00000000000E+00  0.17021159333E+04  0.37110432627E+04  0.32976724287E+04 0.  0.
        4    1    3    3  502    0 -0.88035235194E+03  0.54594579030E+03  0.22946626818E+04  0.25176488050E+04  0.12699999809E+01 0. -1.
       -4    1    3    3    0  502  0.88035235194E+03 -0.54594579030E+03 -0.59254674847E+03  0.11933944576E+04  0.12699999809E+01 0.  1.
</event>
<event>
 5   0  0.2244093E-08  0.3300106E+04  0.7818609E-02  0.8162868E-01
       -1   -1    0    0    0  501  0.00000000000E+00  0.00000000000E+00  0.32182739043E+04  0.32182739043E+04  0.50400001928E-02 0.  1.
        1   -1    0    0  501    0  0.00000000000E+00  0.00000000000E+00 -0.84600483280E+03  0.84600483281E+03  0.50400001928E-02 0. -1.
    10030    2    1    2    0    0  0.00000000000E+00  0.00000000000E+00  0.23722690715E+04  0.40642787371E+04  0.33001062264E+04 0.  0.
        1    1    3    3  502    0 -0.10980459085E+03 -0.16461808357E+04  0.12188783871E+04  0.20512515484E+04  0.50400001928E-02 0.  1.
       -1    1    3    3    0  502  0.10980459085E+03  0.16461808357E+04  0.11533906844E+04  0.20130271888E+04  0.50400001928E-02 0. -1.
</event>
<event>
 5   0  0.2309822E-08  0.3299672E+04  0.7818609E-02  0.8162979E-01
        1   -1    0    0  501    0  0.00000000000E+00  0.00000000000E+00  0.16124053618E+04  0.16124053618E+04  0.50400001928E-02 0.  1.
       -1   -1    0    0    0  501  0.00000000000E+00  0.00000000000E+00 -0.16881356934E+04  0.16881356934E+04  0.50400001928E-02 0. -1.
    10030    2    1    2    0    0  0.00000000000E+00  0.00000000000E+00 -0.75730331582E+02  0.33005410552E+04  0.32996721313E+04 0.  0.
        4    1    3    3  502    0  0.33895482351E+03  0.12501990588E+04  0.98420103908E+03  0.16268193991E+04  0.12699999809E+01 0.  1.
       -4    1    3    3    0  502 -0.33895482351E+03 -0.12501990588E+04 -0.10599313707E+04  0.16737216562E+04  0.12699999809E+01 0. -1.
</event>
<event>
 5   0  0.2279938E-08  0.3300335E+04  0.7818609E-02  0.8162810E-01
        1   -1    0    0  501    0  0.00000000000E+00  0.00000000000E+00  0.10971441958E+04  0.10971441958E+04  0.50400001928E-02 0. -1.
       -1   -1    0    0    0  501  0.00000000000E+00  0.00000000000E+00 -0.24819455913E+04  0.24819455913E+04  0.50400001928E-02 0.  1.
    10030    2    1    2    0    0  0.00000000000E+00  0.00000000000E+00 -0.13848013955E+04  0.35790897871E+04  0.33003346496E+04 0.  0.
        3    1    3    3  502    0 -0.42248713379E+03  0.36409296110E+03  0.99183414442E+03  0.11378901717E+04  0.10100000352E+00 0. -1.
       -3    1    3    3    0  502  0.42248713379E+03 -0.36409296110E+03 -0.23766355400E+04  0.24411996155E+04  0.10100000352E+00 0.  1.
</event>
<event>
 5   0  0.6706080E-08  0.3299702E+04  0.7818609E-02  0.8162971E-01
       -2   -1    0    0    0  501  0.00000000000E+00  0.00000000000E+00  0.14747439200E+04  0.14747439200E+04  0.25500000920E-02 0. -1.
        2   -1    0    0  501    0  0.00000000000E+00  0.00000000000E+00 -0.18457493429E+04  0.18457493429E+04  0.25500000920E-02 0.  1.
    10030    2    1    2    0    0  0.00000000000E+00  0.00000000000E+00 -0.37100542284E+03  0.33204932629E+04  0.32997015752E+04 0.  0.
        4    1    3    3  502    0 -0.96604405661E+03 -0.12434377806E+04 -0.68117865151E+03  0.17156295060E+04  0.12699999809E+01 0.  1.
       -4    1    3    3    0  502  0.96604405661E+03  0.12434377806E+04  0.31017322867E+03  0.16048637569E+04  0.12699999809E+01 0. -1.
</event>
<event>
 5   0  0.2291682E-08  0.3301529E+04  0.7818609E-02  0.8162506E-01
        1   -1    0    0  501    0  0.00000000000E+00  0.00000000000E+00  0.30107195300E+04  0.30107195300E+04  0.50400001928E-02 0.  1.
       -1   -1    0    0    0  501  0.00000000000E+00  0.00000000000E+00 -0.90510692361E+03  0.90510692362E+03  0.50400001928E-02 0. -1.
    10030    2    1    2    0    0  0.00000000000E+00  0.00000000000E+00  0.21056126064E+04  0.39158264536E+04  0.33015287923E+04 0.  0.
        2    1    3    3  502    0  0.13823529706E+04  0.72098682665E+03  0.16962409989E+04  0.23039000122E+04  0.25500000920E-02 0.  1.
       -2    1    3    3    0  502 -0.13823529706E+04 -0.72098682665E+03  0.40937160743E+03  0.16119264414E+04  0.25500000920E-02 0. -1.
</event>
<event>
 5   0  0.2279938E-08  0.3303457E+04  0.7818609E-02  0.8162016E-01
        1   -1    0    0  501    0  0.00000000000E+00  0.00000000000E+00  0.19976703223E+04  0.19976703223E+04  0.50400001928E-02 0. -1.
       -1   -1    0    0    0  501  0.00000000000E+00  0.00000000000E+00 -0.13656946327E+04  0.13656946327E+04  0.50400001928E-02 0.  1.
    10030    2    1    2    0    0  0.00000000000E+00  0.00000000000E+00  0.63197568952E+03  0.33633649550E+04  0.33034573629E+04 0.  0.
        3    1    3    3  502    0 -0.37274059007E+03 -0.12075632697E+04  0.13987889547E+04  0.18851406176E+04  0.10100000352E+00 0. -1.
       -3    1    3    3    0  502  0.37274059007E+03  0.12075632697E+04 -0.76681326523E+03  0.14782243374E+04  0.10100000352E+00 0.  1.
</event>
<event>
 5   0  0.6821287E-08  0.3300783E+04  0.7818609E-02  0.8162696E-01
        2   -1    0    0  501    0  0.00000000000E+00  0.00000000000E+00  0.17497884398E+04  0.17497884398E+04  0.25500000920E-02 0.  1.
       -2   -1    0    0    0  501  0.00000000000E+00  0.00000000000E+00 -0.15566404814E+04  0.15566404814E+04  0.25500000920E-02 0. -1.
    10030    2    1    2    0    0  0.00000000000E+00  0.00000000000E+00  0.19314795841E+03  0.33064289212E+04  0.33007826462E+04 0.  0.
        5    1    3    3  502    0  0.12464676147E+04  0.61541424303E+03 -0.79452808925E+03  0.16011599482E+04  0.46999998093E+01 0. -1.
       -5    1    3    3    0  502 -0.12464676147E+04 -0.61541424303E+03  0.98767604767E+03  0.17052689730E+04  0.46999998093E+01 0.  1.
</event>
<event>
 5   0  0.2291682E-08  0.3308735E+04  0.7818609E-02  0.8160676E-01
        1   -1    0    0  501    0  0.00000000000E+00  0.00000000000E+00  0.22970939707E+04  0.22970939707E+04  0.50400001928E-02 0.  1.
       -1   -1    0    0    0  501  0.00000000000E+00  0.00000000000E+00 -0.11914759158E+04  0.11914759158E+04  0.50400001928E-02 0. -1.
    10030    2    1    2    0    0  0.00000000000E+00  0.00000000000E+00  0.11056180550E+04  0.34885698865E+04  0.33087351919E+04 0.  0.
        2    1    3    3  502    0  0.16238406167E+04  0.29453632164E+03  0.67450397926E+03  0.17828532220E+04  0.25500000920E-02 0.  1.
       -2    1    3    3    0  502 -0.16238406167E+04 -0.29453632164E+03  0.43111407569E+03  0.17057166645E+04  0.25500000920E-02 0. -1.
</event>
<event>
 5   0  0.2383270E-08  0.3299747E+04  0.7818609E-02  0.8162960E-01
       -1   -1    0    0    0  501  0.00000000000E+00  0.00000000000E+00  0.25282846495E+04  0.25282846495E+04  0.50400001928E-02 0.  1.
        1   -1    0    0  501    0  0.00000000000E+00  0.00000000000E+00 -0.10766517313E+04  0.10766517313E+04  0.50400001928E-02 0. -1.
    10030    2    1    2    0    0  0.00000000000E+00  0.00000000000E+00  0.14516329181E+04  0.36049363808E+04  0.32997466843E+04 0.  0.
        5    1    3    3  502    0 -0.69919354816E+03  0.10376731964E+04  0.19006472029E+04  0.22755481011E+04  0.46999998093E+01 0.  1.
       -5    1    3    3    0  502  0.69919354816E+03 -0.10376731964E+04 -0.44901428480E+03  0.13293882797E+04  0.46999998093E+01 0. -1.
</event>
<event>
 5   0  0.2383270E-08  0.3300117E+04  0.7818609E-02  0.8162866E-01
        1   -1    0    0  501    0  0.00000000000E+00  0.00000000000E+00  0.20753801543E+04  0.20753801543E+04  0.50400001928E-02 0.  1.
       -1   -1    0    0    0  501  0.00000000000E+00  0.00000000000E+00 -0.13119011443E+04  0.13119011443E+04  0.50400001928E-02 0. -1.
    10030    2    1    2    0    0  0.00000000000E+00  0.00000000000E+00  0.76347901004E+03  0.33872812986E+04  0.33001173308E+04 0.  0.
        5    1    3    3  502    0  0.11102729394E+03  0.30364204120E+03  0.20425451442E+04  0.20679792806E+04  0.46999998093E+01 0.  1.
       -5    1    3    3    0  502 -0.11102729394E+03 -0.30364204120E+03 -0.12790661341E+04  0.13193020180E+04  0.46999998093E+01 0. -1.
</event>
<event>
 5   0  0.6765252E-08  0.3299837E+04  0.7818609E-02  0.8162937E-01
        2   -1    0    0  501    0  0.00000000000E+00  0.00000000000E+00  0.22893548711E+04  0.22893548711E+04  0.25500000920E-02 0. -1.
       -2   -1    0    0    0  501  0.00000000000E+00  0.00000000000E+00 -0.11890823613E+04  0.11890823613E+04  0.25500000920E-02 0.  1.
    10030    2    1    2    0    0  0.00000000000E+00  0.00000000000E+00  0.11002725098E+04  0.34784372324E+04  0.32998372663E+04 0.  0.
        2    1    3    3  502    0 -0.87163321292E+03  0.59023707173E+03  0.18893744920E+04  0.21628361541E+04  0.25500000920E-02 0. -1.
       -2    1    3    3    0  502  0.87163321292E+03 -0.59023707173E+03 -0.78910198222E+03  0.13156010782E+04  0.25500000920E-02 0.  1.
</event>
<event>
 5   0  0.6765252E-08  0.3300501E+04  0.7818609E-02  0.8162768E-01
       -2   -1    0    0    0  501  0.00000000000E+00  0.00000000000E+00  0.12323043456E+04  0.12323043456E+04  0.25500000920E-02 0.  1.
        2   -1    0    0  501    0  0.00000000000E+00  0.00000000000E+00 -0.22099467641E+04  0.22099467641E+04  0.25500000920E-02 0. -1.
    10030    2    1    2    0    0  0.00000000000E+00  0.00000000000E+00 -0.97764241845E+03  0.34422511097E+04  0.33005011747E+04 0.  0.
        2    1    3    3  502    0 -0.26572913734E+03 -0.93111787828E+03  0.90488458111E+03  0.13252956586E+04  0.25500000920E-02 0.  1.
       -2    1    3    3    0  502  0.26572913734E+03  0.93111787828E+03 -0.18825269996E+04  0.21169554511E+04  0.25500000920E-02 0. -1.
</event>
<event>
 5   0  0.7084130E-08  0.3300315E+04  0.7818609E-02  0.8162815E-01
       -2   -1    0    0    0  501  0.00000000000E+00  0.00000000000E+00  0.15662937338E+04  0.15662937338E+04  0.25500000920E-02 0. -1.
        2   -1    0    0  501    0  0.00000000000E+00  0.00000000000E+00 -0.17385116013E+04  0.17385116013E+04  0.25500000920E-02 0.  1.
    10030    2    1    2    0    0  0.00000000000E+00  0.00000000000E+00 -0.17221786757E+03  0.33048053351E+04  0.33003150318E+04 0.  0.
        3    1    3    3  502    0  0.85848083656E+03  0.13544299923E+04  0.30371478873E+03  0.16320884271E+04  0.10100000352E+00 0. -1.
       -3    1    3    3    0  502 -0.85848083656E+03 -0.13544299923E+04 -0.47593265629E+03  0.16727169080E+04  0.10100000352E+00 0.  1.
</event>
<event>
 5   0  0.6706080E-08  0.3299717E+04  0.7818609E-02  0.8162967E-01
        2   -1    0    0  501    0  0.00000000000E+00  0.00000000000E+00  0.14387411817E+04  0.14387411817E+04  0.25500000920E-02 0. -1.
       -2   -1    0    0    0  501  0.00000000000E+00  0.00000000000E+00 -0.18919542253E+04  0.18919542253E+04  0.25500000920E-02 0.  1.
    10030    2    1    2    0    0  0.00000000000E+00  0.00000000000E+00 -0.45321304364E+03  0.33306954070E+04  0.32997166289E+04 0.  0.
        4    1    3    3  502    0  0.12665864208E+04 -0.14392228186E+03  0.83064091735E+03  0.15214863559E+04  0.12699999809E+01 0. -1.
       -4    1    3    3    0  502 -0.12665864208E+04  0.14392228186E+03 -0.12838539610E+04  0.18092090511E+04  0.12699999809E+01 0.  1.
</event>
<event>
 5   0  0.2244093E-08  0.3304079E+04  0.7818609E-02  0.8161858E-01
       -1   -1    0    0    0  501  0.00000000000E+00  0.00000000000E+00  0.16482390795E+04  0.16482390795E+04  0.50400001928E-02 0. -1.
        1   -1    0    0  501    0  0.00000000000E+00  0.00000000000E+00 -0.16558489374E+04  0.16558489374E+04  0.50400001928E-02 0.  1.
    10030    2    1    2    0    0  0.00000000000E+00  0.00000000000E+00 -0.76098578320E+01  0.33040880169E+04  0.33040792535E+04 0.  0.
        1    1    3    3  502    0  0.30876521273E+03 -0.14792250574E+04  0.66387356123E+03  0.16505062351E+04  0.50400001928E-02 0. -1.
       -1    1    3    3    0  502 -0.30876521273E+03  0.14792250574E+04 -0.67148341906E+03  0.16535817818E+04  0.50400001928E-02 0.  1.
</event>
<event>
 5   0  0.6706080E-08  0.3302963E+04  0.7818609E-02  0.8162142E-01
        2   -1    0    0  501    0  0.00000000000E+00  0.00000000000E+00  0.17509442139E+04  0.17509442139E+04  0.25500000920E-02 0. -1.
       -2   -1    0    0    0  501  0.00000000000E+00  0.00000000000E+00 -0.15576685552E+04  0.15576685552E+04  0.25500000920E-02 0.  1.
    10030    2    1    2    0    0  0.00000000000E+00  0.00000000000E+00  0.19327565865E+03  0.33086127691E+04  0.33029627573E+04 0.  0.
        4    1    3    3  502    0  0.48242393248E+03  0.13773929056E+04  0.87090572751E+03  0.16995359561E+04  0.12699999809E+01 0. -1.
       -4    1    3    3    0  502 -0.48242393248E+03 -0.13773929056E+04 -0.67763006886E+03  0.16090768130E+04  0.12699999809E+01 0.  1.
</event>
<event>
 5   0  0.2309822E-08  0.3300712E+04  0.7818609E-02  0.8162714E-01
        1   -1    0    0  501    0  0.00000000000E+00  0.00000000000E+00  0.17248931198E+04  0.17248931199E+04  0.50400001928E-02 0.  1.
       -1   -1    0    0    0  501  0.00000000000E+00  0.00000000000E+00 -0.15790400939E+04  0.15790400939E+04  0.50400001928E-02 0. -1.
    10030    2    1    2    0    0  0.00000000000E+00  0.00000000000E+00  0.14585302595E+03  0.33039332137E+04  0.33007122831E+04 0.  0.
        4    1    3    3  502    0 -0.39609847903E+03  0.11178664872E+04 -0.10758668460E+04  0.16012528131E+04  0.12699999809E+01 0. -1.
       -4    1    3    3    0  502  0.39609847903E+03 -0.11178664872E+04  0.12217198719E+04  0.17026804006E+04  0.12699999809E+01 0.  1.
</event>
<event>
 5   0  0.6603516E-08  0.3298621E+04  0.7818609E-02  0.8163246E-01
       -2   -1    0    0    0  501  0.00000000000E+00  0.00000000000E+00  0.14007784528E+04  0.14007784528E+04  0.25500000920E-02 0.  1.
        2   -1    0    0  501    0  0.00000000000E+00  0.00000000000E+00 -0.19419381290E+04  0.19419381290E+04  0.25500000920E-02 0. -1.
    10030    2    1    2    0    0  0.00000000000E+00  0.00000000000E+00 -0.54115967619E+03  0.33427165818E+04  0.32986209772E+04 0.  0.
        1    1    3    3  502    0 -0.50207156293E+02 -0.72541040524E+03 -0.17707354072E+04  0.19142217471E+04  0.50400001928E-02 0. -1.
       -1    1    3    3    0  502  0.50207156293E+02  0.72541040524E+03  0.12295757310E+04  0.14284948348E+04  0.50400001928E-02 0.  1.
</event>
<event>
 5   0  0.2279938E-08  0.3300016E+04  0.7818609E-02  0.8162891E-01
       -1   -1    0    0    0  501  0.00000000000E+00  0.00000000000E+00  0.10954499348E+04  0.10954499348E+04  0.50400001928E-02 0. -1.
        1   -1    0    0  501    0  0.00000000000E+00  0.00000000000E+00 -0.24853048295E+04  0.24853048295E+04  0.50400001928E-02 0.  1.
    10030    2    1    2    0    0  0.00000000000E+00  0.00000000000E+00 -0.13898548948E+04  0.35807547643E+04  0.33000163717E+04 0.  0.
        3    1    3    3  502    0 -0.64984804574E+03  0.11702025971E+04 -0.17418111269E+04  0.21967208773E+04  0.10100000352E+00 0.  1.
       -3    1    3    3    0  502  0.64984804574E+03 -0.11702025971E+04  0.35195623210E+03  0.13840338870E+04  0.10100000352E+00 0. -1.
</event>
<event>
 5   0  0.7084130E-08  0.3299672E+04  0.7818609E-02  0.8162979E-01
       -2   -1    0    0    0  501  0.00000000000E+00  0.00000000000E+00  0.11776099960E+04  0.11776099960E+04  0.25500000920E-02 0.  1.
        2   -1    0    0  501    0  0.00000000000E+00  0.00000000000E+00 -0.23114266196E+04  0.23114266196E+04  0.25500000920E-02 0. -1.
    10030    2    1    2    0    0  0.00000000000E+00  0.00000000000E+00 -0.11338166236E+04  0.34890366157E+04  0.32996721609E+04 0.  0.
        3    1    3    3  502    0  0.15121922046E+04  0.65505184145E+03 -0.48404717769E+03  0.17175912957E+04  0.10100000352E+00 0.  1.
       -3    1    3    3    0  502 -0.15121922046E+04 -0.65505184145E+03 -0.64976944592E+03  0.17714453200E+04  0.10100000352E+00 0. -1.
</event>
<event>
 5   0  0.2383270E-08  0.3312070E+04  0.7818609E-02  0.8159831E-01
        1   -1    0    0  501    0  0.00000000000E+00  0.00000000000E+00  0.15667248927E+04  0.15667248927E+04  0.50400001928E-02 0.  1.
       -1   -1    0    0    0  501  0.00000000000E+00  0.00000000000E+00 -0.17504358586E+04  0.17504358586E+04  0.50400001928E-02 0. -1.
    10030    2    1    2    0    0  0.00000000000E+00  0.00000000000E+00 -0.18371096588E+03  0.33171607513E+04  0.33120697051E+04 0.  0.
        5    1    3    3  502    0 -0.68891105109E+02 -0.15563563774E+04 -0.65435762744E+03  0.16897328642E+04  0.46999998093E+01 0. -1.
       -5    1    3    3    0  502  0.68891105109E+02  0.15563563774E+04  0.47064666156E+03  0.16274278871E+04  0.46999998093E+01 0.  1.
</event>
<event>
 5   0  0.6603516E-08  0.3300021E+04  0.7818609E-02  0.8162890E-01
       -2   -1    0    0    0  501  0.00000000000E+00  0.00000000000E+00  0.11282102837E+04  0.11282102837E+04  0.25500000920E-02 0. -1.
        2   -1    0    0  501    0  0.00000000000E+00  0.00000000000E+00 -0.24131448100E+04  0.24131448100E+04  0.25500000920E-02 0.  1.
    10030    2    1    2    0    0  0.00000000000E+00  0.00000000000E+00 -0.12849345263E+04  0.35413550937E+04  0.33000210852E+04 0.  0.
        1    1    3    3  502    0 -0.10811052170E+04 -0.12300981680E+04 -0.42622457327E+03  0.16922167060E+04  0.50400001928E-02 0.  1.
       -1    1    3    3    0  502  0.10811052170E+04  0.12300981680E+04 -0.85870995306E+03  0.18491383877E+04  0.50400001928E-02 0. -1.
</event>
<event>
 5   0  0.7084130E-08  0.3300179E+04  0.7818609E-02  0.8162850E-01
       -2   -1    0    0    0  501  0.00000000000E+00  0.00000000000E+00  0.20915589720E+04  0.20915589720E+04  0.25500000920E-02 0.  1.
        2   -1    0    0  501    0  0.00000000000E+00  0.00000000000E+00 -0.13018015488E+04  0.13018015488E+04  0.25500000920E-02 0. -1.
    10030    2    1    2    0    0  0.00000000000E+00  0.00000000000E+00  0.78975742320E+03  0.33933605209E+04  0.33001786068E+04 0.  0.
        3    1    3    3  502    0  0.13605002387E+04 -0.81019315969E+02 -0.56158456191E+03  0.14740767482E+04  0.10100000352E+00 0. -1.
       -3    1    3    3    0  502 -0.13605002387E+04  0.81019315969E+02  0.13513419851E+04  0.19192837727E+04  0.10100000352E+00 0.  1.
</event>
<event>
 5   0  0.2200750E-08  0.3299687E+04  0.7818609E-02  0.8162975E-01
       -3   -1    0    0    0  501  0.00000000000E+00  0.00000000000E+00  0.17316382689E+04  0.17316382718E+04  0.10100000352E+00 0. -1.
        3   -1    0    0  501    0  0.00000000000E+00  0.00000000000E+00 -0.15719123412E+04  0.15719123445E+04  0.10100000352E+00 0.  1.
    10030    2    1    2    0    0  0.00000000000E+00  0.00000000000E+00  0.15972592766E+03  0.33035506163E+04  0.32996870007E+04 0.  0.
        4    1    3    3  502    0 -0.16491831935E+04  0.46345382271E+02  0.74484271741E+02  0.16515152496E+04  0.12699999809E+01 0.  1.
       -4    1    3    3    0  502  0.16491831935E+04 -0.46345382271E+02  0.85241655916E+02  0.16520353667E+04  0.12699999809E+01 0. -1.
</event>
<event>
 5   0  0.2309822E-08  0.3292437E+04  0.7818609E-02  0.8164822E-01
       -1   -1    0    0    0  501  0.00000000000E+00  0.00000000000E+00  0.14942121928E+04  0.14942121928E+04  0.50400001928E-02 0.  1.
        1   -1    0    0  501    0  0.00000000000E+00  0.00000000000E+00 -0.18136887335E+04  0.18136887335E+04  0.50400001928E-02 0. -1.
    10030    2    1    2    0    0  0.00000000000E+00  0.00000000000E+00 -0.31947654065E+03  0.33079009263E+04  0.32924372854E+04 0.  0.
        4    1    3    3  502    0  0.80942520431E+03 -0.12664095987E+03  0.12748430863E+04  0.15153988259E+04  0.12699999809E+01 0.  1.
       -4    1    3    3    0  502 -0.80942520431E+03  0.12664095987E+03 -0.15943196269E+04  0.17925021004E+04  0.12699999809E+01 0. -1.
</event>
<event>
 5   0  0.2291682E-08  0.3299935E+04  0.7818609E-02  0.8162912E-01
       -1   -1    0    0    0  501  0.00000000000E+00  0.00000000000E+00  0.17524421916E+04  0.17524421916E+04  0.50400001928E-02 0.  1.
        1   -1    0    0  501    0  0.00000000000E+00  0.00000000000E+00 -0.15534846344E+04  0.15534846344E+04  0.50400001928E-02 0. -1.
    10030    2    1    2    0    0  0.00000000000E+00  0.00000000000E+00  0.19895755726E+03  0.33059268260E+04  0.32999345553E+04 0.  0.
        2    1    3    3  502    0 -0.98476683180E+03  0.81161393285E+03 -0.94832155597E+03  0.15899046080E+04  0.25500000920E-02 0. -1.
       -2    1    3    3    0  502  0.98476683180E+03 -0.81161393285E+03  0.11472791132E+04  0.17160222180E+04  0.25500000920E-02 0.  1.
</event>
<event>
 5   0  0.6706080E-08  0.3301359E+04  0.7818609E-02  0.8162550E-01
        2   -1    0    0  501    0  0.00000000000E+00  0.00000000000E+00  0.24805908496E+04  0.24805908497E+04  0.25500000920E-02 0.  1.
       -2   -1    0    0    0  501  0.00000000000E+00  0.00000000000E+00 -0.10984245959E+04  0.10984245959E+04  0.25500000920E-02 0. -1.
    10030    2    1    2    0    0  0.00000000000E+00  0.00000000000E+00  0.13821662537E+04  0.35790154456E+04  0.33013585093E+04 0.  0.
        4    1    3    3  502    0  0.43322105431E+03  0.94940160441E+03  0.20775906999E+04  0.23249577668E+04  0.12699999809E+01 0.  1.
       -4    1    3    3    0  502 -0.43322105431E+03 -0.94940160441E+03 -0.69542444619E+03  0.12540576787E+04  0.12699999809E+01 0. -1.
</event>
<event>
 5   0  0.6603516E-08  0.3300660E+04  0.7818609E-02  0.8162728E-01
       -2   -1    0    0    0  501  0.00000000000E+00  0.00000000000E+00  0.12468162830E+04  0.12468162830E+04  0.25500000920E-02 0. -1.
        2   -1    0    0  501    0  0.00000000000E+00  0.00000000000E+00 -0.21844347451E+04  0.21844347451E+04  0.25500000920E-02 0.  1.
    10030    2    1    2    0    0  0.00000000000E+00  0.00000000000E+00 -0.93761846213E+03  0.34312510281E+04  0.33006598185E+04 0.  0.
        1    1    3    3  502    0  0.17332280901E+03  0.55549310802E+03  0.11366292907E+04  0.12769258137E+04  0.50400001928E-02 0. -1.
       -1    1    3    3    0  502 -0.17332280901E+03 -0.55549310802E+03 -0.20742477528E+04  0.21543252144E+04  0.50400001928E-02 0.  1.
</event>
<event>
 5   0  0.2244093E-08  0.3296015E+04  0.7818609E-02  0.8163910E-01
       -1   -1    0    0    0  501  0.00000000000E+00  0.00000000000E+00  0.14311158272E+04  0.14311158272E+04  0.50400001928E-02 0.  1.
        1   -1    0    0  501    0  0.00000000000E+00  0.00000000000E+00 -0.18977699904E+04  0.18977699904E+04  0.50400001928E-02 0. -1.
    10030    2    1    2    0    0  0.00000000000E+00  0.00000000000E+00 -0.46665416319E+03  0.33288858176E+04  0.32960149694E+04 0.  0.
        1    1    3    3  502    0  0.14549040644E+04 -0.45349624025E+03 -0.86689814167E+03  0.17532589839E+04  0.50400001928E-02 0. -1.
       -1    1    3    3    0  502 -0.14549040644E+04  0.45349624025E+03  0.40024397848E+03  0.15756268337E+04  0.50400001928E-02 0.  1.
</event>
<event>
 5   0  0.6821287E-08  0.3297603E+04  0.7818609E-02  0.8163505E-01
        2   -1    0    0  501    0  0.00000000000E+00  0.00000000000E+00  0.86601996598E+03  0.86601996599E+03  0.25500000920E-02 0. -1.
       -2   -1    0    0    0  501  0.00000000000E+00  0.00000000000E+00 -0.31391272572E+04  0.31391272572E+04  0.25500000920E-02 0.  1.
    10030    2    1    2    0    0  0.00000000000E+00  0.00000000000E+00 -0.22731072912E+04  0.40051472232E+04  0.32976032997E+04 0.  0.
        5    1    3    3  502    0  0.67332347164E+03  0.10665110668E+03 -0.29599303344E+04  0.30374246707E+04  0.46999998093E+01 0.  1.
       -5    1    3    3    0  502 -0.67332347164E+03 -0.10665110668E+03  0.68682304313E+03  0.96772255249E+03  0.46999998093E+01 0. -1.
</event>
<event>
 5   0  0.2309822E-08  0.3302248E+04  0.7818609E-02  0.8162324E-01
        1   -1    0    0  501    0  0.00000000000E+00  0.00000000000E+00  0.15162054645E+04  0.15162054645E+04  0.50400001928E-02 0. -1.
       -1   -1    0    0    0  501  0.00000000000E+00  0.00000000000E+00 -0.17980483062E+04  0.17980483062E+04  0.50400001928E-02 0.  1.
    10030    2    1    2    0    0  0.00000000000E+00  0.00000000000E+00 -0.28184284170E+03  0.33142537707E+04  0.33022481235E+04 0.  0.
        4    1    3    3  502    0 -0.66007474124E+03 -0.13092270993E+04 -0.90291471639E+03  0.17219264966E+04  0.12699999809E+01 0. -1.
       -4    1    3    3    0  502  0.66007474124E+03  0.13092270993E+04  0.62107187469E+03  0.15923272742E+04  0.12699999809E+01 0.  1.
</event>
<event>
 5   0  0.2279938E-08  0.3301343E+04  0.7818609E-02  0.8162554E-01
        1   -1    0    0  501    0  0.00000000000E+00  0.00000000000E+00  0.22682954142E+04  0.22682954143E+04  0.50400001928E-02 0.  1.
       -1   -1    0    0    0  501  0.00000000000E+00  0.00000000000E+00 -0.12012179474E+04  0.12012179475E+04  0.50400001928E-02 0. -1.
    10030    2    1    2    0    0  0.00000000000E+00  0.00000000000E+00  0.10670774668E+04  0.34695133617E+04  0.33013434609E+04 0.  0.
        3    1    3    3  502    0  0.99474892661E+03 -0.12678956709E+04  0.15808351966E+03  0.16192823314E+04  0.10100000352E+00 0.  1.
       -3    1    3    3    0  502 -0.99474892661E+03  0.12678956709E+04  0.90899394714E+03  0.18502310303E+04  0.10100000352E+00 0. -1.
</event>
<event>
 5   0  0.2291682E-08  0.3303831E+04  0.7818609E-02  0.8161921E-01
       -1   -1    0    0    0  501  0.00000000000E+00  0.00000000000E+00  0.13830475074E+04  0.13830475074E+04  0.50400001928E-02 0.  1.
        1   -1    0    0  501    0  0.00000000000E+00  0.00000000000E+00 -0.19730521311E+04  0.19730521311E+04  0.50400001928E-02 0. -1.
    10030    2    1    2    0    0  0.00000000000E+00  0.00000000000E+00 -0.59000462365E+03  0.33560996385E+04  0.33038310078E+04 0.  0.
        2    1    3    3  502    0  0.19886088653E+03 -0.27187708173E+03 -0.19377956328E+04  0.19668540144E+04  0.25500000920E-02 0. -1.
       -2    1    3    3    0  502 -0.19886088653E+03  0.27187708173E+03  0.13477910091E+04  0.13892456241E+04  0.25500000920E-02 0.  1.
</event>
<event>
 5   0  0.6706080E-08  0.3307338E+04  0.7818609E-02  0.8161031E-01
        2   -1    0    0  501    0  0.00000000000E+00  0.00000000000E+00  0.14451864153E+04  0.14451864153E+04  0.25500000920E-02 0. -1.
       -2   -1    0    0    0  501  0.00000000000E+00  0.00000000000E+00 -0.18922276524E+04  0.18922276524E+04  0.25500000920E-02 0.  1.
    10030    2    1    2    0    0  0.00000000000E+00  0.00000000000E+00 -0.44704123705E+03  0.33374140677E+04  0.33073383243E+04 0.  0.
        4    1    3    3  502    0  0.39121590109E+03 -0.33997460422E+03 -0.18081470726E+04  0.18809651942E+04  0.12699999809E+01 0.  1.
       -4    1    3    3    0  502 -0.39121590109E+03  0.33997460422E+03  0.13611058355E+04  0.14564488735E+04  0.12699999809E+01 0. -1.
</event>
<event>
 5   0  0.2244093E-08  0.3300646E+04  0.7818609E-02  0.8162731E-01
       -1   -1    0    0    0  501  0.00000000000E+00  0.00000000000E+00  0.15409990966E+04  0.15409990966E+04  0.50400001928E-02 0.  1.
        1   -1    0    0  501    0  0.00000000000E+00  0.00000000000E+00 -0.17674029129E+04  0.17674029129E+04  0.50400001928E-02 0. -1.
    10030    2    1    2    0    0  0.00000000000E+00  0.00000000000E+00 -0.22640381624E+03  0.33084020095E+04  0.33006461744E+04 0.  0.
        1    1    3    3  502    0  0.11044658974E+04 -0.96367336525E+03 -0.87330763390E+03  0.17062173064E+04  0.50400001928E-02 0. -1.
       -1    1    3    3    0  502 -0.11044658974E+04  0.96367336525E+03  0.64690381766E+03  0.16021847030E+04  0.50400001928E-02 0.  1.
</event>
<event>
 5   0  0.2279938E-08  0.3299837E+04  0.7818609E-02  0.8162937E-01
       -1   -1    0    0    0  501  0.00000000000E+00  0.00000000000E+00  0.11565461430E+04  0.11565461430E+04  0.50400001928E-02 0. -1.
        1   -1    0    0  501    0  0.00000000000E+00  0.00000000000E+00 -0.23537591341E+04  0.23537591341E+04  0.50400001928E-02 0.  1.
    10030    2    1    2    0    0  0.00000000000E+00  0.00000000000E+00 -0.11972129911E+04  0.35103052771E+04  0.32998369948E+04 0.  0.
        3    1    3    3  502    0 -0.60434199744E+03 -0.93292084934E+03  0.69844822226E+03  0.13127834895E+04  0.10100000352E+00 0. -1.
       -3    1    3    3    0  502  0.60434199744E+03  0.93292084934E+03 -0.18956612133E+04  0.21975217876E+04  0.10100000352E+00 0.  1.
</event>
<event>
 5   0  0.6765252E-08  0.3299618E+04  0.7818609E-02  0.8162993E-01
       -2   -1    0    0    0  501  0.00000000000E+00  0.00000000000E+00  0.12692923694E+04  0.12692923694E+04  0.25500000920E-02 0.  1.
        2   -1    0    0  501    0  0.00000000000E+00  0.00000000000E+00 -0.21443997165E+04  0.21443997165E+04  0.25500000920E-02 0. -1.
    10030    2    1    2    0    0  0.00000000000E+00  0.00000000000E+00 -0.87510734710E+03  0.34136920858E+04  0.32996182791E+04 0.  0.
        2    1    3    3  502    0 -0.45398509220E+03  0.11873983505E+04 -0.15255046421E+04  0.19857446260E+04  0.25500000920E-02 0. -1.
       -2    1    3    3    0  502  0.45398509220E+03 -0.11873983505E+04  0.65039729504E+03  0.14279474598E+04  0.25500000920E-02 0.  1.
</event>
<event>
 5   0  0.6706080E-08  0.3298331E+04  0.7818609E-02  0.8163320E-01
        2   -1    0    0  501    0  0.00000000000E+00  0.00000000000E+00  0.25383743220E+04  0.25383743220E+04  0.25500000920E-02 0. -1.
       -2   -1    0    0    0  501  0.00000000000E+00  0.00000000000E+00 -0.10714520377E+04  0.10714520377E+04  0.25500000920E-02 0.  1.
    10030    2    1    2    0    0  0.00000000000E+00  0.00000000000E+00  0.14669222843E+04  0.36098263598E+04  0.32983306929E+04 0.  0.
        4    1    3    3  502    0  0.81891672126E+03  0.55412433511E+03  0.21779841449E+04  0.23919228506E+04  0.12699999809E+01 0. -1.
       -4    1    3    3    0  502 -0.81891672126E+03 -0.55412433511E+03 -0.71106186058E+03  0.12179035091E+04  0.12699999809E+01 0.  1.
</event>
<event>
 5   0  0.2383270E-08  0.3300618E+04  0.7818609E-02  0.8162738E-01
       -1   -1    0    0    0  501  0.00000000000E+00  0.00000000000E+00  0.16805164610E+04  0.16805164610E+04  0.50400001928E-02 0.  1.
        1   -1    0    0  501    0  0.00000000000E+00  0.00000000000E+00 -0.16206440368E+04  0.16206440368E+04  0.50400001928E-02 0. -1.
    10030    2    1    2    0    0  0.00000000000E+00  0.00000000000E+00  0.59872424211E+02  0.33011604979E+04  0.33006175067E+04 0.  0.
        5    1    3    3  502    0  0.35617844825E+03 -0.48217908717E+03  0.15677642435E+04  0.16784714988E+04  0.46999998093E+01 0.  1.
       -5    1    3    3    0  502 -0.35617844825E+03  0.48217908717E+03 -0.15078918193E+04  0.16226889991E+04  0.46999998093E+01 0. -1.
</event>
<event>
 5   0  0.6706080E-08  0.3299891E+04  0.7818609E-02  0.8162923E-01
        2   -1    0    0  501    0  0.00000000000E+00  0.00000000000E+00  0.19089395132E+04  0.19089395132E+04  0.25500000920E-02 0.  1.
       -2   -1    0    0    0  501  0.00000000000E+00  0.00000000000E+00 -0.14260902754E+04  0.14260902754E+04  0.25500000920E-02 0. -1.
    10030    2    1    2    0    0  0.00000000000E+00  0.00000000000E+00  0.48284923786E+03  0.33350297886E+04  0.32998909534E+04 0.  0.
        4    1    3    3  502    0  0.31470747351E+03  0.14704317281E+04 -0.44485571285E+03  0.15681544819E+04  0.12699999809E+01 0. -1.
       -4    1    3    3    0  502 -0.31470747351E+03 -0.14704317281E+04  0.92770495071E+03  0.17668753067E+04  0.12699999809E+01 0.  1.
</event>
<event>
 5   0  0.2291682E-08  0.3299819E+04  0.7818609E-02  0.8162942E-01
        1   -1    0    0  501    0  0.00000000000E+00  0.00000000000E+00  0.10576745288E+04  0.10576745288E+04  0.50400001928E-02 0. -1.
       -1   -1    0    0    0  501  0.00000000000E+00  0.00000000000E+00 -0.25737603700E+04  0.25737603700E+04  0.50400001928E-02 0.  1.
    10030    2    1    2    0    0  0.00000000000E+00  0.00000000000E+00 -0.15160858412E+04  0.36314348988E+04  0.32998186536E+04 0.  0.
        2    1    3    3  502    0  0.17236774822E+03 -0.15741997972E+04 -0.24849441308E+03  0.16029863117E+04  0.25500000920E-02 0. -1.
       -2    1    3    3    0  502 -0.17236774822E+03  0.15741997972E+04 -0.12675914281E+04  0.20284485872E+04  0.25500000920E-02 0.  1.
</event>
<event>
 5   0  0.6821287E-08  0.3302225E+04  0.7818609E-02  0.8162330E-01
        2   -1    0    0  501    0  0.00000000000E+00  0.00000000000E+00  0.32206670919E+04  0.32206670919E+04  0.25500000920E-02 0.  1.
       -2   -1    0    0    0  501  0.00000000000E+00  0.00000000000E+00 -0.84646197800E+03  0.84646197801E+03  0.25500000920E-02 0. -1.
    10030    2    1    2    0    0  0.00000000000E+00  0.00000000000E+00  0.23742051139E+04  0.40671290699E+04  0.33022248482E+04 0.  0.
        5    1    3    3  502    0 -0.10032771175E+03 -0.94367865154E+02  0.32135708662E+04  0.32165246378E+04  0.46999998093E+01 0.  1.
       -5    1    3    3    0  502  0.10032771175E+03  0.94367865154E+02 -0.83936575230E+03  0.85060443207E+03  0.46999998093E+01 0. -1.
</event>
<event>
 5   0  0.2309822E-08  0.3298348E+04  0.7818609E-02  0.8163316E-01
        1   -1    0    0  501    0  0.00000000000E+00  0.00000000000E+00  0.33769896162E+04  0.33769896162E+04  0.50400001928E-02 0.  1.
       -1   -1    0    0    0  501  0.00000000000E+00  0.00000000000E+00 -0.80538440447E+03  0.80538440448E+03  0.50400001928E-02 0. -1.
    10030    2    1    2    0    0  0.00000000000E+00  0.00000000000E+00  0.25716052117E+04  0.41823740207E+04  0.32983479325E+04 0.  0.
        4    1    3    3  502    0 -0.43903754588E+03 -0.75080154304E+03  0.30625329967E+04  0.31836405093E+04  0.12699999809E+01 0.  1.
       -4    1    3    3    0  502  0.43903754588E+03  0.75080154304E+03 -0.49092778500E+03  0.99873351135E+03  0.12699999809E+01 0. -1.
</event>
<event>
 5   0  0.7084130E-08  0.3299344E+04  0.7818609E-02  0.8163062E-01
       -2   -1    0    0    0  501  0.00000000000E+00  0.00000000000E+00  0.13291454741E+04  0.13291454741E+04  0.25500000920E-02 0. -1.
        2   -1    0    0  501    0  0.00000000000E+00  0.00000000000E+00 -0.20474942266E+04  0.20474942266E+04  0.25500000920E-02 0.  1.
    10030    2    1    2    0    0  0.00000000000E+00  0.00000000000E+00 -0.71834875257E+03  0.33766397007E+04  0.32993439860E+04 0.  0.
        3    1    3    3  502    0 -0.55585977660E+03 -0.15179468072E+04 -0.22413703063E+02  0.16166771431E+04  0.10100000352E+00 0. -1.
       -3    1    3    3    0  502  0.55585977660E+03  0.15179468072E+04 -0.69593504951E+03  0.17599625576E+04  0.10100000352E+00 0.  1.
</event>
<event>
 5   0  0.2200750E-08  0.3301483E+04  0.7818609E-02  0.8162518E-01
        4   -1    0    0  501    0  0.00000000000E+00  0.00000000000E+00  0.19359405079E+04  0.19359409245E+04  0.12699999809E+01 0. -1.
       -4   -1    0    0    0  501  0.00000000000E+00  0.00000000000E+00 -0.14075569467E+04  0.14075575196E+04  0.12699999809E+01 0.  1.
    10030    2    1    2    0    0  0.00000000000E+00  0.00000000000E+00  0.52838356121E+03  0.33434984441E+04  0.33014834026E+04 0.  0.
        5    1    3    3  502    0  0.13448481818E+04  0.91493563425E+03 -0.20818617930E+02  0.16267081335E+04  0.46999998093E+01 0.  1.
       -5    1    3    3    0  502 -0.13448481818E+04 -0.91493563425E+03  0.54920217914E+03  0.17167903106E+04  0.46999998093E+01 0. -1.
</event>
<event>
 5   0  0.6765252E-08  0.3299207E+04  0.7818609E-02  0.8163097E-01
       -2   -1    0    0    0  501  0.00000000000E+00  0.00000000000E+00  0.12011973165E+04  0.12011973165E+04  0.25500000920E-02 0.  1.
        2   -1    0    0  501    0  0.00000000000E+00  0.00000000000E+00 -0.22653995374E+04  0.22653995374E+04  0.25500000920E-02 0. -1.
    10030    2    1    2    0    0  0.00000000000E+00  0.00000000000E+00 -0.10642022209E+04  0.34665968539E+04  0.32992070836E+04 0.  0.
        2    1    3    3  502    0  0.29454508773E+03 -0.65861242454E+03 -0.20908304214E+04  0.22118089848E+04  0.25500000920E-02 0. -1.
       -2    1    3    3    0  502 -0.29454508773E+03  0.65861242454E+03  0.10266282004E+04  0.12547878691E+04  0.25500000920E-02 0.  1.
</event>
<event>
 5   0  0.2200750E-08  0.3300023E+04  0.7818609E-02  0.8162890E-01
       -3   -1    0    0    0  501  0.00000000000E+00  0.00000000000E+00  0.13056543463E+04  0.13056543502E+04  0.10100000352E+00 0. -1.
        3   -1    0    0  501    0  0.00000000000E+00  0.00000000000E+00 -0.20851899609E+04  0.20851899634E+04  0.10100000352E+00 0.  1.
    10030    2    1    2    0    0  0.00000000000E+00  0.00000000000E+00 -0.77953561463E+03  0.33908443136E+04  0.33000226339E+04 0.  0.
        3    1    3    3  502    0 -0.14820006351E+04  0.22730826711E+03  0.31806134453E+03  0.15326963039E+04  0.10100000352E+00 0.  1.
       -3    1    3    3    0  502  0.14820006351E+04 -0.22730826711E+03 -0.10975969592E+04  0.18581480097E+04  0.10100000352E+00 0. -1.
</event>
<event>
 5   0  0.6706080E-08  0.3299648E+04  0.7818609E-02  0.8162985E-01
        2   -1    0    0  501    0  0.00000000000E+00  0.00000000000E+00  0.25699682818E+04  0.25699682818E+04  0.25500000920E-02 0. -1.
       -2   -1    0    0    0  501  0.00000000000E+00  0.00000000000E+00 -0.10591259202E+04  0.10591259202E+04  0.25500000920E-02 0.  1.
    10030    2    1    2    0    0  0.00000000000E+00  0.00000000000E+00  0.15108423616E+04  0.36290942019E+04  0.32996484790E+04 0.  0.
        4    1    3    3  502    0  0.45309171686E+03 -0.73436056196E+03  0.23019974329E+04  0.24584082925E+04  0.12699999809E+01 0. -1.
       -4    1    3    3    0  502 -0.45309171686E+03  0.73436056196E+03 -0.79115507125E+03  0.11706859094E+04  0.12699999809E+01 0.  1.
</event>
<event>
 5   0  0.6821287E-08  0.3301870E+04  0.7818609E-02  0.8162420E-01
        2   -1    0    0  501    0  0.00000000000E+00  0.00000000000E+00  0.17020447400E+04  0.17020447400E+04  0.25500000920E-02 0. -1.
       -2   -1    0    0    0  501  0.00000000000E+00  0.00000000000E+00 -0.16013598658E+04  0.16013598658E+04  0.25500000920E-02 0.  1.
    10030    2    1    2    0    0  0.00000000000E+00  0.00000000000E+00  0.10068487420E+03  0.33034046058E+04  0.33018698559E+04 0.  0.
        5    1    3    3  502    0  0.13927390039E+04 -0.72509330622E+03  0.56056165018E+03  0.16672533369E+04  0.46999998093E+01 0. -1.
       -5    1    3    3    0  502 -0.13927390039E+04  0.72509330622E+03 -0.45987677599E+03  0.16361512689E+04  0.46999998093E+01 0.  1.
</event>
<event>
 5   0  0.2309822E-08  0.3300447E+04  0.7818609E-02  0.8162782E-01
       -1   -1    0    0    0  501  0.00000000000E+00  0.00000000000E+00  0.19743816895E+04  0.19743816895E+04  0.50400001928E-02 0. -1.
        1   -1    0    0  501    0  0.00000000000E+00  0.00000000000E+00 -0.13792863389E+04  0.13792863390E+04  0.50400001928E-02 0.  1.
    10030    2    1    2    0    0  0.00000000000E+00  0.00000000000E+00  0.59509535057E+03  0.33536680285E+04  0.33004470559E+04 0.  0.
        4    1    3    3  502    0 -0.10133699624E+04 -0.10138660271E+04  0.11282841360E+04  0.18242449688E+04  0.12699999809E+01 0. -1.
       -4    1    3    3    0  502  0.10133699624E+04  0.10138660271E+04 -0.53318878542E+03  0.15294230597E+04  0.12699999809E+01 0.  1.
</event>
<event>
 5   0  0.2291682E-08  0.3302977E+04  0.7818609E-02  0.8162138E-01
        1   -1    0    0  501    0  0.00000000000E+00  0.00000000000E+00  0.15388289347E+04  0.15388289347E+04  0.50400001928E-02 0.  1.
       -1   -1    0    0    0  501  0.00000000000E+00  0.00000000000E+00 -0.17723955002E+04  0.17723955002E+04  0.50400001928E-02 0. -1.
    10030    2    1    2    0    0  0.00000000000E+00  0.00000000000E+00 -0.23356656549E+03  0.33112244348E+04  0.33029765239E+04 0.  0.
        2    1    3    3  502    0 -0.19434968990E+03  0.10833417152E+04 -0.13511224469E+04  0.17426798158E+04  0.25500000920E-02 0. -1.
       -2    1    3    3    0  502  0.19434968990E+03 -0.10833417152E+04  0.11175558814E+04  0.15685446190E+04  0.25500000920E-02 0.  1.
</event>
<event>
 5   0  0.6821287E-08  0.3301260E+04  0.7818609E-02  0.8162575E-01
        2   -1    0    0  501    0  0.00000000000E+00  0.00000000000E+00  0.18850497431E+04  0.18850497431E+04  0.25500000920E-02 0.  1.
       -2   -1    0    0    0  501  0.00000000000E+00  0.00000000000E+00 -0.14453624363E+04  0.14453624363E+04  0.25500000920E-02 0. -1.
    10030    2    1    2    0    0  0.00000000000E+00  0.00000000000E+00  0.43968730683E+03  0.33304121794E+04  0.33012604195E+04 0.  0.
        5    1    3    3  502    0  0.11448474196E+04 -0.30813052841E+03  0.13784352801E+04  0.18181655448E+04  0.46999998093E+01 0.  1.
       -5    1    3    3    0  502 -0.11448474196E+04  0.30813052841E+03 -0.93874797329E+03  0.15122466347E+04  0.46999998093E+01 0. -1.
</event>
<event>
 5   0  0.2279938E-08  0.3300136E+04  0.7818609E-02  0.8162861E-01
        1   -1    0    0  501    0  0.00000000000E+00  0.00000000000E+00  0.18451399676E+04  0.18451399676E+04  0.50400001928E-02 0. -1.
       -1   -1    0    0    0  501  0.00000000000E+00  0.00000000000E+00 -0.14756196361E+04  0.14756196361E+04  0.50400001928E-02 0.  1.
    10030    2    1    2    0    0  0.00000000000E+00  0.00000000000E+00  0.36952033151E+03  0.33207596037E+04  0.33001362200E+04 0.  0.
        3    1    3    3  502    0 -0.85401307456E+03 -0.10505951624E+04 -0.76433945817E+03  0.15547679391E+04  0.10100000352E+00 0.  1.
       -3    1    3    3    0  502  0.85401307456E+03  0.10505951624E+04  0.11338597897E+04  0.17659916647E+04  0.10100000352E+00 0. -1.
</event>
<event>
 5   0  0.6603516E-08  0.3294528E+04  0.7818609E-02  0.8164289E-01
       -2   -1    0    0    0  501  0.00000000000E+00  0.00000000000E+00  0.11419961208E+04  0.11419961208E+04  0.25500000920E-02 0.  1.
        2   -1    0    0  501    0  0.00000000000E+00  0.00000000000E+00 -0.23760840958E+04  0.23760840958E+04  0.25500000920E-02 0. -1.
    10030    2    1    2    0    0  0.00000000000E+00  0.00000000000E+00 -0.12340879749E+04  0.35180802166E+04  0.32945280816E+04 0.  0.
        1    1    3    3  502    0 -0.47808737854E+03  0.14173046631E+04 -0.13539098178E+04  0.20175212129E+04  0.50400001928E-02 0.  1.
       -1    1    3    3    0  502  0.47808737854E+03 -0.14173046631E+04  0.11982184288E+03  0.15005590037E+04  0.50400001928E-02 0. -1.
</event>
<event>
 5   0  0.2244093E-08  0.3300682E+04  0.7818609E-02  0.8162722E-01
       -1   -1    0    0    0  501  0.00000000000E+00  0.00000000000E+00  0.13531892181E+04  0.13531892181E+04  0.50400001928E-02 0. -1.
        1   -1    0    0  501    0  0.00000000000E+00  0.00000000000E+00 -0.20127452871E+04  0.20127452871E+04  0.50400001928E-02 0.  1.
    10030    2    1    2    0    0  0.00000000000E+00  0.00000000000E+00 -0.65955606902E+03  0.33659345051E+04  0.33006818818E+04 0.  0.
        1    1    3    3  502    0 -0.57420790079E+03  0.91402936366E+03 -0.16028411561E+04  0.19324244262E+04  0.50400001928E-02 0.  1.
       -1    1    3    3    0  502  0.57420790079E+03 -0.91402936366E+03  0.94328508712E+03  0.14335100790E+04  0.50400001928E-02 0. -1.
</event>
<event>
 5   0  0.6603516E-08  0.3301198E+04  0.7818609E-02  0.8162591E-01
        2   -1    0    0  501    0  0.00000000000E+00  0.00000000000E+00  0.20988725834E+04  0.20988725834E+04  0.25500000920E-02 0. -1.
       -2   -1    0    0    0  501  0.00000000000E+00  0.00000000000E+00 -0.12980666884E+04  0.12980666884E+04  0.25500000920E-02 0.  1.
    10030    2    1    2    0    0  0.00000000000E+00  0.00000000000E+00  0.80080589498E+03  0.33969392719E+04  0.33011977122E+04 0.  0.
        1    1    3    3  502    0  0.37337697817E+03 -0.23825476020E+03 -0.12357753425E+04  0.13127514600E+04  0.50400001928E-02 0.  1.
       -1    1    3    3    0  502 -0.37337697817E+03  0.23825476020E+03  0.20365812374E+04  0.20841878119E+04  0.50400001928E-02 0. -1.
</event>
<event>
 5   0  0.6603516E-08  0.3299464E+04  0.7818609E-02  0.8163032E-01
       -2   -1    0    0    0  501  0.00000000000E+00  0.00000000000E+00  0.16881837113E+04  0.16881837113E+04  0.25500000920E-02 0. -1.
        2   -1    0    0  501    0  0.00000000000E+00  0.00000000000E+00 -0.16121557303E+04  0.16121557303E+04  0.25500000920E-02 0.  1.
    10030    2    1    2    0    0  0.00000000000E+00  0.00000000000E+00  0.76027981049E+02  0.33003394416E+04  0.32994636194E+04 0.  0.
        1    1    3    3  502    0  0.58833510657E+02  0.42923410220E+03  0.16302630754E+04  0.16868494277E+04  0.50400001928E-02 0. -1.
       -1    1    3    3    0  502 -0.58833510657E+02 -0.42923410220E+03 -0.15542350944E+04  0.16134900139E+04  0.50400001928E-02 0.  1.
</event>
<event>
 5   0  0.6821287E-08  0.3299518E+04  0.7818609E-02  0.8163018E-01
       -2   -1    0    0    0  501  0.00000000000E+00  0.00000000000E+00  0.15142481358E+04  0.15142481358E+04  0.25500000920E-02 0. -1.
        2   -1    0    0  501    0  0.00000000000E+00  0.00000000000E+00 -0.17973973391E+04  0.17973973391E+04  0.25500000920E-02 0.  1.
    10030    2    1    2    0    0  0.00000000000E+00  0.00000000000E+00 -0.28314920332E+03  0.33116454749E+04  0.32995184921E+04 0.  0.
        5    1    3    3  502    0 -0.72118064827E+03 -0.71982886010E+03  0.11606640790E+04  0.15444799480E+04  0.46999998093E+01 0. -1.
       -5    1    3    3    0  502  0.72118064827E+03  0.71982886010E+03 -0.14438132823E+04  0.17671655269E+04  0.46999998093E+01 0.  1.
</event>
<event>
 5   0  0.7084130E-08  0.3299790E+04  0.7818609E-02  0.8162949E-01
        2   -1    0    0  501    0  0.00000000000E+00  0.00000000000E+00  0.15213844605E+04  0.15213844605E+04  0.25500000920E-02 0.  1.
       -2   -1    0    0    0  501  0.00000000000E+00  0.00000000000E+00 -0.17892602742E+04  0.17892602742E+04  0.25500000920E-02 0. -1.
    10030    2    1    2    0    0  0.00000000000E+00  0.00000000000E+00 -0.26787581373E+03  0.33106447347E+04  0.32997895551E+04 0.  0.
        3    1    3    3  502    0 -0.75851649430E+03  0.42212090658E+03  0.12737527228E+04  0.15414212082E+04  0.10100000352E+00 0.  1.
       -3    1    3    3    0  502  0.75851649430E+03 -0.42212090658E+03 -0.15416285365E+04  0.17692235265E+04  0.10100000352E+00 0. -1.
</event>
<event>
 5   0  0.2291682E-08  0.3301366E+04  0.7818609E-02  0.8162548E-01
       -1   -1    0    0    0  501  0.00000000000E+00  0.00000000000E+00  0.12738462199E+04  0.12738462199E+04  0.50400001928E-02 0. -1.
        1   -1    0    0  501    0  0.00000000000E+00  0.00000000000E+00 -0.21389977612E+04  0.21389977612E+04  0.50400001928E-02 0.  1.
    10030    2    1    2    0    0  0.00000000000E+00  0.00000000000E+00 -0.86515154137E+03  0.34128439811E+04  0.33013659067E+04 0.  0.
        2    1    3    3  502    0 -0.94219211908E+03  0.29115187165E+03 -0.18010036043E+04  0.20533166790E+04  0.25500000920E-02 0.  1.
       -2    1    3    3    0  502  0.94219211908E+03 -0.29115187165E+03  0.93585206290E+03  0.13595273021E+04  0.25500000920E-02 0. -1.
</event>
<event>
 5   0  0.2279938E-08  0.3300449E+04  0.7818609E-02  0.8162781E-01
        1   -1    0    0  501    0  0.00000000000E+00  0.00000000000E+00  0.30009806854E+04  0.30009806855E+04  0.50400001928E-02 0. -1.
       -1   -1    0    0    0  501  0.00000000000E+00  0.00000000000E+00 -0.90745023467E+03  0.90745023468E+03  0.50400001928E-02 0.  1.
    10030    2    1    2    0    0  0.00000000000E+00  0.00000000000E+00  0.20935304508E+04  0.39084309201E+04  0.33004488345E+04 0.  0.
        3    1    3    3  502    0 -0.10846828903E+04 -0.29464099517E+03  0.24776002144E+04  0.27206346909E+04  0.10100000352E+00 0. -1.
       -3    1    3    3    0  502  0.10846828903E+04  0.29464099517E+03 -0.38406976364E+03  0.11877962292E+04  0.10100000352E+00 0.  1.
</event>
<event>
 5   0  0.2291682E-08  0.3300367E+04  0.7818609E-02  0.8162802E-01
        1   -1    0    0  501    0  0.00000000000E+00  0.00000000000E+00  0.27875616215E+04  0.27875616215E+04  0.50400001928E-02 0.  1.
       -1   -1    0    0    0  501  0.00000000000E+00  0.00000000000E+00 -0.97687728047E+03  0.97687728048E+03  0.50400001928E-02 0. -1.
    10030    2    1    2    0    0  0.00000000000E+00  0.00000000000E+00  0.18106843410E+04  0.37644389020E+04  0.33003670196E+04 0.  0.
        2    1    3    3  502    0 -0.79995055605E+03 -0.61207725017E+03 -0.58556764178E+03  0.11650960971E+04  0.25500000920E-02 0. -1.
       -2    1    3    3    0  502  0.79995055605E+03  0.61207725017E+03  0.23962519828E+04  0.25993428049E+04  0.25500000920E-02 0.  1.
</event>
<event>
 5   0  0.2244093E-08  0.3299307E+04  0.7818609E-02  0.8163072E-01
       -1   -1    0    0    0  501  0.00000000000E+00  0.00000000000E+00  0.16850067847E+04  0.16850067847E+04  0.50400001928E-02 0. -1.
        1   -1    0    0  501    0  0.00000000000E+00  0.00000000000E+00 -0.16150420224E+04  0.16150420224E+04  0.50400001928E-02 0.  1.
    10030    2    1    2    0    0  0.00000000000E+00  0.00000000000E+00  0.69964762335E+02  0.33000488071E+04  0.32993070578E+04 0.  0.
        1    1    3    3  502    0  0.17485895193E+03  0.13872014874E+04 -0.84068754057E+03  0.16314592121E+04  0.50400001928E-02 0.  1.
       -1    1    3    3    0  502 -0.17485895193E+03 -0.13872014874E+04  0.91065230291E+03  0.16685895950E+04  0.50400001928E-02 0. -1.
</event>
<event>
 5   0  0.6706080E-08  0.3298876E+04  0.7818609E-02  0.8163181E-01
       -2   -1    0    0    0  501  0.00000000000E+00  0.00000000000E+00  0.12648923514E+04  0.12648923514E+04  0.25500000920E-02 0.  1.
        2   -1    0    0  501    0  0.00000000000E+00  0.00000000000E+00 -0.21508910012E+04  0.21508910012E+04  0.25500000920E-02 0. -1.
    10030    2    1    2    0    0  0.00000000000E+00  0.00000000000E+00 -0.88599864980E+03  0.34157833527E+04  0.32988759154E+04 0.  0.
        4    1    3    3  502    0 -0.15698173346E+04 -0.20501343495E+03  0.36317021945E+02  0.15835648112E+04  0.12699999809E+01 0.  1.
       -4    1    3    3    0  502  0.15698173346E+04  0.20501343495E+03 -0.92231567175E+03  0.18322185414E+04  0.12699999809E+01 0. -1.
</event>
<event>
 5   0  0.2279938E-08  0.3298847E+04  0.7818609E-02  0.8163189E-01
       -1   -1    0    0    0  501  0.00000000000E+00  0.00000000000E+00  0.18608556106E+04  0.18608556106E+04  0.50400001928E-02 0. -1.
        1   -1    0    0  501    0  0.00000000000E+00  0.00000000000E+00 -0.14620146904E+04  0.14620146904E+04  0.50400001928E-02 0.  1.
    10030    2    1    2    0    0  0.00000000000E+00  0.00000000000E+00  0.39884092019E+03  0.33228703010E+04  0.32988472165E+04 0.  0.
        3    1    3    3  502    0  0.11342323858E+04 -0.44674003786E+03  0.13186096345E+04  0.17957703486E+04  0.10100000352E+00 0. -1.
       -3    1    3    3    0  502 -0.11342323858E+04  0.44674003786E+03 -0.91976871435E+03  0.15270999524E+04  0.10100000352E+00 0.  1.
</event>
<event>
 5   0  0.6765252E-08  0.3299903E+04  0.7818609E-02  0.8162920E-01
       -2   -1    0    0    0  501  0.00000000000E+00  0.00000000000E+00  0.97531693369E+03  0.97531693369E+03  0.25500000920E-02 0.  1.
        2   -1    0    0  501    0  0.00000000000E+00  0.00000000000E+00 -0.27912362924E+04  0.27912362924E+04  0.25500000920E-02 0. -1.
    10030    2    1    2    0    0  0.00000000000E+00  0.00000000000E+00 -0.18159193587E+04  0.37665532261E+04  0.32999030422E+04 0.  0.
        2    1    3    3  502    0 -0.20662421880E+03  0.16247809163E+04 -0.11354803961E+04  0.19929682195E+04  0.25500000920E-02 0.  1.
       -2    1    3    3    0  502  0.20662421880E+03 -0.16247809163E+04 -0.68043896265E+03  0.17735850067E+04  0.25500000920E-02 0. -1.
</event>
<event>
 5   0  0.2383270E-08  0.3300211E+04  0.7818609E-02  0.8162842E-01
        1   -1    0    0  501    0  0.00000000000E+00  0.00000000000E+00  0.15988970207E+04  0.15988970207E+04  0.50400001928E-02 0. -1.
       -1   -1    0    0    0  501  0.00000000000E+00  0.00000000000E+00 -0.17029536111E+04  0.17029536111E+04  0.50400001928E-02 0.  1.
    10030    2    1    2    0    0  0.00000000000E+00  0.00000000000E+00 -0.10405659040E+03  0.33018506318E+04  0.33002105722E+04 0.  0.
        5    1    3    3  502    0 -0.36336891551E+03 -0.88583663098E+03  0.12925450172E+04  0.16085515898E+04  0.46999998093E+01 0. -1.
       -5    1    3    3    0  502  0.36336891551E+03  0.88583663098E+03 -0.13966016075E+04  0.16932990420E+04  0.46999998093E+01 0.  1.
</event>
<event>
 5   0  0.6706080E-08  0.3300267E+04  0.7818609E-02  0.8162828E-01
       -2   -1    0    0    0  501  0.00000000000E+00  0.00000000000E+00  0.14832505359E+04  0.14832505359E+04  0.25500000920E-02 0.  1.
        2   -1    0    0  501    0  0.00000000000E+00  0.00000000000E+00 -0.18357921864E+04  0.18357921864E+04  0.25500000920E-02 0. -1.
    10030    2    1    2    0    0  0.00000000000E+00  0.00000000000E+00 -0.35254165052E+03  0.33190427222E+04  0.33002665009E+04 0.  0.
        4    1    3    3  502    0  0.32846814720E+03 -0.12426806903E+04 -0.12169486271E+04  0.17700599413E+04  0.12699999809E+01 0. -1.
       -4    1    3    3    0  502 -0.32846814720E+03  0.12426806903E+04  0.86440697658E+03  0.15489827810E+04  0.12699999809E+01 0.  1.
</event>
<event>
 5   0  0.6603516E-08  0.3300297E+04  0.7818609E-02  0.8162820E-01
        2   -1    0    0  501    0  0.00000000000E+00  0.00000000000E+00  0.21120844396E+04  0.21120844396E+04  0.25500000920E-02 0. -1.
       -2   -1    0    0    0  501  0.00000000000E+00  0.00000000000E+00 -0.12892432375E+04  0.12892432375E+04  0.25500000920E-02 0.  1.
    10030    2    1    2    0    0  0.00000000000E+00  0.00000000000E+00  0.82284120215E+03  0.34013276771E+04  0.33002973083E+04 0.  0.
        1    1    3    3  502    0  0.12144601013E+04  0.11034668609E+04  0.59122668900E+03  0.17441621050E+04  0.50400001928E-02 0.  1.
       -1    1    3    3    0  502 -0.12144601013E+04 -0.11034668609E+04  0.23161451315E+03  0.16571655721E+04  0.50400001928E-02 0. -1.
</event>
<event>
 5   0  0.6603516E-08  0.3300402E+04  0.7818609E-02  0.8162793E-01
        2   -1    0    0  501    0  0.00000000000E+00  0.00000000000E+00  0.26123099936E+04  0.26123099936E+04  0.25500000920E-02 0. -1.
       -2   -1    0    0    0  501  0.00000000000E+00  0.00000000000E+00 -0.10424348415E+04  0.10424348415E+04  0.25500000920E-02 0.  1.
    10030    2    1    2    0    0  0.00000000000E+00  0.00000000000E+00  0.15698751521E+04  0.36547448351E+04  0.33004017659E+04 0.  0.
        1    1    3    3  502    0  0.10887789217E+04 -0.51647145992E+03  0.20333547047E+04  0.23636229954E+04  0.50400001928E-02 0. -1.
       -1    1    3    3    0  502 -0.10887789217E+04  0.51647145992E+03 -0.46347955261E+03  0.12911218397E+04  0.50400001928E-02 0.  1.
</event>
<event>
 5   0  0.2309822E-08  0.3297593E+04  0.7818609E-02  0.8163508E-01
       -1   -1    0    0    0  501  0.00000000000E+00  0.00000000000E+00  0.10323056228E+04  0.10323056229E+04  0.50400001928E-02 0.  1.
        1   -1    0    0  501    0  0.00000000000E+00  0.00000000000E+00 -0.26334545674E+04  0.26334545674E+04  0.50400001928E-02 0. -1.
    10030    2    1    2    0    0  0.00000000000E+00  0.00000000000E+00 -0.16011489445E+04  0.36657601903E+04  0.32975930358E+04 0.  0.
        4    1    3    3  502    0  0.11614431104E+04  0.79012151151E+03 -0.17602591162E+04  0.22520559209E+04  0.12699999809E+01 0. -1.
       -4    1    3    3    0  502 -0.11614431104E+04 -0.79012151151E+03  0.15911017163E+03  0.14137042694E+04  0.12699999809E+01 0.  1.
</event>
<event>
 5   0  0.6706080E-08  0.3299643E+04  0.7818609E-02  0.8162986E-01
       -2   -1    0    0    0  501  0.00000000000E+00  0.00000000000E+00  0.17627736299E+04  0.17627736299E+04  0.25500000920E-02 0. -1.
        2   -1    0    0  501    0  0.00000000000E+00  0.00000000000E+00 -0.15441073441E+04  0.15441073441E+04  0.25500000920E-02 0.  1.
    10030    2    1    2    0    0  0.00000000000E+00  0.00000000000E+00  0.21866628578E+03  0.33068809740E+04  0.32996434401E+04 0.  0.
        4    1    3    3  502    0 -0.26278193059E+03  0.33456606443E+03  0.17068562841E+04  0.17590761160E+04  0.12699999809E+01 0. -1.
       -4    1    3    3    0  502  0.26278193059E+03 -0.33456606443E+03 -0.14881899983E+04  0.15478048580E+04  0.12699999809E+01 0.  1.
</event>
<event>
 5   0  0.6706080E-08  0.3300234E+04  0.7818609E-02  0.8162836E-01
       -2   -1    0    0    0  501  0.00000000000E+00  0.00000000000E+00  0.14764419039E+04  0.14764419039E+04  0.25500000920E-02 0.  1.
        2   -1    0    0  501    0  0.00000000000E+00  0.00000000000E+00 -0.18442211175E+04  0.18442211175E+04  0.25500000920E-02 0. -1.
    10030    2    1    2    0    0  0.00000000000E+00  0.00000000000E+00 -0.36777921367E+03  0.33206630214E+04  0.33002335298E+04 0.  0.
        4    1    3    3  502    0  0.48545882287E+03  0.86714152688E+03  0.11415647979E+04  0.15135311351E+04  0.12699999809E+01 0.  1.
       -4    1    3    3    0  502 -0.48545882287E+03 -0.86714152688E+03 -0.15093440115E+04  0.18071318863E+04  0.12699999809E+01 0. -1.
</event>
<event>
 5   0  0.2291682E-08  0.3300788E+04  0.7818609E-02  0.8162695E-01
       -1   -1    0    0    0  501  0.00000000000E+00  0.00000000000E+00  0.16640190367E+04  0.16640190367E+04  0.50400001928E-02 0. -1.
        1   -1    0    0  501    0  0.00000000000E+00  0.00000000000E+00 -0.16368809208E+04  0.16368809208E+04  0.50400001928E-02 0.  1.
    10030    2    1    2    0    0  0.00000000000E+00  0.00000000000E+00  0.27138115901E+02  0.33008999575E+04  0.33007883986E+04 0.  0.
        2    1    3    3  502    0  0.13481841653E+03  0.14217767597E+04 -0.81360813047E+03  0.16436493999E+04  0.25500000920E-02 0.  1.
       -2    1    3    3    0  502 -0.13481841653E+03 -0.14217767597E+04  0.84074624637E+03  0.16572505576E+04  0.25500000920E-02 0. -1.
</event>
<event>
 5   0  0.6706080E-08  0.3292417E+04  0.7818609E-02  0.8164828E-01
       -2   -1    0    0    0  501  0.00000000000E+00  0.00000000000E+00  0.16998715796E+04  0.16998715796E+04  0.25500000920E-02 0. -1.
        2   -1    0    0  501    0  0.00000000000E+00  0.00000000000E+00 -0.15942397246E+04  0.15942397246E+04  0.25500000920E-02 0.  1.
    10030    2    1    2    0    0  0.00000000000E+00  0.00000000000E+00  0.10563185503E+03  0.32941113042E+04  0.32924172269E+04 0.  0.
        4    1    3    3  502    0 -0.67111061768E+03  0.10370836072E+04  0.11415253148E+04  0.16819671598E+04  0.12699999809E+01 0. -1.
       -4    1    3    3    0  502  0.67111061768E+03 -0.10370836072E+04 -0.10358934598E+04  0.16121441444E+04  0.12699999809E+01 0.  1.
</event>
<event>
 5   0  0.2383270E-08  0.3299551E+04  0.7818609E-02  0.8163010E-01
        1   -1    0    0  501    0  0.00000000000E+00  0.00000000000E+00  0.16386906870E+04  0.16386906870E+04  0.50400001928E-02 0.  1.
       -1   -1    0    0    0  501  0.00000000000E+00  0.00000000000E+00 -0.16609350003E+04  0.16609350003E+04  0.50400001928E-02 0. -1.
    10030    2    1    2    0    0  0.00000000000E+00  0.00000000000E+00 -0.22244313320E+02  0.32996256874E+04  0.32995507069E+04 0.  0.
        5    1    3    3  502    0 -0.13965378550E+04  0.73315113727E+03 -0.49477356751E+03  0.16530733631E+04  0.46999998093E+01 0. -1.
       -5    1    3    3    0  502  0.13965378550E+04 -0.73315113727E+03  0.47252925419E+03  0.16465523243E+04  0.46999998093E+01 0.  1.
</event>
<event>
 5   0  0.2383270E-08  0.3301212E+04  0.7818609E-02  0.8162587E-01
        1   -1    0    0  501    0  0.00000000000E+00  0.00000000000E+00  0.22330917836E+04  0.22330917836E+04  0.50400001928E-02 0.  1.
       -1   -1    0    0    0  501  0.00000000000E+00  0.00000000000E+00 -0.12200577027E+04  0.12200577028E+04  0.50400001928E-02 0. -1.
    10030    2    1    2    0    0  0.00000000000E+00  0.00000000000E+00  0.10130340809E+04  0.34531494864E+04  0.33012124025E+04 0.  0.
        5    1    3    3  502    0  0.10012410169E+04 -0.52969955774E+03  0.17623625320E+04  0.20949961765E+04  0.46999998093E+01 0.  1.
       -5    1    3    3    0  502 -0.10012410169E+04  0.52969955774E+03 -0.74932845113E+03  0.13581533099E+04  0.46999998093E+01 0. -1.
</event>
<event>
 5   0  0.2383270E-08  0.3300291E+04  0.7818609E-02  0.8162821E-01
        1   -1    0    0  501    0  0.00000000000E+00  0.00000000000E+00  0.27438245584E+04  0.27438245584E+04  0.50400001928E-02 0.  1.
       -1   -1    0    0    0  501  0.00000000000E+00  0.00000000000E+00 -0.99240323431E+03  0.99240323433E+03  0.50400001928E-02 0. -1.
    10030    2    1    2    0    0  0.00000000000E+00  0.00000000000E+00  0.17514213241E+04  0.37362277928E+04  0.33002911182E+04 0.  0.
        5    1    3    3  502    0  0.25417666866E+03 -0.15341425859E+04  0.25074035706E+03  0.15751482691E+04  0.46999998093E+01 0. -1.
       -5    1    3    3    0  502 -0.25417666866E+03  0.15341425859E+04  0.15006809671E+04  0.21610795237E+04  0.46999998093E+01 0.  1.
</event>
<event>
 5   0  0.2291682E-08  0.3297997E+04  0.7818609E-02  0.8163405E-01
       -1   -1    0    0    0  501  0.00000000000E+00  0.00000000000E+00  0.14324109345E+04  0.14324109345E+04  0.50400001928E-02 0.  1.
        1   -1    0    0  501    0  0.00000000000E+00  0.00000000000E+00 -0.18983346488E+04  0.18983346489E+04  0.50400001928E-02 0. -1.
    10030    2    1    2    0    0  0.00000000000E+00  0.00000000000E+00 -0.46592371433E+03  0.33307455834E+04  0.32979965485E+04 0.  0.
        2    1    3    3  502    0  0.31294079020E+03 -0.69290264492E+03  0.12448350013E+04  0.14586501273E+04  0.25500000920E-02 0.  1.
       -2    1    3    3    0  502 -0.31294079020E+03  0.69290264492E+03 -0.17107587156E+04  0.18720954561E+04  0.25500000920E-02 0. -1.
</event>
<event>
 5   0  0.7084130E-08  0.3294780E+04  0.7818609E-02  0.8164225E-01
        2   -1    0    0  501    0  0.00000000000E+00  0.00000000000E+00  0.18880887476E+04  0.18880887476E+04  0.25500000920E-02 0. -1.
       -2   -1    0    0    0  501  0.00000000000E+00  0.00000000000E+00 -0.14373765928E+04  0.14373765928E+04  0.25500000920E-02 0.  1.
    10030    2    1    2    0    0  0.00000000000E+00  0.00000000000E+00  0.45071215486E+03  0.33254653404E+04  0.32947804606E+04 0.  0.
        3    1    3    3  502    0  0.61690969912E+03 -0.12480111483E+04 -0.66363351605E+03  0.15422447461E+04  0.10100000352E+00 0.  1.
       -3    1    3    3    0  502 -0.61690969912E+03  0.12480111483E+04  0.11143456709E+04  0.17832205942E+04  0.10100000352E+00 0. -1.
</event>
<event>
 5   0  0.6821287E-08  0.3298989E+04  0.7818609E-02  0.8163153E-01
       -2   -1    0    0    0  501  0.00000000000E+00  0.00000000000E+00  0.12265156158E+04  0.12265156158E+04  0.25500000920E-02 0.  1.
        2   -1    0    0  501    0  0.00000000000E+00  0.00000000000E+00 -0.22183434355E+04  0.22183434355E+04  0.25500000920E-02 0. -1.
    10030    2    1    2    0    0  0.00000000000E+00  0.00000000000E+00 -0.99182781971E+03  0.34448590512E+04  0.32989894603E+04 0.  0.
        5    1    3    3  502    0 -0.95656297368E+03  0.37458084173E+03 -0.18435144756E+04  0.21104244221E+04  0.46999998093E+01 0. -1.
       -5    1    3    3    0  502  0.95656297368E+03 -0.37458084173E+03  0.85168665591E+03  0.13344346291E+04  0.46999998093E+01 0.  1.
</event>
<event>
 5   0  0.6765252E-08  0.3298188E+04  0.7818609E-02  0.8163357E-01
        2   -1    0    0  501    0  0.00000000000E+00  0.00000000000E+00  0.92175522210E+03  0.92175522211E+03  0.25500000920E-02 0. -1.
       -2   -1    0    0    0  501  0.00000000000E+00  0.00000000000E+00 -0.29503610912E+04  0.29503610912E+04  0.25500000920E-02 0.  1.
    10030    2    1    2    0    0  0.00000000000E+00  0.00000000000E+00 -0.20286058691E+04  0.38721163133E+04  0.32981878315E+04 0.  0.
        2    1    3    3  502    0  0.14025181145E+04 -0.85786459766E+03 -0.86339763365E+03  0.18569987085E+04  0.25500000920E-02 0. -1.
       -2    1    3    3    0  502 -0.14025181145E+04  0.85786459766E+03 -0.11652082355E+04  0.20151176049E+04  0.25500000920E-02 0.  1.
</event>
<event>
 5   0  0.2309822E-08  0.3301041E+04  0.7818609E-02  0.8162631E-01
        1   -1    0    0  501    0  0.00000000000E+00  0.00000000000E+00  0.23282963048E+04  0.23282963048E+04  0.50400001928E-02 0.  1.
       -1   -1    0    0    0  501  0.00000000000E+00  0.00000000000E+00 -0.11700477968E+04  0.11700477968E+04  0.50400001928E-02 0. -1.
    10030    2    1    2    0    0  0.00000000000E+00  0.00000000000E+00  0.11582485079E+04  0.34983441016E+04  0.33010410248E+04 0.  0.
        4    1    3    3  502    0  0.92456716219E+03  0.12131893727E+04  0.12473371188E+04  0.19704071641E+04  0.12699999809E+01 0.  1.
       -4    1    3    3    0  502 -0.92456716219E+03 -0.12131893727E+04 -0.89088610827E+02  0.15279369375E+04  0.12699999809E+01 0. -1.
</event>
<event>
 5   0  0.6603516E-08  0.3301465E+04  0.7818609E-02  0.8162523E-01
       -2   -1    0    0    0  501  0.00000000000E+00  0.00000000000E+00  0.16153802431E+04  0.16153802431E+04  0.25500000920E-02 0. -1.
        2   -1    0    0  501    0  0.00000000000E+00  0.00000000000E+00 -0.16868580506E+04  0.16868580506E+04  0.25500000920E-02 0.  1.
    10030    2    1    2    0    0  0.00000000000E+00  0.00000000000E+00 -0.71477807547E+02  0.33022382937E+04  0.33014646252E+04 0.  0.
        1    1    3    3  502    0  0.42966150305E+03  0.28968583575E+02 -0.16296834839E+04  0.16856204922E+04  0.50400001928E-02 0.  1.
       -1    1    3    3    0  502 -0.42966150305E+03 -0.28968583575E+02  0.15582056764E+04  0.16166178015E+04  0.50400001928E-02 0. -1.
</event>
<event>
 5   0  0.2291682E-08  0.3298618E+04  0.7818609E-02  0.8163247E-01
       -1   -1    0    0    0  501  0.00000000000E+00  0.00000000000E+00  0.12875261492E+04  0.12875261492E+04  0.50400001928E-02 0.  1.
        1   -1    0    0  501    0  0.00000000000E+00  0.00000000000E+00 -0.21127500251E+04  0.21127500251E+04  0.50400001928E-02 0. -1.
    10030    2    1    2    0    0  0.00000000000E+00  0.00000000000E+00 -0.82522387591E+03  0.34002761743E+04  0.32986184405E+04 0.  0.
        2    1    3    3  502    0 -0.97072664092E+03 -0.62907140194E+03  0.79928137948E+03  0.14060198305E+04  0.25500000920E-02 0.  1.
       -2    1    3    3    0  502  0.97072664092E+03  0.62907140194E+03 -0.16245052554E+04  0.19942563438E+04  0.25500000920E-02 0. -1.
</event>
<event>
 5   0  0.2244093E-08  0.3292109E+04  0.7818609E-02  0.8164906E-01
       -1   -1    0    0    0  501  0.00000000000E+00  0.00000000000E+00  0.18123714102E+04  0.18123714102E+04  0.50400001928E-02 0.  1.
        1   -1    0    0  501    0  0.00000000000E+00  0.00000000000E+00 -0.14949998768E+04  0.14949998768E+04  0.50400001928E-02 0. -1.
    10030    2    1    2    0    0  0.00000000000E+00  0.00000000000E+00  0.31737153341E+03  0.33073712871E+04  0.32921087680E+04 0.  0.
        1    1    3    3  502    0 -0.67451719912E+03  0.14657956150E+04  0.48571726484E+03  0.16850672088E+04  0.50400001928E-02 0. -1.
       -1    1    3    3    0  502  0.67451719912E+03 -0.14657956150E+04 -0.16834573143E+03  0.16223040782E+04  0.50400001928E-02 0.  1.
</event>
<event>
 5   0  0.2279938E-08  0.3308153E+04  0.7818609E-02  0.8160824E-01
        1   -1    0    0  501    0  0.00000000000E+00  0.00000000000E+00  0.24859046003E+04  0.24859046003E+04  0.50400001928E-02 0.  1.
       -1   -1    0    0    0  501  0.00000000000E+00  0.00000000000E+00 -0.11005926677E+04  0.11005926677E+04  0.50400001928E-02 0. -1.
    10030    2    1    2    0    0  0.00000000000E+00  0.00000000000E+00  0.13853119326E+04  0.35864972680E+04  0.33081525815E+04 0.  0.
        3    1    3    3  502    0  0.12666613523E+04 -0.10604588089E+04  0.78313123951E+03  0.18281953985E+04  0.10100000352E+00 0.  1.
       -3    1    3    3    0  502 -0.12666613523E+04  0.10604588089E+04  0.60218069309E+03  0.17583018694E+04  0.10100000352E+00 0. -1.
</event>
<event>
 5   0  0.2291682E-08  0.3301212E+04  0.7818609E-02  0.8162587E-01
        1   -1    0    0  501    0  0.00000000000E+00  0.00000000000E+00  0.14789859202E+04  0.14789859202E+04  0.50400001928E-02 0. -1.
       -1   -1    0    0    0  501  0.00000000000E+00  0.00000000000E+00 -0.18421409097E+04  0.18421409098E+04  0.50400001928E-02 0.  1.
    10030    2    1    2    0    0  0.00000000000E+00  0.00000000000E+00 -0.36315498956E+03  0.33211268300E+04  0.33012121825E+04 0.  0.
        2    1    3    3  502    0  0.42696790003E+03 -0.10184547319E+02 -0.17855906416E+04  0.18359573121E+04  0.25500000920E-02 0.  1.
       -2    1    3    3    0  502 -0.42696790003E+03  0.10184547319E+02  0.14224356520E+04  0.14851695178E+04  0.25500000920E-02 0. -1.
</event>
<event>
 5   0  0.2279938E-08  0.3299198E+04  0.7818609E-02  0.8163100E-01
       -1   -1    0    0    0  501  0.00000000000E+00  0.00000000000E+00  0.25910175125E+04  0.25910175125E+04  0.50400001928E-02 0.  1.
        1   -1    0    0  501    0  0.00000000000E+00  0.00000000000E+00 -0.10502347263E+04  0.10502347263E+04  0.50400001928E-02 0. -1.
    10030    2    1    2    0    0  0.00000000000E+00  0.00000000000E+00  0.15407827862E+04  0.36412522388E+04  0.32991978226E+04 0.  0.
        3    1    3    3  502    0  0.11867696702E+04  0.36645193783E+03 -0.42773096635E+03  0.13136449530E+04  0.10100000352E+00 0. -1.
       -3    1    3    3    0  502 -0.11867696702E+04 -0.36645193783E+03  0.19685137526E+04  0.23276072858E+04  0.10100000352E+00 0.  1.
</event>
<event>
 5   0  0.2244093E-08  0.3299711E+04  0.7818609E-02  0.8162969E-01
       -1   -1    0    0    0  501  0.00000000000E+00  0.00000000000E+00  0.13284067474E+04  0.13284067474E+04  0.50400001928E-02 0.  1.
        1   -1    0    0  501    0  0.00000000000E+00  0.00000000000E+00 -0.20490881411E+04  0.20490881411E+04  0.50400001928E-02 0. -1.
    10030    2    1    2    0    0  0.00000000000E+00  0.00000000000E+00 -0.72068139370E+03  0.33774948884E+04  0.32997106010E+04 0.  0.
        1    1    3    3  502    0 -0.12974686269E+04  0.60274847511E+03  0.48079223150E+03  0.15092686082E+04  0.50400001928E-02 0.  1.
       -1    1    3    3    0  502  0.12974686269E+04 -0.60274847511E+03 -0.12014736252E+04  0.18682262802E+04  0.50400001928E-02 0. -1.
</event>
<event>
 5   0  0.2291682E-08  0.3300297E+04  0.7818609E-02  0.8162820E-01
       -1   -1    0    0    0  501  0.00000000000E+00  0.00000000000E+00  0.30633538165E+04  0.30633538165E+04  0.50400001928E-02 0.  1.
        1   -1    0    0  501    0  0.00000000000E+00  0.00000000000E+00 -0.88889152991E+03  0.88889152993E+03  0.50400001928E-02 0. -1.
    10030    2    1    2    0    0  0.00000000000E+00  0.00000000000E+00  0.21744622865E+04  0.39522453464E+04  0.33002965083E+04 0.  0.
        2    1    3    3  502    0 -0.13748797438E+04 -0.55002211681E+03  0.19591955672E+04  0.24558635771E+04  0.25500000920E-02 0.  1.
       -2    1    3    3    0  502  0.13748797438E+04  0.55002211681E+03  0.21526671934E+03  0.14963817693E+04  0.25500000920E-02 0. -1.
</event>
<event>
 5   0  0.6765252E-08  0.3298782E+04  0.7818609E-02  0.8163205E-01
       -2   -1    0    0    0  501  0.00000000000E+00  0.00000000000E+00  0.14335244429E+04  0.14335244429E+04  0.25500000920E-02 0.  1.
        2   -1    0    0  501    0  0.00000000000E+00  0.00000000000E+00 -0.18977638734E+04  0.18977638734E+04  0.25500000920E-02 0. -1.
    10030    2    1    2    0    0  0.00000000000E+00  0.00000000000E+00 -0.46423943048E+03  0.33312883163E+04  0.32987821385E+04 0.  0.
        2    1    3    3  502    0  0.17086716843E+02 -0.10950618994E+04 -0.14775765307E+04  0.18392076891E+04  0.25500000920E-02 0. -1.
       -2    1    3    3    0  502 -0.17086716843E+02  0.10950618994E+04  0.10133371002E+04  0.14920806272E+04  0.25500000920E-02 0.  1.
</event>
<event>
 5   0  0.2291682E-08  0.3296204E+04  0.7818609E-02  0.8163862E-01
        1   -1    0    0  501    0  0.00000000000E+00  0.00000000000E+00  0.25310979205E+04  0.25310979205E+04  0.50400001928E-02 0. -1.
       -1   -1    0    0    0  501  0.00000000000E+00  0.00000000000E+00 -0.10731471924E+04  0.10731471924E+04  0.50400001928E-02 0.  1.
    10030    2    1    2    0    0  0.00000000000E+00  0.00000000000E+00  0.14579507281E+04  0.36042451129E+04  0.32962042576E+04 0.  0.
        2    1    3    3  502    0 -0.51218372691E+03  0.89284668969E+03  0.21364043656E+04  0.23714407003E+04  0.25500000920E-02 0. -1.
       -2    1    3    3    0  502  0.51218372691E+03 -0.89284668969E+03 -0.67845363751E+03  0.12328044126E+04  0.25500000920E-02 0.  1.
</event>
<event>
 5   0  0.2383270E-08  0.3300582E+04  0.7818609E-02  0.8162747E-01
       -1   -1    0    0    0  501  0.00000000000E+00  0.00000000000E+00  0.17015694862E+04  0.17015694862E+04  0.50400001928E-02 0.  1.
        1   -1    0    0  501    0  0.00000000000E+00  0.00000000000E+00 -0.16005579001E+04  0.16005579001E+04  0.50400001928E-02 0. -1.
    10030    2    1    2    0    0  0.00000000000E+00  0.00000000000E+00  0.10101158610E+03  0.33021273863E+04  0.33005820600E+04 0.  0.
        5    1    3    3  502    0 -0.12940565376E+03 -0.93379257844E+03 -0.13046482283E+04  0.16096097330E+04  0.46999998093E+01 0. -1.
       -5    1    3    3    0  502  0.12940565376E+03  0.93379257844E+03  0.14056598144E+04  0.16925176533E+04  0.46999998093E+01 0.  1.
</event>
<event>
 5   0  0.2200750E-08  0.3293661E+04  0.7818609E-02  0.8164510E-01
       -3   -1    0    0    0  501  0.00000000000E+00  0.00000000000E+00  0.20385301594E+04  0.20385301619E+04  0.10100000352E+00 0. -1.
        3   -1    0    0  501    0  0.00000000000E+00  0.00000000000E+00 -0.13303953052E+04  0.13303953090E+04  0.10100000352E+00 0.  1.
    10030    2    1    2    0    0  0.00000000000E+00  0.00000000000E+00  0.70813485422E+03  0.33689254709E+04  0.32936611630E+04 0.  0.
        5    1    3    3  502    0 -0.13026566221E+04  0.92529774958E+03  0.76184869951E+03  0.17701767515E+04  0.46999998093E+01 0.  1.
       -5    1    3    3    0  502  0.13026566221E+04 -0.92529774958E+03 -0.53713845283E+02  0.15987487194E+04  0.46999998093E+01 0. -1.
</event>
<event>
 5   0  0.7084130E-08  0.3306316E+04  0.7818609E-02  0.8161290E-01
        2   -1    0    0  501    0  0.00000000000E+00  0.00000000000E+00  0.16041453920E+04  0.16041453920E+04  0.25500000920E-02 0.  1.
       -2   -1    0    0    0  501  0.00000000000E+00  0.00000000000E+00 -0.17036677934E+04  0.17036677934E+04  0.25500000920E-02 0. -1.
    10030    2    1    2    0    0  0.00000000000E+00  0.00000000000E+00 -0.99522401380E+02  0.33078131854E+04  0.33063156778E+04 0.  0.
        3    1    3    3  502    0 -0.11967147294E+04  0.11232245715E+04  0.14824571763E+03  0.16479491450E+04  0.10100000352E+00 0.  1.
       -3    1    3    3    0  502  0.11967147294E+04 -0.11232245715E+04 -0.24776811901E+03  0.16598640404E+04  0.10100000352E+00 0. -1.
</event>
<event>
 5   0  0.7084130E-08  0.3321962E+04  0.7818609E-02  0.8157330E-01
        2   -1    0    0  501    0  0.00000000000E+00  0.00000000000E+00  0.13388338839E+04  0.13388338839E+04  0.25500000920E-02 0.  1.
       -2   -1    0    0    0  501  0.00000000000E+00  0.00000000000E+00 -0.20606423020E+04  0.20606423020E+04  0.25500000920E-02 0. -1.
    10030    2    1    2    0    0  0.00000000000E+00  0.00000000000E+00 -0.72180841804E+03  0.33994761859E+04  0.33219619122E+04 0.  0.
        3    1    3    3  502    0  0.21591072417E+03  0.11067874270E+04 -0.16088941283E+04  0.19647229259E+04  0.10100000352E+00 0. -1.
       -3    1    3    3    0  502 -0.21591072417E+03 -0.11067874270E+04  0.88708571023E+03  0.14347532600E+04  0.10100000352E+00 0.  1.
</event>
<event>
 5   0  0.6706080E-08  0.3299394E+04  0.7818609E-02  0.8163050E-01
       -2   -1    0    0    0  501  0.00000000000E+00  0.00000000000E+00  0.12904123376E+04  0.12904123376E+04  0.25500000920E-02 0. -1.
        2   -1    0    0  501    0  0.00000000000E+00  0.00000000000E+00 -0.21090154263E+04  0.21090154263E+04  0.25500000920E-02 0.  1.
    10030    2    1    2    0    0  0.00000000000E+00  0.00000000000E+00 -0.81860308864E+03  0.33994277639E+04  0.32993935966E+04 0.  0.
        4    1    3    3  502    0  0.46380067035E+03 -0.56653815735E+03 -0.19324396466E+04  0.20664948938E+04  0.12699999809E+01 0.  1.
       -4    1    3    3    0  502 -0.46380067035E+03  0.56653815735E+03  0.11138365579E+04  0.13329328701E+04  0.12699999809E+01 0. -1.
</event>
<event>
 5   0  0.7084130E-08  0.3300694E+04  0.7818609E-02  0.8162719E-01
        2   -1    0    0  501    0  0.00000000000E+00  0.00000000000E+00  0.17824930578E+04  0.17824930578E+04  0.25500000920E-02 0.  1.
       -2   -1    0    0    0  501  0.00000000000E+00  0.00000000000E+00 -0.15279980462E+04  0.15279980462E+04  0.25500000920E-02 0. -1.
    10030    2    1    2    0    0  0.00000000000E+00  0.00000000000E+00  0.25449501156E+03  0.33104911041E+04  0.33006944177E+04 0.  0.
        3    1    3    3  502    0  0.10803944112E+04 -0.59578621093E+03 -0.97210460278E+03  0.15707325240E+04  0.10100000352E+00 0. -1.
       -3    1    3    3    0  502 -0.10803944112E+04  0.59578621093E+03  0.12265996143E+04  0.17397585801E+04  0.10100000352E+00 0.  1.
</event>
<event>
 5   0  0.6603516E-08  0.3299771E+04  0.7818609E-02  0.8162954E-01
       -2   -1    0    0    0  501  0.00000000000E+00  0.00000000000E+00  0.10173467535E+04  0.10173467535E+04  0.25500000920E-02 0.  1.
        2   -1    0    0  501    0  0.00000000000E+00  0.00000000000E+00 -0.26757068552E+04  0.26757068552E+04  0.25500000920E-02 0. -1.
    10030    2    1    2    0    0  0.00000000000E+00  0.00000000000E+00 -0.16583601017E+04  0.36930536088E+04  0.32997707088E+04 0.  0.
        1    1    3    3  502    0  0.38949705733E+02 -0.63537568808E+03  0.87437319678E+03  0.10815488116E+04  0.50400001928E-02 0.  1.
       -1    1    3    3    0  502 -0.38949705733E+02  0.63537568808E+03 -0.25327332985E+04  0.26115047972E+04  0.50400001928E-02 0. -1.
</event>
<event>
 5   0  0.7084130E-08  0.3298080E+04  0.7818609E-02  0.8163384E-01
        2   -1    0    0  501    0  0.00000000000E+00  0.00000000000E+00  0.18864727289E+04  0.18864727289E+04  0.25500000920E-02 0. -1.
       -2   -1    0    0    0  501  0.00000000000E+00  0.00000000000E+00 -0.14414907113E+04  0.14414907113E+04  0.25500000920E-02 0.  1.
    10030    2    1    2    0    0  0.00000000000E+00  0.00000000000E+00  0.44498201753E+03  0.33279634402E+04  0.32980799965E+04 0.  0.
        3    1    3    3  502    0 -0.28540446366E+03 -0.16202186840E+04  0.33651316186E+03  0.16792276231E+04  0.10100000352E+00 0. -1.
       -3    1    3    3    0  502  0.28540446366E+03  0.16202186840E+04  0.10846885568E+03  0.16487358171E+04  0.10100000352E+00 0.  1.
</event>
<event>
 5   0  0.6821287E-08  0.3292219E+04  0.7818609E-02  0.8164878E-01
        2   -1    0    0  501    0  0.00000000000E+00  0.00000000000E+00  0.20230613626E+04  0.20230613626E+04  0.25500000920E-02 0. -1.
       -2   -1    0    0    0  501  0.00000000000E+00  0.00000000000E+00 -0.13393939583E+04  0.13393939583E+04  0.25500000920E-02 0.  1.
    10030    2    1    2    0    0  0.00000000000E+00  0.00000000000E+00  0.68366740428E+03  0.33624553208E+04  0.32922188057E+04 0.  0.
        5    1    3    3  502    0  0.60996301204E+03  0.48785664864E+03  0.18217447259E+04  0.19821288863E+04  0.46999998093E+01 0. -1.
       -5    1    3    3    0  502 -0.60996301204E+03 -0.48785664864E+03 -0.11380773216E+04  0.13803264345E+04  0.46999998093E+01 0.  1.
</event>
<event>
 5   0  0.2279938E-08  0.3300935E+04  0.7818609E-02  0.8162658E-01
       -1   -1    0    0    0  501  0.00000000000E+00  0.00000000000E+00  0.16113310711E+04  0.16113310711E+04  0.50400001928E-02 0.  1.
        1   -1    0    0  501    0  0.00000000000E+00  0.00000000000E+00 -0.16905543907E+04  0.16905543907E+04  0.50400001928E-02 0. -1.
    10030    2    1    2    0    0  0.00000000000E+00  0.00000000000E+00 -0.79223319643E+02  0.33018854618E+04  0.33009349082E+04 0.  0.
        3    1    3    3  502    0  0.15179569619E+04  0.57055788252E+03 -0.34680459091E+03  0.16583133208E+04  0.10100000352E+00 0. -1.
       -3    1    3    3    0  502 -0.15179569619E+04 -0.57055788252E+03  0.26758127127E+03  0.16435721409E+04  0.10100000352E+00 0.  1.
</event>
<event>
 5   0  0.2244093E-08  0.3299232E+04  0.7818609E-02  0.8163091E-01
       -1   -1    0    0    0  501  0.00000000000E+00  0.00000000000E+00  0.10618997692E+04  0.10618997692E+04  0.50400001928E-02 0.  1.
        1   -1    0    0  501    0  0.00000000000E+00  0.00000000000E+00 -0.25626085314E+04  0.25626085315E+04  0.50400001928E-02 0. -1.
    10030    2    1    2    0    0  0.00000000000E+00  0.00000000000E+00 -0.15007087622E+04  0.36245083007E+04  0.32992322793E+04 0.  0.
        1    1    3    3  502    0 -0.15196947542E+04 -0.13695508888E+01 -0.14553038051E+04  0.21041347834E+04  0.50400001928E-02 0. -1.
       -1    1    3    3    0  502  0.15196947542E+04  0.13695508888E+01 -0.45404957143E+02  0.15203735172E+04  0.50400001928E-02 0.  1.
</event>
<event>
 5   0  0.2279938E-08  0.3300668E+04  0.7818609E-02  0.8162725E-01
        1   -1    0    0  501    0  0.00000000000E+00  0.00000000000E+00  0.22681223179E+04  0.22681223179E+04  0.50400001928E-02 0.  1.
       -1   -1    0    0    0  501  0.00000000000E+00  0.00000000000E+00 -0.12008179475E+04  0.12008179475E+04  0.50400001928E-02 0. -1.
    10030    2    1    2    0    0  0.00000000000E+00  0.00000000000E+00  0.10673043704E+04  0.34689402655E+04  0.33006678031E+04 0.  0.
        3    1    3    3  502    0  0.10764992626E+04 -0.74586047604E+03 -0.52175678847E+03  0.14097477323E+04  0.10100000352E+00 0. -1.
       -3    1    3    3    0  502 -0.10764992626E+04  0.74586047604E+03  0.15890611588E+04  0.20591925332E+04  0.10100000352E+00 0.  1.
</event>
<event>
 5   0  0.2244093E-08  0.3300977E+04  0.7818609E-02  0.8162647E-01
        1   -1    0    0  501    0  0.00000000000E+00  0.00000000000E+00  0.17284823848E+04  0.17284823848E+04  0.50400001928E-02 0. -1.
       -1   -1    0    0    0  501  0.00000000000E+00  0.00000000000E+00 -0.15760135806E+04  0.15760135806E+04  0.50400001928E-02 0.  1.
    10030    2    1    2    0    0  0.00000000000E+00  0.00000000000E+00  0.15246880420E+03  0.33044959653E+04  0.33009766507E+04 0.  0.
        1    1    3    3  502    0  0.59049620263E+03 -0.55984197404E+02 -0.14656322651E+04  0.15811065531E+04  0.50400001928E-02 0.  1.
       -1    1    3    3    0  502 -0.59049620263E+03  0.55984197404E+02  0.16181010693E+04  0.17233894122E+04  0.50400001928E-02 0. -1.
</event>
<event>
 5   0  0.2309822E-08  0.3299968E+04  0.7818609E-02  0.8162904E-01
       -1   -1    0    0    0  501  0.00000000000E+00  0.00000000000E+00  0.11625874640E+04  0.11625874640E+04  0.50400001928E-02 0. -1.
        1   -1    0    0  501    0  0.00000000000E+00  0.00000000000E+00 -0.23417132349E+04  0.23417132349E+04  0.50400001928E-02 0.  1.
    10030    2    1    2    0    0  0.00000000000E+00  0.00000000000E+00 -0.11791257710E+04  0.35043006989E+04  0.32999675460E+04 0.  0.
        4    1    3    3  502    0  0.38886133112E+03 -0.81903508546E+03 -0.20534774086E+04  0.22447277533E+04  0.12699999809E+01 0.  1.
       -4    1    3    3    0  502 -0.38886133112E+03  0.81903508546E+03  0.87435163764E+03  0.12595729456E+04  0.12699999809E+01 0. -1.
</event>
<event>
 5   0  0.6706080E-08  0.3299742E+04  0.7818609E-02  0.8162961E-01
        2   -1    0    0  501    0  0.00000000000E+00  0.00000000000E+00  0.15029460854E+04  0.15029460854E+04  0.25500000920E-02 0.  1.
       -2   -1    0    0    0  501  0.00000000000E+00  0.00000000000E+00 -0.18111593386E+04  0.18111593386E+04  0.25500000920E-02 0. -1.
    10030    2    1    2    0    0  0.00000000000E+00  0.00000000000E+00 -0.30821325314E+03  0.33141054240E+04  0.32997423160E+04 0.  0.
        4    1    3    3  502    0  0.47527860798E+03  0.33247271222E+03 -0.17053832058E+04  0.18013221120E+04  0.12699999809E+01 0. -1.
       -4    1    3    3    0  502 -0.47527860798E+03 -0.33247271222E+03  0.13971699527E+04  0.15127833120E+04  0.12699999809E+01 0.  1.
</event>
<event>
 5   0  0.6821287E-08  0.3299800E+04  0.7818609E-02  0.8162946E-01
        2   -1    0    0  501    0  0.00000000000E+00  0.00000000000E+00  0.13494583813E+04  0.13494583813E+04  0.25500000920E-02 0. -1.
       -2   -1    0    0    0  501  0.00000000000E+00  0.00000000000E+00 -0.20172315205E+04  0.20172315205E+04  0.25500000920E-02 0.  1.
    10030    2    1    2    0    0  0.00000000000E+00  0.00000000000E+00 -0.66777313919E+03  0.33666899018E+04  0.32997999832E+04 0.  0.
        5    1    3    3  502    0  0.90087912105E+03  0.72797791172E+03 -0.15326996082E+04  0.19211260265E+04  0.46999998093E+01 0.  1.
       -5    1    3    3    0  502 -0.90087912105E+03 -0.72797791172E+03  0.86492646903E+03  0.14455638753E+04  0.46999998093E+01 0. -1.
</event>
<event>
 5   0  0.2244093E-08  0.3300187E+04  0.7818609E-02  0.8162848E-01
       -1   -1    0    0    0  501  0.00000000000E+00  0.00000000000E+00  0.13686673970E+04  0.13686673970E+04  0.50400001928E-02 0.  1.
        1   -1    0    0  501    0  0.00000000000E+00  0.00000000000E+00 -0.19893860957E+04  0.19893860957E+04  0.50400001928E-02 0. -1.
    10030    2    1    2    0    0  0.00000000000E+00  0.00000000000E+00 -0.62071869868E+03  0.33580534926E+04  0.33001865942E+04 0.  0.
        1    1    3    3  502    0  0.16151647537E+04 -0.20419192744E+03 -0.58406734368E+03  0.17296202435E+04  0.50400001928E-02 0. -1.
       -1    1    3    3    0  502 -0.16151647537E+04  0.20419192744E+03 -0.36651355000E+02  0.16284332491E+04  0.50400001928E-02 0.  1.
</event>
<event>
 5   0  0.7084130E-08  0.3300493E+04  0.7818609E-02  0.8162770E-01
        2   -1    0    0  501    0  0.00000000000E+00  0.00000000000E+00  0.21483754286E+04  0.21483754286E+04  0.25500000920E-02 0.  1.
       -2   -1    0    0    0  501  0.00000000000E+00  0.00000000000E+00 -0.12676155208E+04  0.12676155208E+04  0.25500000920E-02 0. -1.
    10030    2    1    2    0    0  0.00000000000E+00  0.00000000000E+00  0.88075990772E+03  0.34159909494E+04  0.33004933194E+04 0.  0.
        3    1    3    3  502    0  0.37956214988E+03 -0.14812210706E+03  0.20954990132E+04  0.21347420708E+04  0.10100000352E+00 0.  1.
       -3    1    3    3    0  502 -0.37956214988E+03  0.14812210706E+03 -0.12147391055E+04  0.12812488786E+04  0.10100000352E+00 0. -1.
</event>
<event>
 5   0  0.6603516E-08  0.3299701E+04  0.7818609E-02  0.8162972E-01
       -2   -1    0    0    0  501  0.00000000000E+00  0.00000000000E+00  0.89664987090E+03  0.89664987090E+03  0.25500000920E-02 0. -1.
        2   -1    0    0  501    0  0.00000000000E+00  0.00000000000E+00 -0.30357511234E+04  0.30357511234E+04  0.25500000920E-02 0.  1.
    10030    2    1    2    0    0  0.00000000000E+00  0.00000000000E+00 -0.21391012525E+04  0.39324009943E+04  0.32997005033E+04 0.  0.
        1    1    3    3  502    0 -0.20046549485E+03 -0.11247561445E+04  0.34894767553E+03  0.11945824708E+04  0.50400001928E-02 0. -1.
       -1    1    3    3    0  502  0.20046549485E+03  0.11247561445E+04 -0.24880489280E+04  0.27378185235E+04  0.50400001928E-02 0.  1.
</event>
<event>
 5   0  0.6765252E-08  0.3296463E+04  0.7818609E-02  0.8163796E-01
        2   -1    0    0  501    0  0.00000000000E+00  0.00000000000E+00  0.23940768655E+04  0.23940768655E+04  0.25500000920E-02 0. -1.
       -2   -1    0    0    0  501  0.00000000000E+00  0.00000000000E+00 -0.11347449958E+04  0.11347449958E+04  0.25500000920E-02 0.  1.
    10030    2    1    2    0    0  0.00000000000E+00  0.00000000000E+00  0.12593318697E+04  0.35288218613E+04  0.32964627968E+04 0.  0.
        2    1    3    3  502    0 -0.11465633253E+04  0.10526430283E+04  0.49226843402E+02  0.15572694327E+04  0.25500000920E-02 0.  1.
       -2    1    3    3    0  502  0.11465633253E+04 -0.10526430283E+04  0.12101050263E+04  0.19715524286E+04  0.25500000920E-02 0. -1.
</event>
<event>
 5   0  0.2291682E-08  0.3300332E+04  0.7818609E-02  0.8162811E-01
       -1   -1    0    0    0  501  0.00000000000E+00  0.00000000000E+00  0.17741171032E+04  0.17741171033E+04  0.50400001928E-02 0. -1.
        1   -1    0    0  501    0  0.00000000000E+00  0.00000000000E+00 -0.15348751256E+04  0.15348751256E+04  0.50400001928E-02 0.  1.
    10030    2    1    2    0    0  0.00000000000E+00  0.00000000000E+00  0.23924197769E+03  0.33089922288E+04  0.33003322328E+04 0.  0.
        2    1    3    3  502    0 -0.10018374307E+04 -0.85076612121E+03 -0.88077819428E+03  0.15821666973E+04  0.25500000920E-02 0. -1.
       -2    1    3    3    0  502  0.10018374307E+04  0.85076612121E+03  0.11200201720E+04  0.17268255315E+04  0.25500000920E-02 0.  1.
</event>
<event>
 5   0  0.2309822E-08  0.3300589E+04  0.7818609E-02  0.8162746E-01
       -1   -1    0    0    0  501  0.00000000000E+00  0.00000000000E+00  0.15678578687E+04  0.15678578687E+04  0.50400001928E-02 0. -1.
        1   -1    0    0  501    0  0.00000000000E+00  0.00000000000E+00 -0.17370656850E+04  0.17370656850E+04  0.50400001928E-02 0.  1.
    10030    2    1    2    0    0  0.00000000000E+00  0.00000000000E+00 -0.16920781633E+03  0.33049235537E+04  0.33005891005E+04 0.  0.
        4    1    3    3  502    0  0.99107255950E+03  0.55267990527E+02 -0.14047400487E+04  0.17200510418E+04  0.12699999809E+01 0.  1.
       -4    1    3    3    0  502 -0.99107255950E+03 -0.55267990527E+02  0.12355322324E+04  0.15848725119E+04  0.12699999809E+01 0. -1.
</event>
<event>
 5   0  0.6821287E-08  0.3302750E+04  0.7818609E-02  0.8162196E-01
       -2   -1    0    0    0  501  0.00000000000E+00  0.00000000000E+00  0.18086045409E+04  0.18086045409E+04  0.25500000920E-02 0.  1.
        2   -1    0    0  501    0  0.00000000000E+00  0.00000000000E+00 -0.15078143915E+04  0.15078143915E+04  0.25500000920E-02 0. -1.
    10030    2    1    2    0    0  0.00000000000E+00  0.00000000000E+00  0.30079014940E+03  0.33164189324E+04  0.33027503419E+04 0.  0.
        5    1    3    3  502    0 -0.16356231466E+04 -0.21618786762E+03  0.79266946759E+02  0.16517583390E+04  0.46999998093E+01 0.  1.
       -5    1    3    3    0  502  0.16356231466E+04  0.21618786762E+03  0.22152320264E+03  0.16646605933E+04  0.46999998093E+01 0. -1.
</event>
<event>
 5   0  0.2200750E-08  0.3299860E+04  0.7818609E-02  0.8162931E-01
       -4   -1    0    0    0  501  0.00000000000E+00  0.00000000000E+00  0.13604507847E+04  0.13604513775E+04  0.12699999809E+01 0. -1.
        4   -1    0    0  501    0  0.00000000000E+00  0.00000000000E+00 -0.20010039970E+04  0.20010044000E+04  0.12699999809E+01 0.  1.
    10030    2    1    2    0    0  0.00000000000E+00  0.00000000000E+00 -0.64055321224E+03  0.33614557775E+04  0.32998600768E+04 0.  0.
        5    1    3    3  502    0  0.11012336925E+04 -0.62806335625E+03  0.75540196702E+03  0.14757484361E+04  0.46999998093E+01 0. -1.
       -5    1    3    3    0  502 -0.11012336925E+04  0.62806335625E+03 -0.13959551793E+04  0.18857073414E+04  0.46999998093E+01 0.  1.
</event>
<event>
 5   0  0.2383270E-08  0.3301614E+04  0.7818609E-02  0.8162485E-01
       -1   -1    0    0    0  501  0.00000000000E+00  0.00000000000E+00  0.19644559492E+04  0.19644559492E+04  0.50400001928E-02 0. -1.
        1   -1    0    0  501    0  0.00000000000E+00  0.00000000000E+00 -0.13872358922E+04  0.13872358922E+04  0.50400001928E-02 0.  1.
    10030    2    1    2    0    0  0.00000000000E+00  0.00000000000E+00  0.57722005698E+03  0.33516918414E+04  0.33016140304E+04 0.  0.
        5    1    3    3  502    0 -0.53070866675E+03  0.14307124369E+04  0.92788517897E+03  0.17859403018E+04  0.46999998093E+01 0. -1.
       -5    1    3    3    0  502  0.53070866675E+03 -0.14307124369E+04 -0.35066512200E+03  0.15657515397E+04  0.46999998093E+01 0.  1.
</event>
<event>
 5   0  0.2309822E-08  0.3299192E+04  0.7818609E-02  0.8163101E-01
        1   -1    0    0  501    0  0.00000000000E+00  0.00000000000E+00  0.22187330465E+04  0.22187330465E+04  0.50400001928E-02 0.  1.
       -1   -1    0    0    0  501  0.00000000000E+00  0.00000000000E+00 -0.12264506257E+04  0.12264506257E+04  0.50400001928E-02 0. -1.
    10030    2    1    2    0    0  0.00000000000E+00  0.00000000000E+00  0.99228242082E+03  0.34451836722E+04  0.32991917393E+04 0.  0.
        4    1    3    3  502    0 -0.11166701132E+04  0.53180689373E+03 -0.64366906017E+03  0.13943034770E+04  0.12699999809E+01 0. -1.
       -4    1    3    3    0  502  0.11166701132E+04 -0.53180689373E+03  0.16359514810E+04  0.20508801952E+04  0.12699999809E+01 0.  1.
</event>
<event>
 5   0  0.2279938E-08  0.3302913E+04  0.7818609E-02  0.8162155E-01
        1   -1    0    0  501    0  0.00000000000E+00  0.00000000000E+00  0.14362505924E+04  0.14362505924E+04  0.50400001928E-02 0.  1.
       -1   -1    0    0    0  501  0.00000000000E+00  0.00000000000E+00 -0.18989081236E+04  0.18989081236E+04  0.50400001928E-02 0. -1.
    10030    2    1    2    0    0  0.00000000000E+00  0.00000000000E+00 -0.46265753122E+03  0.33351587160E+04  0.33029126040E+04 0.  0.
        3    1    3    3  502    0  0.11393196354E+04  0.11935562235E+04 -0.16223399508E+03  0.16579944420E+04  0.10100000352E+00 0.  1.
       -3    1    3    3    0  502 -0.11393196354E+04 -0.11935562235E+04 -0.30042353615E+03  0.16771642739E+04  0.10100000352E+00 0. -1.
</event>
<event>
 5   0  0.2383270E-08  0.3299422E+04  0.7818609E-02  0.8163042E-01
        1   -1    0    0  501    0  0.00000000000E+00  0.00000000000E+00  0.20802815435E+04  0.20802815435E+04  0.50400001928E-02 0.  1.
       -1   -1    0    0    0  501  0.00000000000E+00  0.00000000000E+00 -0.13082590121E+04  0.13082590121E+04  0.50400001928E-02 0. -1.
    10030    2    1    2    0    0  0.00000000000E+00  0.00000000000E+00  0.77202253141E+03  0.33885405556E+04  0.32994224204E+04 0.  0.
        5    1    3    3  502    0 -0.55432345659E+03  0.12683727295E+04  0.13077385577E+04  0.19042704905E+04  0.46999998093E+01 0.  1.
       -5    1    3    3    0  502  0.55432345659E+03 -0.12683727295E+04 -0.53571602627E+03  0.14842700652E+04  0.46999998093E+01 0. -1.
</event>
<event>
 5   0  0.2244093E-08  0.3292827E+04  0.7818609E-02  0.8164723E-01
        1   -1    0    0  501    0  0.00000000000E+00  0.00000000000E+00  0.24786829249E+04  0.24786829249E+04  0.50400001928E-02 0. -1.
       -1   -1    0    0    0  501  0.00000000000E+00  0.00000000000E+00 -0.10935960085E+04  0.10935960085E+04  0.50400001928E-02 0.  1.
    10030    2    1    2    0    0  0.00000000000E+00  0.00000000000E+00  0.13850869164E+04  0.35722789334E+04  0.32928272065E+04 0.  0.
        1    1    3    3  502    0  0.69852084419E+03  0.13146621101E+04 -0.70272919480E+02  0.14903711339E+04  0.50400001928E-02 0.  1.
       -1    1    3    3    0  502 -0.69852084419E+03 -0.13146621101E+04  0.14553598359E+04  0.20819077995E+04  0.50400001928E-02 0. -1.
</event>
<event>
 5   0  0.6603516E-08  0.3302604E+04  0.7818609E-02  0.8162233E-01
        2   -1    0    0  501    0  0.00000000000E+00  0.00000000000E+00  0.20024542158E+04  0.20024542158E+04  0.25500000920E-02 0.  1.
       -2   -1    0    0    0  501  0.00000000000E+00  0.00000000000E+00 -0.13617280687E+04  0.13617280687E+04  0.25500000920E-02 0. -1.
    10030    2    1    2    0    0  0.00000000000E+00  0.00000000000E+00  0.64072614711E+03  0.33641822845E+04  0.33026038890E+04 0.  0.
        1    1    3    3  502    0 -0.22425745465E+03  0.16106496164E+04  0.28108541504E+02  0.16264297350E+04  0.50400001928E-02 0. -1.
       -1    1    3    3    0  502  0.22425745465E+03 -0.16106496164E+04  0.61261760560E+03  0.17377525495E+04  0.50400001928E-02 0.  1.
</event>
<event>
 5   0  0.2244093E-08  0.3301083E+04  0.7818609E-02  0.8162620E-01
        1   -1    0    0  501    0  0.00000000000E+00  0.00000000000E+00  0.21248888493E+04  0.21248888493E+04  0.50400001928E-02 0.  1.
       -1   -1    0    0    0  501  0.00000000000E+00  0.00000000000E+00 -0.12820844142E+04  0.12820844142E+04  0.50400001928E-02 0. -1.
    10030    2    1    2    0    0  0.00000000000E+00  0.00000000000E+00  0.84280443507E+03  0.34069732635E+04  0.33010827773E+04 0.  0.
        1    1    3    3  502    0 -0.15649553501E+04  0.26185228904E+03  0.89055496028E+03  0.18195439007E+04  0.50400001928E-02 0. -1.
       -1    1    3    3    0  502  0.15649553501E+04 -0.26185228904E+03 -0.47750525208E+02  0.15874293628E+04  0.50400001928E-02 0.  1.
</event>
<event>
 5   0  0.6706080E-08  0.3301143E+04  0.7818609E-02  0.8162605E-01
       -2   -1    0    0    0  501  0.00000000000E+00  0.00000000000E+00  0.84392179161E+03  0.84392179161E+03  0.25500000920E-02 0. -1.
        2   -1    0    0  501    0  0.00000000000E+00  0.00000000000E+00 -0.32282440381E+04  0.32282440381E+04  0.25500000920E-02 0.  1.
    10030    2    1    2    0    0  0.00000000000E+00  0.00000000000E+00 -0.23843222465E+04  0.40721658297E+04  0.33011425249E+04 0.  0.
        4    1    3    3  502    0  0.10667116654E+03 -0.47782664057E+02 -0.32231318657E+04  0.32252507743E+04  0.12699999809E+01 0.  1.
       -4    1    3    3    0  502 -0.10667116654E+03  0.47782664057E+02  0.83880961924E+03  0.84691505535E+03  0.12699999809E+01 0. -1.
</event>
<event>
 5   0  0.6821287E-08  0.3299881E+04  0.7818609E-02  0.8162926E-01
        2   -1    0    0  501    0  0.00000000000E+00  0.00000000000E+00  0.15480113199E+04  0.15480113200E+04  0.25500000920E-02 0.  1.
       -2   -1    0    0    0  501  0.00000000000E+00  0.00000000000E+00 -0.17585811446E+04  0.17585811446E+04  0.25500000920E-02 0. -1.
    10030    2    1    2    0    0  0.00000000000E+00  0.00000000000E+00 -0.21056982464E+03  0.33065924645E+04  0.32998809184E+04 0.  0.
        5    1    3    3  502    0 -0.77225807885E+03  0.12152249558E+04  0.70203805158E+03  0.16018844370E+04  0.46999998093E+01 0.  1.
       -5    1    3    3    0  502  0.77225807885E+03 -0.12152249558E+04 -0.91260787622E+03  0.17047080276E+04  0.46999998093E+01 0. -1.
</event>
<event>
 5   0  0.2291682E-08  0.3292758E+04  0.7818609E-02  0.8164741E-01
        1   -1    0    0  501    0  0.00000000000E+00  0.00000000000E+00  0.25473358345E+04  0.25473358345E+04  0.50400001928E-02 0. -1.
       -1   -1    0    0    0  501  0.00000000000E+00  0.00000000000E+00 -0.10640778802E+04  0.10640778802E+04  0.50400001928E-02 0.  1.
    10030    2    1    2    0    0  0.00000000000E+00  0.00000000000E+00  0.14832579543E+04  0.36114137147E+04  0.32927579413E+04 0.  0.
        2    1    3    3  502    0 -0.11845766337E+04 -0.10657335864E+04  0.11959027406E+04  0.19922834244E+04  0.25500000920E-02 0.  1.
       -2    1    3    3    0  502  0.11845766337E+04  0.10657335864E+04  0.28735521371E+03  0.16191302903E+04  0.25500000920E-02 0. -1.
</event>
<event>
 5   0  0.2244093E-08  0.3300217E+04  0.7818609E-02  0.8162840E-01
       -1   -1    0    0    0  501  0.00000000000E+00  0.00000000000E+00  0.98597690434E+03  0.98597690436E+03  0.50400001928E-02 0. -1.
        1   -1    0    0  501    0  0.00000000000E+00  0.00000000000E+00 -0.27615844119E+04  0.27615844119E+04  0.50400001928E-02 0.  1.
    10030    2    1    2    0    0  0.00000000000E+00  0.00000000000E+00 -0.17756075075E+04  0.37475613162E+04  0.33002172350E+04 0.  0.
        1    1    3    3  502    0 -0.37940686295E+02 -0.11095607095E+04 -0.22740557794E+04  0.25305916603E+04  0.50400001928E-02 0.  1.
       -1    1    3    3    0  502  0.37940686295E+02  0.11095607095E+04  0.49844827182E+03  0.12169696559E+04  0.50400001928E-02 0. -1.
</event>
<event>
 5   0  0.6765252E-08  0.3300045E+04  0.7818609E-02  0.8162884E-01
       -2   -1    0    0    0  501  0.00000000000E+00  0.00000000000E+00  0.24511895217E+04  0.24511895217E+04  0.25500000920E-02 0.  1.
        2   -1    0    0  501    0  0.00000000000E+00  0.00000000000E+00 -0.11107158568E+04  0.11107158568E+04  0.25500000920E-02 0. -1.
    10030    2    1    2    0    0  0.00000000000E+00  0.00000000000E+00  0.13404736648E+04  0.35619053785E+04  0.33000454966E+04 0.  0.
        2    1    3    3  502    0  0.49037270954E+03  0.13498585432E+04 -0.20662597837E+03  0.14509575376E+04  0.25500000920E-02 0. -1.
       -2    1    3    3    0  502 -0.49037270954E+03 -0.13498585432E+04  0.15470996432E+04  0.21109478409E+04  0.25500000920E-02 0.  1.
</event>
<event>
 5   0  0.2279938E-08  0.3299914E+04  0.7818609E-02  0.8162917E-01
        1   -1    0    0  501    0  0.00000000000E+00  0.00000000000E+00  0.23942925854E+04  0.23942925854E+04  0.50400001928E-02 0. -1.
       -1   -1    0    0    0  501  0.00000000000E+00  0.00000000000E+00 -0.11370198478E+04  0.11370198478E+04  0.50400001928E-02 0.  1.
    10030    2    1    2    0    0  0.00000000000E+00  0.00000000000E+00  0.12572727376E+04  0.35313124333E+04  0.32999140541E+04 0.  0.
        3    1    3    3  502    0  0.92463329700E+03  0.56592886733E+02  0.20897391888E+04  0.22858607517E+04  0.10100000352E+00 0. -1.
       -3    1    3    3    0  502 -0.92463329700E+03 -0.56592886733E+02 -0.83246645115E+03  0.12454516816E+04  0.10100000352E+00 0.  1.
</event>
<event>
 5   0  0.2279938E-08  0.3296305E+04  0.7818609E-02  0.8163836E-01
        1   -1    0    0  501    0  0.00000000000E+00  0.00000000000E+00  0.26655063924E+04  0.26655063924E+04  0.50400001928E-02 0. -1.
       -1   -1    0    0    0  501  0.00000000000E+00  0.00000000000E+00 -0.10190961250E+04  0.10190961250E+04  0.50400001928E-02 0.  1.
    10030    2    1    2    0    0  0.00000000000E+00  0.00000000000E+00  0.16464102674E+04  0.36846025173E+04  0.32963053473E+04 0.  0.
        3    1    3    3  502    0 -0.81769602839E+03  0.27202652148E+03 -0.74720396124E+03  0.11405871265E+04  0.10100000352E+00 0.  1.
       -3    1    3    3    0  502  0.81769602839E+03 -0.27202652148E+03  0.23936142286E+04  0.25440153908E+04  0.10100000352E+00 0. -1.
</event>
<event>
 5   0  0.6765252E-08  0.3299536E+04  0.7818609E-02  0.8163014E-01
        2   -1    0    0  501    0  0.00000000000E+00  0.00000000000E+00  0.22207881217E+04  0.22207881217E+04  0.25500000920E-02 0. -1.
       -2   -1    0    0    0  501  0.00000000000E+00  0.00000000000E+00 -0.12255710745E+04  0.12255710745E+04  0.25500000920E-02 0.  1.
    10030    2    1    2    0    0  0.00000000000E+00  0.00000000000E+00  0.99521704713E+03  0.34463591962E+04  0.32995355337E+04 0.  0.
        2    1    3    3  502    0 -0.70566263676E+02 -0.48017426447E+01  0.22192037571E+04  0.22203305992E+04  0.25500000920E-02 0. -1.
       -2    1    3    3    0  502  0.70566263676E+02  0.48017426447E+01 -0.12239867100E+04  0.12260285970E+04  0.25500000920E-02 0.  1.
</event>
<event>
 5   0  0.2383270E-08  0.3301336E+04  0.7818609E-02  0.8162555E-01
       -1   -1    0    0    0  501  0.00000000000E+00  0.00000000000E+00  0.12994898988E+04  0.12994898988E+04  0.50400001928E-02 0.  1.
        1   -1    0    0  501    0  0.00000000000E+00  0.00000000000E+00 -0.20967497159E+04  0.20967497159E+04  0.50400001928E-02 0. -1.
    10030    2    1    2    0    0  0.00000000000E+00  0.00000000000E+00 -0.79725981712E+03  0.33962396147E+04  0.33013361393E+04 0.  0.
        5    1    3    3  502    0  0.98325275630E+03 -0.39232463726E+03  0.90426033727E+03  0.13922691734E+04  0.46999998093E+01 0.  1.
       -5    1    3    3    0  502 -0.98325275630E+03  0.39232463726E+03 -0.17015201544E+04  0.20039704413E+04  0.46999998093E+01 0. -1.
</event>
<event>
 5   0  0.7084130E-08  0.3303477E+04  0.7818609E-02  0.8162011E-01
       -2   -1    0    0    0  501  0.00000000000E+00  0.00000000000E+00  0.92893394715E+03  0.92893394715E+03  0.25500000920E-02 0. -1.
        2   -1    0    0  501    0  0.00000000000E+00  0.00000000000E+00 -0.29369579923E+04  0.29369579923E+04  0.25500000920E-02 0.  1.
    10030    2    1    2    0    0  0.00000000000E+00  0.00000000000E+00 -0.20080240452E+04  0.38658919395E+04  0.33034769443E+04 0.  0.
        3    1    3    3  502    0 -0.92862271094E+03  0.32772362105E+03 -0.25558602819E+04  0.27390079776E+04  0.10100000352E+00 0.  1.
       -3    1    3    3    0  502  0.92862271094E+03 -0.32772362105E+03  0.54783623665E+03  0.11268839618E+04  0.10100000352E+00 0. -1.
</event>
<event>
 5   0  0.7084130E-08  0.3300100E+04  0.7818609E-02  0.8162870E-01
        2   -1    0    0  501    0  0.00000000000E+00  0.00000000000E+00  0.26235704178E+04  0.26235704178E+04  0.25500000920E-02 0.  1.
       -2   -1    0    0    0  501  0.00000000000E+00  0.00000000000E+00 -0.10377708085E+04  0.10377708085E+04  0.25500000920E-02 0. -1.
    10030    2    1    2    0    0  0.00000000000E+00  0.00000000000E+00  0.15857996094E+04  0.36613412263E+04  0.33000998734E+04 0.  0.
        3    1    3    3  502    0 -0.14760331381E+04 -0.57096141299E+03  0.13109065509E+04  0.20550296240E+04  0.10100000352E+00 0.  1.
       -3    1    3    3    0  502  0.14760331381E+04  0.57096141299E+03  0.27489305841E+03  0.16063116023E+04  0.10100000352E+00 0. -1.
</event>
<event>
 5   0  0.6765252E-08  0.3283769E+04  0.7818609E-02  0.8167038E-01
        2   -1    0    0  501    0  0.00000000000E+00  0.00000000000E+00  0.16185478344E+04  0.16185478344E+04  0.25500000920E-02 0.  1.
       -2   -1    0    0    0  501  0.00000000000E+00  0.00000000000E+00 -0.16655576529E+04  0.16655576529E+04  0.25500000920E-02 0. -1.
    10030    2    1    2    0    0  0.00000000000E+00  0.00000000000E+00 -0.47009818487E+02  0.32841054872E+04  0.32837690126E+04 0.  0.
        2    1    3    3  502    0  0.26129276830E+03 -0.13677764541E+04 -0.89347816889E+03  0.16545058409E+04  0.25500000920E-02 0. -1.
       -2    1    3    3    0  502 -0.26129276830E+03  0.13677764541E+04  0.84646835040E+03  0.16295996464E+04  0.25500000920E-02 0.  1.
</event>
<event>
 5   0  0.2309822E-08  0.3301918E+04  0.7818609E-02  0.8162408E-01
       -1   -1    0    0    0  501  0.00000000000E+00  0.00000000000E+00  0.15853548096E+04  0.15853548096E+04  0.50400001928E-02 0.  1.
        1   -1    0    0  501    0  0.00000000000E+00  0.00000000000E+00 -0.17192780067E+04  0.17192780067E+04  0.50400001928E-02 0. -1.
    10030    2    1    2    0    0  0.00000000000E+00  0.00000000000E+00 -0.13392319709E+03  0.33046328163E+04  0.33019180226E+04 0.  0.
        4    1    3    3  502    0 -0.11241926891E+04 -0.45818742831E+03  0.10528502569E+04  0.16069350323E+04  0.12699999809E+01 0.  1.
       -4    1    3    3    0  502  0.11241926891E+04  0.45818742831E+03 -0.11867734540E+04  0.16976977840E+04  0.12699999809E+01 0. -1.
</event>
<event>
 5   0  0.6603516E-08  0.3300214E+04  0.7818609E-02  0.8162841E-01
        2   -1    0    0  501    0  0.00000000000E+00  0.00000000000E+00  0.18657419797E+04  0.18657419797E+04  0.25500000920E-02 0. -1.
       -2   -1    0    0    0  501  0.00000000000E+00  0.00000000000E+00 -0.14593942999E+04  0.14593942999E+04  0.25500000920E-02 0.  1.
    10030    2    1    2    0    0  0.00000000000E+00  0.00000000000E+00  0.40634767979E+03  0.33251362795E+04  0.33002140598E+04 0.  0.
        1    1    3    3  502    0 -0.10093947720E+03  0.15667910266E+04  0.71477830413E+03  0.17250886711E+04  0.50400001928E-02 0.  1.
       -1    1    3    3    0  502  0.10093947720E+03 -0.15667910266E+04 -0.30843062435E+03  0.16000476084E+04  0.50400001928E-02 0. -1.
</event>
<event>
 5   0  0.6765252E-08  0.3300858E+04  0.7818609E-02  0.8162677E-01
       -2   -1    0    0    0  501  0.00000000000E+00  0.00000000000E+00  0.17974355183E+04  0.17974355183E+04  0.25500000920E-02 0.  1.
        2   -1    0    0  501    0  0.00000000000E+00  0.00000000000E+00 -0.15154454329E+04  0.15154454329E+04  0.25500000920E-02 0. -1.
    10030    2    1    2    0    0  0.00000000000E+00  0.00000000000E+00  0.28199008542E+03  0.33128809512E+04  0.33008577352E+04 0.  0.
        2    1    3    3  502    0  0.16189054632E+04  0.32068354998E+03  0.15596947983E+03  0.16577150891E+04  0.25500000920E-02 0.  1.
       -2    1    3    3    0  502 -0.16189054632E+04 -0.32068354998E+03  0.12602060559E+03  0.16551658621E+04  0.25500000920E-02 0. -1.
</event>
<event>
 5   0  0.6603516E-08  0.3300880E+04  0.7818609E-02  0.8162671E-01
        2   -1    0    0  501    0  0.00000000000E+00  0.00000000000E+00  0.26659940169E+04  0.26659940169E+04  0.25500000920E-02 0. -1.
       -2   -1    0    0    0  501  0.00000000000E+00  0.00000000000E+00 -0.10217400333E+04  0.10217400333E+04  0.25500000920E-02 0.  1.
    10030    2    1    2    0    0  0.00000000000E+00  0.00000000000E+00  0.16442539836E+04  0.36877340503E+04  0.33008803769E+04 0.  0.
        1    1    3    3  502    0  0.62409259560E+03 -0.43518351494E+03  0.24583828169E+04  0.25734261858E+04  0.50400001928E-02 0. -1.
       -1    1    3    3    0  502 -0.62409259560E+03  0.43518351494E+03 -0.81412883328E+03  0.11143078644E+04  0.50400001928E-02 0.  1.
</event>
<event>
 5   0  0.7084130E-08  0.3298735E+04  0.7818609E-02  0.8163217E-01
       -2   -1    0    0    0  501  0.00000000000E+00  0.00000000000E+00  0.16415587758E+04  0.16415587758E+04  0.25500000920E-02 0.  1.
        2   -1    0    0  501    0  0.00000000000E+00  0.00000000000E+00 -0.16572134057E+04  0.16572134057E+04  0.25500000920E-02 0. -1.
    10030    2    1    2    0    0  0.00000000000E+00  0.00000000000E+00 -0.15654629961E+02  0.32987721815E+04  0.32987350360E+04 0.  0.
        3    1    3    3  502    0 -0.25309034681E+03  0.13481244035E+04 -0.92376288137E+03  0.16537327481E+04  0.10100000352E+00 0. -1.
       -3    1    3    3    0  502  0.25309034681E+03 -0.13481244035E+04  0.90810825141E+03  0.16450394334E+04  0.10100000352E+00 0.  1.
</event>
<event>
 5   0  0.2291682E-08  0.3298911E+04  0.7818609E-02  0.8163173E-01
        1   -1    0    0  501    0  0.00000000000E+00  0.00000000000E+00  0.14190797271E+04  0.14190797271E+04  0.50400001928E-02 0. -1.
       -1   -1    0    0    0  501  0.00000000000E+00  0.00000000000E+00 -0.19172304283E+04  0.19172304283E+04  0.50400001928E-02 0.  1.
    10030    2    1    2    0    0  0.00000000000E+00  0.00000000000E+00 -0.49815070115E+03  0.33363101554E+04  0.32989106281E+04 0.  0.
        2    1    3    3  502    0 -0.16060883358E+04  0.36930564780E+03 -0.17903394090E+03  0.16576970640E+04  0.25500000920E-02 0. -1.
       -2    1    3    3    0  502  0.16060883358E+04 -0.36930564780E+03 -0.31911676025E+03  0.16786130914E+04  0.25500000920E-02 0.  1.
</event>
<event>
 5   0  0.6603516E-08  0.3297757E+04  0.7818609E-02  0.8163466E-01
        2   -1    0    0  501    0  0.00000000000E+00  0.00000000000E+00  0.19682236005E+04  0.19682236005E+04  0.25500000920E-02 0.  1.
       -2   -1    0    0    0  501  0.00000000000E+00  0.00000000000E+00 -0.13813472851E+04  0.13813472851E+04  0.25500000920E-02 0. -1.
    10030    2    1    2    0    0  0.00000000000E+00  0.00000000000E+00  0.58687631544E+03  0.33495708856E+04  0.32977570117E+04 0.  0.
        1    1    3    3  502    0  0.14961806182E+04 -0.69230021562E+03  0.32497917700E+03  0.16803117260E+04  0.50400001928E-02 0.  1.
       -1    1    3    3    0  502 -0.14961806182E+04  0.69230021562E+03  0.26189713844E+03  0.16692591597E+04  0.50400001928E-02 0. -1.
</event>
<event>
 5   0  0.6706080E-08  0.3295465E+04  0.7818609E-02  0.8164050E-01
        2   -1    0    0  501    0  0.00000000000E+00  0.00000000000E+00  0.14779139964E+04  0.14779139964E+04  0.25500000920E-02 0. -1.
       -2   -1    0    0    0  501  0.00000000000E+00  0.00000000000E+00 -0.18370637005E+04  0.18370637005E+04  0.25500000920E-02 0.  1.
    10030    2    1    2    0    0  0.00000000000E+00  0.00000000000E+00 -0.35914970408E+03  0.33149776969E+04  0.32954648566E+04 0.  0.
        4    1    3    3  502    0 -0.74911844536E+03  0.89725827294E+02  0.12939507083E+04  0.14978448576E+04  0.12699999809E+01 0. -1.
       -4    1    3    3    0  502  0.74911844536E+03 -0.89725827294E+02 -0.16531004123E+04  0.18171328392E+04  0.12699999809E+01 0.  1.
</event>
<event>
 5   0  0.2244093E-08  0.3297317E+04  0.7818609E-02  0.8163578E-01
       -1   -1    0    0    0  501  0.00000000000E+00  0.00000000000E+00  0.14271156919E+04  0.14271156919E+04  0.50400001928E-02 0.  1.
        1   -1    0    0  501    0  0.00000000000E+00  0.00000000000E+00 -0.19045928902E+04  0.19045928903E+04  0.50400001928E-02 0. -1.
    10030    2    1    2    0    0  0.00000000000E+00  0.00000000000E+00 -0.47747719839E+03  0.33317085821E+04  0.32973167275E+04 0.  0.
        1    1    3    3  502    0  0.52835886735E+03  0.10003079492E+04  0.97305980026E+03  0.14921878102E+04  0.50400001928E-02 0.  1.
       -1    1    3    3    0  502 -0.52835886735E+03 -0.10003079492E+04 -0.14505369987E+04  0.18395207719E+04  0.50400001928E-02 0. -1.
</event>
<event>
 5   0  0.2291682E-08  0.3294660E+04  0.7818609E-02  0.8164255E-01
        1   -1    0    0  501    0  0.00000000000E+00  0.00000000000E+00  0.30854998338E+04  0.30854998338E+04  0.50400001928E-02 0. -1.
       -1   -1    0    0    0  501  0.00000000000E+00  0.00000000000E+00 -0.87949995065E+03  0.87949995067E+03  0.50400001928E-02 0.  1.
    10030    2    1    2    0    0  0.00000000000E+00  0.00000000000E+00  0.22059998832E+04  0.39649997845E+04  0.32946604994E+04 0.  0.
        2    1    3    3  502    0  0.77577392784E+03  0.83355062529E+03 -0.32960816089E+03  0.11854422684E+04  0.25500000920E-02 0.  1.
       -2    1    3    3    0  502 -0.77577392784E+03 -0.83355062529E+03  0.25356080441E+04  0.27795575161E+04  0.25500000920E-02 0. -1.
</event>
<event>
 5   0  0.2383270E-08  0.3294119E+04  0.7818609E-02  0.8164393E-01
       -1   -1    0    0    0  501  0.00000000000E+00  0.00000000000E+00  0.19355311978E+04  0.19355311978E+04  0.50400001928E-02 0. -1.
        1   -1    0    0  501    0  0.00000000000E+00  0.00000000000E+00 -0.14015814952E+04  0.14015814952E+04  0.50400001928E-02 0.  1.
    10030    2    1    2    0    0  0.00000000000E+00  0.00000000000E+00  0.53394970259E+03  0.33371126931E+04  0.32941188262E+04 0.  0.
        5    1    3    3  502    0  0.98144178811E+03 -0.12026295732E+04 -0.29088168507E+03  0.15792973496E+04  0.46999998093E+01 0.  1.
       -5    1    3    3    0  502 -0.98144178811E+03  0.12026295732E+04  0.82483138767E+03  0.17578153435E+04  0.46999998093E+01 0. -1.
</event>
<event>
 5   0  0.2200750E-08  0.3300018E+04  0.7818609E-02  0.8162891E-01
        3   -1    0    0  501    0  0.00000000000E+00  0.00000000000E+00  0.18840787548E+04  0.18840787575E+04  0.10100000352E+00 0.  1.
       -3   -1    0    0    0  501  0.00000000000E+00  0.00000000000E+00 -0.14450193696E+04  0.14450193731E+04  0.10100000352E+00 0. -1.
    10030    2    1    2    0    0  0.00000000000E+00  0.00000000000E+00  0.43905938518E+03  0.33290981306E+04  0.33000183665E+04 0.  0.
        5    1    3    3  502    0 -0.27494955195E+02 -0.15235197986E+04 -0.41900899034E+03  0.15803351459E+04  0.46999998093E+01 0. -1.
       -5    1    3    3    0  502  0.27494955195E+02  0.15235197986E+04  0.85806837552E+03  0.17487629847E+04  0.46999998093E+01 0.  1.
</event>
<event>
 5   0  0.2279938E-08  0.3297495E+04  0.7818609E-02  0.8163533E-01
        1   -1    0    0  501    0  0.00000000000E+00  0.00000000000E+00  0.18658034428E+04  0.18658034428E+04  0.50400001928E-02 0. -1.
       -1   -1    0    0    0  501  0.00000000000E+00  0.00000000000E+00 -0.14569426268E+04  0.14569426268E+04  0.50400001928E-02 0.  1.
    10030    2    1    2    0    0  0.00000000000E+00  0.00000000000E+00  0.40886081596E+03  0.33227460696E+04  0.32974951518E+04 0.  0.
        3    1    3    3  502    0 -0.30288770444E+03 -0.14965327019E+04 -0.42244072567E+03  0.15842371244E+04  0.10100000352E+00 0. -1.
       -3    1    3    3    0  502  0.30288770444E+03  0.14965327019E+04  0.83130154163E+03  0.17385089452E+04  0.10100000352E+00 0.  1.
</event>
<event>
 5   0  0.6706080E-08  0.3302552E+04  0.7818609E-02  0.8162246E-01
       -2   -1    0    0    0  501  0.00000000000E+00  0.00000000000E+00  0.19489609665E+04  0.19489609665E+04  0.25500000920E-02 0. -1.
        2   -1    0    0  501    0  0.00000000000E+00  0.00000000000E+00 -0.13990596723E+04  0.13990596723E+04  0.25500000920E-02 0.  1.
    10030    2    1    2    0    0  0.00000000000E+00  0.00000000000E+00  0.54990129423E+03  0.33480206389E+04  0.33025521593E+04 0.  0.
        4    1    3    3  502    0  0.15373236682E+03  0.16040464925E+04  0.64062760662E+03  0.17340715481E+04  0.12699999809E+01 0.  1.
       -4    1    3    3    0  502 -0.15373236682E+03 -0.16040464925E+04 -0.90726312388E+02  0.16139490907E+04  0.12699999809E+01 0. -1.
</event>
<event>
 5   0  0.2244093E-08  0.3298604E+04  0.7818609E-02  0.8163251E-01
        1   -1    0    0  501    0  0.00000000000E+00  0.00000000000E+00  0.19078493267E+04  0.19078493267E+04  0.50400001928E-02 0. -1.
       -1   -1    0    0    0  501  0.00000000000E+00  0.00000000000E+00 -0.14257925197E+04  0.14257925198E+04  0.50400001928E-02 0.  1.
    10030    2    1    2    0    0  0.00000000000E+00  0.00000000000E+00  0.48205680699E+03  0.33336418465E+04  0.32986041283E+04 0.  0.
        1    1    3    3  502    0  0.32452097106E+03  0.15976566428E+04  0.49343453635E+03  0.17033197735E+04  0.50400001928E-02 0.  1.
       -1    1    3    3    0  502 -0.32452097106E+03 -0.15976566428E+04 -0.11377729356E+02  0.16303220730E+04  0.50400001928E-02 0. -1.
</event>
<event>
 5   0  0.6821287E-08  0.3300480E+04  0.7818609E-02  0.8162773E-01
       -2   -1    0    0    0  501  0.00000000000E+00  0.00000000000E+00  0.20329919298E+04  0.20329919298E+04  0.25500000920E-02 0.  1.
        2   -1    0    0  501    0  0.00000000000E+00  0.00000000000E+00 -0.13395491045E+04  0.13395491045E+04  0.25500000920E-02 0. -1.
    10030    2    1    2    0    0  0.00000000000E+00  0.00000000000E+00  0.69344282535E+03  0.33725410343E+04  0.33004802796E+04 0.  0.
        5    1    3    3  502    0  0.12046841638E+04  0.11177947295E+04  0.19330532513E+03  0.16547259684E+04  0.46999998093E+01 0. -1.
       -5    1    3    3    0  502 -0.12046841638E+04 -0.11177947295E+04  0.50013750022E+03  0.17178150660E+04  0.46999998093E+01 0.  1.
</event>
<event>
 5   0  0.6821287E-08  0.3300887E+04  0.7818609E-02  0.8162670E-01
       -2   -1    0    0    0  501  0.00000000000E+00  0.00000000000E+00  0.14169413269E+04  0.14169413269E+04  0.25500000920E-02 0.  1.
        2   -1    0    0  501    0  0.00000000000E+00  0.00000000000E+00 -0.19224248399E+04  0.19224248399E+04  0.25500000920E-02 0. -1.
    10030    2    1    2    0    0  0.00000000000E+00  0.00000000000E+00 -0.50548351304E+03  0.33393661668E+04  0.33008866709E+04 0.  0.
        5    1    3    3  502    0  0.16129272169E+04 -0.14469129524E+03  0.69517289631E+02  0.16209023788E+04  0.46999998093E+01 0.  1.
       -5    1    3    3    0  502 -0.16129272169E+04  0.14469129524E+03 -0.57500080267E+03  0.17184637881E+04  0.46999998093E+01 0. -1.
</event>
<event>
 5   0  0.6821287E-08  0.3300575E+04  0.7818609E-02  0.8162749E-01
       -2   -1    0    0    0  501  0.00000000000E+00  0.00000000000E+00  0.15388908163E+04  0.15388908163E+04  0.25500000920E-02 0.  1.
        2   -1    0    0  501    0  0.00000000000E+00  0.00000000000E+00 -0.17697481994E+04  0.17697481994E+04  0.25500000920E-02 0. -1.
    10030    2    1    2    0    0  0.00000000000E+00  0.00000000000E+00 -0.23085738310E+03  0.33086390157E+04  0.33005752536E+04 0.  0.
        5    1    3    3  502    0  0.13023720898E+04  0.73879916772E+03  0.58011797404E+03  0.16057883498E+04  0.46999998093E+01 0.  1.
       -5    1    3    3    0  502 -0.13023720898E+04 -0.73879916772E+03 -0.81097535714E+03  0.17028506659E+04  0.46999998093E+01 0. -1.
</event>
<event>
 5   0  0.6765252E-08  0.3298866E+04  0.7818609E-02  0.8163184E-01
       -2   -1    0    0    0  501  0.00000000000E+00  0.00000000000E+00  0.12291771254E+04  0.12291771254E+04  0.25500000920E-02 0.  1.
        2   -1    0    0  501    0  0.00000000000E+00  0.00000000000E+00 -0.22133743291E+04  0.22133743291E+04  0.25500000920E-02 0. -1.
    10030    2    1    2    0    0  0.00000000000E+00  0.00000000000E+00 -0.98419720375E+03  0.34425514545E+04  0.32988659234E+04 0.  0.
        2    1    3    3  502    0  0.13778575117E+04  0.90490744170E+03 -0.55186708094E+03  0.17383630448E+04  0.25500000920E-02 0. -1.
       -2    1    3    3    0  502 -0.13778575117E+04 -0.90490744170E+03 -0.43233012281E+03  0.17041884097E+04  0.25500000920E-02 0.  1.
</event>
<event>
 5   0  0.2309822E-08  0.3300969E+04  0.7818609E-02  0.8162649E-01
        1   -1    0    0  501    0  0.00000000000E+00  0.00000000000E+00  0.22447344114E+04  0.22447344114E+04  0.50400001928E-02 0. -1.
       -1   -1    0    0    0  501  0.00000000000E+00  0.00000000000E+00 -0.12135506898E+04  0.12135506898E+04  0.50400001928E-02 0.  1.
    10030    2    1    2    0    0  0.00000000000E+00  0.00000000000E+00  0.10311837216E+04  0.34582851012E+04  0.33009689446E+04 0.  0.
        4    1    3    3  502    0  0.68868379829E+02  0.24000164959E+02  0.22430449802E+04  0.22442306606E+04  0.12699999809E+01 0. -1.
       -4    1    3    3    0  502 -0.68868379829E+02 -0.24000164959E+02 -0.12118612586E+04  0.12140544406E+04  0.12699999809E+01 0.  1.
</event>
<event>
 5   0  0.6603516E-08  0.3299904E+04  0.7818609E-02  0.8162920E-01
       -2   -1    0    0    0  501  0.00000000000E+00  0.00000000000E+00  0.14995620014E+04  0.14995620014E+04  0.25500000920E-02 0. -1.
        2   -1    0    0  501    0  0.00000000000E+00  0.00000000000E+00 -0.18154247577E+04  0.18154247577E+04  0.25500000920E-02 0.  1.
    10030    2    1    2    0    0  0.00000000000E+00  0.00000000000E+00 -0.31586275625E+03  0.33149867591E+04  0.32999042308E+04 0.  0.
        1    1    3    3  502    0 -0.25871807555E+03  0.58606334232E+03 -0.16853864029E+04  0.18030342789E+04  0.50400001928E-02 0.  1.
       -1    1    3    3    0  502  0.25871807555E+03 -0.58606334232E+03  0.13695236466E+04  0.15119524802E+04  0.50400001928E-02 0. -1.
</event>
<event>
 5   0  0.6821287E-08  0.3300133E+04  0.7818609E-02  0.8162862E-01
        2   -1    0    0  501    0  0.00000000000E+00  0.00000000000E+00  0.12127677356E+04  0.12127677356E+04  0.25500000920E-02 0. -1.
       -2   -1    0    0    0  501  0.00000000000E+00  0.00000000000E+00 -0.22450457703E+04  0.22450457703E+04  0.25500000920E-02 0.  1.
    10030    2    1    2    0    0  0.00000000000E+00  0.00000000000E+00 -0.10322780347E+04  0.34578135060E+04  0.33001327702E+04 0.  0.
        5    1    3    3  502    0  0.13930577489E+04 -0.56861765421E+03  0.19354238737E+03  0.15170420806E+04  0.46999998093E+01 0.  1.
       -5    1    3    3    0  502 -0.13930577489E+04  0.56861765421E+03 -0.12258204221E+04  0.19407714254E+04  0.46999998093E+01 0. -1.
</event>
<event>
 5   0  0.6706080E-08  0.3300802E+04  0.7818609E-02  0.8162691E-01
        2   -1    0    0  501    0  0.00000000000E+00  0.00000000000E+00  0.24437434573E+04  0.24437434573E+04  0.25500000920E-02 0.  1.
       -2   -1    0    0    0  501  0.00000000000E+00  0.00000000000E+00 -0.11146109184E+04  0.11146109184E+04  0.25500000920E-02 0. -1.
    10030    2    1    2    0    0  0.00000000000E+00  0.00000000000E+00  0.13291325389E+04  0.35583543757E+04  0.33008018052E+04 0.  0.
        4    1    3    3  502    0 -0.40353296167E+03 -0.14622900927E+04 -0.36309298111E+02  0.15173829920E+04  0.12699999809E+01 0. -1.
       -4    1    3    3    0  502  0.40353296167E+03  0.14622900927E+04  0.13654418370E+04  0.20409713838E+04  0.12699999809E+01 0.  1.
</event>
<event>
 5   0  0.7084130E-08  0.3295163E+04  0.7818609E-02  0.8164127E-01
       -2   -1    0    0    0  501  0.00000000000E+00  0.00000000000E+00  0.16443149874E+04  0.16443149874E+04  0.25500000920E-02 0.  1.
        2   -1    0    0  501    0  0.00000000000E+00  0.00000000000E+00 -0.16508540492E+04  0.16508540492E+04  0.25500000920E-02 0. -1.
    10030    2    1    2    0    0  0.00000000000E+00  0.00000000000E+00 -0.65390618653E+01  0.32951690366E+04  0.32951625484E+04 0.  0.
        3    1    3    3  502    0  0.12503757953E+03 -0.65277768343E+03 -0.15108437065E+04  0.16505762073E+04  0.10100000352E+00 0. -1.
       -3    1    3    3    0  502 -0.12503757953E+03  0.65277768343E+03  0.15043046446E+04  0.16445928293E+04  0.10100000352E+00 0.  1.
</event>
<event>
 5   0  0.6821287E-08  0.3300383E+04  0.7818609E-02  0.8162798E-01
       -2   -1    0    0    0  501  0.00000000000E+00  0.00000000000E+00  0.15822453653E+04  0.15822453653E+04  0.25500000920E-02 0. -1.
        2   -1    0    0  501    0  0.00000000000E+00  0.00000000000E+00 -0.17210558988E+04  0.17210558988E+04  0.25500000920E-02 0.  1.
    10030    2    1    2    0    0  0.00000000000E+00  0.00000000000E+00 -0.13881053351E+03  0.33033012641E+04  0.33003834440E+04 0.  0.
        5    1    3    3  502    0  0.14624534057E+04 -0.16973762908E+02  0.69550369366E+03  0.16195078112E+04  0.46999998093E+01 0. -1.
       -5    1    3    3    0  502 -0.14624534057E+04  0.16973762908E+02 -0.83431422717E+03  0.16837934529E+04  0.46999998093E+01 0.  1.
</event>
<event>
 5   0  0.2309822E-08  0.3299499E+04  0.7818609E-02  0.8163023E-01
       -1   -1    0    0    0  501  0.00000000000E+00  0.00000000000E+00  0.99862227642E+03  0.99862227643E+03  0.50400001928E-02 0.  1.
        1   -1    0    0  501    0  0.00000000000E+00  0.00000000000E+00 -0.27254291148E+04  0.27254291148E+04  0.50400001928E-02 0. -1.
    10030    2    1    2    0    0  0.00000000000E+00  0.00000000000E+00 -0.17268068384E+04  0.37240513912E+04  0.32994994935E+04 0.  0.
        4    1    3    3  502    0  0.47457549423E+03 -0.64767442401E+03  0.76320329342E+03  0.11077837962E+04  0.12699999809E+01 0.  1.
       -4    1    3    3    0  502 -0.47457549423E+03  0.64767442401E+03 -0.24900101318E+04  0.26162675950E+04  0.12699999809E+01 0. -1.
</event>
<event>
 5   0  0.2279938E-08  0.3300254E+04  0.7818609E-02  0.8162831E-01
        1   -1    0    0  501    0  0.00000000000E+00  0.00000000000E+00  0.12616703704E+04  0.12616703704E+04  0.50400001928E-02 0.  1.
       -1   -1    0    0    0  501  0.00000000000E+00  0.00000000000E+00 -0.21581856292E+04  0.21581856292E+04  0.50400001928E-02 0. -1.
    10030    2    1    2    0    0  0.00000000000E+00  0.00000000000E+00 -0.89651525876E+03  0.34198559996E+04  0.33002538461E+04 0.  0.
        3    1    3    3  502    0  0.12531637973E+04  0.22610573191E+03 -0.15357549327E+04  0.19950154206E+04  0.10100000352E+00 0. -1.
       -3    1    3    3    0  502 -0.12531637973E+04 -0.22610573191E+03  0.63923967392E+03  0.14248405790E+04  0.10100000352E+00 0.  1.
</event>
<event>
 5   0  0.2383270E-08  0.3299552E+04  0.7818609E-02  0.8163009E-01
       -1   -1    0    0    0  501  0.00000000000E+00  0.00000000000E+00  0.15188891922E+04  0.15188891922E+04  0.50400001928E-02 0.  1.
        1   -1    0    0  501    0  0.00000000000E+00  0.00000000000E+00 -0.17919417472E+04  0.17919417472E+04  0.50400001928E-02 0. -1.
    10030    2    1    2    0    0  0.00000000000E+00  0.00000000000E+00 -0.27305255505E+03  0.33108309394E+04  0.32995520623E+04 0.  0.
        5    1    3    3  502    0 -0.14424777452E+04  0.76336830754E+03  0.10568161851E+03  0.16354399753E+04  0.46999998093E+01 0.  1.
       -5    1    3    3    0  502  0.14424777452E+04 -0.76336830754E+03 -0.37873417356E+03  0.16753909641E+04  0.46999998093E+01 0. -1.
</event>
<event>
 5   0  0.6603516E-08  0.3300462E+04  0.7818609E-02  0.8162778E-01
       -2   -1    0    0    0  501  0.00000000000E+00  0.00000000000E+00  0.15484221668E+04  0.15484221668E+04  0.25500000920E-02 0. -1.
        2   -1    0    0  501    0  0.00000000000E+00  0.00000000000E+00 -0.17587342212E+04  0.17587342212E+04  0.25500000920E-02 0.  1.
    10030    2    1    2    0    0  0.00000000000E+00  0.00000000000E+00 -0.21031205441E+03  0.33071563881E+04  0.33004624244E+04 0.  0.
        1    1    3    3  502    0 -0.23196456693E+03 -0.15494399150E+04 -0.62456190213E+03  0.16866087810E+04  0.50400001928E-02 0. -1.
       -1    1    3    3    0  502  0.23196456693E+03  0.15494399150E+04  0.41424984772E+03  0.16205476071E+04  0.50400001928E-02 0.  1.
</event>
<event>
 5   0  0.6821287E-08  0.3301917E+04  0.7818609E-02  0.8162408E-01
       -2   -1    0    0    0  501  0.00000000000E+00  0.00000000000E+00  0.14702800125E+04  0.14702800125E+04  0.25500000920E-02 0.  1.
        2   -1    0    0  501    0  0.00000000000E+00  0.00000000000E+00 -0.18538400364E+04  0.18538400364E+04  0.25500000920E-02 0. -1.
    10030    2    1    2    0    0  0.00000000000E+00  0.00000000000E+00 -0.38356002384E+03  0.33241200489E+04  0.33019169898E+04 0.  0.
        5    1    3    3  502    0  0.36752655786E+03 -0.21357070952E+03 -0.17977983016E+04  0.18473735524E+04  0.46999998093E+01 0. -1.
       -5    1    3    3    0  502 -0.36752655786E+03  0.21357070952E+03  0.14142382778E+04  0.14767464965E+04  0.46999998093E+01 0.  1.
</event>
<event>
 5   0  0.2383270E-08  0.3298961E+04  0.7818609E-02  0.8163160E-01
       -1   -1    0    0    0  501  0.00000000000E+00  0.00000000000E+00  0.13317980952E+04  0.13317980952E+04  0.50400001928E-02 0.  1.
        1   -1    0    0  501    0  0.00000000000E+00  0.00000000000E+00 -0.20429415257E+04  0.20429415257E+04  0.50400001928E-02 0. -1.
    10030    2    1    2    0    0  0.00000000000E+00  0.00000000000E+00 -0.71114343051E+03  0.33747396210E+04  0.32989608259E+04 0.  0.
        5    1    3    3  502    0  0.45443248040E+02 -0.10924097178E+04 -0.16189876932E+04  0.19536036755E+04  0.46999998093E+01 0. -1.
       -5    1    3    3    0  502 -0.45443248040E+02  0.10924097178E+04  0.90784426265E+03  0.14211359455E+04  0.46999998093E+01 0.  1.
</event>
<event>
 5   0  0.2244093E-08  0.3300511E+04  0.7818609E-02  0.8162765E-01
       -1   -1    0    0    0  501  0.00000000000E+00  0.00000000000E+00  0.15264158384E+04  0.15264158385E+04  0.50400001928E-02 0.  1.
        1   -1    0    0  501    0  0.00000000000E+00  0.00000000000E+00 -0.17841428211E+04  0.17841428211E+04  0.50400001928E-02 0. -1.
    10030    2    1    2    0    0  0.00000000000E+00  0.00000000000E+00 -0.25772698262E+03  0.33105586595E+04  0.33005113908E+04 0.  0.
        1    1    3    3  502    0 -0.33593646742E+02 -0.14741383245E+03  0.15194541060E+04  0.15269578093E+04  0.50400001928E-02 0.  1.
       -1    1    3    3    0  502  0.33593646742E+02  0.14741383245E+03 -0.17771810886E+04  0.17836008502E+04  0.50400001928E-02 0. -1.
</event>
<event>
 5   0  0.6706080E-08  0.3300893E+04  0.7818609E-02  0.8162668E-01
        2   -1    0    0  501    0  0.00000000000E+00  0.00000000000E+00  0.25778582702E+04  0.25778582702E+04  0.25500000920E-02 0.  1.
       -2   -1    0    0    0  501  0.00000000000E+00  0.00000000000E+00 -0.10566809611E+04  0.10566809611E+04  0.25500000920E-02 0. -1.
    10030    2    1    2    0    0  0.00000000000E+00  0.00000000000E+00  0.15211773091E+04  0.36345392313E+04  0.33008930637E+04 0.  0.
        4    1    3    3  502    0 -0.15198311732E+04  0.33982608591E+03  0.15890888485E+03  0.15654463295E+04  0.12699999809E+01 0. -1.
       -4    1    3    3    0  502  0.15198311732E+04 -0.33982608591E+03  0.13622684242E+04  0.20690929018E+04  0.12699999809E+01 0.  1.
</event>
<event>
 5   0  0.2244093E-08  0.3300391E+04  0.7818609E-02  0.8162796E-01
        1   -1    0    0  501    0  0.00000000000E+00  0.00000000000E+00  0.16356226905E+04  0.16356226905E+04  0.50400001928E-02 0.  1.
       -1   -1    0    0    0  501  0.00000000000E+00  0.00000000000E+00 -0.16648980603E+04  0.16648980603E+04  0.50400001928E-02 0. -1.
    10030    2    1    2    0    0  0.00000000000E+00  0.00000000000E+00 -0.29275369764E+02  0.33005207508E+04  0.33003909131E+04 0.  0.
        1    1    3    3  502    0  0.88561692755E+03  0.13080452561E+04  0.46271254047E+03  0.16460263150E+04  0.50400001928E-02 0. -1.
       -1    1    3    3    0  502 -0.88561692755E+03 -0.13080452561E+04 -0.49198791023E+03  0.16544944359E+04  0.50400001928E-02 0.  1.
</event>
<event>
 5   0  0.6706080E-08  0.3302312E+04  0.7818609E-02  0.8162307E-01
       -2   -1    0    0    0  501  0.00000000000E+00  0.00000000000E+00  0.11985520362E+04  0.11985520362E+04  0.25500000920E-02 0. -1.
        2   -1    0    0  501    0  0.00000000000E+00  0.00000000000E+00 -0.22746742993E+04  0.22746742993E+04  0.25500000920E-02 0.  1.
    10030    2    1    2    0    0  0.00000000000E+00  0.00000000000E+00 -0.10761222631E+04  0.34732263355E+04  0.33023116226E+04 0.  0.
        4    1    3    3  502    0 -0.98987337531E+03 -0.97479963555E+03  0.40043907978E+03  0.14458342568E+04  0.12699999809E+01 0. -1.
       -4    1    3    3    0  502  0.98987337531E+03  0.97479963555E+03 -0.14765613429E+04  0.20273920787E+04  0.12699999809E+01 0.  1.
</event>
<event>
 5   0  0.6603516E-08  0.3300988E+04  0.7818609E-02  0.8162644E-01
       -2   -1    0    0    0  501  0.00000000000E+00  0.00000000000E+00  0.11292216873E+04  0.11292216873E+04  0.25500000920E-02 0. -1.
        2   -1    0    0  501    0  0.00000000000E+00  0.00000000000E+00 -0.24123961979E+04  0.24123961979E+04  0.25500000920E-02 0.  1.
    10030    2    1    2    0    0  0.00000000000E+00  0.00000000000E+00 -0.12831745106E+04  0.35416178852E+04  0.33009877946E+04 0.  0.
        1    1    3    3  502    0  0.41814195607E+03  0.13835090921E+04  0.21349837921E+03  0.14610002263E+04  0.50400001928E-02 0. -1.
       -1    1    3    3    0  502 -0.41814195607E+03 -0.13835090921E+04 -0.14966728898E+04  0.20806176589E+04  0.50400001928E-02 0.  1.
</event>
<event>
 5   0  0.2200750E-08  0.3298127E+04  0.7818609E-02  0.8163372E-01
       -4   -1    0    0    0  501  0.00000000000E+00  0.00000000000E+00  0.16658196051E+04  0.16658200892E+04  0.12699999809E+01 0.  1.
        4   -1    0    0  501    0  0.00000000000E+00  0.00000000000E+00 -0.16324751922E+04  0.16324756862E+04  0.12699999809E+01 0. -1.
    10030    2    1    2    0    0  0.00000000000E+00  0.00000000000E+00  0.33344412898E+02  0.32982957754E+04  0.32981272219E+04 0.  0.
        4    1    3    3  502    0 -0.71966319831E+03  0.12901071513E+04 -0.71624832145E+03  0.16417383628E+04  0.12699999809E+01 0. -1.
       -4    1    3    3    0  502  0.71966319831E+03 -0.12901071513E+04  0.74959273435E+03  0.16565574126E+04  0.12699999809E+01 0.  1.
</event>
<event>
 5   0  0.2244093E-08  0.3300905E+04  0.7818609E-02  0.8162665E-01
        1   -1    0    0  501    0  0.00000000000E+00  0.00000000000E+00  0.21457436281E+04  0.21457436281E+04  0.50400001928E-02 0. -1.
       -1   -1    0    0    0  501  0.00000000000E+00  0.00000000000E+00 -0.12694871775E+04  0.12694871775E+04  0.50400001928E-02 0.  1.
    10030    2    1    2    0    0  0.00000000000E+00  0.00000000000E+00  0.87625645061E+03  0.34152308057E+04  0.33009053438E+04 0.  0.
        1    1    3    3  502    0  0.55553429726E+03  0.15199124447E+04  0.77377399542E+03  0.17937330880E+04  0.50400001928E-02 0. -1.
       -1    1    3    3    0  502 -0.55553429726E+03 -0.15199124447E+04  0.10248245519E+03  0.16214977177E+04  0.50400001928E-02 0.  1.
</event>
<event>
 5   0  0.2200750E-08  0.3301788E+04  0.7818609E-02  0.8162440E-01
       -3   -1    0    0    0  501  0.00000000000E+00  0.00000000000E+00  0.98927352230E+03  0.98927352745E+03  0.10100000352E+00 0.  1.
        3   -1    0    0  501    0  0.00000000000E+00  0.00000000000E+00 -0.27550031997E+04  0.27550032015E+04  0.10100000352E+00 0. -1.
    10030    2    1    2    0    0  0.00000000000E+00  0.00000000000E+00 -0.17657296774E+04  0.37442767290E+04  0.33017884441E+04 0.  0.
        1    1    3    3  502    0  0.56352441708E+03  0.64078995407E+03 -0.24855130150E+04  0.26279167570E+04  0.50400001928E-02 0. -1.
       -1    1    3    3    0  502 -0.56352441708E+03 -0.64078995407E+03  0.71978333763E+03  0.11163599720E+04  0.50400001928E-02 0.  1.
</event>
<event>
 5   0  0.6706080E-08  0.3304149E+04  0.7818609E-02  0.8161841E-01
       -2   -1    0    0    0  501  0.00000000000E+00  0.00000000000E+00  0.11618924033E+04  0.11618924033E+04  0.25500000920E-02 0.  1.
        2   -1    0    0  501    0  0.00000000000E+00  0.00000000000E+00 -0.23490557227E+04  0.23490557227E+04  0.25500000920E-02 0. -1.
    10030    2    1    2    0    0  0.00000000000E+00  0.00000000000E+00 -0.11871633194E+04  0.35109481260E+04  0.33041489065E+04 0.  0.
        4    1    3    3  502    0 -0.16048307804E+04 -0.36238273776E+03 -0.75313020466E+03  0.18094225047E+04  0.12699999809E+01 0. -1.
       -4    1    3    3    0  502  0.16048307804E+04  0.36238273776E+03 -0.43403311475E+03  0.17015256213E+04  0.12699999809E+01 0.  1.
</event>
<event>
 5   0  0.2309822E-08  0.3300017E+04  0.7818609E-02  0.8162891E-01
        1   -1    0    0  501    0  0.00000000000E+00  0.00000000000E+00  0.24569945826E+04  0.24569945826E+04  0.50400001928E-02 0.  1.
       -1   -1    0    0    0  501  0.00000000000E+00  0.00000000000E+00 -0.11080725763E+04  0.11080725764E+04  0.50400001928E-02 0. -1.
    10030    2    1    2    0    0  0.00000000000E+00  0.00000000000E+00  0.13489220062E+04  0.35650671589E+04  0.33000171619E+04 0.  0.
        4    1    3    3  502    0 -0.80398444699E+03 -0.20407436540E+03  0.22153779419E+04  0.23655735829E+04  0.12699999809E+01 0.  1.
       -4    1    3    3    0  502  0.80398444699E+03  0.20407436540E+03 -0.86645593568E+03  0.11994935761E+04  0.12699999809E+01 0. -1.
</event>
<event>
 5   0  0.6706080E-08  0.3300520E+04  0.7818609E-02  0.8162763E-01
       -2   -1    0    0    0  501  0.00000000000E+00  0.00000000000E+00  0.20133006826E+04  0.20133006826E+04  0.25500000920E-02 0.  1.
        2   -1    0    0  501    0  0.00000000000E+00  0.00000000000E+00 -0.13526830743E+04  0.13526830743E+04  0.25500000920E-02 0. -1.
    10030    2    1    2    0    0  0.00000000000E+00  0.00000000000E+00  0.66061760825E+03  0.33659837569E+04  0.33005198117E+04 0.  0.
        4    1    3    3  502    0 -0.32882699554E+03  0.82580625721E+03  0.17483089061E+04  0.19612926379E+04  0.12699999809E+01 0.  1.
       -4    1    3    3    0  502  0.32882699554E+03 -0.82580625721E+03 -0.10876912979E+04  0.14046911190E+04  0.12699999809E+01 0. -1.
</event>
<event>
 5   0  0.2291682E-08  0.3299806E+04  0.7818609E-02  0.8162945E-01
        1   -1    0    0  501    0  0.00000000000E+00  0.00000000000E+00  0.20054338090E+04  0.20054338090E+04  0.50400001928E-02 0.  1.
       -1   -1    0    0    0  501  0.00000000000E+00  0.00000000000E+00 -0.13574017236E+04  0.13574017236E+04  0.50400001928E-02 0. -1.
    10030    2    1    2    0    0  0.00000000000E+00  0.00000000000E+00  0.64803208537E+03  0.33628355326E+04  0.32998056361E+04 0.  0.
        2    1    3    3  502    0 -0.20521125383E+03  0.91143016356E+03 -0.10618725355E+04  0.14143514002E+04  0.25500000920E-02 0. -1.
       -2    1    3    3    0  502  0.20521125383E+03 -0.91143016356E+03  0.17099046209E+04  0.19484841324E+04  0.25500000920E-02 0.  1.
</event>
<event>
 5   0  0.6603516E-08  0.3297771E+04  0.7818609E-02  0.8163463E-01
       -2   -1    0    0    0  501  0.00000000000E+00  0.00000000000E+00  0.13805576873E+04  0.13805576873E+04  0.25500000920E-02 0. -1.
        2   -1    0    0  501    0  0.00000000000E+00  0.00000000000E+00 -0.19693662843E+04  0.19693662843E+04  0.25500000920E-02 0.  1.
    10030    2    1    2    0    0  0.00000000000E+00  0.00000000000E+00 -0.58880859700E+03  0.33499239716E+04  0.32977712249E+04 0.  0.
        1    1    3    3  502    0  0.78928858281E+03  0.78127954056E+03 -0.15324691192E+04  0.18925738529E+04  0.50400001928E-02 0.  1.
       -1    1    3    3    0  502 -0.78928858281E+03 -0.78127954056E+03  0.94366052216E+03  0.14573501187E+04  0.50400001928E-02 0. -1.
</event>
<event>
 5   0  0.2279938E-08  0.3299494E+04  0.7818609E-02  0.8163024E-01
       -1   -1    0    0    0  501  0.00000000000E+00  0.00000000000E+00  0.11449129112E+04  0.11449129112E+04  0.50400001928E-02 0. -1.
        1   -1    0    0  501    0  0.00000000000E+00  0.00000000000E+00 -0.23771803260E+04  0.23771803260E+04  0.50400001928E-02 0.  1.
    10030    2    1    2    0    0  0.00000000000E+00  0.00000000000E+00 -0.12322674148E+04  0.35220932372E+04  0.32994935657E+04 0.  0.
        3    1    3    3  502    0  0.25024239870E+03 -0.42288756255E+03  0.10649824705E+04  0.11728780078E+04  0.10100000352E+00 0. -1.
       -3    1    3    3    0  502 -0.25024239870E+03  0.42288756255E+03 -0.22972498852E+04  0.23492152294E+04  0.10100000352E+00 0.  1.
</event>
<event>
 5   0  0.2244093E-08  0.3299964E+04  0.7818609E-02  0.8162904E-01
        1   -1    0    0  501    0  0.00000000000E+00  0.00000000000E+00  0.14520992344E+04  0.14520992344E+04  0.50400001928E-02 0.  1.
       -1   -1    0    0    0  501  0.00000000000E+00  0.00000000000E+00 -0.18748312068E+04  0.18748312068E+04  0.50400001928E-02 0. -1.
    10030    2    1    2    0    0  0.00000000000E+00  0.00000000000E+00 -0.42273197235E+03  0.33269304412E+04  0.32999642180E+04 0.  0.
        1    1    3    3  502    0  0.12135357849E+03  0.12964746152E+04  0.81025961283E+03  0.15336537286E+04  0.50400001928E-02 0.  1.
       -1    1    3    3    0  502 -0.12135357849E+03 -0.12964746152E+04 -0.12329915852E+04  0.17932767126E+04  0.50400001928E-02 0. -1.
</event>
<event>
 5   0  0.2279938E-08  0.3323111E+04  0.7818609E-02  0.8157040E-01
       -1   -1    0    0    0  501  0.00000000000E+00  0.00000000000E+00  0.21170423665E+04  0.21170423665E+04  0.50400001928E-02 0.  1.
        1   -1    0    0  501    0  0.00000000000E+00  0.00000000000E+00 -0.13040678116E+04  0.13040678116E+04  0.50400001928E-02 0. -1.
    10030    2    1    2    0    0  0.00000000000E+00  0.00000000000E+00  0.81297455493E+03  0.34211101782E+04  0.33231110761E+04 0.  0.
        3    1    3    3  502    0  0.92558887627E+03 -0.88572971427E+03  0.14957710194E+04  0.19694067247E+04  0.10100000352E+00 0.  1.
       -3    1    3    3    0  502 -0.92558887627E+03  0.88572971427E+03 -0.68279646449E+03  0.14517034534E+04  0.10100000352E+00 0. -1.
</event>
<event>
 5   0  0.7084130E-08  0.3300843E+04  0.7818609E-02  0.8162681E-01
        2   -1    0    0  501    0  0.00000000000E+00  0.00000000000E+00  0.20753693476E+04  0.20753693476E+04  0.25500000920E-02 0.  1.
       -2   -1    0    0    0  501  0.00000000000E+00  0.00000000000E+00 -0.13124849483E+04  0.13124849483E+04  0.25500000920E-02 0. -1.
    10030    2    1    2    0    0  0.00000000000E+00  0.00000000000E+00  0.76288439929E+03  0.33878542959E+04  0.33008429413E+04 0.  0.
        3    1    3    3  502    0  0.13178157305E+03  0.87496751968E+03 -0.10484647012E+04  0.13719376018E+04  0.10100000352E+00 0. -1.
       -3    1    3    3    0  502 -0.13178157305E+03 -0.87496751968E+03  0.18113491004E+04  0.20159166941E+04  0.10100000352E+00 0.  1.
</event>
<event>
 5   0  0.6765252E-08  0.3301028E+04  0.7818609E-02  0.8162634E-01
        2   -1    0    0  501    0  0.00000000000E+00  0.00000000000E+00  0.18845976189E+04  0.18845976189E+04  0.25500000920E-02 0.  1.
       -2   -1    0    0    0  501  0.00000000000E+00  0.00000000000E+00 -0.14455059603E+04  0.14455059603E+04  0.25500000920E-02 0. -1.
    10030    2    1    2    0    0  0.00000000000E+00  0.00000000000E+00  0.43909165861E+03  0.33301035792E+04  0.33010283797E+04 0.  0.
        2    1    3    3  502    0  0.37827594796E+02  0.10769037713E+04  0.14807754030E+04  0.18313515374E+04  0.25500000920E-02 0.  1.
       -2    1    3    3    0  502 -0.37827594796E+02 -0.10769037713E+04 -0.10416837444E+04  0.14987520418E+04  0.25500000920E-02 0. -1.
</event>
<event>
 5   0  0.2309822E-08  0.3300773E+04  0.7818609E-02  0.8162699E-01
       -1   -1    0    0    0  501  0.00000000000E+00  0.00000000000E+00  0.33665383251E+04  0.33665383251E+04  0.50400001928E-02 0.  1.
        1   -1    0    0  501    0  0.00000000000E+00  0.00000000000E+00 -0.80907304386E+03  0.80907304388E+03  0.50400001928E-02 0. -1.
    10030    2    1    2    0    0  0.00000000000E+00  0.00000000000E+00  0.25574652813E+04  0.41756113690E+04  0.33007728853E+04 0.  0.
        4    1    3    3  502    0 -0.59361738167E+03  0.98513948123E+03  0.27760257244E+04  0.30048630299E+04  0.12699999809E+01 0.  1.
       -4    1    3    3    0  502  0.59361738167E+03 -0.98513948123E+03 -0.21856044310E+03  0.11707483391E+04  0.12699999809E+01 0. -1.
</event>
<event>
 5   0  0.6603516E-08  0.3295976E+04  0.7818609E-02  0.8163920E-01
        2   -1    0    0  501    0  0.00000000000E+00  0.00000000000E+00  0.20634774903E+04  0.20634774903E+04  0.25500000920E-02 0.  1.
       -2   -1    0    0    0  501  0.00000000000E+00  0.00000000000E+00 -0.13161593589E+04  0.13161593589E+04  0.25500000920E-02 0. -1.
    10030    2    1    2    0    0  0.00000000000E+00  0.00000000000E+00  0.74731813146E+03  0.33796368492E+04  0.32959764628E+04 0.  0.
        1    1    3    3  502    0 -0.98265240311E+03 -0.11025679355E+04  0.11233837303E+04  0.18556003889E+04  0.50400001928E-02 0. -1.
       -1    1    3    3    0  502  0.98265240311E+03  0.11025679355E+04 -0.37606559887E+03  0.15240364603E+04  0.50400001928E-02 0.  1.
</event>
<event>
 5   0  0.6821287E-08  0.3300251E+04  0.7818609E-02  0.8162831E-01
       -2   -1    0    0    0  501  0.00000000000E+00  0.00000000000E+00  0.12281616180E+04  0.12281616180E+04  0.25500000920E-02 0. -1.
        2   -1    0    0  501    0  0.00000000000E+00  0.00000000000E+00 -0.22170653109E+04  0.22170653109E+04  0.25500000920E-02 0.  1.
    10030    2    1    2    0    0  0.00000000000E+00  0.00000000000E+00 -0.98890369292E+03  0.34452269289E+04  0.33002512143E+04 0.  0.
        5    1    3    3  502    0  0.59326840168E+03 -0.14128943141E+04 -0.11334306040E+04  0.19060232851E+04  0.46999998093E+01 0.  1.
       -5    1    3    3    0  502 -0.59326840168E+03  0.14128943141E+04  0.14452691111E+03  0.15392036438E+04  0.46999998093E+01 0. -1.
</event>
<event>
 5   0  0.2309822E-08  0.3306874E+04  0.7818609E-02  0.8161149E-01
        1   -1    0    0  501    0  0.00000000000E+00  0.00000000000E+00  0.19186150932E+04  0.19186150932E+04  0.50400001928E-02 0. -1.
       -1   -1    0    0    0  501  0.00000000000E+00  0.00000000000E+00 -0.14249098989E+04  0.14249098989E+04  0.50400001928E-02 0.  1.
    10030    2    1    2    0    0  0.00000000000E+00  0.00000000000E+00  0.49370519423E+03  0.33435249921E+04  0.33068738340E+04 0.  0.
        4    1    3    3  502    0 -0.10488482369E+04  0.11086587412E+04 -0.39631498024E+03  0.15767923151E+04  0.12699999809E+01 0.  1.
       -4    1    3    3    0  502  0.10488482369E+04 -0.11086587412E+04  0.89002017447E+03  0.17667326771E+04  0.12699999809E+01 0. -1.
</event>
<event>
 5   0  0.6603516E-08  0.3301299E+04  0.7818609E-02  0.8162565E-01
       -2   -1    0    0    0  501  0.00000000000E+00  0.00000000000E+00  0.15588150386E+04  0.15588150386E+04  0.25500000920E-02 0. -1.
        2   -1    0    0  501    0  0.00000000000E+00  0.00000000000E+00 -0.17478940652E+04  0.17478940652E+04  0.25500000920E-02 0.  1.
    10030    2    1    2    0    0  0.00000000000E+00  0.00000000000E+00 -0.18907902662E+03  0.33067091037E+04  0.33012988684E+04 0.  0.
        1    1    3    3  502    0 -0.71176765750E+03 -0.24918201486E+03  0.13761782917E+04  0.15692582851E+04  0.50400001928E-02 0. -1.
       -1    1    3    3    0  502  0.71176765750E+03  0.24918201486E+03 -0.15652573183E+04  0.17374508187E+04  0.50400001928E-02 0.  1.
</event>
<event>
 5   0  0.2244093E-08  0.3298831E+04  0.7818609E-02  0.8163193E-01
       -1   -1    0    0    0  501  0.00000000000E+00  0.00000000000E+00  0.15240364329E+04  0.15240364329E+04  0.50400001928E-02 0.  1.
        1   -1    0    0  501    0  0.00000000000E+00  0.00000000000E+00 -0.17851091856E+04  0.17851091856E+04  0.50400001928E-02 0. -1.
    10030    2    1    2    0    0  0.00000000000E+00  0.00000000000E+00 -0.26107275271E+03  0.33091456185E+04  0.32988309660E+04 0.  0.
        1    1    3    3  502    0 -0.97412547875E+03  0.10359844136E+04 -0.96884508363E+03  0.17207105944E+04  0.50400001928E-02 0. -1.
       -1    1    3    3    0  502  0.97412547875E+03 -0.10359844136E+04  0.70777233092E+03  0.15884350242E+04  0.50400001928E-02 0.  1.
</event>
<event>
 5   0  0.6603516E-08  0.3300222E+04  0.7818609E-02  0.8162839E-01
        2   -1    0    0  501    0  0.00000000000E+00  0.00000000000E+00  0.16229128125E+04  0.16229128125E+04  0.25500000920E-02 0. -1.
       -2   -1    0    0    0  501  0.00000000000E+00  0.00000000000E+00 -0.16777650629E+04  0.16777650629E+04  0.25500000920E-02 0.  1.
    10030    2    1    2    0    0  0.00000000000E+00  0.00000000000E+00 -0.54852250384E+02  0.33006778754E+04  0.33002220634E+04 0.  0.
        1    1    3    3  502    0 -0.82006461815E+03 -0.40721029078E+03 -0.14004012971E+04  0.16731556986E+04  0.50400001928E-02 0.  1.
       -1    1    3    3    0  502  0.82006461815E+03  0.40721029078E+03  0.13455490467E+04  0.16275221768E+04  0.50400001928E-02 0. -1.
</event>
<event>
 5   0  0.2309822E-08  0.3296505E+04  0.7818609E-02  0.8163785E-01
        1   -1    0    0  501    0  0.00000000000E+00  0.00000000000E+00  0.20098484807E+04  0.20098484807E+04  0.50400001928E-02 0.  1.
       -1   -1    0    0    0  501  0.00000000000E+00  0.00000000000E+00 -0.13517123917E+04  0.13517123917E+04  0.50400001928E-02 0. -1.
    10030    2    1    2    0    0  0.00000000000E+00  0.00000000000E+00  0.65813608894E+03  0.33615608724E+04  0.32965054812E+04 0.  0.
        4    1    3    3  502    0 -0.12544343459E+04 -0.25031544871E+03  0.13890389940E+04  0.18883046077E+04  0.12699999809E+01 0.  1.
       -4    1    3    3    0  502  0.12544343459E+04  0.25031544871E+03 -0.73090290504E+03  0.14732562647E+04  0.12699999809E+01 0. -1.
</event>
<event>
 5   0  0.6765252E-08  0.3300342E+04  0.7818609E-02  0.8162808E-01
        2   -1    0    0  501    0  0.00000000000E+00  0.00000000000E+00  0.19423454880E+04  0.19423454880E+04  0.25500000920E-02 0.  1.
       -2   -1    0    0    0  501  0.00000000000E+00  0.00000000000E+00 -0.14019462548E+04  0.14019462548E+04  0.25500000920E-02 0. -1.
    10030    2    1    2    0    0  0.00000000000E+00  0.00000000000E+00  0.54039923324E+03  0.33442917428E+04  0.33003417898E+04 0.  0.
        2    1    3    3  502    0 -0.16918764502E+03 -0.92513225223E+03  0.16441950955E+04  0.18941678002E+04  0.25500000920E-02 0.  1.
       -2    1    3    3    0  502  0.16918764502E+03  0.92513225223E+03 -0.11037958622E+04  0.14501239426E+04  0.25500000920E-02 0. -1.
</event>
<event>
 5   0  0.6765252E-08  0.3297268E+04  0.7818609E-02  0.8163591E-01
       -2   -1    0    0    0  501  0.00000000000E+00  0.00000000000E+00  0.29794114237E+04  0.29794114237E+04  0.25500000920E-02 0. -1.
        2   -1    0    0  501    0  0.00000000000E+00  0.00000000000E+00 -0.91225885012E+03  0.91225885012E+03  0.25500000920E-02 0.  1.
    10030    2    1    2    0    0  0.00000000000E+00  0.00000000000E+00  0.20671525736E+04  0.38916702738E+04  0.32972682265E+04 0.  0.
        2    1    3    3  502    0  0.10699222992E+03  0.14036221176E+04  0.20464057023E+04  0.24838234004E+04  0.25500000920E-02 0. -1.
       -2    1    3    3    0  502 -0.10699222992E+03 -0.14036221176E+04  0.20746871304E+02  0.14078468734E+04  0.25500000920E-02 0.  1.
</event>
<event>
 5   0  0.2309822E-08  0.3300303E+04  0.7818609E-02  0.8162818E-01
       -1   -1    0    0    0  501  0.00000000000E+00  0.00000000000E+00  0.11350707765E+04  0.11350707765E+04  0.50400001928E-02 0.  1.
        1   -1    0    0  501    0  0.00000000000E+00  0.00000000000E+00 -0.23989690044E+04  0.23989690045E+04  0.50400001928E-02 0. -1.
    10030    2    1    2    0    0  0.00000000000E+00  0.00000000000E+00 -0.12638982280E+04  0.35340397810E+04  0.33003027805E+04 0.  0.
        4    1    3    3  502    0 -0.29718150576E+03  0.21878300197E+03  0.10903173549E+04  0.11510761906E+04  0.12699999809E+01 0.  1.
       -4    1    3    3    0  502  0.29718150576E+03 -0.21878300197E+03 -0.23542155829E+04  0.23829635903E+04  0.12699999809E+01 0. -1.
</event>
<event>
 5   0  0.2383270E-08  0.3296153E+04  0.7818609E-02  0.8163875E-01
        1   -1    0    0  501    0  0.00000000000E+00  0.00000000000E+00  0.13331042582E+04  0.13331042582E+04  0.50400001928E-02 0. -1.
       -1   -1    0    0    0  501  0.00000000000E+00  0.00000000000E+00 -0.20374677105E+04  0.20374677105E+04  0.50400001928E-02 0.  1.
    10030    2    1    2    0    0  0.00000000000E+00  0.00000000000E+00 -0.70436345235E+03  0.33705719687E+04  0.32961534435E+04 0.  0.
        5    1    3    3  502    0  0.95236320618E+03 -0.28535866803E+02  0.10229186637E+04  0.13979251249E+04  0.46999998093E+01 0. -1.
       -5    1    3    3    0  502 -0.95236320618E+03  0.28535866803E+02 -0.17272821160E+04  0.19726468439E+04  0.46999998093E+01 0.  1.
</event>
<event>
 5   0  0.2291682E-08  0.3299653E+04  0.7818609E-02  0.8162984E-01
       -1   -1    0    0    0  501  0.00000000000E+00  0.00000000000E+00  0.15373629104E+04  0.15373629104E+04  0.50400001928E-02 0. -1.
        1   -1    0    0  501    0  0.00000000000E+00  0.00000000000E+00 -0.17705175577E+04  0.17705175577E+04  0.50400001928E-02 0.  1.
    10030    2    1    2    0    0  0.00000000000E+00  0.00000000000E+00 -0.23315464723E+03  0.33078804681E+04  0.32996533305E+04 0.  0.
        2    1    3    3  502    0 -0.14385616688E+04  0.80287241096E+03 -0.27675650445E+02  0.16476740348E+04  0.25500000920E-02 0. -1.
       -2    1    3    3    0  502  0.14385616688E+04 -0.80287241096E+03 -0.20547899679E+03  0.16602064333E+04  0.25500000920E-02 0.  1.
</event>
<event>
 5   0  0.7084130E-08  0.3300018E+04  0.7818609E-02  0.8162891E-01
        2   -1    0    0  501    0  0.00000000000E+00  0.00000000000E+00  0.12222293897E+04  0.12222293897E+04  0.25500000920E-02 0.  1.
       -2   -1    0    0    0  501  0.00000000000E+00  0.00000000000E+00 -0.22275118399E+04  0.22275118399E+04  0.25500000920E-02 0. -1.
    10030    2    1    2    0    0  0.00000000000E+00  0.00000000000E+00 -0.10052824502E+04  0.34497412296E+04  0.33000184464E+04 0.  0.
        3    1    3    3  502    0  0.12174449422E+04  0.99793281243E+03 -0.10195325324E+04  0.18754969155E+04  0.10100000352E+00 0.  1.
       -3    1    3    3    0  502 -0.12174449422E+04 -0.99793281243E+03  0.14250082248E+02  0.15742443141E+04  0.10100000352E+00 0. -1.
</event>
<event>
 5   0  0.2291682E-08  0.3300180E+04  0.7818609E-02  0.8162850E-01
        1   -1    0    0  501    0  0.00000000000E+00  0.00000000000E+00  0.24282875466E+04  0.24282875466E+04  0.50400001928E-02 0. -1.
       -1   -1    0    0    0  501  0.00000000000E+00  0.00000000000E+00 -0.11212826139E+04  0.11212826139E+04  0.50400001928E-02 0.  1.
    10030    2    1    2    0    0  0.00000000000E+00  0.00000000000E+00  0.13070049327E+04  0.35495701605E+04  0.33001797572E+04 0.  0.
        2    1    3    3  502    0  0.55682209745E+03 -0.15532824991E+04  0.64522427785E+03  0.17717369272E+04  0.25500000920E-02 0. -1.
       -2    1    3    3    0  502 -0.55682209745E+03  0.15532824991E+04  0.66178065482E+03  0.17778332333E+04  0.25500000920E-02 0.  1.
</event>
<event>
 5   0  0.2244093E-08  0.3301270E+04  0.7818609E-02  0.8162572E-01
       -1   -1    0    0    0  501  0.00000000000E+00  0.00000000000E+00  0.13299793638E+04  0.13299793638E+04  0.50400001928E-02 0.  1.
        1   -1    0    0  501    0  0.00000000000E+00  0.00000000000E+00 -0.20486003101E+04  0.20486003101E+04  0.50400001928E-02 0. -1.
    10030    2    1    2    0    0  0.00000000000E+00  0.00000000000E+00 -0.71862094633E+03  0.33785796740E+04  0.33012701417E+04 0.  0.
        1    1    3    3  502    0  0.10443478598E+04 -0.10256576493E+04 -0.11400383655E+04  0.18553499779E+04  0.50400001928E-02 0. -1.
       -1    1    3    3    0  502 -0.10443478598E+04  0.10256576493E+04  0.42141741915E+03  0.15232296960E+04  0.50400001928E-02 0.  1.
</event>
<event>
 5   0  0.6603516E-08  0.3300609E+04  0.7818609E-02  0.8162740E-01
       -2   -1    0    0    0  501  0.00000000000E+00  0.00000000000E+00  0.98449259191E+03  0.98449259191E+03  0.25500000920E-02 0.  1.
        2   -1    0    0  501    0  0.00000000000E+00  0.00000000000E+00 -0.27664048020E+04  0.27664048020E+04  0.25500000920E-02 0. -1.
    10030    2    1    2    0    0  0.00000000000E+00  0.00000000000E+00 -0.17819122101E+04  0.37508973939E+04  0.33006090552E+04 0.  0.
        1    1    3    3  502    0  0.59181849226E+03 -0.14581419275E+04 -0.14558386540E+04  0.21438034413E+04  0.50400001928E-02 0. -1.
       -1    1    3    3    0  502 -0.59181849226E+03  0.14581419275E+04 -0.32607355614E+03  0.16070939526E+04  0.50400001928E-02 0.  1.
</event>
<event>
 5   0  0.2383270E-08  0.3300869E+04  0.7818609E-02  0.8162674E-01
        1   -1    0    0  501    0  0.00000000000E+00  0.00000000000E+00  0.12481970545E+04  0.12481970545E+04  0.50400001928E-02 0. -1.
       -1   -1    0    0    0  501  0.00000000000E+00  0.00000000000E+00 -0.21822944492E+04  0.21822944492E+04  0.50400001928E-02 0.  1.
    10030    2    1    2    0    0  0.00000000000E+00  0.00000000000E+00 -0.93409739477E+03  0.34304915037E+04  0.33008686757E+04 0.  0.
        5    1    3    3  502    0 -0.54594863258E+03 -0.80841153240E+03 -0.18506133321E+04  0.20919801409E+04  0.46999998093E+01 0.  1.
       -5    1    3    3    0  502  0.54594863258E+03  0.80841153240E+03  0.91651593729E+03  0.13385113628E+04  0.46999998093E+01 0. -1.
</event>
<event>
 5   0  0.2383270E-08  0.3298874E+04  0.7818609E-02  0.8163182E-01
        1   -1    0    0  501    0  0.00000000000E+00  0.00000000000E+00  0.18731812884E+04  0.18731812884E+04  0.50400001928E-02 0.  1.
       -1   -1    0    0    0  501  0.00000000000E+00  0.00000000000E+00 -0.14524179238E+04  0.14524179239E+04  0.50400001928E-02 0. -1.
    10030    2    1    2    0    0  0.00000000000E+00  0.00000000000E+00  0.42076336453E+03  0.33255992122E+04  0.32988737944E+04 0.  0.
        5    1    3    3  502    0 -0.11597310754E+04  0.20586779255E+03 -0.95364249979E+03  0.15155242732E+04  0.46999998093E+01 0. -1.
       -5    1    3    3    0  502  0.11597310754E+04 -0.20586779255E+03  0.13744058643E+04  0.18100749391E+04  0.46999998093E+01 0.  1.
</event>
<event>
 5   0  0.6765252E-08  0.3302061E+04  0.7818609E-02  0.8162371E-01
        2   -1    0    0  501    0  0.00000000000E+00  0.00000000000E+00  0.11318091083E+04  0.11318091083E+04  0.25500000920E-02 0. -1.
       -2   -1    0    0    0  501  0.00000000000E+00  0.00000000000E+00 -0.24084470137E+04  0.24084470137E+04  0.25500000920E-02 0.  1.
    10030    2    1    2    0    0  0.00000000000E+00  0.00000000000E+00 -0.12766379055E+04  0.35402561220E+04  0.33020613362E+04 0.  0.
        2    1    3    3  502    0 -0.55311597844E+03  0.10043660224E+04  0.63531892137E+03  0.13108464916E+04  0.25500000920E-02 0. -1.
       -2    1    3    3    0  502  0.55311597844E+03 -0.10043660224E+04 -0.19119568268E+04  0.22294096304E+04  0.25500000920E-02 0.  1.
</event>
<event>
 5   0  0.6765252E-08  0.3299845E+04  0.7818609E-02  0.8162935E-01
       -2   -1    0    0    0  501  0.00000000000E+00  0.00000000000E+00  0.14853487363E+04  0.14853487363E+04  0.25500000920E-02 0. -1.
        2   -1    0    0  501    0  0.00000000000E+00  0.00000000000E+00 -0.18327304180E+04  0.18327304180E+04  0.25500000920E-02 0.  1.
    10030    2    1    2    0    0  0.00000000000E+00  0.00000000000E+00 -0.34738168171E+03  0.33180791544E+04  0.32998447300E+04 0.  0.
        2    1    3    3  502    0 -0.70028619893E+03  0.12963022640E+04  0.57300502032E+03  0.15808652926E+04  0.25500000920E-02 0. -1.
       -2    1    3    3    0  502  0.70028619893E+03 -0.12963022640E+04 -0.92038670203E+03  0.17372138617E+04  0.25500000920E-02 0.  1.
</event>
<event>
 5   0  0.2279938E-08  0.3299838E+04  0.7818609E-02  0.8162937E-01
        1   -1    0    0  501    0  0.00000000000E+00  0.00000000000E+00  0.26132962607E+04  0.26132962607E+04  0.50400001928E-02 0. -1.
       -1   -1    0    0    0  501  0.00000000000E+00  0.00000000000E+00 -0.10416857033E+04  0.10416857033E+04  0.50400001928E-02 0.  1.
    10030    2    1    2    0    0  0.00000000000E+00  0.00000000000E+00  0.15716105574E+04  0.36549819640E+04  0.32998383919E+04 0.  0.
        3    1    3    3  502    0 -0.14946643307E+04  0.30348474830E+03  0.88697608244E+02  0.15277407273E+04  0.10100000352E+00 0.  1.
       -3    1    3    3    0  502  0.14946643307E+04 -0.30348474830E+03  0.14829129492E+04  0.21272412367E+04  0.10100000352E+00 0. -1.
</event>
<event>
 5   0  0.6821287E-08  0.3299603E+04  0.7818609E-02  0.8162996E-01
        2   -1    0    0  501    0  0.00000000000E+00  0.00000000000E+00  0.25618525725E+04  0.25618525725E+04  0.25500000920E-02 0. -1.
       -2   -1    0    0    0  501  0.00000000000E+00  0.00000000000E+00 -0.10624517225E+04  0.10624517226E+04  0.25500000920E-02 0.  1.
    10030    2    1    2    0    0  0.00000000000E+00  0.00000000000E+00  0.14994008499E+04  0.36243042950E+04  0.32996028116E+04 0.  0.
        5    1    3    3  502    0  0.49426494008E+03 -0.35313704787E+03 -0.93513407338E+03  0.11151239531E+04  0.46999998093E+01 0.  1.
       -5    1    3    3    0  502 -0.49426494008E+03  0.35313704787E+03  0.24345349233E+04  0.25091803419E+04  0.46999998093E+01 0. -1.
</event>
<event>
 5   0  0.2309822E-08  0.3295593E+04  0.7818609E-02  0.8164018E-01
        1   -1    0    0  501    0  0.00000000000E+00  0.00000000000E+00  0.21508849083E+04  0.21508849083E+04  0.50400001928E-02 0.  1.
       -1   -1    0    0    0  501  0.00000000000E+00  0.00000000000E+00 -0.12623796903E+04  0.12623796903E+04  0.50400001928E-02 0. -1.
    10030    2    1    2    0    0  0.00000000000E+00  0.00000000000E+00  0.88850521805E+03  0.34132645987E+04  0.32955930723E+04 0.  0.
        4    1    3    3  502    0  0.10370587037E+03  0.10986888899E+04 -0.82310575331E+03  0.13767268714E+04  0.12699999809E+01 0. -1.
       -4    1    3    3    0  502 -0.10370587037E+03 -0.10986888899E+04  0.17116109714E+04  0.20365377273E+04  0.12699999809E+01 0.  1.
</event>
<event>
 5   0  0.6765252E-08  0.3300059E+04  0.7818609E-02  0.8162880E-01
        2   -1    0    0  501    0  0.00000000000E+00  0.00000000000E+00  0.21239660652E+04  0.21239660652E+04  0.25500000920E-02 0.  1.
       -2   -1    0    0    0  501  0.00000000000E+00  0.00000000000E+00 -0.12818458472E+04  0.12818458472E+04  0.25500000920E-02 0. -1.
    10030    2    1    2    0    0  0.00000000000E+00  0.00000000000E+00  0.84212021801E+03  0.34058119124E+04  0.33000588360E+04 0.  0.
        2    1    3    3  502    0 -0.90722446284E+03  0.16199432023E+03 -0.99148554254E+03  0.13536402649E+04  0.25500000920E-02 0. -1.
       -2    1    3    3    0  502  0.90722446284E+03 -0.16199432023E+03  0.18336057606E+04  0.20521716475E+04  0.25500000920E-02 0.  1.
</event>
<event>
 5   0  0.2383270E-08  0.3300468E+04  0.7818609E-02  0.8162776E-01
        1   -1    0    0  501    0  0.00000000000E+00  0.00000000000E+00  0.22588454888E+04  0.22588454888E+04  0.50400001928E-02 0.  1.
       -1   -1    0    0    0  501  0.00000000000E+00  0.00000000000E+00 -0.12056033815E+04  0.12056033815E+04  0.50400001928E-02 0. -1.
    10030    2    1    2    0    0  0.00000000000E+00  0.00000000000E+00  0.10532421073E+04  0.34644488703E+04  0.33004677000E+04 0.  0.
        5    1    3    3  502    0 -0.55935860476E+03  0.13361625881E+04 -0.30325185671E+03  0.14799311771E+04  0.46999998093E+01 0. -1.
       -5    1    3    3    0  502  0.55935860476E+03 -0.13361625881E+04  0.13564939640E+04  0.19845176932E+04  0.46999998093E+01 0.  1.
</event>
<event>
 5   0  0.2200750E-08  0.3315395E+04  0.7818609E-02  0.8158989E-01
        3   -1    0    0  501    0  0.00000000000E+00  0.00000000000E+00  0.19328062967E+04  0.19328062993E+04  0.10100000352E+00 0.  1.
       -3   -1    0    0    0  501  0.00000000000E+00  0.00000000000E+00 -0.14217469091E+04  0.14217469127E+04  0.10100000352E+00 0. -1.
    10030    2    1    2    0    0  0.00000000000E+00  0.00000000000E+00  0.51105938756E+03  0.33545532120E+04  0.33153952335E+04 0.  0.
        2    1    3    3  502    0  0.13231929633E+04 -0.80520467896E+03  0.85306998043E+03  0.17683106584E+04  0.25500000920E-02 0. -1.
       -2    1    3    3    0  502 -0.13231929633E+04  0.80520467896E+03 -0.34201059287E+03  0.15862425536E+04  0.25500000920E-02 0.  1.
</event>
<event>
 5   0  0.2291682E-08  0.3300362E+04  0.7818609E-02  0.8162803E-01
        1   -1    0    0  501    0  0.00000000000E+00  0.00000000000E+00  0.10256346262E+04  0.10256346262E+04  0.50400001928E-02 0. -1.
       -1   -1    0    0    0  501  0.00000000000E+00  0.00000000000E+00 -0.26550360471E+04  0.26550360471E+04  0.50400001928E-02 0.  1.
    10030    2    1    2    0    0  0.00000000000E+00  0.00000000000E+00 -0.16294014209E+04  0.36806706733E+04  0.33003617400E+04 0.  0.
        2    1    3    3  502    0  0.12185121828E+04 -0.11115337244E+04 -0.87389995319E+03  0.18665423350E+04  0.25500000920E-02 0.  1.
       -2    1    3    3    0  502 -0.12185121828E+04  0.11115337244E+04 -0.75550146773E+03  0.18141283383E+04  0.25500000920E-02 0. -1.
</event>
<event>
 5   0  0.2383270E-08  0.3300268E+04  0.7818609E-02  0.8162827E-01
       -1   -1    0    0    0  501  0.00000000000E+00  0.00000000000E+00  0.12706376859E+04  0.12706376859E+04  0.50400001928E-02 0.  1.
        1   -1    0    0  501    0  0.00000000000E+00  0.00000000000E+00 -0.21429726047E+04  0.21429726047E+04  0.50400001928E-02 0. -1.
    10030    2    1    2    0    0  0.00000000000E+00  0.00000000000E+00 -0.87233491875E+03  0.34136102906E+04  0.33002677172E+04 0.  0.
        5    1    3    3  502    0 -0.10599841278E+04 -0.73595088041E+03  0.62761322239E+03  0.14349601028E+04  0.46999998093E+01 0.  1.
       -5    1    3    3    0  502  0.10599841278E+04  0.73595088041E+03 -0.14999481411E+04  0.19786501878E+04  0.46999998093E+01 0. -1.
</event>
<event>
 5   0  0.6765252E-08  0.3298902E+04  0.7818609E-02  0.8163175E-01
        2   -1    0    0  501    0  0.00000000000E+00  0.00000000000E+00  0.22965471764E+04  0.22965471764E+04  0.25500000920E-02 0. -1.
       -2   -1    0    0    0  501  0.00000000000E+00  0.00000000000E+00 -0.11846862920E+04  0.11846862920E+04  0.25500000920E-02 0.  1.
    10030    2    1    2    0    0  0.00000000000E+00  0.00000000000E+00  0.11118608844E+04  0.34812334684E+04  0.32989016104E+04 0.  0.
        2    1    3    3  502    0 -0.13750833901E+04 -0.89715483194E+03  0.38925503375E+03  0.16873827673E+04  0.25500000920E-02 0.  1.
       -2    1    3    3    0  502  0.13750833901E+04  0.89715483194E+03  0.72260585064E+03  0.17938507010E+04  0.25500000920E-02 0. -1.
</event>
<event>
 5   0  0.6765252E-08  0.3301273E+04  0.7818609E-02  0.8162571E-01
       -2   -1    0    0    0  501  0.00000000000E+00  0.00000000000E+00  0.30338737395E+04  0.30338737395E+04  0.25500000920E-02 0. -1.
        2   -1    0    0  501    0  0.00000000000E+00  0.00000000000E+00 -0.89806020739E+03  0.89806020740E+03  0.25500000920E-02 0.  1.
    10030    2    1    2    0    0  0.00000000000E+00  0.00000000000E+00  0.21358135321E+04  0.39319339469E+04  0.33012732572E+04 0.  0.
        2    1    3    3  502    0  0.13918199391E+04 -0.72564337020E+03  0.16762453032E+04  0.22964144574E+04  0.25500000920E-02 0. -1.
       -2    1    3    3    0  502 -0.13918199391E+04  0.72564337020E+03  0.45956822894E+03  0.16355194895E+04  0.25500000920E-02 0.  1.
</event>
<event>
 5   0  0.2309822E-08  0.3300986E+04  0.7818609E-02  0.8162644E-01
        1   -1    0    0  501    0  0.00000000000E+00  0.00000000000E+00  0.13109086558E+04  0.13109086558E+04  0.50400001928E-02 0.  1.
       -1   -1    0    0    0  501  0.00000000000E+00  0.00000000000E+00 -0.20780452629E+04  0.20780452629E+04  0.50400001928E-02 0. -1.
    10030    2    1    2    0    0  0.00000000000E+00  0.00000000000E+00 -0.76713660708E+03  0.33889539187E+04  0.33009862298E+04 0.  0.
        4    1    3    3  502    0 -0.16180135417E+04 -0.31863893029E+03 -0.45340549174E+03  0.17102855731E+04  0.12699999809E+01 0.  1.
       -4    1    3    3    0  502  0.16180135417E+04  0.31863893029E+03 -0.31373111534E+03  0.16786683456E+04  0.12699999809E+01 0. -1.
</event>
<event>
 5   0  0.6706080E-08  0.3301122E+04  0.7818609E-02  0.8162610E-01
       -2   -1    0    0    0  501  0.00000000000E+00  0.00000000000E+00  0.18469590489E+04  0.18469590489E+04  0.25500000920E-02 0.  1.
        2   -1    0    0  501    0  0.00000000000E+00  0.00000000000E+00 -0.14750469920E+04  0.14750469920E+04  0.25500000920E-02 0. -1.
    10030    2    1    2    0    0  0.00000000000E+00  0.00000000000E+00  0.37191205689E+03  0.33220060410E+04  0.33011218636E+04 0.  0.
        4    1    3    3  502    0  0.14879930218E+04 -0.11964561285E+03 -0.52270889644E+03  0.15816651064E+04  0.12699999809E+01 0. -1.
       -4    1    3    3    0  502 -0.14879930218E+04  0.11964561285E+03  0.89462095333E+03  0.17403409346E+04  0.12699999809E+01 0.  1.
</event>
<event>
 5   0  0.2200750E-08  0.3300220E+04  0.7818609E-02  0.8162839E-01
        3   -1    0    0  501    0  0.00000000000E+00  0.00000000000E+00  0.21765777513E+04  0.21765777536E+04  0.10100000352E+00 0. -1.
       -3   -1    0    0    0  501  0.00000000000E+00  0.00000000000E+00 -0.12509838929E+04  0.12509838969E+04  0.10100000352E+00 0.  1.
    10030    2    1    2    0    0  0.00000000000E+00  0.00000000000E+00  0.92559385839E+03  0.34275616505E+04  0.33002204286E+04 0.  0.
        3    1    3    3  502    0 -0.61619074780E+03 -0.58583241696E+03  0.19315689761E+04  0.21104145038E+04  0.10100000352E+00 0. -1.
       -3    1    3    3    0  502  0.61619074780E+03  0.58583241696E+03 -0.10059751177E+04  0.13171471467E+04  0.10100000352E+00 0.  1.
</event>
<event>
 5   0  0.2383270E-08  0.3297413E+04  0.7818609E-02  0.8163554E-01
        1   -1    0    0  501    0  0.00000000000E+00  0.00000000000E+00  0.23972690304E+04  0.23972690304E+04  0.50400001928E-02 0. -1.
       -1   -1    0    0    0  501  0.00000000000E+00  0.00000000000E+00 -0.11338876066E+04  0.11338876066E+04  0.50400001928E-02 0.  1.
    10030    2    1    2    0    0  0.00000000000E+00  0.00000000000E+00  0.12633814238E+04  0.35311566370E+04  0.32974133155E+04 0.  0.
        5    1    3    3  502    0  0.13025022848E+03  0.16199301566E+04  0.33439137878E+03  0.16592102093E+04  0.46999998093E+01 0.  1.
       -5    1    3    3    0  502 -0.13025022848E+03 -0.16199301566E+04  0.92899004503E+03  0.18719464277E+04  0.46999998093E+01 0. -1.
</event>
<event>
 5   0  0.2279938E-08  0.3300804E+04  0.7818609E-02  0.8162691E-01
        1   -1    0    0  501    0  0.00000000000E+00  0.00000000000E+00  0.25356748107E+04  0.25356748107E+04  0.50400001928E-02 0. -1.
       -1   -1    0    0    0  501  0.00000000000E+00  0.00000000000E+00 -0.10742016639E+04  0.10742016639E+04  0.50400001928E-02 0.  1.
    10030    2    1    2    0    0  0.00000000000E+00  0.00000000000E+00  0.14614731467E+04  0.36098764746E+04  0.33008035996E+04 0.  0.
        3    1    3    3  502    0  0.82094183259E+02  0.11421797654E+04 -0.56904008297E+03  0.12787183809E+04  0.10100000352E+00 0.  1.
       -3    1    3    3    0  502 -0.82094183259E+02 -0.11421797654E+04  0.20305132297E+04  0.23311580937E+04  0.10100000352E+00 0. -1.
</event>
<event>
 5   0  0.6765252E-08  0.3300171E+04  0.7818609E-02  0.8162852E-01
       -2   -1    0    0    0  501  0.00000000000E+00  0.00000000000E+00  0.11376035460E+04  0.11376035460E+04  0.25500000920E-02 0.  1.
        2   -1    0    0  501    0  0.00000000000E+00  0.00000000000E+00 -0.23934374853E+04  0.23934374853E+04  0.25500000920E-02 0. -1.
    10030    2    1    2    0    0  0.00000000000E+00  0.00000000000E+00 -0.12558339393E+04  0.35310410313E+04  0.33001714928E+04 0.  0.
        2    1    3    3  502    0 -0.13797289276E+03  0.14540149796E+04 -0.14494786318E+04  0.20577133872E+04  0.25500000920E-02 0. -1.
       -2    1    3    3    0  502  0.13797289276E+03 -0.14540149796E+04  0.19364469246E+03  0.14733276441E+04  0.25500000920E-02 0.  1.
</event>
<event>
 5   0  0.2244093E-08  0.3308798E+04  0.7818609E-02  0.8160660E-01
        1   -1    0    0  501    0  0.00000000000E+00  0.00000000000E+00  0.24291871486E+04  0.24291871486E+04  0.50400001928E-02 0.  1.
       -1   -1    0    0    0  501  0.00000000000E+00  0.00000000000E+00 -0.11267293428E+04  0.11267293428E+04  0.50400001928E-02 0. -1.
    10030    2    1    2    0    0  0.00000000000E+00  0.00000000000E+00  0.13024578058E+04  0.35559164914E+04  0.33087982347E+04 0.  0.
        1    1    3    3  502    0 -0.95048990430E+03 -0.67246479811E+03  0.19143367694E+04  0.22406082276E+04  0.50400001928E-02 0.  1.
       -1    1    3    3    0  502  0.95048990430E+03  0.67246479811E+03 -0.61187896351E+03  0.13153082638E+04  0.50400001928E-02 0. -1.
</event>
<event>
 5   0  0.6765252E-08  0.3299758E+04  0.7818609E-02  0.8162957E-01
       -2   -1    0    0    0  501  0.00000000000E+00  0.00000000000E+00  0.10812511246E+04  0.10812511246E+04  0.25500000920E-02 0.  1.
        2   -1    0    0  501    0  0.00000000000E+00  0.00000000000E+00 -0.25175476438E+04  0.25175476438E+04  0.25500000920E-02 0. -1.
    10030    2    1    2    0    0  0.00000000000E+00  0.00000000000E+00 -0.14362965192E+04  0.35987987684E+04  0.32997583069E+04 0.  0.
        2    1    3    3  502    0 -0.86173276901E+03 -0.71486406186E+03 -0.20397801800E+04  0.23268685341E+04  0.25500000920E-02 0. -1.
       -2    1    3    3    0  502  0.86173276901E+03  0.71486406186E+03  0.60348366077E+03  0.12719302343E+04  0.25500000920E-02 0.  1.
</event>
<event>
 5   0  0.6765252E-08  0.3302719E+04  0.7818609E-02  0.8162204E-01
       -2   -1    0    0    0  501  0.00000000000E+00  0.00000000000E+00  0.12989797906E+04  0.12989797906E+04  0.25500000920E-02 0. -1.
        2   -1    0    0  501    0  0.00000000000E+00  0.00000000000E+00 -0.20993305717E+04  0.20993305717E+04  0.25500000920E-02 0.  1.
    10030    2    1    2    0    0  0.00000000000E+00  0.00000000000E+00 -0.80035078112E+03  0.33983103622E+04  0.33027188717E+04 0.  0.
        2    1    3    3  502    0  0.10610818006E+04  0.18575387802E+02 -0.17020014586E+04  0.20057538726E+04  0.25500000920E-02 0.  1.
       -2    1    3    3    0  502 -0.10610818006E+04 -0.18575387802E+02  0.90165067743E+03  0.13925564896E+04  0.25500000920E-02 0. -1.
</event>
<event>
 5   0  0.2279938E-08  0.3301109E+04  0.7818609E-02  0.8162613E-01
       -1   -1    0    0    0  501  0.00000000000E+00  0.00000000000E+00  0.11626119819E+04  0.11626119819E+04  0.50400001928E-02 0. -1.
        1   -1    0    0  501    0  0.00000000000E+00  0.00000000000E+00 -0.23432845959E+04  0.23432845959E+04  0.50400001928E-02 0.  1.
    10030    2    1    2    0    0  0.00000000000E+00  0.00000000000E+00 -0.11806726140E+04  0.35058965779E+04  0.33011093580E+04 0.  0.
        3    1    3    3  502    0 -0.60970778964E+03  0.66829555271E+03  0.87587651937E+03  0.12591752149E+04  0.10100000352E+00 0. -1.
       -3    1    3    3    0  502  0.60970778964E+03 -0.66829555271E+03 -0.20565491334E+04  0.22467213630E+04  0.10100000352E+00 0.  1.
</event>
<event>
 5   0  0.2244093E-08  0.3295048E+04  0.7818609E-02  0.8164157E-01
       -1   -1    0    0    0  501  0.00000000000E+00  0.00000000000E+00  0.18830309609E+04  0.18830309609E+04  0.50400001928E-02 0.  1.
        1   -1    0    0  501    0  0.00000000000E+00  0.00000000000E+00 -0.14414711332E+04  0.14414711332E+04  0.50400001928E-02 0. -1.
    10030    2    1    2    0    0  0.00000000000E+00  0.00000000000E+00  0.44155982774E+03  0.33245020941E+04  0.32950476616E+04 0.  0.
        1    1    3    3  502    0 -0.12202940486E+04 -0.86340594350E+03 -0.47804956721E+03  0.15694326290E+04  0.50400001928E-02 0. -1.
       -1    1    3    3    0  502  0.12202940486E+04  0.86340594350E+03  0.91960939494E+03  0.17550694652E+04  0.50400001928E-02 0.  1.
</event>
<event>
 5   0  0.2279938E-08  0.3300164E+04  0.7818609E-02  0.8162854E-01
        1   -1    0    0  501    0  0.00000000000E+00  0.00000000000E+00  0.16166749079E+04  0.16166749079E+04  0.50400001928E-02 0.  1.
       -1   -1    0    0    0  501  0.00000000000E+00  0.00000000000E+00 -0.16841789937E+04  0.16841789937E+04  0.50400001928E-02 0. -1.
    10030    2    1    2    0    0  0.00000000000E+00  0.00000000000E+00 -0.67504085836E+02  0.33008539017E+04  0.33001635836E+04 0.  0.
        3    1    3    3  502    0 -0.16071213428E+04 -0.32756402420E+03 -0.21443508689E+03  0.16541220079E+04  0.10100000352E+00 0. -1.
       -3    1    3    3    0  502  0.16071213428E+04  0.32756402420E+03  0.14693100105E+03  0.16467318937E+04  0.10100000352E+00 0.  1.
</event>
<event>
 5   0  0.2200750E-08  0.3299657E+04  0.7818609E-02  0.8162983E-01
        3   -1    0    0  501    0  0.00000000000E+00  0.00000000000E+00  0.12694668735E+04  0.12694668775E+04  0.10100000352E+00 0.  1.
       -3   -1    0    0    0  501  0.00000000000E+00  0.00000000000E+00 -0.21441553039E+04  0.21441553063E+04  0.10100000352E+00 0. -1.
    10030    2    1    2    0    0  0.00000000000E+00  0.00000000000E+00 -0.87468843042E+03  0.34136221838E+04  0.32996570373E+04 0.  0.
        1    1    3    3  502    0  0.14829495626E+04 -0.33434441919E+03 -0.11005862998E+04  0.18767567235E+04  0.50400001928E-02 0. -1.
       -1    1    3    3    0  502 -0.14829495626E+04  0.33434441919E+03  0.22589786942E+03  0.15368654603E+04  0.50400001928E-02 0.  1.
</event>
<event>
 5   0  0.2309822E-08  0.3299867E+04  0.7818609E-02  0.8162929E-01
        1   -1    0    0  501    0  0.00000000000E+00  0.00000000000E+00  0.16166475925E+04  0.16166475926E+04  0.50400001928E-02 0. -1.
       -1   -1    0    0    0  501  0.00000000000E+00  0.00000000000E+00 -0.16839043165E+04  0.16839043165E+04  0.50400001928E-02 0.  1.
    10030    2    1    2    0    0  0.00000000000E+00  0.00000000000E+00 -0.67256723948E+02  0.33005519091E+04  0.32998665787E+04 0.  0.
        4    1    3    3  502    0  0.29714008694E+03 -0.52679171608E+03 -0.15690290949E+04  0.16815634562E+04  0.12699999809E+01 0.  1.
       -4    1    3    3    0  502 -0.29714008694E+03  0.52679171608E+03  0.15017723710E+04  0.16189884529E+04  0.12699999809E+01 0. -1.
</event>
<event>
 5   0  0.2309822E-08  0.3301660E+04  0.7818609E-02  0.8162473E-01
       -1   -1    0    0    0  501  0.00000000000E+00  0.00000000000E+00  0.10613763344E+04  0.10613763344E+04  0.50400001928E-02 0. -1.
        1   -1    0    0  501    0  0.00000000000E+00  0.00000000000E+00 -0.25676470995E+04  0.25676470995E+04  0.50400001928E-02 0.  1.
    10030    2    1    2    0    0  0.00000000000E+00  0.00000000000E+00 -0.15062707651E+04  0.36290234339E+04  0.33016601076E+04 0.  0.
        4    1    3    3  502    0  0.12833287524E+03 -0.11022902979E+04  0.59022562666E+03  0.12569332246E+04  0.12699999809E+01 0. -1.
       -4    1    3    3    0  502 -0.12833287524E+03  0.11022902979E+04 -0.20964963918E+04  0.23720902094E+04  0.12699999809E+01 0.  1.
</event>
<event>
 5   0  0.6603516E-08  0.3299802E+04  0.7818609E-02  0.8162946E-01
        2   -1    0    0  501    0  0.00000000000E+00  0.00000000000E+00  0.16345914585E+04  0.16345914585E+04  0.25500000920E-02 0. -1.
       -2   -1    0    0    0  501  0.00000000000E+00  0.00000000000E+00 -0.16653544168E+04  0.16653544168E+04  0.25500000920E-02 0.  1.
    10030    2    1    2    0    0  0.00000000000E+00  0.00000000000E+00 -0.30762958223E+02  0.32999458753E+04  0.32998024820E+04 0.  0.
        1    1    3    3  502    0  0.13120544220E+04  0.35558239165E+03 -0.95043465639E+03  0.16586897478E+04  0.50400001928E-02 0.  1.
       -1    1    3    3    0  502 -0.13120544220E+04 -0.35558239165E+03  0.91967169817E+03  0.16412561275E+04  0.50400001928E-02 0. -1.
</event>
<event>
 5   0  0.7084130E-08  0.3299238E+04  0.7818609E-02  0.8163089E-01
        2   -1    0    0  501    0  0.00000000000E+00  0.00000000000E+00  0.17894452253E+04  0.17894452253E+04  0.25500000920E-02 0. -1.
       -2   -1    0    0    0  501  0.00000000000E+00  0.00000000000E+00 -0.15207187412E+04  0.15207187412E+04  0.25500000920E-02 0.  1.
    10030    2    1    2    0    0  0.00000000000E+00  0.00000000000E+00  0.26872648403E+03  0.33101639665E+04  0.32992380275E+04 0.  0.
        3    1    3    3  502    0  0.52287724510E+03 -0.53374751757E+03  0.16099327944E+04  0.17748720063E+04  0.10100000352E+00 0. -1.
       -3    1    3    3    0  502 -0.52287724510E+03  0.53374751757E+03 -0.13412063104E+04  0.15352919602E+04  0.10100000352E+00 0.  1.
</event>
<event>
 5   0  0.2200750E-08  0.3300650E+04  0.7818609E-02  0.8162730E-01
        3   -1    0    0  501    0  0.00000000000E+00  0.00000000000E+00  0.12017913415E+04  0.12017913457E+04  0.10100000352E+00 0.  1.
       -3   -1    0    0    0  501  0.00000000000E+00  0.00000000000E+00 -0.22662607815E+04  0.22662607838E+04  0.10100000352E+00 0. -1.
    10030    2    1    2    0    0  0.00000000000E+00  0.00000000000E+00 -0.10644694400E+04  0.34680521295E+04  0.33006499942E+04 0.  0.
        2    1    3    3  502    0  0.63576977554E+03  0.32619166605E+02 -0.21320559834E+04  0.22250685234E+04  0.25500000920E-02 0. -1.
       -2    1    3    3    0  502 -0.63576977554E+03 -0.32619166605E+02  0.10675865433E+04  0.12429836061E+04  0.25500000920E-02 0.  1.
</event>
<event>
 5   0  0.6765252E-08  0.3301435E+04  0.7818609E-02  0.8162530E-01
        2   -1    0    0  501    0  0.00000000000E+00  0.00000000000E+00  0.13020933589E+04  0.13020933589E+04  0.25500000920E-02 0.  1.
       -2   -1    0    0    0  501  0.00000000000E+00  0.00000000000E+00 -0.20926826537E+04  0.20926826537E+04  0.25500000920E-02 0. -1.
    10030    2    1    2    0    0  0.00000000000E+00  0.00000000000E+00 -0.79058929483E+03  0.33947760126E+04  0.33014349520E+04 0.  0.
        2    1    3    3  502    0  0.51952001232E+03  0.91321280481E+03  0.91389077872E+03  0.13924995603E+04  0.25500000920E-02 0.  1.
       -2    1    3    3    0  502 -0.51952001232E+03 -0.91321280481E+03 -0.17044800735E+04  0.20022764522E+04  0.25500000920E-02 0. -1.
</event>
<event>
 5   0  0.6706080E-08  0.3300147E+04  0.7818609E-02  0.8162858E-01
        2   -1    0    0  501    0  0.00000000000E+00  0.00000000000E+00  0.15544751162E+04  0.15544751162E+04  0.25500000920E-02 0. -1.
       -2   -1    0    0    0  501  0.00000000000E+00  0.00000000000E+00 -0.17515513444E+04  0.17515513444E+04  0.25500000920E-02 0.  1.
    10030    2    1    2    0    0  0.00000000000E+00  0.00000000000E+00 -0.19707622819E+03  0.33060264605E+04  0.33001472570E+04 0.  0.
        4    1    3    3  502    0  0.37880114641E+02  0.94852750872E+03  0.12535336918E+04  0.15724145978E+04  0.12699999809E+01 0. -1.
       -4    1    3    3    0  502 -0.37880114641E+02 -0.94852750872E+03 -0.14506099200E+04  0.17336118628E+04  0.12699999809E+01 0.  1.
</event>
<event>
 5   0  0.2309822E-08  0.3300080E+04  0.7818609E-02  0.8162875E-01
       -1   -1    0    0    0  501  0.00000000000E+00  0.00000000000E+00  0.16560290404E+04  0.16560290404E+04  0.50400001928E-02 0. -1.
        1   -1    0    0  501    0  0.00000000000E+00  0.00000000000E+00 -0.16440727658E+04  0.16440727658E+04  0.50400001928E-02 0.  1.
    10030    2    1    2    0    0  0.00000000000E+00  0.00000000000E+00  0.11956274628E+02  0.33001018062E+04  0.33000801474E+04 0.  0.
        4    1    3    3  502    0 -0.86505303585E+03 -0.60441038675E+03 -0.12624945986E+04  0.16454552242E+04  0.12699999809E+01 0.  1.
       -4    1    3    3    0  502  0.86505303585E+03  0.60441038675E+03  0.12744508732E+04  0.16546465821E+04  0.12699999809E+01 0. -1.
</event>
<event>
 5   0  0.6821287E-08  0.3300202E+04  0.7818609E-02  0.8162844E-01
        2   -1    0    0  501    0  0.00000000000E+00  0.00000000000E+00  0.30590637389E+04  0.30590637389E+04  0.25500000920E-02 0. -1.
       -2   -1    0    0    0  501  0.00000000000E+00  0.00000000000E+00 -0.89008718506E+03  0.89008718506E+03  0.25500000920E-02 0.  1.
    10030    2    1    2    0    0  0.00000000000E+00  0.00000000000E+00  0.21689765539E+04  0.39491509240E+04  0.33002020740E+04 0.  0.
        5    1    3    3  502    0  0.41498403086E+03  0.15316440517E+04  0.16258482607E+04  0.22719044663E+04  0.46999998093E+01 0. -1.
       -5    1    3    3    0  502 -0.41498403086E+03 -0.15316440517E+04  0.54312829316E+03  0.16772464577E+04  0.46999998093E+01 0.  1.
</event>
<event>
 5   0  0.6603516E-08  0.3298907E+04  0.7818609E-02  0.8163174E-01
       -2   -1    0    0    0  501  0.00000000000E+00  0.00000000000E+00  0.29797661114E+04  0.29797661114E+04  0.25500000920E-02 0. -1.
        2   -1    0    0  501    0  0.00000000000E+00  0.00000000000E+00 -0.91305692713E+03  0.91305692714E+03  0.25500000920E-02 0.  1.
    10030    2    1    2    0    0  0.00000000000E+00  0.00000000000E+00  0.20667091843E+04  0.38928230386E+04  0.32989065396E+04 0.  0.
        1    1    3    3  502    0  0.64545610844E+02 -0.34891907830E+03  0.29341937734E+04  0.29555716467E+04  0.50400001928E-02 0. -1.
       -1    1    3    3    0  502 -0.64545610844E+02  0.34891907830E+03 -0.86748458912E+03  0.93725139182E+03  0.50400001928E-02 0.  1.
</event>
<event>
 5   0  0.2309822E-08  0.3301668E+04  0.7818609E-02  0.8162471E-01
       -1   -1    0    0    0  501  0.00000000000E+00  0.00000000000E+00  0.16320849279E+04  0.16320849279E+04  0.50400001928E-02 0.  1.
        1   -1    0    0  501    0  0.00000000000E+00  0.00000000000E+00 -0.16697980447E+04  0.16697980447E+04  0.50400001928E-02 0. -1.
    10030    2    1    2    0    0  0.00000000000E+00  0.00000000000E+00 -0.37713116823E+02  0.33018829727E+04  0.33016675917E+04 0.  0.
        4    1    3    3  502    0 -0.15891519283E+04 -0.96145126080E+02  0.41775281003E+03  0.16459546651E+04  0.12699999809E+01 0.  1.
       -4    1    3    3    0  502  0.15891519283E+04  0.96145126080E+02 -0.45546592685E+03  0.16559283076E+04  0.12699999809E+01 0. -1.
</event>
<event>
 5   0  0.2279938E-08  0.3300894E+04  0.7818609E-02  0.8162668E-01
        1   -1    0    0  501    0  0.00000000000E+00  0.00000000000E+00  0.14657312807E+04  0.14657312807E+04  0.50400001928E-02 0.  1.
       -1   -1    0    0    0  501  0.00000000000E+00  0.00000000000E+00 -0.18584406318E+04  0.18584406319E+04  0.50400001928E-02 0. -1.
    10030    2    1    2    0    0  0.00000000000E+00  0.00000000000E+00 -0.39270935116E+03  0.33241719125E+04  0.33008935562E+04 0.  0.
        3    1    3    3  502    0 -0.58674285556E+03 -0.12219098897E+04  0.75190328567E+03  0.15500611337E+04  0.10100000352E+00 0.  1.
       -3    1    3    3    0  502  0.58674285556E+03  0.12219098897E+04 -0.11446126368E+04  0.17741107788E+04  0.10100000352E+00 0. -1.
</event>
<event>
 5   0  0.6706080E-08  0.3298288E+04  0.7818609E-02  0.8163331E-01
       -2   -1    0    0    0  501  0.00000000000E+00  0.00000000000E+00  0.15617027114E+04  0.15617027114E+04  0.25500000920E-02 0.  1.
        2   -1    0    0  501    0  0.00000000000E+00  0.00000000000E+00 -0.17414811056E+04  0.17414811056E+04  0.25500000920E-02 0. -1.
    10030    2    1    2    0    0  0.00000000000E+00  0.00000000000E+00 -0.17977839427E+03  0.33031838170E+04  0.32982878980E+04 0.  0.
        4    1    3    3  502    0 -0.46189134279E+03  0.51428951006E+03  0.14096098068E+04  0.15699804881E+04  0.12699999809E+01 0.  1.
       -4    1    3    3    0  502  0.46189134279E+03 -0.51428951006E+03 -0.15893882011E+04  0.17332033289E+04  0.12699999809E+01 0. -1.
</event>
<event>
 5   0  0.7084130E-08  0.3290988E+04  0.7818609E-02  0.8165192E-01
       -2   -1    0    0    0  501  0.00000000000E+00  0.00000000000E+00  0.15503329857E+04  0.15503329857E+04  0.25500000920E-02 0.  1.
        2   -1    0    0  501    0  0.00000000000E+00  0.00000000000E+00 -0.17464959309E+04  0.17464959309E+04  0.25500000920E-02 0. -1.
    10030    2    1    2    0    0  0.00000000000E+00  0.00000000000E+00 -0.19616294516E+03  0.32968289166E+04  0.32909878463E+04 0.  0.
        3    1    3    3  502    0  0.13900179708E+04 -0.35344858973E+03 -0.90609495849E+03  0.16964916589E+04  0.10100000352E+00 0. -1.
       -3    1    3    3    0  502 -0.13900179708E+04  0.35344858973E+03  0.70993201333E+03  0.16003372577E+04  0.10100000352E+00 0.  1.
</event>
<event>
 5   0  0.6765252E-08  0.3300235E+04  0.7818609E-02  0.8162836E-01
       -2   -1    0    0    0  501  0.00000000000E+00  0.00000000000E+00  0.16676156439E+04  0.16676156439E+04  0.25500000920E-02 0. -1.
        2   -1    0    0  501    0  0.00000000000E+00  0.00000000000E+00 -0.16328032565E+04  0.16328032565E+04  0.25500000920E-02 0.  1.
    10030    2    1    2    0    0  0.00000000000E+00  0.00000000000E+00  0.34812387375E+02  0.33004189004E+04  0.33002352971E+04 0.  0.
        2    1    3    3  502    0  0.15460616224E+04  0.31125095912E+03  0.50292733738E+03  0.16553306638E+04  0.25500000920E-02 0. -1.
       -2    1    3    3    0  502 -0.15460616224E+04 -0.31125095912E+03 -0.46811495001E+03  0.16450882366E+04  0.25500000920E-02 0.  1.
</event>
<event>
 5   0  0.6765252E-08  0.3300233E+04  0.7818609E-02  0.8162836E-01
       -2   -1    0    0    0  501  0.00000000000E+00  0.00000000000E+00  0.20955901141E+04  0.20955901141E+04  0.25500000920E-02 0.  1.
        2   -1    0    0  501    0  0.00000000000E+00  0.00000000000E+00 -0.12993403594E+04  0.12993403594E+04  0.25500000920E-02 0. -1.
    10030    2    1    2    0    0  0.00000000000E+00  0.00000000000E+00  0.79624975480E+03  0.33949304735E+04  0.33002332111E+04 0.  0.
        2    1    3    3  502    0  0.56142906328E+03  0.28777967135E+03  0.19666270742E+04  0.20653430179E+04  0.25500000920E-02 0.  1.
       -2    1    3    3    0  502 -0.56142906328E+03 -0.28777967135E+03 -0.11703773194E+04  0.13295874556E+04  0.25500000920E-02 0. -1.
</event>
<event>
 5   0  0.6706080E-08  0.3295604E+04  0.7818609E-02  0.8164015E-01
        2   -1    0    0  501    0  0.00000000000E+00  0.00000000000E+00  0.22971315584E+04  0.22971315584E+04  0.25500000920E-02 0. -1.
       -2   -1    0    0    0  501  0.00000000000E+00  0.00000000000E+00 -0.11820181190E+04  0.11820181190E+04  0.25500000920E-02 0.  1.
    10030    2    1    2    0    0  0.00000000000E+00  0.00000000000E+00  0.11151134394E+04  0.34791496775E+04  0.32956038135E+04 0.  0.
        4    1    3    3  502    0  0.79184099077E+03 -0.13239466635E+04  0.11689509294E+04  0.19355347609E+04  0.12699999809E+01 0. -1.
       -4    1    3    3    0  502 -0.79184099077E+03  0.13239466635E+04 -0.53837489992E+02  0.15436149166E+04  0.12699999809E+01 0.  1.
</event>
<event>
 5   0  0.6821287E-08  0.3299098E+04  0.7818609E-02  0.8163125E-01
       -2   -1    0    0    0  501  0.00000000000E+00  0.00000000000E+00  0.15633606187E+04  0.15633606187E+04  0.25500000920E-02 0.  1.
        2   -1    0    0  501    0  0.00000000000E+00  0.00000000000E+00 -0.17404891789E+04  0.17404891789E+04  0.25500000920E-02 0. -1.
    10030    2    1    2    0    0  0.00000000000E+00  0.00000000000E+00 -0.17712856020E+03  0.33038497975E+04  0.32990982037E+04 0.  0.
        5    1    3    3  502    0 -0.70371596258E+03 -0.11545525259E+04 -0.10347968132E+04  0.17026550519E+04  0.46999998093E+01 0. -1.
       -5    1    3    3    0  502  0.70371596258E+03  0.11545525259E+04  0.85766825302E+03  0.16011947456E+04  0.46999998093E+01 0.  1.
</event>
<event>
 5   0  0.6821287E-08  0.3299399E+04  0.7818609E-02  0.8163048E-01
       -2   -1    0    0    0  501  0.00000000000E+00  0.00000000000E+00  0.13481917142E+04  0.13481917142E+04  0.25500000920E-02 0. -1.
        2   -1    0    0  501    0  0.00000000000E+00  0.00000000000E+00 -0.20186363800E+04  0.20186363800E+04  0.25500000920E-02 0.  1.
    10030    2    1    2    0    0  0.00000000000E+00  0.00000000000E+00 -0.67044466587E+03  0.33668280942E+04  0.32993992432E+04 0.  0.
        5    1    3    3  502    0 -0.70308792187E+03  0.12113548194E+03 -0.18530615869E+04  0.19856650688E+04  0.46999998093E+01 0.  1.
       -5    1    3    3    0  502  0.70308792187E+03 -0.12113548194E+03  0.11826169210E+04  0.13811630254E+04  0.46999998093E+01 0. -1.
</event>
<event>
 5   0  0.7084130E-08  0.3298878E+04  0.7818609E-02  0.8163181E-01
       -2   -1    0    0    0  501  0.00000000000E+00  0.00000000000E+00  0.18168204234E+04  0.18168204234E+04  0.25500000920E-02 0. -1.
        2   -1    0    0  501    0  0.00000000000E+00  0.00000000000E+00 -0.14974782970E+04  0.14974782970E+04  0.25500000920E-02 0.  1.
    10030    2    1    2    0    0  0.00000000000E+00  0.00000000000E+00  0.31934212641E+03  0.33142987205E+04  0.32988780843E+04 0.  0.
        3    1    3    3  502    0 -0.11631370034E+03  0.64613632148E+03 -0.13605538962E+04  0.15106713532E+04  0.10100000352E+00 0.  1.
       -3    1    3    3    0  502  0.11631370034E+03 -0.64613632148E+03  0.16798960226E+04  0.18036273672E+04  0.10100000352E+00 0. -1.
</event>
<event>
 5   0  0.2244093E-08  0.3298603E+04  0.7818609E-02  0.8163251E-01
        1   -1    0    0  501    0  0.00000000000E+00  0.00000000000E+00  0.10972974195E+04  0.10972974195E+04  0.50400001928E-02 0. -1.
       -1   -1    0    0    0  501  0.00000000000E+00  0.00000000000E+00 -0.24789948961E+04  0.24789948961E+04  0.50400001928E-02 0.  1.
    10030    2    1    2    0    0  0.00000000000E+00  0.00000000000E+00 -0.13816974766E+04  0.35762923156E+04  0.32986025541E+04 0.  0.
        1    1    3    3  502    0 -0.40544451974E+03  0.50171337781E+03 -0.23365576965E+04  0.24239644059E+04  0.50400001928E-02 0.  1.
       -1    1    3    3    0  502  0.40544451974E+03 -0.50171337781E+03  0.95486021985E+03  0.11523279097E+04  0.50400001928E-02 0. -1.
</event>
<event>
 5   0  0.2244093E-08  0.3299700E+04  0.7818609E-02  0.8162972E-01
        1   -1    0    0  501    0  0.00000000000E+00  0.00000000000E+00  0.20927191565E+04  0.20927191566E+04  0.50400001928E-02 0. -1.
       -1   -1    0    0    0  501  0.00000000000E+00  0.00000000000E+00 -0.13007022684E+04  0.13007022684E+04  0.50400001928E-02 0.  1.
    10030    2    1    2    0    0  0.00000000000E+00  0.00000000000E+00  0.79201688818E+03  0.33934214249E+04  0.32996997160E+04 0.  0.
        1    1    3    3  502    0  0.11069969892E+04 -0.11479481429E+02 -0.86202343151E+03  0.14030889171E+04  0.50400001928E-02 0.  1.
       -1    1    3    3    0  502 -0.11069969892E+04  0.11479481429E+02  0.16540403197E+04  0.19903325079E+04  0.50400001928E-02 0. -1.
</event>
<event>
 5   0  0.6765252E-08  0.3299335E+04  0.7818609E-02  0.8163065E-01
        2   -1    0    0  501    0  0.00000000000E+00  0.00000000000E+00  0.12577893947E+04  0.12577893947E+04  0.25500000920E-02 0. -1.
       -2   -1    0    0    0  501  0.00000000000E+00  0.00000000000E+00 -0.21636389092E+04  0.21636389092E+04  0.25500000920E-02 0.  1.
    10030    2    1    2    0    0  0.00000000000E+00  0.00000000000E+00 -0.90584951456E+03  0.34214283039E+04  0.32993345232E+04 0.  0.
        2    1    3    3  502    0 -0.11998689107E+04  0.45584821659E+03  0.62172481589E+03  0.14261923945E+04  0.25500000920E-02 0. -1.
       -2    1    3    3    0  502  0.11998689107E+04 -0.45584821659E+03 -0.15275743305E+04  0.19952359095E+04  0.25500000920E-02 0.  1.
</event>
<event>
 5   0  0.6706080E-08  0.3300701E+04  0.7818609E-02  0.8162717E-01
        2   -1    0    0  501    0  0.00000000000E+00  0.00000000000E+00  0.14056766522E+04  0.14056766522E+04  0.25500000920E-02 0. -1.
       -2   -1    0    0    0  501  0.00000000000E+00  0.00000000000E+00 -0.19376130449E+04  0.19376130449E+04  0.25500000920E-02 0.  1.
    10030    2    1    2    0    0  0.00000000000E+00  0.00000000000E+00 -0.53193639272E+03  0.33432896970E+04  0.33007013910E+04 0.  0.
        4    1    3    3  502    0  0.43888046830E+02 -0.33450905972E+03 -0.19023105094E+04  0.19319962108E+04  0.12699999809E+01 0.  1.
       -4    1    3    3    0  502 -0.43888046830E+02  0.33450905972E+03  0.13703741167E+04  0.14112934862E+04  0.12699999809E+01 0. -1.
</event>
<event>
 5   0  0.2383270E-08  0.3291990E+04  0.7818609E-02  0.8164936E-01
       -1   -1    0    0    0  501  0.00000000000E+00  0.00000000000E+00  0.99820938033E+03  0.99820938034E+03  0.50400001928E-02 0.  1.
        1   -1    0    0  501    0  0.00000000000E+00  0.00000000000E+00 -0.27141598623E+04  0.27141598623E+04  0.50400001928E-02 0. -1.
    10030    2    1    2    0    0  0.00000000000E+00  0.00000000000E+00 -0.17159504819E+04  0.37123692426E+04  0.32919901787E+04 0.  0.
        5    1    3    3  502    0  0.72749843344E+03  0.18055924561E+02  0.80693480423E+03  0.10866213026E+04  0.46999998093E+01 0.  1.
       -5    1    3    3    0  502 -0.72749843344E+03 -0.18055924561E+02 -0.25228852862E+04  0.26257479400E+04  0.46999998093E+01 0. -1.
</event>
<event>
 5   0  0.6706080E-08  0.3298450E+04  0.7818609E-02  0.8163290E-01
       -2   -1    0    0    0  501  0.00000000000E+00  0.00000000000E+00  0.12018282738E+04  0.12018282738E+04  0.25500000920E-02 0.  1.
        2   -1    0    0  501    0  0.00000000000E+00  0.00000000000E+00 -0.22631706824E+04  0.22631706824E+04  0.25500000920E-02 0. -1.
    10030    2    1    2    0    0  0.00000000000E+00  0.00000000000E+00 -0.10613424086E+04  0.34649989562E+04  0.32984496446E+04 0.  0.
        4    1    3    3  502    0  0.32907802478E+02  0.14349758874E+04 -0.13839033507E+04  0.19938477419E+04  0.12699999809E+01 0. -1.
       -4    1    3    3    0  502 -0.32907802478E+02 -0.14349758874E+04  0.32256094215E+03  0.14711512143E+04  0.12699999809E+01 0.  1.
</event>
<event>
 5   0  0.2383270E-08  0.3300559E+04  0.7818609E-02  0.8162753E-01
        1   -1    0    0  501    0  0.00000000000E+00  0.00000000000E+00  0.13660838424E+04  0.13660838424E+04  0.50400001928E-02 0. -1.
       -1   -1    0    0    0  501  0.00000000000E+00  0.00000000000E+00 -0.19935979986E+04  0.19935979986E+04  0.50400001928E-02 0.  1.
    10030    2    1    2    0    0  0.00000000000E+00  0.00000000000E+00 -0.62751415617E+03  0.33596818410E+04  0.33005587491E+04 0.  0.
        5    1    3    3  502    0  0.15222090860E+04  0.39630226027E+03  0.19440887517E+03  0.15849267755E+04  0.46999998093E+01 0. -1.
       -5    1    3    3    0  502 -0.15222090860E+04 -0.39630226027E+03 -0.82192303134E+03  0.17747550655E+04  0.46999998093E+01 0.  1.
</event>
<event>
 5   0  0.2309822E-08  0.3298779E+04  0.7818609E-02  0.8163206E-01
        1   -1    0    0  501    0  0.00000000000E+00  0.00000000000E+00  0.26122535918E+04  0.26122535918E+04  0.50400001928E-02 0. -1.
       -1   -1    0    0    0  501  0.00000000000E+00  0.00000000000E+00 -0.10414325863E+04  0.10414325863E+04  0.50400001928E-02 0.  1.
    10030    2    1    2    0    0  0.00000000000E+00  0.00000000000E+00  0.15708210055E+04  0.36536861782E+04  0.32987791768E+04 0.  0.
        4    1    3    3  502    0  0.21685266672E+03  0.15190197118E+04  0.11530783922E+03  0.15387473720E+04  0.12699999809E+01 0.  1.
       -4    1    3    3    0  502 -0.21685266672E+03 -0.15190197118E+04  0.14555131663E+04  0.21149388062E+04  0.12699999809E+01 0. -1.
</event>
<event>
 5   0  0.2244093E-08  0.3299455E+04  0.7818609E-02  0.8163034E-01
        1   -1    0    0  501    0  0.00000000000E+00  0.00000000000E+00  0.29540506304E+04  0.29540506304E+04  0.50400001928E-02 0. -1.
       -1   -1    0    0    0  501  0.00000000000E+00  0.00000000000E+00 -0.92131149693E+03  0.92131149694E+03  0.50400001928E-02 0.  1.
    10030    2    1    2    0    0  0.00000000000E+00  0.00000000000E+00  0.20327391334E+04  0.38753621273E+04  0.32994549903E+04 0.  0.
        1    1    3    3  502    0 -0.11775032055E+04  0.36425259244E+03 -0.27157105449E+03  0.12621190862E+04  0.50400001928E-02 0.  1.
       -1    1    3    3    0  502  0.11775032055E+04 -0.36425259244E+03  0.23043101879E+04  0.26132430412E+04  0.50400001928E-02 0. -1.
</event>
<event>
 5   0  0.2244093E-08  0.3300487E+04  0.7818609E-02  0.8162772E-01
        1   -1    0    0  501    0  0.00000000000E+00  0.00000000000E+00  0.27042627626E+04  0.27042627626E+04  0.50400001928E-02 0.  1.
       -1   -1    0    0    0  501  0.00000000000E+00  0.00000000000E+00 -0.10070409824E+04  0.10070409824E+04  0.50400001928E-02 0. -1.
    10030    2    1    2    0    0  0.00000000000E+00  0.00000000000E+00  0.16972217802E+04  0.37113037451E+04  0.33004868909E+04 0.  0.
        1    1    3    3  502    0  0.15865906221E+04 -0.33302766180E+03  0.50179533319E+03  0.16970491396E+04  0.50400001928E-02 0. -1.
       -1    1    3    3    0  502 -0.15865906221E+04  0.33302766180E+03  0.11954264470E+04  0.20142546055E+04  0.50400001928E-02 0.  1.
</event>
<event>
 5   0  0.2244093E-08  0.3295153E+04  0.7818609E-02  0.8164130E-01
       -1   -1    0    0    0  501  0.00000000000E+00  0.00000000000E+00  0.18303313557E+04  0.18303313557E+04  0.50400001928E-02 0.  1.
        1   -1    0    0  501    0  0.00000000000E+00  0.00000000000E+00 -0.14830689153E+04  0.14830689153E+04  0.50400001928E-02 0. -1.
    10030    2    1    2    0    0  0.00000000000E+00  0.00000000000E+00  0.34726244048E+03  0.33134002710E+04  0.32951525235E+04 0.  0.
        1    1    3    3  502    0  0.20040459114E+03  0.72187072571E+03 -0.13018898906E+04  0.15020574663E+04  0.50400001928E-02 0. -1.
       -1    1    3    3    0  502 -0.20040459114E+03 -0.72187072571E+03  0.16491523311E+04  0.18113428047E+04  0.50400001928E-02 0.  1.
</event>
<event>
 5   0  0.2291682E-08  0.3300670E+04  0.7818609E-02  0.8162725E-01
       -1   -1    0    0    0  501  0.00000000000E+00  0.00000000000E+00  0.94047602556E+03  0.94047602558E+03  0.50400001928E-02 0. -1.
        1   -1    0    0  501    0  0.00000000000E+00  0.00000000000E+00 -0.28959866389E+04  0.28959866389E+04  0.50400001928E-02 0.  1.
    10030    2    1    2    0    0  0.00000000000E+00  0.00000000000E+00 -0.19555106134E+04  0.38364626645E+04  0.33006702376E+04 0.  0.
        2    1    3    3  502    0  0.73301925459E+03 -0.84941050314E+02  0.73803736254E+03  0.10436624733E+04  0.25500000920E-02 0. -1.
       -2    1    3    3    0  502 -0.73301925459E+03  0.84941050314E+02 -0.26935479759E+04  0.27928001912E+04  0.25500000920E-02 0.  1.
</event>
<event>
 5   0  0.2383270E-08  0.3299455E+04  0.7818609E-02  0.8163034E-01
        1   -1    0    0  501    0  0.00000000000E+00  0.00000000000E+00  0.23840595060E+04  0.23840595060E+04  0.50400001928E-02 0. -1.
       -1   -1    0    0    0  501  0.00000000000E+00  0.00000000000E+00 -0.11415828412E+04  0.11415828412E+04  0.50400001928E-02 0.  1.
    10030    2    1    2    0    0  0.00000000000E+00  0.00000000000E+00  0.12424766648E+04  0.35256423472E+04  0.32994553638E+04 0.  0.
        5    1    3    3  502    0 -0.12127690713E+04 -0.62279552274E+03  0.16138406561E+04  0.21126255789E+04  0.46999998093E+01 0. -1.
       -5    1    3    3    0  502  0.12127690713E+04  0.62279552274E+03 -0.37136399129E+03  0.14130167683E+04  0.46999998093E+01 0.  1.
</event>
<event>
 5   0  0.7084130E-08  0.3300386E+04  0.7818609E-02  0.8162797E-01
        2   -1    0    0  501    0  0.00000000000E+00  0.00000000000E+00  0.15856554892E+04  0.15856554892E+04  0.25500000920E-02 0. -1.
       -2   -1    0    0    0  501  0.00000000000E+00  0.00000000000E+00 -0.17173569674E+04  0.17173569674E+04  0.25500000920E-02 0.  1.
    10030    2    1    2    0    0  0.00000000000E+00  0.00000000000E+00 -0.13170147824E+03  0.33030124566E+04  0.33003857364E+04 0.  0.
        3    1    3    3  502    0 -0.10127977273E+04 -0.41115653577E+03 -0.13030901120E+04  0.17008388471E+04  0.10100000352E+00 0.  1.
       -3    1    3    3    0  502  0.10127977273E+04  0.41115653577E+03  0.11713886338E+04  0.16021736095E+04  0.10100000352E+00 0. -1.
</event>
<event>
 5   0  0.2279938E-08  0.3301053E+04  0.7818609E-02  0.8162628E-01
       -1   -1    0    0    0  501  0.00000000000E+00  0.00000000000E+00  0.12527553512E+04  0.12527553512E+04  0.50400001928E-02 0.  1.
        1   -1    0    0  501    0  0.00000000000E+00  0.00000000000E+00 -0.21745964146E+04  0.21745964146E+04  0.50400001928E-02 0. -1.
    10030    2    1    2    0    0  0.00000000000E+00  0.00000000000E+00 -0.92184106338E+03  0.34273517658E+04  0.33010527382E+04 0.  0.
        3    1    3    3  502    0  0.13436675804E+04  0.89782626497E+03 -0.80947721064E+03  0.18074257754E+04  0.10100000352E+00 0.  1.
       -3    1    3    3    0  502 -0.13436675804E+04 -0.89782626497E+03 -0.11236385273E+03  0.16199259904E+04  0.10100000352E+00 0. -1.
</event>
<event>
 5   0  0.2291682E-08  0.3312903E+04  0.7818609E-02  0.8159620E-01
        1   -1    0    0  501    0  0.00000000000E+00  0.00000000000E+00  0.11149076378E+04  0.11149076378E+04  0.50400001928E-02 0.  1.
       -1   -1    0    0    0  501  0.00000000000E+00  0.00000000000E+00 -0.24610393670E+04  0.24610393670E+04  0.50400001928E-02 0. -1.
    10030    2    1    2    0    0  0.00000000000E+00  0.00000000000E+00 -0.13461317292E+04  0.35759470049E+04  0.33129030093E+04 0.  0.
        2    1    3    3  502    0 -0.16212354313E+03 -0.10378555699E+04 -0.20555421099E+04  0.23083937257E+04  0.25500000920E-02 0. -1.
       -2    1    3    3    0  502  0.16212354313E+03  0.10378555699E+04  0.70941038077E+03  0.12675532792E+04  0.25500000920E-02 0.  1.
</event>
<event>
 5   0  0.6821287E-08  0.3298583E+04  0.7818609E-02  0.8163256E-01
        2   -1    0    0  501    0  0.00000000000E+00  0.00000000000E+00  0.11199465802E+04  0.11199465802E+04  0.25500000920E-02 0.  1.
       -2   -1    0    0    0  501  0.00000000000E+00  0.00000000000E+00 -0.24288318181E+04  0.24288318181E+04  0.25500000920E-02 0. -1.
    10030    2    1    2    0    0  0.00000000000E+00  0.00000000000E+00 -0.13088852379E+04  0.35487783984E+04  0.32985826584E+04 0.  0.
        5    1    3    3  502    0 -0.12262904707E+04 -0.21566349818E+03 -0.18180725388E+04  0.22035673144E+04  0.46999998093E+01 0. -1.
       -5    1    3    3    0  502  0.12262904707E+04  0.21566349818E+03  0.50918730085E+03  0.13452110839E+04  0.46999998093E+01 0.  1.
</event>
<event>
 5   0  0.7084130E-08  0.3298975E+04  0.7818609E-02  0.8163156E-01
        2   -1    0    0  501    0  0.00000000000E+00  0.00000000000E+00  0.20244811720E+04  0.20244811720E+04  0.25500000920E-02 0. -1.
       -2   -1    0    0    0  501  0.00000000000E+00  0.00000000000E+00 -0.13439534678E+04  0.13439534678E+04  0.25500000920E-02 0.  1.
    10030    2    1    2    0    0  0.00000000000E+00  0.00000000000E+00  0.68052770424E+03  0.33684346399E+04  0.32989746842E+04 0.  0.
        3    1    3    3  502    0  0.83933180590E+03 -0.14199690724E+04  0.34464778429E+03  0.16851030095E+04  0.10100000352E+00 0. -1.
       -3    1    3    3    0  502 -0.83933180590E+03  0.14199690724E+04  0.33587991994E+03  0.16833316304E+04  0.10100000352E+00 0.  1.
</event>
<event>
 5   0  0.2244093E-08  0.3300300E+04  0.7818609E-02  0.8162819E-01
       -1   -1    0    0    0  501  0.00000000000E+00  0.00000000000E+00  0.13649554907E+04  0.13649554907E+04  0.50400001928E-02 0. -1.
        1   -1    0    0  501    0  0.00000000000E+00  0.00000000000E+00 -0.19949327072E+04  0.19949327072E+04  0.50400001928E-02 0.  1.
    10030    2    1    2    0    0  0.00000000000E+00  0.00000000000E+00 -0.62997721654E+03  0.33598881979E+04  0.33002995938E+04 0.  0.
        1    1    3    3  502    0  0.55827188033E+03  0.12895114769E+04 -0.11957607999E+04  0.18450884076E+04  0.50400001928E-02 0.  1.
       -1    1    3    3    0  502 -0.55827188033E+03 -0.12895114769E+04  0.56578358331E+03  0.15147997903E+04  0.50400001928E-02 0. -1.
</event>
<event>
 5   0  0.6706080E-08  0.3294726E+04  0.7818609E-02  0.8164239E-01
        2   -1    0    0  501    0  0.00000000000E+00  0.00000000000E+00  0.18943056247E+04  0.18943056247E+04  0.25500000920E-02 0. -1.
       -2   -1    0    0    0  501  0.00000000000E+00  0.00000000000E+00 -0.14326123218E+04  0.14326123218E+04  0.25500000920E-02 0.  1.
    10030    2    1    2    0    0  0.00000000000E+00  0.00000000000E+00  0.46169330290E+03  0.33269179465E+04  0.32947264403E+04 0.  0.
        4    1    3    3  502    0 -0.12701294562E+04 -0.96778964997E+03 -0.17802731941E+03  0.16067174554E+04  0.12699999809E+01 0.  1.
       -4    1    3    3    0  502  0.12701294562E+04  0.96778964997E+03  0.63972062231E+03  0.17202004911E+04  0.12699999809E+01 0. -1.
</event>
<event>
 5   0  0.6603516E-08  0.3298652E+04  0.7818609E-02  0.8163239E-01
       -2   -1    0    0    0  501  0.00000000000E+00  0.00000000000E+00  0.16400391199E+04  0.16400391199E+04  0.25500000920E-02 0. -1.
        2   -1    0    0  501    0  0.00000000000E+00  0.00000000000E+00 -0.16586652352E+04  0.16586652352E+04  0.25500000920E-02 0.  1.
    10030    2    1    2    0    0  0.00000000000E+00  0.00000000000E+00 -0.18626115305E+02  0.32987043552E+04  0.32986517686E+04 0.  0.
        1    1    3    3  502    0  0.26853544966E+03  0.14236785953E+04 -0.79755391657E+03  0.16538029751E+04  0.50400001928E-02 0.  1.
       -1    1    3    3    0  502 -0.26853544966E+03 -0.14236785953E+04  0.77892780127E+03  0.16449013801E+04  0.50400001928E-02 0. -1.
</event>
<event>
 5   0  0.7084130E-08  0.3297760E+04  0.7818609E-02  0.8163466E-01
        2   -1    0    0  501    0  0.00000000000E+00  0.00000000000E+00  0.21368076388E+04  0.21368076388E+04  0.25500000920E-02 0. -1.
       -2   -1    0    0    0  501  0.00000000000E+00  0.00000000000E+00 -0.12723677035E+04  0.12723677035E+04  0.25500000920E-02 0.  1.
    10030    2    1    2    0    0  0.00000000000E+00  0.00000000000E+00  0.86443993534E+03  0.34091753423E+04  0.32977598628E+04 0.  0.
        3    1    3    3  502    0  0.96120072925E+03  0.13393332740E+04  0.46626522096E+03  0.17132202798E+04  0.10100000352E+00 0. -1.
       -3    1    3    3    0  502 -0.96120072925E+03 -0.13393332740E+04  0.39817471438E+03  0.16959550625E+04  0.10100000352E+00 0.  1.
</event>
<event>
 5   0  0.2383270E-08  0.3300010E+04  0.7818609E-02  0.8162893E-01
       -1   -1    0    0    0  501  0.00000000000E+00  0.00000000000E+00  0.11459920228E+04  0.11459920228E+04  0.50400001928E-02 0. -1.
        1   -1    0    0  501    0  0.00000000000E+00  0.00000000000E+00 -0.23756848249E+04  0.23756848249E+04  0.50400001928E-02 0.  1.
    10030    2    1    2    0    0  0.00000000000E+00  0.00000000000E+00 -0.12296928022E+04  0.35216768477E+04  0.33000096109E+04 0.  0.
        5    1    3    3  502    0  0.11083543897E+04  0.10279828299E+04 -0.13205492316E+04  0.20072544719E+04  0.46999998093E+01 0.  1.
       -5    1    3    3    0  502 -0.11083543897E+04 -0.10279828299E+04  0.90856429453E+02  0.15144223758E+04  0.46999998093E+01 0. -1.
</event>
<event>
 5   0  0.2291682E-08  0.3300186E+04  0.7818609E-02  0.8162848E-01
        1   -1    0    0  501    0  0.00000000000E+00  0.00000000000E+00  0.16171711521E+04  0.16171711521E+04  0.50400001928E-02 0.  1.
       -1   -1    0    0    0  501  0.00000000000E+00  0.00000000000E+00 -0.16836854899E+04  0.16836854899E+04  0.50400001928E-02 0. -1.
    10030    2    1    2    0    0  0.00000000000E+00  0.00000000000E+00 -0.66514337801E+02  0.33008566421E+04  0.33001864212E+04 0.  0.
        2    1    3    3  502    0  0.94280665370E+03  0.12722346980E+04 -0.49740107452E+03  0.16597811127E+04  0.25500000920E-02 0.  1.
       -2    1    3    3    0  502 -0.94280665370E+03 -0.12722346980E+04  0.43088673672E+03  0.16410755294E+04  0.25500000920E-02 0. -1.
</event>
<event>
 5   0  0.2244093E-08  0.3297053E+04  0.7818609E-02  0.8163646E-01
       -1   -1    0    0    0  501  0.00000000000E+00  0.00000000000E+00  0.11918494646E+04  0.11918494646E+04  0.50400001928E-02 0.  1.
        1   -1    0    0  501    0  0.00000000000E+00  0.00000000000E+00 -0.22801863135E+04  0.22801863135E+04  0.50400001928E-02 0. -1.
    10030    2    1    2    0    0  0.00000000000E+00  0.00000000000E+00 -0.10883368489E+04  0.34720357781E+04  0.32970525242E+04 0.  0.
        1    1    3    3  502    0 -0.30808069171E+03 -0.16183342818E+04 -0.60839097767E+03  0.17561489521E+04  0.50400001928E-02 0.  1.
       -1    1    3    3    0  502  0.30808069171E+03  0.16183342818E+04 -0.47994587127E+03  0.17158868260E+04  0.50400001928E-02 0. -1.
</event>
<event>
 5   0  0.6765252E-08  0.3302501E+04  0.7818609E-02  0.8162259E-01
        2   -1    0    0  501    0  0.00000000000E+00  0.00000000000E+00  0.26481113155E+04  0.26481113155E+04  0.25500000920E-02 0. -1.
       -2   -1    0    0    0  501  0.00000000000E+00  0.00000000000E+00 -0.10296499611E+04  0.10296499611E+04  0.25500000920E-02 0.  1.
    10030    2    1    2    0    0  0.00000000000E+00  0.00000000000E+00  0.16184613544E+04  0.36777612766E+04  0.33025006968E+04 0.  0.
        2    1    3    3  502    0 -0.20901665841E+03 -0.73283386070E+03  0.24405717817E+04  0.25567800165E+04  0.25500000920E-02 0. -1.
       -2    1    3    3    0  502  0.20901665841E+03  0.73283386070E+03 -0.82211042732E+03  0.11209812601E+04  0.25500000920E-02 0.  1.
</event>
<event>
 5   0  0.6706080E-08  0.3300190E+04  0.7818609E-02  0.8162847E-01
       -2   -1    0    0    0  501  0.00000000000E+00  0.00000000000E+00  0.22821236437E+04  0.22821236437E+04  0.25500000920E-02 0. -1.
        2   -1    0    0  501    0  0.00000000000E+00  0.00000000000E+00 -0.11931053830E+04  0.11931053830E+04  0.25500000920E-02 0.  1.
    10030    2    1    2    0    0  0.00000000000E+00  0.00000000000E+00  0.10890182606E+04  0.34752290267E+04  0.33001903000E+04 0.  0.
        4    1    3    3  502    0  0.38857157822E+03  0.54115922275E+03 -0.10451860864E+04  0.12394582461E+04  0.12699999809E+01 0.  1.
       -4    1    3    3    0  502 -0.38857157822E+03 -0.54115922275E+03  0.21342043470E+04  0.22357707806E+04  0.12699999809E+01 0. -1.
</event>
<event>
 5   0  0.2291682E-08  0.3303259E+04  0.7818609E-02  0.8162067E-01
        1   -1    0    0  501    0  0.00000000000E+00  0.00000000000E+00  0.19393385467E+04  0.19393385467E+04  0.50400001928E-02 0.  1.
       -1   -1    0    0    0  501  0.00000000000E+00  0.00000000000E+00 -0.14066036302E+04  0.14066036302E+04  0.50400001928E-02 0. -1.
    10030    2    1    2    0    0  0.00000000000E+00  0.00000000000E+00  0.53273491655E+03  0.33459421769E+04  0.33032593843E+04 0.  0.
        2    1    3    3  502    0  0.14926052407E+03  0.50554171181E+03 -0.13191148926E+04  0.14205334302E+04  0.25500000920E-02 0. -1.
       -2    1    3    3    0  502 -0.14926052407E+03 -0.50554171181E+03  0.18518498091E+04  0.19254087467E+04  0.25500000920E-02 0.  1.
</event>
<event>
 5   0  0.2383270E-08  0.3299179E+04  0.7818609E-02  0.8163104E-01
        1   -1    0    0  501    0  0.00000000000E+00  0.00000000000E+00  0.21246329147E+04  0.21246329147E+04  0.50400001928E-02 0.  1.
       -1   -1    0    0    0  501  0.00000000000E+00  0.00000000000E+00 -0.12807604386E+04  0.12807604386E+04  0.50400001928E-02 0. -1.
    10030    2    1    2    0    0  0.00000000000E+00  0.00000000000E+00  0.84387247609E+03  0.34053933533E+04  0.32991791608E+04 0.  0.
        5    1    3    3  502    0  0.14557698019E+04  0.70330916929E+03  0.83958949184E+02  0.16189443162E+04  0.46999998093E+01 0. -1.
       -5    1    3    3    0  502 -0.14557698019E+04 -0.70330916929E+03  0.75991352691E+03  0.17864490371E+04  0.46999998093E+01 0.  1.
</event>
<event>
 5   0  0.2291682E-08  0.3298677E+04  0.7818609E-02  0.8163232E-01
        1   -1    0    0  501    0  0.00000000000E+00  0.00000000000E+00  0.18170391880E+04  0.18170391880E+04  0.50400001928E-02 0.  1.
       -1   -1    0    0    0  501  0.00000000000E+00  0.00000000000E+00 -0.14971157494E+04  0.14971157494E+04  0.50400001928E-02 0. -1.
    10030    2    1    2    0    0  0.00000000000E+00  0.00000000000E+00  0.31992343865E+03  0.33141549374E+04  0.32986773020E+04 0.  0.
        2    1    3    3  502    0 -0.27496479228E+03  0.47333030161E+03 -0.14031889438E+04  0.15061827324E+04  0.25500000920E-02 0. -1.
       -2    1    3    3    0  502  0.27496479228E+03 -0.47333030161E+03  0.17231123824E+04  0.18079722050E+04  0.25500000920E-02 0.  1.
</event>
<event>
 5   0  0.6765252E-08  0.3300254E+04  0.7818609E-02  0.8162831E-01
       -2   -1    0    0    0  501  0.00000000000E+00  0.00000000000E+00  0.10650335970E+04  0.10650335970E+04  0.25500000920E-02 0.  1.
        2   -1    0    0  501    0  0.00000000000E+00  0.00000000000E+00 -0.25566511239E+04  0.25566511239E+04  0.25500000920E-02 0. -1.
    10030    2    1    2    0    0  0.00000000000E+00  0.00000000000E+00 -0.14916175270E+04  0.36216847209E+04  0.33002541373E+04 0.  0.
        2    1    3    3  502    0 -0.12597951313E+04  0.29953533891E+03 -0.18682220400E+04  0.22731165353E+04  0.25500000920E-02 0. -1.
       -2    1    3    3    0  502  0.12597951313E+04 -0.29953533891E+03  0.37660451302E+03  0.13485681857E+04  0.25500000920E-02 0.  1.
</event>
<event>
 5   0  0.7084130E-08  0.3299745E+04  0.7818609E-02  0.8162960E-01
        2   -1    0    0  501    0  0.00000000000E+00  0.00000000000E+00  0.25234008177E+04  0.25234008177E+04  0.25500000920E-02 0.  1.
       -2   -1    0    0    0  501  0.00000000000E+00  0.00000000000E+00 -0.10787344193E+04  0.10787344193E+04  0.25500000920E-02 0. -1.
    10030    2    1    2    0    0  0.00000000000E+00  0.00000000000E+00  0.14446663984E+04  0.36021352370E+04  0.32997450301E+04 0.  0.
        3    1    3    3  502    0  0.86469749117E+03  0.13039698674E+04  0.15087203681E+03  0.15718783502E+04  0.10100000352E+00 0. -1.
       -3    1    3    3    0  502 -0.86469749117E+03 -0.13039698674E+04  0.12937943616E+04  0.20302568868E+04  0.10100000352E+00 0.  1.
</event>
<event>
 5   0  0.6765252E-08  0.3301874E+04  0.7818609E-02  0.8162419E-01
       -2   -1    0    0    0  501  0.00000000000E+00  0.00000000000E+00  0.10369819809E+04  0.10369819809E+04  0.25500000920E-02 0.  1.
        2   -1    0    0  501    0  0.00000000000E+00  0.00000000000E+00 -0.26283895160E+04  0.26283895160E+04  0.25500000920E-02 0. -1.
    10030    2    1    2    0    0  0.00000000000E+00  0.00000000000E+00 -0.15914075351E+04  0.36653714969E+04  0.33018737510E+04 0.  0.
        2    1    3    3  502    0 -0.11957053242E+04 -0.94038471613E+03 -0.15078562980E+04  0.21418835758E+04  0.25500000920E-02 0. -1.
       -2    1    3    3    0  502  0.11957053242E+04  0.94038471613E+03 -0.83551237077E+02  0.15234879211E+04  0.25500000920E-02 0.  1.
</event>
<event>
 5   0  0.2279938E-08  0.3300772E+04  0.7818609E-02  0.8162699E-01
        1   -1    0    0  501    0  0.00000000000E+00  0.00000000000E+00  0.14234305351E+04  0.14234305351E+04  0.50400001928E-02 0. -1.
       -1   -1    0    0    0  501  0.00000000000E+00  0.00000000000E+00 -0.19135276560E+04  0.19135276560E+04  0.50400001928E-02 0.  1.
    10030    2    1    2    0    0  0.00000000000E+00  0.00000000000E+00 -0.49009712094E+03  0.33369581911E+04  0.33007718463E+04 0.  0.
        3    1    3    3  502    0  0.40629136967E+03 -0.76052919753E+03  0.11776089217E+04  0.14595342134E+04  0.10100000352E+00 0. -1.
       -3    1    3    3    0  502 -0.40629136967E+03  0.76052919753E+03 -0.16677060426E+04  0.18774239777E+04  0.10100000352E+00 0.  1.
</event>
<event>
 5   0  0.2383270E-08  0.3298439E+04  0.7818609E-02  0.8163293E-01
       -1   -1    0    0    0  501  0.00000000000E+00  0.00000000000E+00  0.11825601545E+04  0.11825601545E+04  0.50400001928E-02 0. -1.
        1   -1    0    0  501    0  0.00000000000E+00  0.00000000000E+00 -0.23000306570E+04  0.23000306570E+04  0.50400001928E-02 0.  1.
    10030    2    1    2    0    0  0.00000000000E+00  0.00000000000E+00 -0.11174705025E+04  0.34825908115E+04  0.32984387878E+04 0.  0.
        5    1    3    3  502    0 -0.14089020657E+04 -0.44535285634E+03  0.21466175832E+03  0.14931329337E+04  0.46999998093E+01 0. -1.
       -5    1    3    3    0  502  0.14089020657E+04  0.44535285634E+03 -0.13321322608E+04  0.19894578778E+04  0.46999998093E+01 0.  1.
</event>
<event>
 5   0  0.6821287E-08  0.3304695E+04  0.7818609E-02  0.8161702E-01
       -2   -1    0    0    0  501  0.00000000000E+00  0.00000000000E+00  0.13381863221E+04  0.13381863221E+04  0.25500000920E-02 0. -1.
        2   -1    0    0  501    0  0.00000000000E+00  0.00000000000E+00 -0.20402630461E+04  0.20402630461E+04  0.25500000920E-02 0.  1.
    10030    2    1    2    0    0  0.00000000000E+00  0.00000000000E+00 -0.70207672406E+03  0.33784493682E+04  0.33046949037E+04 0.  0.
        5    1    3    3  502    0 -0.76689072038E+03  0.86667771744E+03 -0.15567577158E+04  0.19397856373E+04  0.46999998093E+01 0.  1.
       -5    1    3    3    0  502  0.76689072038E+03 -0.86667771744E+03  0.85468099173E+03  0.14386637309E+04  0.46999998093E+01 0. -1.
</event>
<event>
 5   0  0.2383270E-08  0.3298994E+04  0.7818609E-02  0.8163152E-01
       -1   -1    0    0    0  501  0.00000000000E+00  0.00000000000E+00  0.16921998601E+04  0.16921998601E+04  0.50400001928E-02 0. -1.
        1   -1    0    0  501    0  0.00000000000E+00  0.00000000000E+00 -0.16078713700E+04  0.16078713700E+04  0.50400001928E-02 0.  1.
    10030    2    1    2    0    0  0.00000000000E+00  0.00000000000E+00  0.84328490075E+02  0.33000712301E+04  0.32989936086E+04 0.  0.
        5    1    3    3  502    0 -0.19516202841E+03 -0.61251025619E+03  0.15617261454E+04  0.16888657953E+04  0.46999998093E+01 0. -1.
       -5    1    3    3    0  502  0.19516202841E+03  0.61251025619E+03 -0.14773976553E+04  0.16112054348E+04  0.46999998093E+01 0.  1.
</event>
<event>
 5   0  0.2291682E-08  0.3298887E+04  0.7818609E-02  0.8163179E-01
       -1   -1    0    0    0  501  0.00000000000E+00  0.00000000000E+00  0.26950431563E+04  0.26950431563E+04  0.50400001928E-02 0. -1.
        1   -1    0    0  501    0  0.00000000000E+00  0.00000000000E+00 -0.10095063002E+04  0.10095063002E+04  0.50400001928E-02 0.  1.
    10030    2    1    2    0    0  0.00000000000E+00  0.00000000000E+00  0.16855368560E+04  0.37045494565E+04  0.32988865065E+04 0.  0.
        2    1    3    3  502    0 -0.70358032220E+03  0.71679249373E+02  0.25161438955E+04  0.26136455934E+04  0.25500000920E-02 0. -1.
       -2    1    3    3    0  502  0.70358032220E+03 -0.71679249373E+02 -0.83060703951E+03  0.10909038632E+04  0.25500000920E-02 0.  1.
</event>
<event>
 5   0  0.6821287E-08  0.3299905E+04  0.7818609E-02  0.8162919E-01
       -2   -1    0    0    0  501  0.00000000000E+00  0.00000000000E+00  0.13974021896E+04  0.13974021896E+04  0.25500000920E-02 0. -1.
        2   -1    0    0  501    0  0.00000000000E+00  0.00000000000E+00 -0.19481463292E+04  0.19481463292E+04  0.25500000920E-02 0.  1.
    10030    2    1    2    0    0  0.00000000000E+00  0.00000000000E+00 -0.55074413958E+03  0.33455485189E+04  0.32999054206E+04 0.  0.
        5    1    3    3  502    0 -0.67631862316E+03 -0.14928234334E+02  0.12503324221E+04  0.14216128122E+04  0.46999998093E+01 0. -1.
       -5    1    3    3    0  502  0.67631862316E+03  0.14928234334E+02 -0.18010765617E+04  0.19239357066E+04  0.46999998093E+01 0.  1.
</event>
<event>
 5   0  0.2244093E-08  0.3300266E+04  0.7818609E-02  0.8162828E-01
        1   -1    0    0  501    0  0.00000000000E+00  0.00000000000E+00  0.18504899963E+04  0.18504899963E+04  0.50400001928E-02 0. -1.
       -1   -1    0    0    0  501  0.00000000000E+00  0.00000000000E+00 -0.14714689027E+04  0.14714689027E+04  0.50400001928E-02 0.  1.
    10030    2    1    2    0    0  0.00000000000E+00  0.00000000000E+00  0.37902109361E+03  0.33219588991E+04  0.33002657374E+04 0.  0.
        1    1    3    3  502    0  0.43598099310E+03  0.18891670366E+03 -0.14011201460E+04  0.14794953906E+04  0.50400001928E-02 0.  1.
       -1    1    3    3    0  502 -0.43598099310E+03 -0.18891670366E+03  0.17801412396E+04  0.18424635085E+04  0.50400001928E-02 0. -1.
</event>
<event>
 5   0  0.7084130E-08  0.3299831E+04  0.7818609E-02  0.8162938E-01
       -2   -1    0    0    0  501  0.00000000000E+00  0.00000000000E+00  0.22149863213E+04  0.22149863213E+04  0.25500000920E-02 0. -1.
        2   -1    0    0  501    0  0.00000000000E+00  0.00000000000E+00 -0.12290016755E+04  0.12290016755E+04  0.25500000920E-02 0.  1.
    10030    2    1    2    0    0  0.00000000000E+00  0.00000000000E+00  0.98598464575E+03  0.34439879968E+04  0.32998314503E+04 0.  0.
        3    1    3    3  502    0 -0.91761527227E+03  0.12639531971E+04  0.10478431638E+04  0.18808431031E+04  0.10100000352E+00 0. -1.
       -3    1    3    3    0  502  0.91761527227E+03 -0.12639531971E+04 -0.61858518027E+02  0.15631448937E+04  0.10100000352E+00 0.  1.
</event>
<event>
 5   0  0.6603516E-08  0.3298597E+04  0.7818609E-02  0.8163253E-01
       -2   -1    0    0    0  501  0.00000000000E+00  0.00000000000E+00  0.12980385949E+04  0.12980385949E+04  0.25500000920E-02 0. -1.
        2   -1    0    0  501    0  0.00000000000E+00  0.00000000000E+00 -0.20956116685E+04  0.20956116685E+04  0.25500000920E-02 0.  1.
    10030    2    1    2    0    0  0.00000000000E+00  0.00000000000E+00 -0.79757307355E+03  0.33936502634E+04  0.32985965656E+04 0.  0.
        1    1    3    3  502    0 -0.13767432428E+04  0.12918486895E+03  0.52604681928E+03  0.14794715080E+04  0.50400001928E-02 0. -1.
       -1    1    3    3    0  502  0.13767432428E+04 -0.12918486895E+03 -0.13236198928E+04  0.19141787554E+04  0.50400001928E-02 0.  1.
</event>
<event>
 5   0  0.7084130E-08  0.3298892E+04  0.7818609E-02  0.8163177E-01
        2   -1    0    0  501    0  0.00000000000E+00  0.00000000000E+00  0.16844693869E+04  0.16844693869E+04  0.25500000920E-02 0. -1.
       -2   -1    0    0    0  501  0.00000000000E+00  0.00000000000E+00 -0.16151510595E+04  0.16151510595E+04  0.25500000920E-02 0.  1.
    10030    2    1    2    0    0  0.00000000000E+00  0.00000000000E+00  0.69318327400E+02  0.32996204465E+04  0.32988922475E+04 0.  0.
        3    1    3    3  502    0 -0.13084731668E+04 -0.15477531057E+03 -0.95783759534E+03  0.16289598811E+04  0.10100000352E+00 0.  1.
       -3    1    3    3    0  502  0.13084731668E+04  0.15477531057E+03  0.10271559227E+04  0.16706605654E+04  0.10100000352E+00 0. -1.
</event>
<event>
 5   0  0.2291682E-08  0.3301617E+04  0.7818609E-02  0.8162484E-01
       -1   -1    0    0    0  501  0.00000000000E+00  0.00000000000E+00  0.11741562622E+04  0.11741562622E+04  0.50400001928E-02 0. -1.
        1   -1    0    0  501    0  0.00000000000E+00  0.00000000000E+00 -0.23209594906E+04  0.23209594906E+04  0.50400001928E-02 0.  1.
    10030    2    1    2    0    0  0.00000000000E+00  0.00000000000E+00 -0.11468032284E+04  0.34951157528E+04  0.33016172524E+04 0.  0.
        2    1    3    3  502    0 -0.12311119310E+03 -0.92843578139E+03  0.86568900713E+03  0.12753692889E+04  0.25500000920E-02 0. -1.
       -2    1    3    3    0  502  0.12311119310E+03  0.92843578139E+03 -0.20124922355E+04  0.22197464639E+04  0.25500000920E-02 0.  1.
</event>
<event>
 5   0  0.6706080E-08  0.3301492E+04  0.7818609E-02  0.8162516E-01
        2   -1    0    0  501    0  0.00000000000E+00  0.00000000000E+00  0.14193128846E+04  0.14193128846E+04  0.25500000920E-02 0.  1.
       -2   -1    0    0    0  501  0.00000000000E+00  0.00000000000E+00 -0.19199163699E+04  0.19199163699E+04  0.25500000920E-02 0. -1.
    10030    2    1    2    0    0  0.00000000000E+00  0.00000000000E+00 -0.50060348537E+03  0.33392292545E+04  0.33014918089E+04 0.  0.
        4    1    3    3  502    0 -0.78267723768E+03  0.22620697427E+03  0.12017992929E+04  0.14519216256E+04  0.12699999809E+01 0.  1.
       -4    1    3    3    0  502  0.78267723768E+03 -0.22620697427E+03 -0.17024027783E+04  0.18873076289E+04  0.12699999809E+01 0. -1.
</event>
<event>
 5   0  0.2383270E-08  0.3299592E+04  0.7818609E-02  0.8162999E-01
       -1   -1    0    0    0  501  0.00000000000E+00  0.00000000000E+00  0.98355183531E+03  0.98355183532E+03  0.50400001928E-02 0.  1.
        1   -1    0    0  501    0  0.00000000000E+00  0.00000000000E+00 -0.27673442257E+04  0.27673442257E+04  0.50400001928E-02 0. -1.
    10030    2    1    2    0    0  0.00000000000E+00  0.00000000000E+00 -0.17837923904E+04  0.37508960610E+04  0.32995917882E+04 0.  0.
        5    1    3    3  502    0  0.12833924755E+04 -0.10068031619E+04 -0.61100547841E+03  0.17418664236E+04  0.46999998093E+01 0.  1.
       -5    1    3    3    0  502 -0.12833924755E+04  0.10068031619E+04 -0.11727869120E+04  0.20090296374E+04  0.46999998093E+01 0. -1.
</event>
<event>
 5   0  0.2291682E-08  0.3316609E+04  0.7818609E-02  0.8158682E-01
       -1   -1    0    0    0  501  0.00000000000E+00  0.00000000000E+00  0.11312349211E+04  0.11312349211E+04  0.50400001928E-02 0.  1.
        1   -1    0    0  501    0  0.00000000000E+00  0.00000000000E+00 -0.24309481085E+04  0.24309481085E+04  0.50400001928E-02 0. -1.
    10030    2    1    2    0    0  0.00000000000E+00  0.00000000000E+00 -0.12997131874E+04  0.35621830296E+04  0.33166087450E+04 0.  0.
        2    1    3    3  502    0 -0.63096026967E+03 -0.89653281910E+03  0.68649363592E+03  0.12935051101E+04  0.25500000920E-02 0.  1.
       -2    1    3    3    0  502  0.63096026967E+03  0.89653281910E+03 -0.19862068234E+04  0.22686779196E+04  0.25500000920E-02 0. -1.
</event>
<event>
 5   0  0.2291682E-08  0.3302240E+04  0.7818609E-02  0.8162326E-01
       -1   -1    0    0    0  501  0.00000000000E+00  0.00000000000E+00  0.22602588740E+04  0.22602588740E+04  0.50400001928E-02 0.  1.
        1   -1    0    0  501    0  0.00000000000E+00  0.00000000000E+00 -0.12061434892E+04  0.12061434893E+04  0.50400001928E-02 0. -1.
    10030    2    1    2    0    0  0.00000000000E+00  0.00000000000E+00  0.10541153847E+04  0.34664023632E+04  0.33022395582E+04 0.  0.
        2    1    3    3  502    0 -0.48844200761E+03  0.12748426680E+04  0.15018768167E+04  0.20296387352E+04  0.25500000920E-02 0.  1.
       -2    1    3    3    0  502  0.48844200761E+03 -0.12748426680E+04 -0.44776143196E+03  0.14367636280E+04  0.25500000920E-02 0. -1.
</event>
<event>
 5   0  0.2279938E-08  0.3296891E+04  0.7818609E-02  0.8163687E-01
       -1   -1    0    0    0  501  0.00000000000E+00  0.00000000000E+00  0.15746418791E+04  0.15746418791E+04  0.50400001928E-02 0.  1.
        1   -1    0    0  501    0  0.00000000000E+00  0.00000000000E+00 -0.17257079001E+04  0.17257079001E+04  0.50400001928E-02 0. -1.
    10030    2    1    2    0    0  0.00000000000E+00  0.00000000000E+00 -0.15106602105E+03  0.33003497792E+04  0.32968906143E+04 0.  0.
        3    1    3    3  502    0  0.73658059418E+03 -0.10813030928E+04  0.92831751567E+03  0.16042259100E+04  0.10100000352E+00 0.  1.
       -3    1    3    3    0  502 -0.73658059418E+03  0.10813030928E+04 -0.10793835367E+04  0.16961238692E+04  0.10100000352E+00 0. -1.
</event>
<event>
 5   0  0.2383270E-08  0.3297738E+04  0.7818609E-02  0.8163471E-01
       -1   -1    0    0    0  501  0.00000000000E+00  0.00000000000E+00  0.15828683937E+04  0.15828683937E+04  0.50400001928E-02 0. -1.
        1   -1    0    0  501    0  0.00000000000E+00  0.00000000000E+00 -0.17176211565E+04  0.17176211565E+04  0.50400001928E-02 0.  1.
    10030    2    1    2    0    0  0.00000000000E+00  0.00000000000E+00 -0.13475276276E+03  0.33004895502E+04  0.32977375523E+04 0.  0.
        5    1    3    3  502    0  0.15959387876E+04 -0.28959355362E+03 -0.36403749135E+03  0.16623568886E+04  0.46999998093E+01 0.  1.
       -5    1    3    3    0  502 -0.15959387876E+04  0.28959355362E+03  0.22928472859E+03  0.16381326615E+04  0.46999998093E+01 0. -1.
</event>
<event>
 5   0  0.6821287E-08  0.3300766E+04  0.7818609E-02  0.8162700E-01
        2   -1    0    0  501    0  0.00000000000E+00  0.00000000000E+00  0.20160213743E+04  0.20160213743E+04  0.25500000920E-02 0. -1.
       -2   -1    0    0    0  501  0.00000000000E+00  0.00000000000E+00 -0.13510593928E+04  0.13510593928E+04  0.25500000920E-02 0.  1.
    10030    2    1    2    0    0  0.00000000000E+00  0.00000000000E+00  0.66496198142E+03  0.33670807671E+04  0.33007663437E+04 0.  0.
        5    1    3    3  502    0  0.45249664486E+03  0.10439164681E+04  0.15520025062E+04  0.19243826738E+04  0.46999998093E+01 0. -1.
       -5    1    3    3    0  502 -0.45249664486E+03 -0.10439164681E+04 -0.88704052475E+03  0.14426980933E+04  0.46999998093E+01 0.  1.
</event>
<event>
 5   0  0.2244093E-08  0.3299625E+04  0.7818609E-02  0.8162991E-01
       -1   -1    0    0    0  501  0.00000000000E+00  0.00000000000E+00  0.10844083181E+04  0.10844083181E+04  0.50400001928E-02 0.  1.
        1   -1    0    0  501    0  0.00000000000E+00  0.00000000000E+00 -0.25100145185E+04  0.25100145185E+04  0.50400001928E-02 0. -1.
    10030    2    1    2    0    0  0.00000000000E+00  0.00000000000E+00 -0.14256062003E+04  0.35944228366E+04  0.32996245983E+04 0.  0.
        1    1    3    3  502    0  0.25729852107E+01  0.84771443791E+03  0.82901332130E+03  0.11857021023E+04  0.50400001928E-02 0.  1.
       -1    1    3    3    0  502 -0.25729852107E+01 -0.84771443791E+03 -0.22546195216E+04  0.24087207343E+04  0.50400001928E-02 0. -1.
</event>
<event>
 5   0  0.2383270E-08  0.3300058E+04  0.7818609E-02  0.8162881E-01
        1   -1    0    0  501    0  0.00000000000E+00  0.00000000000E+00  0.15913811376E+04  0.15913811376E+04  0.50400001928E-02 0. -1.
       -1   -1    0    0    0  501  0.00000000000E+00  0.00000000000E+00 -0.17108385188E+04  0.17108385188E+04  0.50400001928E-02 0.  1.
    10030    2    1    2    0    0  0.00000000000E+00  0.00000000000E+00 -0.11945738122E+03  0.33022196563E+04  0.33000582711E+04 0.  0.
        5    1    3    3  502    0  0.92948149507E+03 -0.87472083885E+03 -0.11061198782E+04  0.16889628979E+04  0.46999998093E+01 0.  1.
       -5    1    3    3    0  502 -0.92948149507E+03  0.87472083885E+03  0.98666249700E+03  0.16132567584E+04  0.46999998093E+01 0. -1.
</event>
<event>
 5   0  0.2309822E-08  0.3298631E+04  0.7818609E-02  0.8163244E-01
        1   -1    0    0  501    0  0.00000000000E+00  0.00000000000E+00  0.17834476615E+04  0.17834476615E+04  0.50400001928E-02 0.  1.
       -1   -1    0    0    0  501  0.00000000000E+00  0.00000000000E+00 -0.15252709658E+04  0.15252709658E+04  0.50400001928E-02 0. -1.
    10030    2    1    2    0    0  0.00000000000E+00  0.00000000000E+00  0.25817669575E+03  0.33087186273E+04  0.32986305869E+04 0.  0.
        4    1    3    3  502    0 -0.50355274989E+03 -0.15278228427E+04 -0.23593571806E+03  0.16258767747E+04  0.12699999809E+01 0. -1.
       -4    1    3    3    0  502  0.50355274989E+03  0.15278228427E+04  0.49411241382E+03  0.16828418526E+04  0.12699999809E+01 0.  1.
</event>
<event>
 5   0  0.2291682E-08  0.3297741E+04  0.7818609E-02  0.8163470E-01
       -1   -1    0    0    0  501  0.00000000000E+00  0.00000000000E+00  0.12690999406E+04  0.12690999406E+04  0.50400001928E-02 0. -1.
        1   -1    0    0  501    0  0.00000000000E+00  0.00000000000E+00 -0.21422848807E+04  0.21422848807E+04  0.50400001928E-02 0.  1.
    10030    2    1    2    0    0  0.00000000000E+00  0.00000000000E+00 -0.87318494011E+03  0.34113848212E+04  0.32977408114E+04 0.  0.
        2    1    3    3  502    0 -0.14315584510E+04  0.72843949835E+03 -0.51208943764E+02  0.16070488659E+04  0.25500000920E-02 0.  1.
       -2    1    3    3    0  502  0.14315584510E+04 -0.72843949835E+03 -0.82197599635E+03  0.18043359554E+04  0.25500000920E-02 0. -1.
</event>
<event>
 5   0  0.6765252E-08  0.3301127E+04  0.7818609E-02  0.8162609E-01
        2   -1    0    0  501    0  0.00000000000E+00  0.00000000000E+00  0.20273317596E+04  0.20273317596E+04  0.25500000920E-02 0.  1.
       -2   -1    0    0    0  501  0.00000000000E+00  0.00000000000E+00 -0.13438155842E+04  0.13438155842E+04  0.25500000920E-02 0. -1.
    10030    2    1    2    0    0  0.00000000000E+00  0.00000000000E+00  0.68351617540E+03  0.33711473437E+04  0.33011270880E+04 0.  0.
        2    1    3    3  502    0 -0.13122513700E+04  0.42738596751E+03  0.12663334566E+04  0.18730357302E+04  0.25500000920E-02 0.  1.
       -2    1    3    3    0  502  0.13122513700E+04 -0.42738596751E+03 -0.58281728118E+03  0.14981116135E+04  0.25500000920E-02 0. -1.
</event>
<event>
 5   0  0.7084130E-08  0.3300204E+04  0.7818609E-02  0.8162843E-01
        2   -1    0    0  501    0  0.00000000000E+00  0.00000000000E+00  0.28919612728E+04  0.28919612728E+04  0.25500000920E-02 0. -1.
       -2   -1    0    0    0  501  0.00000000000E+00  0.00000000000E+00 -0.94151912603E+03  0.94151912604E+03  0.25500000920E-02 0.  1.
    10030    2    1    2    0    0  0.00000000000E+00  0.00000000000E+00  0.19504421467E+04  0.38334803988E+04  0.33002041452E+04 0.  0.
        3    1    3    3  502    0  0.14531592555E+04 -0.47139963447E+03  0.25078865060E+03  0.15481551584E+04  0.10100000352E+00 0.  1.
       -3    1    3    3    0  502 -0.14531592555E+04  0.47139963447E+03  0.16996534961E+04  0.22853252404E+04  0.10100000352E+00 0. -1.
</event>
<event>
 5   0  0.6706080E-08  0.3299504E+04  0.7818609E-02  0.8163022E-01
       -2   -1    0    0    0  501  0.00000000000E+00  0.00000000000E+00  0.15050378358E+04  0.15050378358E+04  0.25500000920E-02 0.  1.
        2   -1    0    0  501    0  0.00000000000E+00  0.00000000000E+00 -0.18083812843E+04  0.18083812843E+04  0.25500000920E-02 0. -1.
    10030    2    1    2    0    0  0.00000000000E+00  0.00000000000E+00 -0.30334344846E+03  0.33134191201E+04  0.32995043594E+04 0.  0.
        4    1    3    3  502    0  0.13977363672E+04  0.27097765120E+03  0.68526053072E+03  0.15800884303E+04  0.12699999809E+01 0.  1.
       -4    1    3    3    0  502 -0.13977363672E+04 -0.27097765120E+03 -0.98860397918E+03  0.17333306898E+04  0.12699999809E+01 0. -1.
</event>
<event>
 5   0  0.2383270E-08  0.3298472E+04  0.7818609E-02  0.8163284E-01
       -1   -1    0    0    0  501  0.00000000000E+00  0.00000000000E+00  0.16959660065E+04  0.16959660065E+04  0.50400001928E-02 0.  1.
        1   -1    0    0  501    0  0.00000000000E+00  0.00000000000E+00 -0.16037938311E+04  0.16037938311E+04  0.50400001928E-02 0. -1.
    10030    2    1    2    0    0  0.00000000000E+00  0.00000000000E+00  0.92172175383E+02  0.32997598377E+04  0.32984722640E+04 0.  0.
        5    1    3    3  502    0  0.25925920390E+03  0.32634189834E+03 -0.15502320582E+04  0.16052899719E+04  0.46999998093E+01 0. -1.
       -5    1    3    3    0  502 -0.25925920390E+03 -0.32634189834E+03  0.16424042336E+04  0.16944698658E+04  0.46999998093E+01 0.  1.
</event>
<event>
 5   0  0.6603516E-08  0.3300990E+04  0.7818609E-02  0.8162644E-01
        2   -1    0    0  501    0  0.00000000000E+00  0.00000000000E+00  0.14056428976E+04  0.14056428976E+04  0.25500000920E-02 0.  1.
       -2   -1    0    0    0  501  0.00000000000E+00  0.00000000000E+00 -0.19379979299E+04  0.19379979299E+04  0.25500000920E-02 0. -1.
    10030    2    1    2    0    0  0.00000000000E+00  0.00000000000E+00 -0.53235503229E+03  0.33436408275E+04  0.33009895642E+04 0.  0.
        1    1    3    3  502    0 -0.27707470528E+03  0.14974002786E+04 -0.91091970694E+03  0.17744725129E+04  0.50400001928E-02 0. -1.
       -1    1    3    3    0  502  0.27707470528E+03 -0.14974002786E+04  0.37856467465E+03  0.15691683146E+04  0.50400001928E-02 0.  1.
</event>
<event>
 5   0  0.6821287E-08  0.3300342E+04  0.7818609E-02  0.8162808E-01
        2   -1    0    0  501    0  0.00000000000E+00  0.00000000000E+00  0.27620222027E+04  0.27620222027E+04  0.25500000920E-02 0. -1.
       -2   -1    0    0    0  501  0.00000000000E+00  0.00000000000E+00 -0.98589535809E+03  0.98589535809E+03  0.25500000920E-02 0.  1.
    10030    2    1    2    0    0  0.00000000000E+00  0.00000000000E+00  0.17761268446E+04  0.37479175608E+04  0.33003423268E+04 0.  0.
        5    1    3    3  502    0  0.11435527207E+04  0.99909617125E+03  0.15461379897E+03  0.15263792128E+04  0.46999998093E+01 0. -1.
       -5    1    3    3    0  502 -0.11435527207E+04 -0.99909617125E+03  0.16215130456E+04  0.22215383480E+04  0.46999998093E+01 0.  1.
</event>
<event>
 5   0  0.2309822E-08  0.3298281E+04  0.7818609E-02  0.8163333E-01
        1   -1    0    0  501    0  0.00000000000E+00  0.00000000000E+00  0.25820958971E+04  0.25820958971E+04  0.50400001928E-02 0. -1.
       -1   -1    0    0    0  501  0.00000000000E+00  0.00000000000E+00 -0.10532776875E+04  0.10532776875E+04  0.50400001928E-02 0.  1.
    10030    2    1    2    0    0  0.00000000000E+00  0.00000000000E+00  0.15288182096E+04  0.36353735846E+04  0.32982807615E+04 0.  0.
        4    1    3    3  502    0 -0.13921891082E+04 -0.85659416937E+03  0.52363825799E+03  0.17164331395E+04  0.12699999809E+01 0. -1.
       -4    1    3    3    0  502  0.13921891082E+04  0.85659416937E+03  0.10051799516E+04  0.19189404452E+04  0.12699999809E+01 0.  1.
</event>
<event>
 5   0  0.2291682E-08  0.3291643E+04  0.7818609E-02  0.8165025E-01
       -1   -1    0    0    0  501  0.00000000000E+00  0.00000000000E+00  0.29395744952E+04  0.29395744952E+04  0.50400001928E-02 0.  1.
        1   -1    0    0  501    0  0.00000000000E+00  0.00000000000E+00 -0.92146968398E+03  0.92146968399E+03  0.50400001928E-02 0. -1.
    10030    2    1    2    0    0  0.00000000000E+00  0.00000000000E+00  0.20181048112E+04  0.38610441792E+04  0.32916432256E+04 0.  0.
        2    1    3    3  502    0  0.12773404184E+04 -0.10161766866E+04  0.12565358045E+04  0.20598776252E+04  0.25500000920E-02 0.  1.
       -2    1    3    3    0  502 -0.12773404184E+04  0.10161766866E+04  0.76156900668E+03  0.18011665539E+04  0.25500000920E-02 0. -1.
</event>
<event>
 5   0  0.2291682E-08  0.3302443E+04  0.7818609E-02  0.8162274E-01
       -1   -1    0    0    0  501  0.00000000000E+00  0.00000000000E+00  0.23018276953E+04  0.23018276953E+04  0.50400001928E-02 0. -1.
        1   -1    0    0  501    0  0.00000000000E+00  0.00000000000E+00 -0.11845077496E+04  0.11845077496E+04  0.50400001928E-02 0.  1.
    10030    2    1    2    0    0  0.00000000000E+00  0.00000000000E+00  0.11173199457E+04  0.34863354449E+04  0.33024431824E+04 0.  0.
        2    1    3    3  502    0  0.58119103310E+03 -0.76442113734E+03 -0.85942232495E+03  0.12886929133E+04  0.25500000920E-02 0.  1.
       -2    1    3    3    0  502 -0.58119103310E+03  0.76442113734E+03  0.19767422706E+04  0.21976425316E+04  0.25500000920E-02 0. -1.
</event>
<event>
 5   0  0.2279938E-08  0.3299322E+04  0.7818609E-02  0.8163068E-01
       -1   -1    0    0    0  501  0.00000000000E+00  0.00000000000E+00  0.14091817534E+04  0.14091817534E+04  0.50400001928E-02 0. -1.
        1   -1    0    0  501    0  0.00000000000E+00  0.00000000000E+00 -0.19311783467E+04  0.19311783467E+04  0.50400001928E-02 0.  1.
    10030    2    1    2    0    0  0.00000000000E+00  0.00000000000E+00 -0.52199659330E+03  0.33403601001E+04  0.32993219235E+04 0.  0.
        3    1    3    3  502    0  0.11220726059E+04 -0.12091502870E+04 -0.27823739104E+03  0.16728739957E+04  0.10100000352E+00 0. -1.
       -3    1    3    3    0  502 -0.11220726059E+04  0.12091502870E+04 -0.24375920226E+03  0.16674861044E+04  0.10100000352E+00 0.  1.
</event>
<event>
 5   0  0.2291682E-08  0.3301500E+04  0.7818609E-02  0.8162514E-01
       -1   -1    0    0    0  501  0.00000000000E+00  0.00000000000E+00  0.98473960822E+03  0.98473960823E+03  0.50400001928E-02 0. -1.
        1   -1    0    0  501    0  0.00000000000E+00  0.00000000000E+00 -0.27672049395E+04  0.27672049395E+04  0.50400001928E-02 0.  1.
    10030    2    1    2    0    0  0.00000000000E+00  0.00000000000E+00 -0.17824653313E+04  0.37519445477E+04  0.33015004516E+04 0.  0.
        2    1    3    3  502    0  0.97081597961E+03  0.75364693742E+03 -0.21436394375E+04  0.24709628509E+04  0.25500000920E-02 0. -1.
       -2    1    3    3    0  502 -0.97081597961E+03 -0.75364693742E+03  0.36117410624E+03  0.12809816968E+04  0.25500000920E-02 0.  1.
</event>
<event>
 5   0  0.6765252E-08  0.3302562E+04  0.7818609E-02  0.8162244E-01
       -2   -1    0    0    0  501  0.00000000000E+00  0.00000000000E+00  0.11521351898E+04  0.11521351898E+04  0.25500000920E-02 0.  1.
        2   -1    0    0  501    0  0.00000000000E+00  0.00000000000E+00 -0.23666751577E+04  0.23666751577E+04  0.25500000920E-02 0. -1.
    10030    2    1    2    0    0  0.00000000000E+00  0.00000000000E+00 -0.12145399679E+04  0.35188103476E+04  0.33025624791E+04 0.  0.
        2    1    3    3  502    0 -0.16356686033E+04  0.14509849678E+02 -0.36639772713E+03  0.16762665689E+04  0.25500000920E-02 0.  1.
       -2    1    3    3    0  502  0.16356686033E+04 -0.14509849678E+02 -0.84814224080E+03  0.18425437786E+04  0.25500000920E-02 0. -1.
</event>
<event>
 5   0  0.6765252E-08  0.3302122E+04  0.7818609E-02  0.8162356E-01
       -2   -1    0    0    0  501  0.00000000000E+00  0.00000000000E+00  0.21083281802E+04  0.21083281802E+04  0.25500000920E-02 0.  1.
        2   -1    0    0  501    0  0.00000000000E+00  0.00000000000E+00 -0.12929689206E+04  0.12929689206E+04  0.25500000920E-02 0. -1.
    10030    2    1    2    0    0  0.00000000000E+00  0.00000000000E+00  0.81535925961E+03  0.34012971009E+04  0.33021222337E+04 0.  0.
        2    1    3    3  502    0  0.74088407034E+03 -0.12473616571E+04  0.12195020301E+04  0.18952586923E+04  0.25500000920E-02 0.  1.
       -2    1    3    3    0  502 -0.74088407034E+03  0.12473616571E+04 -0.40414277049E+03  0.15060384086E+04  0.25500000920E-02 0. -1.
</event>
<event>
 5   0  0.7084130E-08  0.3312815E+04  0.7818609E-02  0.8159642E-01
       -2   -1    0    0    0  501  0.00000000000E+00  0.00000000000E+00  0.11545219776E+04  0.11545219776E+04  0.25500000920E-02 0.  1.
        2   -1    0    0  501    0  0.00000000000E+00  0.00000000000E+00 -0.23764693176E+04  0.23764693176E+04  0.25500000920E-02 0. -1.
    10030    2    1    2    0    0  0.00000000000E+00  0.00000000000E+00 -0.12219473399E+04  0.35309912952E+04  0.33128151511E+04 0.  0.
        3    1    3    3  502    0 -0.12969482541E+04  0.61535780212E+03  0.26985743214E+03  0.14606721201E+04  0.10100000352E+00 0.  1.
       -3    1    3    3    0  502  0.12969482541E+04 -0.61535780212E+03 -0.14918047721E+04  0.20703191751E+04  0.10100000352E+00 0. -1.
</event>
<event>
 5   0  0.2244093E-08  0.3298412E+04  0.7818609E-02  0.8163300E-01
        1   -1    0    0  501    0  0.00000000000E+00  0.00000000000E+00  0.17281669303E+04  0.17281669303E+04  0.50400001928E-02 0. -1.
       -1   -1    0    0    0  501  0.00000000000E+00  0.00000000000E+00 -0.15738528053E+04  0.15738528053E+04  0.50400001928E-02 0.  1.
    10030    2    1    2    0    0  0.00000000000E+00  0.00000000000E+00  0.15431412500E+03  0.33020197357E+04  0.32984119642E+04 0.  0.
        1    1    3    3  502    0 -0.21158028962E+03 -0.44976939119E+03  0.16513978646E+04  0.17245792621E+04  0.50400001928E-02 0. -1.
       -1    1    3    3    0  502  0.21158028962E+03  0.44976939119E+03 -0.14970837396E+04  0.15774404735E+04  0.50400001928E-02 0.  1.
</event>
<event>
 5   0  0.2291682E-08  0.3299064E+04  0.7818609E-02  0.8163134E-01
       -1   -1    0    0    0  501  0.00000000000E+00  0.00000000000E+00  0.10859188539E+04  0.10859188539E+04  0.50400001928E-02 0.  1.
        1   -1    0    0  501    0  0.00000000000E+00  0.00000000000E+00 -0.25056708214E+04  0.25056708214E+04  0.50400001928E-02 0. -1.
    10030    2    1    2    0    0  0.00000000000E+00  0.00000000000E+00 -0.14197519675E+04  0.35915896754E+04  0.32990636167E+04 0.  0.
        2    1    3    3  502    0  0.54498936510E+03  0.45778248124E+03 -0.23299013064E+04  0.24361893000E+04  0.25500000920E-02 0. -1.
       -2    1    3    3    0  502 -0.54498936510E+03 -0.45778248124E+03  0.91014933888E+03  0.11554003753E+04  0.25500000920E-02 0.  1.
</event>
<event>
 5   0  0.2291682E-08  0.3299968E+04  0.7818609E-02  0.8162903E-01
       -1   -1    0    0    0  501  0.00000000000E+00  0.00000000000E+00  0.17472089180E+04  0.17472089180E+04  0.50400001928E-02 0. -1.
        1   -1    0    0  501    0  0.00000000000E+00  0.00000000000E+00 -0.15581694278E+04  0.15581694278E+04  0.50400001928E-02 0.  1.
    10030    2    1    2    0    0  0.00000000000E+00  0.00000000000E+00  0.18903949026E+03  0.33053783458E+04  0.32999681938E+04 0.  0.
        2    1    3    3  502    0 -0.47747293705E+03 -0.14669072940E+04 -0.49180315702E+03  0.16191564965E+04  0.25500000920E-02 0.  1.
       -2    1    3    3    0  502  0.47747293705E+03  0.14669072940E+04  0.68084264728E+03  0.16862218493E+04  0.25500000920E-02 0. -1.
</event>
<event>
 5   0  0.7084130E-08  0.3300240E+04  0.7818609E-02  0.8162834E-01
       -2   -1    0    0    0  501  0.00000000000E+00  0.00000000000E+00  0.10939800791E+04  0.10939800791E+04  0.25500000920E-02 0. -1.
        2   -1    0    0  501    0  0.00000000000E+00  0.00000000000E+00 -0.24889811949E+04  0.24889811949E+04  0.25500000920E-02 0.  1.
    10030    2    1    2    0    0  0.00000000000E+00  0.00000000000E+00 -0.13950011157E+04  0.35829612740E+04  0.33002398971E+04 0.  0.
        3    1    3    3  502    0  0.14396640920E+04 -0.29890912018E+03 -0.15106038169E+04  0.21080567501E+04  0.10100000352E+00 0.  1.
       -3    1    3    3    0  502 -0.14396640920E+04  0.29890912018E+03  0.11560270118E+03  0.14749045239E+04  0.10100000352E+00 0. -1.
</event>
<event>
 5   0  0.6765252E-08  0.3300126E+04  0.7818609E-02  0.8162863E-01
       -2   -1    0    0    0  501  0.00000000000E+00  0.00000000000E+00  0.23120412403E+04  0.23120412403E+04  0.25500000920E-02 0. -1.
        2   -1    0    0  501    0  0.00000000000E+00  0.00000000000E+00 -0.11776205554E+04  0.11776205554E+04  0.25500000920E-02 0.  1.
    10030    2    1    2    0    0  0.00000000000E+00  0.00000000000E+00  0.11344206848E+04  0.34896617957E+04  0.33001256277E+04 0.  0.
        2    1    3    3  502    0  0.65759249136E+03  0.15080265018E+04  0.70153128799E+03  0.17884960058E+04  0.25500000920E-02 0. -1.
       -2    1    3    3    0  502 -0.65759249136E+03 -0.15080265018E+04  0.43288939684E+03  0.17011657899E+04  0.25500000920E-02 0.  1.
</event>
<event>
 5   0  0.6765252E-08  0.3299200E+04  0.7818609E-02  0.8163099E-01
       -2   -1    0    0    0  501  0.00000000000E+00  0.00000000000E+00  0.21361862975E+04  0.21361862975E+04  0.25500000920E-02 0. -1.
        2   -1    0    0  501    0  0.00000000000E+00  0.00000000000E+00 -0.12738497280E+04  0.12738497280E+04  0.25500000920E-02 0.  1.
    10030    2    1    2    0    0  0.00000000000E+00  0.00000000000E+00  0.86233656945E+03  0.34100360255E+04  0.32992001055E+04 0.  0.
        2    1    3    3  502    0  0.12604772149E+04 -0.55189850359E+02  0.15295696166E+04  0.19827838866E+04  0.25500000920E-02 0. -1.
       -2    1    3    3    0  502 -0.12604772149E+04  0.55189850359E+02 -0.66723304712E+03  0.14272521390E+04  0.25500000920E-02 0.  1.
</event>
<event>
 5   0  0.2309822E-08  0.3301271E+04  0.7818609E-02  0.8162572E-01
       -1   -1    0    0    0  501  0.00000000000E+00  0.00000000000E+00  0.15855055418E+04  0.15855055418E+04  0.50400001928E-02 0. -1.
        1   -1    0    0  501    0  0.00000000000E+00  0.00000000000E+00 -0.17184407429E+04  0.17184407429E+04  0.50400001928E-02 0.  1.
    10030    2    1    2    0    0  0.00000000000E+00  0.00000000000E+00 -0.13293520111E+03  0.33039462847E+04  0.33012708590E+04 0.  0.
        4    1    3    3  502    0 -0.16077800800E+03 -0.55858391261E+01 -0.17105755387E+04  0.17181242842E+04  0.12699999809E+01 0.  1.
       -4    1    3    3    0  502  0.16077800800E+03  0.55858391261E+01  0.15776403376E+04  0.15858220005E+04  0.12699999809E+01 0. -1.
</event>
<event>
 5   0  0.2200750E-08  0.3300115E+04  0.7818609E-02  0.8162866E-01
        3   -1    0    0  501    0  0.00000000000E+00  0.00000000000E+00  0.12670036005E+04  0.12670036045E+04  0.10100000352E+00 0. -1.
       -3   -1    0    0    0  501  0.00000000000E+00  0.00000000000E+00 -0.21489197144E+04  0.21489197167E+04  0.10100000352E+00 0.  1.
    10030    2    1    2    0    0  0.00000000000E+00  0.00000000000E+00 -0.88191611390E+03  0.34159233212E+04  0.33001145593E+04 0.  0.
        1    1    3    3  502    0 -0.14820765845E+04 -0.47729871077E+03 -0.10063155702E+04  0.18539245099E+04  0.50400001928E-02 0.  1.
       -1    1    3    3    0  502  0.14820765845E+04  0.47729871077E+03  0.12439945634E+03  0.15619988113E+04  0.50400001928E-02 0. -1.
</event>
<event>
 5   0  0.6603516E-08  0.3294353E+04  0.7818609E-02  0.8164334E-01
       -2   -1    0    0    0  501  0.00000000000E+00  0.00000000000E+00  0.19683265194E+04  0.19683265194E+04  0.25500000920E-02 0.  1.
        2   -1    0    0  501    0  0.00000000000E+00  0.00000000000E+00 -0.13784253594E+04  0.13784253594E+04  0.25500000920E-02 0. -1.
    10030    2    1    2    0    0  0.00000000000E+00  0.00000000000E+00  0.58990116005E+03  0.33467518788E+04  0.32943534661E+04 0.  0.
        1    1    3    3  502    0  0.10153877195E+04 -0.10695090560E+04  0.10403299174E+04  0.18047570969E+04  0.50400001928E-02 0.  1.
       -1    1    3    3    0  502 -0.10153877195E+04  0.10695090560E+04 -0.45042875732E+03  0.15419947819E+04  0.50400001928E-02 0. -1.
</event>
<event>
 5   0  0.7084130E-08  0.3298560E+04  0.7818609E-02  0.8163262E-01
        2   -1    0    0  501    0  0.00000000000E+00  0.00000000000E+00  0.14317443671E+04  0.14317443671E+04  0.25500000920E-02 0. -1.
       -2   -1    0    0    0  501  0.00000000000E+00  0.00000000000E+00 -0.18998678581E+04  0.18998678581E+04  0.25500000920E-02 0.  1.
    10030    2    1    2    0    0  0.00000000000E+00  0.00000000000E+00 -0.46812349099E+03  0.33316122251E+04  0.32985603551E+04 0.  0.
        3    1    3    3  502    0 -0.51061052118E+03 -0.32488949618E+03  0.13155371342E+04  0.14480725985E+04  0.10100000352E+00 0. -1.
       -3    1    3    3    0  502  0.51061052118E+03  0.32488949618E+03 -0.17836606252E+04  0.18835396266E+04  0.10100000352E+00 0.  1.
</event>
<event>
 5   0  0.2291682E-08  0.3299404E+04  0.7818609E-02  0.8163047E-01
        1   -1    0    0  501    0  0.00000000000E+00  0.00000000000E+00  0.17798304714E+04  0.17798304714E+04  0.50400001928E-02 0.  1.
       -1   -1    0    0    0  501  0.00000000000E+00  0.00000000000E+00 -0.15290876144E+04  0.15290876145E+04  0.50400001928E-02 0. -1.
    10030    2    1    2    0    0  0.00000000000E+00  0.00000000000E+00  0.25074285699E+03  0.33089180859E+04  0.32994040248E+04 0.  0.
        2    1    3    3  502    0  0.14999428197E+04  0.40198636800E+03 -0.43309626813E+03  0.16121395348E+04  0.25500000920E-02 0. -1.
       -2    1    3    3    0  502 -0.14999428197E+04 -0.40198636800E+03  0.68383912511E+03  0.16967785511E+04  0.25500000920E-02 0.  1.
</event>
<event>
 5   0  0.7084130E-08  0.3300435E+04  0.7818609E-02  0.8162785E-01
       -2   -1    0    0    0  501  0.00000000000E+00  0.00000000000E+00  0.16118164526E+04  0.16118164526E+04  0.25500000920E-02 0. -1.
        2   -1    0    0  501    0  0.00000000000E+00  0.00000000000E+00 -0.16895330411E+04  0.16895330411E+04  0.25500000920E-02 0.  1.
    10030    2    1    2    0    0  0.00000000000E+00  0.00000000000E+00 -0.77716588467E+02  0.33013494937E+04  0.33004346095E+04 0.  0.
        3    1    3    3  502    0 -0.61197490740E+03  0.24283360802E+03  0.14747484264E+04  0.16150431511E+04  0.10100000352E+00 0. -1.
       -3    1    3    3    0  502  0.61197490740E+03 -0.24283360802E+03 -0.15524650149E+04  0.16863063426E+04  0.10100000352E+00 0.  1.
</event>
<event>
 5   0  0.6765252E-08  0.3300359E+04  0.7818609E-02  0.8162804E-01
       -2   -1    0    0    0  501  0.00000000000E+00  0.00000000000E+00  0.13700122294E+04  0.13700122294E+04  0.25500000920E-02 0. -1.
        2   -1    0    0  501    0  0.00000000000E+00  0.00000000000E+00 -0.19876405567E+04  0.19876405567E+04  0.25500000920E-02 0.  1.
    10030    2    1    2    0    0  0.00000000000E+00  0.00000000000E+00 -0.61762832726E+03  0.33576527861E+04  0.33003586898E+04 0.  0.
        2    1    3    3  502    0 -0.12422424940E+04 -0.40764797113E+03 -0.13331438812E+04  0.18672482134E+04  0.25500000920E-02 0.  1.
       -2    1    3    3    0  502  0.12422424940E+04  0.40764797113E+03  0.71551555398E+03  0.14904045727E+04  0.25500000920E-02 0. -1.
</event>
<event>
 5   0  0.7084130E-08  0.3300769E+04  0.7818609E-02  0.8162700E-01
       -2   -1    0    0    0  501  0.00000000000E+00  0.00000000000E+00  0.11491894296E+04  0.11491894296E+04  0.25500000920E-02 0. -1.
        2   -1    0    0  501    0  0.00000000000E+00  0.00000000000E+00 -0.23701646878E+04  0.23701646878E+04  0.25500000920E-02 0.  1.
    10030    2    1    2    0    0  0.00000000000E+00  0.00000000000E+00 -0.12209752582E+04  0.35193541173E+04  0.33007685199E+04 0.  0.
        3    1    3    3  502    0 -0.10220564430E+03  0.13655001806E+04 -0.15927625340E+04  0.21004592919E+04  0.10100000352E+00 0.  1.
       -3    1    3    3    0  502  0.10220564430E+03 -0.13655001806E+04  0.37178727579E+03  0.14188948255E+04  0.10100000352E+00 0. -1.
</event>
<event>
 5   0  0.2383270E-08  0.3298222E+04  0.7818609E-02  0.8163348E-01
        1   -1    0    0  501    0  0.00000000000E+00  0.00000000000E+00  0.12422716815E+04  0.12422716815E+04  0.50400001928E-02 0.  1.
       -1   -1    0    0    0  501  0.00000000000E+00  0.00000000000E+00 -0.21891880589E+04  0.21891880589E+04  0.50400001928E-02 0. -1.
    10030    2    1    2    0    0  0.00000000000E+00  0.00000000000E+00 -0.94691637741E+03  0.34314597404E+04  0.32982215396E+04 0.  0.
        5    1    3    3  502    0  0.26939882363E+01  0.53757639727E+03 -0.20954596423E+04  0.21633235641E+04  0.46999998093E+01 0. -1.
       -5    1    3    3    0  502 -0.26939882363E+01 -0.53757639727E+03  0.11485432649E+04  0.12681361763E+04  0.46999998093E+01 0.  1.
</event>
<event>
 5   0  0.2383270E-08  0.3298853E+04  0.7818609E-02  0.8163187E-01
        1   -1    0    0  501    0  0.00000000000E+00  0.00000000000E+00  0.26414279068E+04  0.26414279068E+04  0.50400001928E-02 0. -1.
       -1   -1    0    0    0  501  0.00000000000E+00  0.00000000000E+00 -0.10299761656E+04  0.10299761657E+04  0.50400001928E-02 0.  1.
    10030    2    1    2    0    0  0.00000000000E+00  0.00000000000E+00  0.16114517411E+04  0.36714040724E+04  0.32988530051E+04 0.  0.
        5    1    3    3  502    0 -0.56961959919E+03 -0.36538184015E+03  0.24797996066E+04  0.25704860544E+04  0.46999998093E+01 0. -1.
       -5    1    3    3    0  502  0.56961959919E+03  0.36538184015E+03 -0.86834786550E+03  0.11009180180E+04  0.46999998093E+01 0.  1.
</event>
<event>
 5   0  0.6603516E-08  0.3300161E+04  0.7818609E-02  0.8162854E-01
        2   -1    0    0  501    0  0.00000000000E+00  0.00000000000E+00  0.16974721013E+04  0.16974721013E+04  0.25500000920E-02 0. -1.
       -2   -1    0    0    0  501  0.00000000000E+00  0.00000000000E+00 -0.16040123628E+04  0.16040123628E+04  0.25500000920E-02 0.  1.
    10030    2    1    2    0    0  0.00000000000E+00  0.00000000000E+00  0.93459738484E+02  0.33014844641E+04  0.33001613512E+04 0.  0.
        1    1    3    3  502    0 -0.52508930758E+03  0.14398907679E+04  0.65833578142E+03  0.16680558161E+04  0.50400001928E-02 0. -1.
       -1    1    3    3    0  502  0.52508930758E+03 -0.14398907679E+04 -0.56487604293E+03  0.16334286481E+04  0.50400001928E-02 0.  1.
</event>
<event>
 5   0  0.2309822E-08  0.3301297E+04  0.7818609E-02  0.8162565E-01
        1   -1    0    0  501    0  0.00000000000E+00  0.00000000000E+00  0.26021098102E+04  0.26021098102E+04  0.50400001928E-02 0. -1.
       -1   -1    0    0    0  501  0.00000000000E+00  0.00000000000E+00 -0.10470891986E+04  0.10470891986E+04  0.50400001928E-02 0.  1.
    10030    2    1    2    0    0  0.00000000000E+00  0.00000000000E+00  0.15550206116E+04  0.36491990088E+04  0.33012973667E+04 0.  0.
        4    1    3    3  502    0  0.91317610260E+03  0.13483512882E+04  0.47947126632E+03  0.16975971545E+04  0.12699999809E+01 0.  1.
       -4    1    3    3    0  502 -0.91317610260E+03 -0.13483512882E+04  0.10755493453E+04  0.19516018543E+04  0.12699999809E+01 0. -1.
</event>
<event>
 5   0  0.6765252E-08  0.3299159E+04  0.7818609E-02  0.8163109E-01
        2   -1    0    0  501    0  0.00000000000E+00  0.00000000000E+00  0.17338001999E+04  0.17338001999E+04  0.25500000920E-02 0. -1.
       -2   -1    0    0    0  501  0.00000000000E+00  0.00000000000E+00 -0.15694498136E+04  0.15694498136E+04  0.25500000920E-02 0.  1.
    10030    2    1    2    0    0  0.00000000000E+00  0.00000000000E+00  0.16435038626E+03  0.33032500135E+04  0.32991589235E+04 0.  0.
        2    1    3    3  502    0 -0.27860671089E+03  0.82616910077E+03  0.14842456661E+04  0.17213838270E+04  0.25500000920E-02 0. -1.
       -2    1    3    3    0  502  0.27860671089E+03 -0.82616910077E+03 -0.13198952798E+04  0.15818661866E+04  0.25500000920E-02 0.  1.
</event>
<event>
 5   0  0.2244093E-08  0.3301782E+04  0.7818609E-02  0.8162442E-01
        1   -1    0    0  501    0  0.00000000000E+00  0.00000000000E+00  0.16269119299E+04  0.16269119299E+04  0.50400001928E-02 0. -1.
       -1   -1    0    0    0  501  0.00000000000E+00  0.00000000000E+00 -0.16752232812E+04  0.16752232812E+04  0.50400001928E-02 0.  1.
    10030    2    1    2    0    0  0.00000000000E+00  0.00000000000E+00 -0.48311351356E+02  0.33021352111E+04  0.33017817865E+04 0.  0.
        1    1    3    3  502    0  0.96967283683E+03  0.74661249960E+03 -0.11323108803E+04  0.16672802898E+04  0.50400001928E-02 0.  1.
       -1    1    3    3    0  502 -0.96967283683E+03 -0.74661249960E+03  0.10839995289E+04  0.16348549213E+04  0.50400001928E-02 0. -1.
</event>
<event>
 5   0  0.6706080E-08  0.3307225E+04  0.7818609E-02  0.8161059E-01
       -2   -1    0    0    0  501  0.00000000000E+00  0.00000000000E+00  0.11693157801E+04  0.11693157801E+04  0.25500000920E-02 0.  1.
        2   -1    0    0  501    0  0.00000000000E+00  0.00000000000E+00 -0.23384909240E+04  0.23384909240E+04  0.25500000920E-02 0. -1.
    10030    2    1    2    0    0  0.00000000000E+00  0.00000000000E+00 -0.11691751439E+04  0.35078067041E+04  0.33072250235E+04 0.  0.
        4    1    3    3  502    0  0.14983923563E+04  0.61366275081E+03 -0.94061067195E+03  0.18725682028E+04  0.12699999809E+01 0. -1.
       -4    1    3    3    0  502 -0.14983923563E+04 -0.61366275081E+03 -0.22856447191E+03  0.16352385012E+04  0.12699999809E+01 0.  1.
</event>
<event>
 5   0  0.2309822E-08  0.3303403E+04  0.7818609E-02  0.8162030E-01
       -1   -1    0    0    0  501  0.00000000000E+00  0.00000000000E+00  0.14157857365E+04  0.14157857365E+04  0.50400001928E-02 0.  1.
        1   -1    0    0  501    0  0.00000000000E+00  0.00000000000E+00 -0.19269290145E+04  0.19269290146E+04  0.50400001928E-02 0. -1.
    10030    2    1    2    0    0  0.00000000000E+00  0.00000000000E+00 -0.51114327801E+03  0.33427147511E+04  0.33034034656E+04 0.  0.
        4    1    3    3  502    0 -0.11499572762E+02  0.15523777275E+04 -0.82629427413E+03  0.17586280703E+04  0.12699999809E+01 0. -1.
       -4    1    3    3    0  502  0.11499572762E+02 -0.15523777275E+04  0.31515099612E+03  0.15840866808E+04  0.12699999809E+01 0.  1.
</event>
<event>
 5   0  0.6821287E-08  0.3297834E+04  0.7818609E-02  0.8163447E-01
        2   -1    0    0  501    0  0.00000000000E+00  0.00000000000E+00  0.10932543120E+04  0.10932543120E+04  0.25500000920E-02 0.  1.
       -2   -1    0    0    0  501  0.00000000000E+00  0.00000000000E+00 -0.24870039918E+04  0.24870039918E+04  0.25500000920E-02 0. -1.
    10030    2    1    2    0    0  0.00000000000E+00  0.00000000000E+00 -0.13937496798E+04  0.35802583037E+04  0.32978343426E+04 0.  0.
        5    1    3    3  502    0 -0.79927380336E+03 -0.14422340670E+04 -0.69112697237E+03  0.17878915791E+04  0.46999998093E+01 0. -1.
       -5    1    3    3    0  502  0.79927380336E+03  0.14422340670E+04 -0.70262270743E+03  0.17923667246E+04  0.46999998093E+01 0.  1.
</event>
<event>
 5   0  0.2309822E-08  0.3301126E+04  0.7818609E-02  0.8162609E-01
       -1   -1    0    0    0  501  0.00000000000E+00  0.00000000000E+00  0.10869907584E+04  0.10869907584E+04  0.50400001928E-02 0.  1.
        1   -1    0    0  501    0  0.00000000000E+00  0.00000000000E+00 -0.25063311979E+04  0.25063311979E+04  0.50400001928E-02 0. -1.
    10030    2    1    2    0    0  0.00000000000E+00  0.00000000000E+00 -0.14193404395E+04  0.35933219564E+04  0.33011263833E+04 0.  0.
        4    1    3    3  502    0  0.78595742609E+03 -0.11647015329E+04 -0.16524128112E+04  0.21690385999E+04  0.12699999809E+01 0.  1.
       -4    1    3    3    0  502 -0.78595742609E+03  0.11647015329E+04  0.23307237164E+03  0.14242833565E+04  0.12699999809E+01 0. -1.
</event>
<event>
 5   0  0.2383270E-08  0.3300110E+04  0.7818609E-02  0.8162867E-01
       -1   -1    0    0    0  501  0.00000000000E+00  0.00000000000E+00  0.13798307612E+04  0.13798307612E+04  0.50400001928E-02 0.  1.
        1   -1    0    0  501    0  0.00000000000E+00  0.00000000000E+00 -0.19731991827E+04  0.19731991827E+04  0.50400001928E-02 0. -1.
    10030    2    1    2    0    0  0.00000000000E+00  0.00000000000E+00 -0.59336842150E+03  0.33530299439E+04  0.33001096529E+04 0.  0.
        5    1    3    3  502    0 -0.77938033096E+03 -0.63793159493E+03 -0.16246507053E+04  0.19115183557E+04  0.46999998093E+01 0. -1.
       -5    1    3    3    0  502  0.77938033096E+03  0.63793159493E+03  0.10312822838E+04  0.14415115882E+04  0.46999998093E+01 0.  1.
</event>
<event>
 5   0  0.6603516E-08  0.3299584E+04  0.7818609E-02  0.8163001E-01
        2   -1    0    0  501    0  0.00000000000E+00  0.00000000000E+00  0.29490703337E+04  0.29490703337E+04  0.25500000920E-02 0. -1.
       -2   -1    0    0    0  501  0.00000000000E+00  0.00000000000E+00 -0.92293936328E+03  0.92293936328E+03  0.25500000920E-02 0.  1.
    10030    2    1    2    0    0  0.00000000000E+00  0.00000000000E+00  0.20261309705E+04  0.38720096970E+04  0.32995836683E+04 0.  0.
        1    1    3    3  502    0 -0.12297125883E+04 -0.58752870990E+03  0.21041093755E+04  0.25069222762E+04  0.50400001928E-02 0. -1.
       -1    1    3    3    0  502  0.12297125883E+04  0.58752870990E+03 -0.77978405072E+02  0.13650874208E+04  0.50400001928E-02 0.  1.
</event>
<event>
 5   0  0.2279938E-08  0.3290480E+04  0.7818609E-02  0.8165322E-01
        1   -1    0    0  501    0  0.00000000000E+00  0.00000000000E+00  0.15567370627E+04  0.15567370627E+04  0.50400001928E-02 0. -1.
       -1   -1    0    0    0  501  0.00000000000E+00  0.00000000000E+00 -0.17387744733E+04  0.17387744733E+04  0.50400001928E-02 0.  1.
    10030    2    1    2    0    0  0.00000000000E+00  0.00000000000E+00 -0.18203741061E+03  0.32955115360E+04  0.32904800053E+04 0.  0.
        3    1    3    3  502    0  0.14012093486E+04 -0.62084027093E+03 -0.69025155894E+03  0.16808561823E+04  0.10100000352E+00 0.  1.
       -3    1    3    3    0  502 -0.14012093486E+04  0.62084027093E+03  0.50821414833E+03  0.16146553538E+04  0.10100000352E+00 0. -1.
</event>
<event>
 5   0  0.6603516E-08  0.3301087E+04  0.7818609E-02  0.8162619E-01
       -2   -1    0    0    0  501  0.00000000000E+00  0.00000000000E+00  0.11177095237E+04  0.11177095238E+04  0.25500000920E-02 0. -1.
        2   -1    0    0  501    0  0.00000000000E+00  0.00000000000E+00 -0.24373896592E+04  0.24373896592E+04  0.25500000920E-02 0.  1.
    10030    2    1    2    0    0  0.00000000000E+00  0.00000000000E+00 -0.13196801354E+04  0.35550991829E+04  0.33010868726E+04 0.  0.
        1    1    3    3  502    0  0.86294038520E+03 -0.72217381206E+02  0.85342037074E+03  0.12158156882E+04  0.50400001928E-02 0. -1.
       -1    1    3    3    0  502 -0.86294038520E+03  0.72217381206E+02 -0.21731005062E+04  0.23392834947E+04  0.50400001928E-02 0.  1.
</event>
<event>
 5   0  0.2279938E-08  0.3297206E+04  0.7818609E-02  0.8163607E-01
        1   -1    0    0  501    0  0.00000000000E+00  0.00000000000E+00  0.17381252512E+04  0.17381252512E+04  0.50400001928E-02 0.  1.
       -1   -1    0    0    0  501  0.00000000000E+00  0.00000000000E+00 -0.15636916556E+04  0.15636916556E+04  0.50400001928E-02 0. -1.
    10030    2    1    2    0    0  0.00000000000E+00  0.00000000000E+00  0.17443359557E+03  0.33018169068E+04  0.32972060607E+04 0.  0.
        3    1    3    3  502    0  0.12103590596E+04  0.39673706026E+03 -0.96091903085E+03  0.15955358793E+04  0.10100000352E+00 0. -1.
       -3    1    3    3    0  502 -0.12103590596E+04 -0.39673706026E+03  0.11353526264E+04  0.17062810275E+04  0.10100000352E+00 0.  1.
</event>
<event>
 5   0  0.2383270E-08  0.3298134E+04  0.7818609E-02  0.8163370E-01
        1   -1    0    0  501    0  0.00000000000E+00  0.00000000000E+00  0.19407896745E+04  0.19407896745E+04  0.50400001928E-02 0. -1.
       -1   -1    0    0    0  501  0.00000000000E+00  0.00000000000E+00 -0.14011938869E+04  0.14011938869E+04  0.50400001928E-02 0.  1.
    10030    2    1    2    0    0  0.00000000000E+00  0.00000000000E+00  0.53959578759E+03  0.33419835614E+04  0.32981343985E+04 0.  0.
        5    1    3    3  502    0 -0.68152788646E+02 -0.18074984707E+03 -0.13896829647E+04  0.14030524374E+04  0.46999998093E+01 0.  1.
       -5    1    3    3    0  502  0.68152788646E+02  0.18074984707E+03  0.19292787522E+04  0.19389311240E+04  0.46999998093E+01 0. -1.
</event>
<event>
 5   0  0.6706080E-08  0.3300920E+04  0.7818609E-02  0.8162661E-01
       -2   -1    0    0    0  501  0.00000000000E+00  0.00000000000E+00  0.12016553434E+04  0.12016553434E+04  0.25500000920E-02 0. -1.
        2   -1    0    0  501    0  0.00000000000E+00  0.00000000000E+00 -0.22668886744E+04  0.22668886744E+04  0.25500000920E-02 0.  1.
    10030    2    1    2    0    0  0.00000000000E+00  0.00000000000E+00 -0.10652333310E+04  0.34685440178E+04  0.33009204101E+04 0.  0.
        4    1    3    3  502    0 -0.37357914165E+03 -0.91105883859E+03 -0.19244264788E+04  0.21617142428E+04  0.12699999809E+01 0.  1.
       -4    1    3    3    0  502  0.37357914165E+03  0.91105883859E+03  0.85919314786E+03  0.13068297749E+04  0.12699999809E+01 0. -1.
</event>
<event>
 5   0  0.6765252E-08  0.3302717E+04  0.7818609E-02  0.8162204E-01
        2   -1    0    0  501    0  0.00000000000E+00  0.00000000000E+00  0.23209174833E+04  0.23209174833E+04  0.25500000920E-02 0.  1.
       -2   -1    0    0    0  501  0.00000000000E+00  0.00000000000E+00 -0.11749599737E+04  0.11749599737E+04  0.25500000920E-02 0. -1.
    10030    2    1    2    0    0  0.00000000000E+00  0.00000000000E+00  0.11459575097E+04  0.34958774570E+04  0.33027171511E+04 0.  0.
        2    1    3    3  502    0  0.44223856260E+03 -0.43996781692E+03  0.21914018746E+04  0.22784619378E+04  0.25500000920E-02 0.  1.
       -2    1    3    3    0  502 -0.44223856260E+03  0.43996781692E+03 -0.10454443649E+04  0.12174155192E+04  0.25500000920E-02 0. -1.
</event>
<event>
 5   0  0.2309822E-08  0.3299342E+04  0.7818609E-02  0.8163063E-01
       -1   -1    0    0    0  501  0.00000000000E+00  0.00000000000E+00  0.14050710553E+04  0.14050710553E+04  0.50400001928E-02 0. -1.
        1   -1    0    0  501    0  0.00000000000E+00  0.00000000000E+00 -0.19368519174E+04  0.19368519174E+04  0.50400001928E-02 0.  1.
    10030    2    1    2    0    0  0.00000000000E+00  0.00000000000E+00 -0.53178086209E+03  0.33419229726E+04  0.32993420965E+04 0.  0.
        4    1    3    3  502    0 -0.22532037122E+03 -0.73885471248E+03  0.12105696809E+04  0.14360209334E+04  0.12699999809E+01 0. -1.
       -4    1    3    3    0  502  0.22532037122E+03  0.73885471248E+03 -0.17423505430E+04  0.19059020393E+04  0.12699999809E+01 0.  1.
</event>
<event>
 5   0  0.6821287E-08  0.3301013E+04  0.7818609E-02  0.8162638E-01
        2   -1    0    0  501    0  0.00000000000E+00  0.00000000000E+00  0.15231916510E+04  0.15231916510E+04  0.25500000920E-02 0. -1.
       -2   -1    0    0    0  501  0.00000000000E+00  0.00000000000E+00 -0.17884633512E+04  0.17884633512E+04  0.25500000920E-02 0.  1.
    10030    2    1    2    0    0  0.00000000000E+00  0.00000000000E+00 -0.26527170021E+03  0.33116550022E+04  0.33010134472E+04 0.  0.
        5    1    3    3  502    0  0.15772912983E+04  0.14022611112E+03 -0.59958142885E+03  0.16932309889E+04  0.46999998093E+01 0.  1.
       -5    1    3    3    0  502 -0.15772912983E+04 -0.14022611112E+03  0.33430972864E+03  0.16184240133E+04  0.46999998093E+01 0. -1.
</event>
<event>
 5   0  0.2244093E-08  0.3300079E+04  0.7818609E-02  0.8162875E-01
       -1   -1    0    0    0  501  0.00000000000E+00  0.00000000000E+00  0.11441896443E+04  0.11441896444E+04  0.50400001928E-02 0.  1.
        1   -1    0    0  501    0  0.00000000000E+00  0.00000000000E+00 -0.23795271516E+04  0.23795271516E+04  0.50400001928E-02 0. -1.
    10030    2    1    2    0    0  0.00000000000E+00  0.00000000000E+00 -0.12353375072E+04  0.35237167959E+04  0.33000789841E+04 0.  0.
        1    1    3    3  502    0 -0.47936185549E+03  0.14554037073E+04 -0.12712284061E+04  0.19909820190E+04  0.50400001928E-02 0. -1.
       -1    1    3    3    0  502  0.47936185549E+03 -0.14554037073E+04  0.35890898857E+02  0.15327347769E+04  0.50400001928E-02 0.  1.
</event>
<event>
 5   0  0.6706080E-08  0.3300394E+04  0.7818609E-02  0.8162795E-01
        2   -1    0    0  501    0  0.00000000000E+00  0.00000000000E+00  0.16380561573E+04  0.16380561573E+04  0.25500000920E-02 0. -1.
       -2   -1    0    0    0  501  0.00000000000E+00  0.00000000000E+00 -0.16624281180E+04  0.16624281180E+04  0.25500000920E-02 0.  1.
    10030    2    1    2    0    0  0.00000000000E+00  0.00000000000E+00 -0.24371960732E+02  0.33004842753E+04  0.33003942884E+04 0.  0.
        4    1    3    3  502    0 -0.55687600661E+03 -0.14209064111E+04 -0.63994753929E+03  0.16548777543E+04  0.12699999809E+01 0.  1.
       -4    1    3    3    0  502  0.55687600661E+03  0.14209064111E+04  0.61557557855E+03  0.16456065209E+04  0.12699999809E+01 0. -1.
</event>
<event>
 5   0  0.2291682E-08  0.3309469E+04  0.7818609E-02  0.8160490E-01
        1   -1    0    0  501    0  0.00000000000E+00  0.00000000000E+00  0.16386401875E+04  0.16386401875E+04  0.50400001928E-02 0.  1.
       -1   -1    0    0    0  501  0.00000000000E+00  0.00000000000E+00 -0.16709869656E+04  0.16709869656E+04  0.50400001928E-02 0. -1.
    10030    2    1    2    0    0  0.00000000000E+00  0.00000000000E+00 -0.32346778115E+02  0.33096271531E+04  0.33094690781E+04 0.  0.
        2    1    3    3  502    0  0.30057856961E+03 -0.15506139923E+04  0.47720113098E+03  0.16499915603E+04  0.25500000920E-02 0.  1.
       -2    1    3    3    0  502 -0.30057856961E+03  0.15506139923E+04 -0.50954790909E+03  0.16596355929E+04  0.25500000920E-02 0. -1.
</event>
<event>
 5   0  0.2291682E-08  0.3294738E+04  0.7818609E-02  0.8164236E-01
       -1   -1    0    0    0  501  0.00000000000E+00  0.00000000000E+00  0.12976412196E+04  0.12976412196E+04  0.50400001928E-02 0.  1.
        1   -1    0    0  501    0  0.00000000000E+00  0.00000000000E+00 -0.20913517626E+04  0.20913517626E+04  0.50400001928E-02 0. -1.
    10030    2    1    2    0    0  0.00000000000E+00  0.00000000000E+00 -0.79371054296E+03  0.33889929822E+04  0.32947377752E+04 0.  0.
        2    1    3    3  502    0 -0.93184634675E+03 -0.30332162984E+03  0.96521824222E+03  0.13754955035E+04  0.25500000920E-02 0.  1.
       -2    1    3    3    0  502  0.93184634675E+03  0.30332162984E+03 -0.17589287852E+04  0.20134974786E+04  0.25500000920E-02 0. -1.
</event>
<event>
 5   0  0.6765252E-08  0.3300917E+04  0.7818609E-02  0.8162662E-01
        2   -1    0    0  501    0  0.00000000000E+00  0.00000000000E+00  0.28715164524E+04  0.28715164524E+04  0.25500000920E-02 0. -1.
       -2   -1    0    0    0  501  0.00000000000E+00  0.00000000000E+00 -0.94863248342E+03  0.94863248342E+03  0.25500000920E-02 0.  1.
    10030    2    1    2    0    0  0.00000000000E+00  0.00000000000E+00  0.19228839690E+04  0.38201489359E+04  0.33009173170E+04 0.  0.
        2    1    3    3  502    0  0.43013277966E+03 -0.10297005964E+04 -0.44586250388E+03  0.12017033322E+04  0.25500000920E-02 0.  1.
       -2    1    3    3    0  502 -0.43013277966E+03  0.10297005964E+04  0.23687464729E+04  0.26184456036E+04  0.25500000920E-02 0. -1.
</event>
<event>
 5   0  0.2383270E-08  0.3298787E+04  0.7818609E-02  0.8163204E-01
        1   -1    0    0  501    0  0.00000000000E+00  0.00000000000E+00  0.23253880024E+04  0.23253880024E+04  0.50400001928E-02 0. -1.
       -1   -1    0    0    0  501  0.00000000000E+00  0.00000000000E+00 -0.11699116888E+04  0.11699116889E+04  0.50400001928E-02 0.  1.
    10030    2    1    2    0    0  0.00000000000E+00  0.00000000000E+00  0.11554763136E+04  0.34952996913E+04  0.32987868104E+04 0.  0.
        5    1    3    3  502    0  0.32629188784E+03  0.79301432635E+03  0.20706204398E+04  0.22411669313E+04  0.46999998093E+01 0. -1.
       -5    1    3    3    0  502 -0.32629188784E+03 -0.79301432635E+03 -0.91514412628E+03  0.12541327600E+04  0.46999998093E+01 0.  1.
</event>
<event>
 5   0  0.2309822E-08  0.3297667E+04  0.7818609E-02  0.8163489E-01
        1   -1    0    0  501    0  0.00000000000E+00  0.00000000000E+00  0.15772648263E+04  0.15772648263E+04  0.50400001928E-02 0.  1.
       -1   -1    0    0    0  501  0.00000000000E+00  0.00000000000E+00 -0.17236493071E+04  0.17236493071E+04  0.50400001928E-02 0. -1.
    10030    2    1    2    0    0  0.00000000000E+00  0.00000000000E+00 -0.14638448075E+03  0.33009141334E+04  0.32976667054E+04 0.  0.
        4    1    3    3  502    0 -0.45116323911E+03  0.14479219165E+04 -0.72084072967E+03  0.16791781070E+04  0.12699999809E+01 0. -1.
       -4    1    3    3    0  502  0.45116323911E+03 -0.14479219165E+04  0.57445624893E+03  0.16217360264E+04  0.12699999809E+01 0.  1.
</event>
<event>
 5   0  0.2383270E-08  0.3301650E+04  0.7818609E-02  0.8162476E-01
        1   -1    0    0  501    0  0.00000000000E+00  0.00000000000E+00  0.29290011811E+04  0.29290011811E+04  0.50400001928E-02 0.  1.
       -1   -1    0    0    0  501  0.00000000000E+00  0.00000000000E+00 -0.93042769855E+03  0.93042769856E+03  0.50400001928E-02 0. -1.
    10030    2    1    2    0    0  0.00000000000E+00  0.00000000000E+00  0.19985734825E+04  0.38594288796E+04  0.33016503921E+04 0.  0.
        5    1    3    3  502    0  0.16463088578E+04 -0.12006162269E+03  0.10241961117E+04  0.19426135523E+04  0.46999998093E+01 0.  1.
       -5    1    3    3    0  502 -0.16463088578E+04  0.12006162269E+03  0.97437737085E+03  0.19168153274E+04  0.46999998093E+01 0. -1.
</event>
<event>
 5   0  0.6765252E-08  0.3301320E+04  0.7818609E-02  0.8162560E-01
        2   -1    0    0  501    0  0.00000000000E+00  0.00000000000E+00  0.16902317012E+04  0.16902317012E+04  0.25500000920E-02 0. -1.
       -2   -1    0    0    0  501  0.00000000000E+00  0.00000000000E+00 -0.16120147495E+04  0.16120147496E+04  0.25500000920E-02 0.  1.
    10030    2    1    2    0    0  0.00000000000E+00  0.00000000000E+00  0.78216951640E+02  0.33022464507E+04  0.33013199981E+04 0.  0.
        2    1    3    3  502    0 -0.13828728921E+04  0.78131353452E+03 -0.41033950423E+03  0.16404776084E+04  0.25500000920E-02 0. -1.
       -2    1    3    3    0  502  0.13828728921E+04 -0.78131353452E+03  0.48855645587E+03  0.16617688424E+04  0.25500000920E-02 0.  1.
</event>
<event>
 5   0  0.6765252E-08  0.3296153E+04  0.7818609E-02  0.8163875E-01
       -2   -1    0    0    0  501  0.00000000000E+00  0.00000000000E+00  0.11877832198E+04  0.11877832198E+04  0.25500000920E-02 0. -1.
        2   -1    0    0  501    0  0.00000000000E+00  0.00000000000E+00 -0.22867445002E+04  0.22867445002E+04  0.25500000920E-02 0.  1.
    10030    2    1    2    0    0  0.00000000000E+00  0.00000000000E+00 -0.10989612804E+04  0.34745277200E+04  0.32961533613E+04 0.  0.
        2    1    3    3  502    0 -0.76390743529E+03 -0.33455229947E+03  0.94895057919E+03  0.12633237956E+04  0.25500000920E-02 0. -1.
       -2    1    3    3    0  502  0.76390743529E+03  0.33455229947E+03 -0.20479118596E+04  0.22112039244E+04  0.25500000920E-02 0.  1.
</event>
<event>
 5   0  0.2244093E-08  0.3297007E+04  0.7818609E-02  0.8163657E-01
       -1   -1    0    0    0  501  0.00000000000E+00  0.00000000000E+00  0.25636711613E+04  0.25636711613E+04  0.50400001928E-02 0. -1.
        1   -1    0    0  501    0  0.00000000000E+00  0.00000000000E+00 -0.10600281472E+04  0.10600281472E+04  0.50400001928E-02 0.  1.
    10030    2    1    2    0    0  0.00000000000E+00  0.00000000000E+00  0.15036430141E+04  0.36236993085E+04  0.32970068797E+04 0.  0.
        1    1    3    3  502    0  0.15460245916E+04 -0.49626475278E+00  0.12296348414E+03  0.15509069290E+04  0.50400001928E-02 0.  1.
       -1    1    3    3    0  502 -0.15460245916E+04  0.49626475278E+00  0.13806795299E+04  0.20727923795E+04  0.50400001928E-02 0. -1.
</event>
<event>
 5   0  0.7084130E-08  0.3299567E+04  0.7818609E-02  0.8163006E-01
       -2   -1    0    0    0  501  0.00000000000E+00  0.00000000000E+00  0.12034236554E+04  0.12034236554E+04  0.25500000920E-02 0.  1.
        2   -1    0    0  501    0  0.00000000000E+00  0.00000000000E+00 -0.22617020426E+04  0.22617020426E+04  0.25500000920E-02 0. -1.
    10030    2    1    2    0    0  0.00000000000E+00  0.00000000000E+00 -0.10582783872E+04  0.34651256980E+04  0.32995670864E+04 0.  0.
        3    1    3    3  502    0  0.78899779150E+03 -0.99257454425E+02  0.98887036566E+03  0.12689500256E+04  0.10100000352E+00 0.  1.
       -3    1    3    3    0  502 -0.78899779150E+03  0.99257454425E+02 -0.20471487529E+04  0.21961756723E+04  0.10100000352E+00 0. -1.
</event>
<event>
 5   0  0.7084130E-08  0.3299876E+04  0.7818609E-02  0.8162927E-01
       -2   -1    0    0    0  501  0.00000000000E+00  0.00000000000E+00  0.12684999981E+04  0.12684999981E+04  0.25500000920E-02 0. -1.
        2   -1    0    0  501    0  0.00000000000E+00  0.00000000000E+00 -0.21460740068E+04  0.21460740068E+04  0.25500000920E-02 0.  1.
    10030    2    1    2    0    0  0.00000000000E+00  0.00000000000E+00 -0.87757400871E+03  0.34145740049E+04  0.32998756786E+04 0.  0.
        3    1    3    3  502    0 -0.68348846553E+03  0.11953020510E+04  0.50187118907E+03  0.14655299984E+04  0.10100000352E+00 0. -1.
       -3    1    3    3    0  502  0.68348846553E+03 -0.11953020510E+04 -0.13794451978E+04  0.19490440065E+04  0.10100000352E+00 0.  1.
</event>
<event>
 5   0  0.6706080E-08  0.3299215E+04  0.7818609E-02  0.8163095E-01
       -2   -1    0    0    0  501  0.00000000000E+00  0.00000000000E+00  0.17932012620E+04  0.17932012620E+04  0.25500000920E-02 0. -1.
        2   -1    0    0  501    0  0.00000000000E+00  0.00000000000E+00 -0.15175126945E+04  0.15175126945E+04  0.25500000920E-02 0.  1.
    10030    2    1    2    0    0  0.00000000000E+00  0.00000000000E+00  0.27568856750E+03  0.33107139564E+04  0.32992154696E+04 0.  0.
        4    1    3    3  502    0 -0.63495386181E+03 -0.71470962704E+03  0.14868613065E+04  0.17676918327E+04  0.12699999809E+01 0. -1.
       -4    1    3    3    0  502  0.63495386181E+03  0.71470962704E+03 -0.12111727390E+04  0.15430221237E+04  0.12699999809E+01 0.  1.
</event>
<event>
 5   0  0.2309822E-08  0.3301369E+04  0.7818609E-02  0.8162547E-01
       -1   -1    0    0    0  501  0.00000000000E+00  0.00000000000E+00  0.13762099181E+04  0.13762099181E+04  0.50400001928E-02 0. -1.
        1   -1    0    0  501    0  0.00000000000E+00  0.00000000000E+00 -0.19799014606E+04  0.19799014606E+04  0.50400001928E-02 0.  1.
    10030    2    1    2    0    0  0.00000000000E+00  0.00000000000E+00 -0.60369154253E+03  0.33561113787E+04  0.33013694292E+04 0.  0.
        4    1    3    3  502    0  0.77416769702E+03  0.13319881253E+03 -0.17777040863E+04  0.19435305447E+04  0.12699999809E+01 0.  1.
       -4    1    3    3    0  502 -0.77416769702E+03 -0.13319881253E+03  0.11740125438E+04  0.14125808340E+04  0.12699999809E+01 0. -1.
</event>
<event>
 5   0  0.2309822E-08  0.3297437E+04  0.7818609E-02  0.8163548E-01
        1   -1    0    0  501    0  0.00000000000E+00  0.00000000000E+00  0.22894952855E+04  0.22894952855E+04  0.50400001928E-02 0. -1.
       -1   -1    0    0    0  501  0.00000000000E+00  0.00000000000E+00 -0.11872804784E+04  0.11872804784E+04  0.50400001928E-02 0.  1.
    10030    2    1    2    0    0  0.00000000000E+00  0.00000000000E+00  0.11022148071E+04  0.34767757639E+04  0.32974372218E+04 0.  0.
        4    1    3    3  502    0  0.12061666064E+03 -0.11854503945E+04  0.17525678776E+04  0.21192774229E+04  0.12699999809E+01 0. -1.
       -4    1    3    3    0  502 -0.12061666064E+03  0.11854503945E+04 -0.65035307051E+03  0.13574983410E+04  0.12699999809E+01 0.  1.
</event>
<event>
 5   0  0.6821287E-08  0.3300568E+04  0.7818609E-02  0.8162751E-01
       -2   -1    0    0    0  501  0.00000000000E+00  0.00000000000E+00  0.12979365723E+04  0.12979365724E+04  0.25500000920E-02 0. -1.
        2   -1    0    0  501    0  0.00000000000E+00  0.00000000000E+00 -0.20982821522E+04  0.20982821522E+04  0.25500000920E-02 0.  1.
    10030    2    1    2    0    0  0.00000000000E+00  0.00000000000E+00 -0.80034557981E+03  0.33962187245E+04  0.33005679174E+04 0.  0.
        5    1    3    3  502    0 -0.52502482506E+03 -0.14920380481E+04 -0.88454428629E+03  0.18122553044E+04  0.46999998093E+01 0.  1.
       -5    1    3    3    0  502  0.52502482506E+03  0.14920380481E+04  0.84198706482E+02  0.15839634201E+04  0.46999998093E+01 0. -1.
</event>
<event>
 5   0  0.2309822E-08  0.3300901E+04  0.7818609E-02  0.8162666E-01
       -1   -1    0    0    0  501  0.00000000000E+00  0.00000000000E+00  0.13013710721E+04  0.13013710721E+04  0.50400001928E-02 0. -1.
        1   -1    0    0  501    0  0.00000000000E+00  0.00000000000E+00 -0.20931671307E+04  0.20931671307E+04  0.50400001928E-02 0.  1.
    10030    2    1    2    0    0  0.00000000000E+00  0.00000000000E+00 -0.79179605866E+03  0.33945382028E+04  0.33009011817E+04 0.  0.
        4    1    3    3  502    0  0.14478900128E+04 -0.77594635826E+03 -0.56013859121E+03  0.17355791812E+04  0.12699999809E+01 0.  1.
       -4    1    3    3    0  502 -0.14478900128E+04  0.77594635826E+03 -0.23165746745E+03  0.16589590215E+04  0.12699999809E+01 0. -1.
</event>
<event>
 5   0  0.7084130E-08  0.3303553E+04  0.7818609E-02  0.8161992E-01
       -2   -1    0    0    0  501  0.00000000000E+00  0.00000000000E+00  0.12125876956E+04  0.12125876956E+04  0.25500000920E-02 0.  1.
        2   -1    0    0  501    0  0.00000000000E+00  0.00000000000E+00 -0.22500350756E+04  0.22500350756E+04  0.25500000920E-02 0. -1.
    10030    2    1    2    0    0  0.00000000000E+00  0.00000000000E+00 -0.10374473800E+04  0.34626227711E+04  0.33035525407E+04 0.  0.
        3    1    3    3  502    0 -0.34103574238E+03 -0.11132165531E+03 -0.22087085687E+04  0.22376531099E+04  0.10100000352E+00 0. -1.
       -3    1    3    3    0  502  0.34103574238E+03  0.11132165531E+03  0.11712611887E+04  0.12249696612E+04  0.10100000352E+00 0.  1.
</event>
<event>
 5   0  0.7084130E-08  0.3299251E+04  0.7818609E-02  0.8163086E-01
       -2   -1    0    0    0  501  0.00000000000E+00  0.00000000000E+00  0.15117914857E+04  0.15117914857E+04  0.25500000920E-02 0.  1.
        2   -1    0    0  501    0  0.00000000000E+00  0.00000000000E+00 -0.18000266481E+04  0.18000266481E+04  0.25500000920E-02 0. -1.
    10030    2    1    2    0    0  0.00000000000E+00  0.00000000000E+00 -0.28823516246E+03  0.33118181338E+04  0.32992514064E+04 0.  0.
        3    1    3    3  502    0  0.16317887501E+04 -0.14017765627E+03 -0.34205040881E+03  0.16731356169E+04  0.10100000352E+00 0. -1.
       -3    1    3    3    0  502 -0.16317887501E+04  0.14017765627E+03  0.53815246352E+02  0.16386825169E+04  0.10100000352E+00 0.  1.
</event>
<event>
 5   0  0.2309822E-08  0.3299371E+04  0.7818609E-02  0.8163055E-01
       -1   -1    0    0    0  501  0.00000000000E+00  0.00000000000E+00  0.14243094723E+04  0.14243094723E+04  0.50400001928E-02 0.  1.
        1   -1    0    0  501    0  0.00000000000E+00  0.00000000000E+00 -0.19107238248E+04  0.19107238248E+04  0.50400001928E-02 0. -1.
    10030    2    1    2    0    0  0.00000000000E+00  0.00000000000E+00 -0.48641435251E+03  0.33350332972E+04  0.32993708750E+04 0.  0.
        4    1    3    3  502    0 -0.10966666939E+04  0.17892303393E+03 -0.14757181848E+04  0.18472782854E+04  0.12699999809E+01 0. -1.
       -4    1    3    3    0  502  0.10966666939E+04 -0.17892303393E+03  0.98930383232E+03  0.14877550118E+04  0.12699999809E+01 0.  1.
</event>
<event>
 5   0  0.2279938E-08  0.3298748E+04  0.7818609E-02  0.8163214E-01
       -1   -1    0    0    0  501  0.00000000000E+00  0.00000000000E+00  0.13421449541E+04  0.13421449542E+04  0.50400001928E-02 0. -1.
        1   -1    0    0  501    0  0.00000000000E+00  0.00000000000E+00 -0.20269308332E+04  0.20269308332E+04  0.50400001928E-02 0.  1.
    10030    2    1    2    0    0  0.00000000000E+00  0.00000000000E+00 -0.68478587904E+03  0.33690757873E+04  0.32987482415E+04 0.  0.
        3    1    3    3  502    0  0.33650768586E+03  0.22073452256E+03 -0.19760169134E+04  0.20165822582E+04  0.10100000352E+00 0.  1.
       -3    1    3    3    0  502 -0.33650768586E+03 -0.22073452256E+03  0.12912310343E+04  0.13524935291E+04  0.10100000352E+00 0. -1.
</event>
<event>
 5   0  0.2309822E-08  0.3300248E+04  0.7818609E-02  0.8162832E-01
        1   -1    0    0  501    0  0.00000000000E+00  0.00000000000E+00  0.19296735504E+04  0.19296735504E+04  0.50400001928E-02 0.  1.
       -1   -1    0    0    0  501  0.00000000000E+00  0.00000000000E+00 -0.14110723278E+04  0.14110723278E+04  0.50400001928E-02 0. -1.
    10030    2    1    2    0    0  0.00000000000E+00  0.00000000000E+00  0.51860122260E+03  0.33407458782E+04  0.33002478383E+04 0.  0.
        4    1    3    3  502    0 -0.59238235485E+03  0.29381285813E+03 -0.12710929370E+04  0.14328020510E+04  0.12699999809E+01 0. -1.
       -4    1    3    3    0  502  0.59238235485E+03 -0.29381285813E+03  0.17896941596E+04  0.19079438272E+04  0.12699999809E+01 0.  1.
</event>
<event>
 5   0  0.6821287E-08  0.3299843E+04  0.7818609E-02  0.8162935E-01
        2   -1    0    0  501    0  0.00000000000E+00  0.00000000000E+00  0.30801012622E+04  0.30801012622E+04  0.25500000920E-02 0. -1.
       -2   -1    0    0    0  501  0.00000000000E+00  0.00000000000E+00 -0.88381524489E+03  0.88381524489E+03  0.25500000920E-02 0.  1.
    10030    2    1    2    0    0  0.00000000000E+00  0.00000000000E+00  0.21962860173E+04  0.39639165071E+04  0.32998426940E+04 0.  0.
        5    1    3    3  502    0  0.75084719778E+03  0.85096265775E+02 -0.66372028663E+03  0.10057631917E+04  0.46999998093E+01 0.  1.
       -5    1    3    3    0  502 -0.75084719778E+03 -0.85096265775E+02  0.28600063039E+04  0.29581533154E+04  0.46999998093E+01 0. -1.
</event>
<event>
 5   0  0.2309822E-08  0.3299095E+04  0.7818609E-02  0.8163126E-01
        1   -1    0    0  501    0  0.00000000000E+00  0.00000000000E+00  0.13019140238E+04  0.13019140238E+04  0.50400001928E-02 0. -1.
       -1   -1    0    0    0  501  0.00000000000E+00  0.00000000000E+00 -0.20900051999E+04  0.20900051999E+04  0.50400001928E-02 0.  1.
    10030    2    1    2    0    0  0.00000000000E+00  0.00000000000E+00 -0.78809117612E+03  0.33919192238E+04  0.32990950757E+04 0.  0.
        4    1    3    3  502    0 -0.14347940930E+04 -0.60719255457E+03 -0.95122389426E+03  0.18254164998E+04  0.12699999809E+01 0. -1.
       -4    1    3    3    0  502  0.14347940930E+04  0.60719255457E+03  0.16313271814E+03  0.15665027240E+04  0.12699999809E+01 0.  1.
</event>
<event>
 5   0  0.2291682E-08  0.3294615E+04  0.7818609E-02  0.8164267E-01
        1   -1    0    0  501    0  0.00000000000E+00  0.00000000000E+00  0.10608329859E+04  0.10608329859E+04  0.50400001928E-02 0. -1.
       -1   -1    0    0    0  501  0.00000000000E+00  0.00000000000E+00 -0.25580109583E+04  0.25580109583E+04  0.50400001928E-02 0.  1.
    10030    2    1    2    0    0  0.00000000000E+00  0.00000000000E+00 -0.14971779725E+04  0.36188439442E+04  0.32946152448E+04 0.  0.
        2    1    3    3  502    0  0.95251012956E+03  0.70707878977E+03 -0.20040435039E+04  0.23288250959E+04  0.25500000920E-02 0.  1.
       -2    1    3    3    0  502 -0.95251012956E+03 -0.70707878977E+03  0.50686553147E+03  0.12900188483E+04  0.25500000920E-02 0. -1.
</event>
<event>
 5   0  0.2383270E-08  0.3299640E+04  0.7818609E-02  0.8162987E-01
       -1   -1    0    0    0  501  0.00000000000E+00  0.00000000000E+00  0.19153930198E+04  0.19153930198E+04  0.50400001928E-02 0.  1.
        1   -1    0    0  501    0  0.00000000000E+00  0.00000000000E+00 -0.14210692077E+04  0.14210692077E+04  0.50400001928E-02 0. -1.
    10030    2    1    2    0    0  0.00000000000E+00  0.00000000000E+00  0.49432381208E+03  0.33364622275E+04  0.32996400052E+04 0.  0.
        5    1    3    3  502    0  0.15433294836E+04  0.36659779268E+03  0.70568020723E+03  0.17361643014E+04  0.46999998093E+01 0.  1.
       -5    1    3    3    0  502 -0.15433294836E+04 -0.36659779268E+03 -0.21135639515E+03  0.16002979261E+04  0.46999998093E+01 0. -1.
</event>
<event>
 5   0  0.6765252E-08  0.3298203E+04  0.7818609E-02  0.8163353E-01
        2   -1    0    0  501    0  0.00000000000E+00  0.00000000000E+00  0.13146409913E+04  0.13146409913E+04  0.25500000920E-02 0. -1.
       -2   -1    0    0    0  501  0.00000000000E+00  0.00000000000E+00 -0.20686522257E+04  0.20686522257E+04  0.25500000920E-02 0.  1.
    10030    2    1    2    0    0  0.00000000000E+00  0.00000000000E+00 -0.75401123431E+03  0.33832932170E+04  0.32982025485E+04 0.  0.
        2    1    3    3  502    0 -0.14405784648E+04 -0.50941602343E+03  0.25929088929E+03  0.15498395928E+04  0.25500000920E-02 0. -1.
       -2    1    3    3    0  502  0.14405784648E+04  0.50941602343E+03 -0.10133021236E+04  0.18334536242E+04  0.25500000920E-02 0.  1.
</event>
<event>
 5   0  0.6706080E-08  0.3299951E+04  0.7818609E-02  0.8162908E-01
       -2   -1    0    0    0  501  0.00000000000E+00  0.00000000000E+00  0.98597746806E+03  0.98597746806E+03  0.25500000920E-02 0.  1.
        2   -1    0    0  501    0  0.00000000000E+00  0.00000000000E+00 -0.27611379470E+04  0.27611379470E+04  0.25500000920E-02 0. -1.
    10030    2    1    2    0    0  0.00000000000E+00  0.00000000000E+00 -0.17751604789E+04  0.37471154150E+04  0.32999513947E+04 0.  0.
        4    1    3    3  502    0  0.30236485521E+03 -0.26034579391E+03 -0.27055302586E+04  0.27347943306E+04  0.12699999809E+01 0. -1.
       -4    1    3    3    0  502 -0.30236485521E+03  0.26034579391E+03  0.93036977966E+03  0.10123210844E+04  0.12699999809E+01 0.  1.
</event>
<event>
 5   0  0.7084130E-08  0.3299980E+04  0.7818609E-02  0.8162901E-01
        2   -1    0    0  501    0  0.00000000000E+00  0.00000000000E+00  0.22682122529E+04  0.22682122529E+04  0.25500000920E-02 0.  1.
       -2   -1    0    0    0  501  0.00000000000E+00  0.00000000000E+00 -0.12002698543E+04  0.12002698543E+04  0.25500000920E-02 0. -1.
    10030    2    1    2    0    0  0.00000000000E+00  0.00000000000E+00  0.10679423986E+04  0.34684821072E+04  0.32999798729E+04 0.  0.
        3    1    3    3  502    0  0.12038448158E+04  0.91094128741E+03  0.12338633293E+04  0.19497371862E+04  0.10100000352E+00 0. -1.
       -3    1    3    3    0  502 -0.12038448158E+04 -0.91094128741E+03 -0.16592093072E+03  0.15187449210E+04  0.10100000352E+00 0.  1.
</event>
<event>
 5   0  0.2244093E-08  0.3300056E+04  0.7818609E-02  0.8162881E-01
       -1   -1    0    0    0  501  0.00000000000E+00  0.00000000000E+00  0.14580935369E+04  0.14580935369E+04  0.50400001928E-02 0. -1.
        1   -1    0    0  501    0  0.00000000000E+00  0.00000000000E+00 -0.18672272138E+04  0.18672272139E+04  0.50400001928E-02 0.  1.
    10030    2    1    2    0    0  0.00000000000E+00  0.00000000000E+00 -0.40913367695E+03  0.33253207508E+04  0.33000557162E+04 0.  0.
        1    1    3    3  502    0 -0.54213090628E+03  0.13962671553E+04 -0.90205405595E+03  0.17484763105E+04  0.50400001928E-02 0.  1.
       -1    1    3    3    0  502  0.54213090628E+03 -0.13962671553E+04  0.49292037900E+03  0.15768444402E+04  0.50400001928E-02 0. -1.
</event>
<event>
 5   0  0.2279938E-08  0.3300070E+04  0.7818609E-02  0.8162877E-01
       -1   -1    0    0    0  501  0.00000000000E+00  0.00000000000E+00  0.17771781778E+04  0.17771781778E+04  0.50400001928E-02 0.  1.
        1   -1    0    0  501    0  0.00000000000E+00  0.00000000000E+00 -0.15319883612E+04  0.15319883612E+04  0.50400001928E-02 0. -1.
    10030    2    1    2    0    0  0.00000000000E+00  0.00000000000E+00  0.24518981662E+03  0.33091665390E+04  0.33000704745E+04 0.  0.
        3    1    3    3  502    0 -0.53410441880E+03  0.14567701955E+04 -0.44035193950E+03  0.16128722124E+04  0.10100000352E+00 0. -1.
       -3    1    3    3    0  502  0.53410441880E+03 -0.14567701955E+04  0.68554175612E+03  0.16962943266E+04  0.10100000352E+00 0.  1.
</event>
<event>
 5   0  0.2383270E-08  0.3299432E+04  0.7818609E-02  0.8163040E-01
       -1   -1    0    0    0  501  0.00000000000E+00  0.00000000000E+00  0.14304472203E+04  0.14304472203E+04  0.50400001928E-02 0. -1.
        1   -1    0    0  501    0  0.00000000000E+00  0.00000000000E+00 -0.19025956483E+04  0.19025956483E+04  0.50400001928E-02 0.  1.
    10030    2    1    2    0    0  0.00000000000E+00  0.00000000000E+00 -0.47214842797E+03  0.33330428686E+04  0.32994318641E+04 0.  0.
        5    1    3    3  502    0  0.11760825883E+04  0.18879506466E+03  0.91692337274E+03  0.15031914024E+04  0.46999998093E+01 0. -1.
       -5    1    3    3    0  502 -0.11760825883E+04 -0.18879506466E+03 -0.13890718007E+04  0.18298514662E+04  0.46999998093E+01 0.  1.
</event>
<event>
 5   0  0.2383270E-08  0.3300435E+04  0.7818609E-02  0.8162785E-01
        1   -1    0    0  501    0  0.00000000000E+00  0.00000000000E+00  0.19209437939E+04  0.19209437939E+04  0.50400001928E-02 0.  1.
       -1   -1    0    0    0  501  0.00000000000E+00  0.00000000000E+00 -0.14176457784E+04  0.14176457784E+04  0.50400001928E-02 0. -1.
    10030    2    1    2    0    0  0.00000000000E+00  0.00000000000E+00  0.50329801551E+03  0.33385895723E+04  0.33004350380E+04 0.  0.
        5    1    3    3  502    0  0.37674346997E+03  0.15585960306E+04 -0.14277985794E+03  0.16098339686E+04  0.46999998093E+01 0. -1.
       -5    1    3    3    0  502 -0.37674346997E+03 -0.15585960306E+04  0.64607787345E+03  0.17287556037E+04  0.46999998093E+01 0.  1.
</event>
<event>
 5   0  0.6765252E-08  0.3301114E+04  0.7818609E-02  0.8162612E-01
        2   -1    0    0  501    0  0.00000000000E+00  0.00000000000E+00  0.19048122638E+04  0.19048122638E+04  0.25500000920E-02 0. -1.
       -2   -1    0    0    0  501  0.00000000000E+00  0.00000000000E+00 -0.14302398269E+04  0.14302398269E+04  0.25500000920E-02 0.  1.
    10030    2    1    2    0    0  0.00000000000E+00  0.00000000000E+00  0.47457243694E+03  0.33350520907E+04  0.33011139711E+04 0.  0.
        2    1    3    3  502    0  0.16283753118E+04 -0.33061591263E+02  0.50769281227E+03  0.17060044597E+04  0.25500000920E-02 0. -1.
       -2    1    3    3    0  502 -0.16283753118E+04  0.33061591263E+02 -0.33120375323E+02  0.16290476310E+04  0.25500000920E-02 0.  1.
</event>
<event>
 5   0  0.6765252E-08  0.3299629E+04  0.7818609E-02  0.8162990E-01
        2   -1    0    0  501    0  0.00000000000E+00  0.00000000000E+00  0.16310961960E+04  0.16310961960E+04  0.25500000920E-02 0. -1.
       -2   -1    0    0    0  501  0.00000000000E+00  0.00000000000E+00 -0.16687474678E+04  0.16687474678E+04  0.25500000920E-02 0.  1.
    10030    2    1    2    0    0  0.00000000000E+00  0.00000000000E+00 -0.37651271874E+02  0.32998436638E+04  0.32996288560E+04 0.  0.
        2    1    3    3  502    0  0.34748158876E+03 -0.16060916054E+04 -0.16585203325E+03  0.16515994056E+04  0.25500000920E-02 0. -1.
       -2    1    3    3    0  502 -0.34748158876E+03  0.16060916054E+04  0.12820076138E+03  0.16482442582E+04  0.25500000920E-02 0.  1.
</event>
<event>
 5   0  0.2279938E-08  0.3301205E+04  0.7818609E-02  0.8162589E-01
        1   -1    0    0  501    0  0.00000000000E+00  0.00000000000E+00  0.17836235473E+04  0.17836235473E+04  0.50400001928E-02 0.  1.
       -1   -1    0    0    0  501  0.00000000000E+00  0.00000000000E+00 -0.15275018417E+04  0.15275018417E+04  0.50400001928E-02 0. -1.
    10030    2    1    2    0    0  0.00000000000E+00  0.00000000000E+00  0.25612170558E+03  0.33111253890E+04  0.33012047821E+04 0.  0.
        3    1    3    3  502    0  0.20795037873E+03  0.11462723251E+04  0.13008928492E+04  0.17462834302E+04  0.10100000352E+00 0.  1.
       -3    1    3    3    0  502 -0.20795037873E+03 -0.11462723251E+04 -0.10447711436E+04  0.15648419588E+04  0.10100000352E+00 0. -1.
</event>
<event>
 5   0  0.2244093E-08  0.3292766E+04  0.7818609E-02  0.8164738E-01
        1   -1    0    0  501    0  0.00000000000E+00  0.00000000000E+00  0.19180547375E+04  0.19180547376E+04  0.50400001928E-02 0. -1.
       -1   -1    0    0    0  501  0.00000000000E+00  0.00000000000E+00 -0.14131909465E+04  0.14131909465E+04  0.50400001928E-02 0.  1.
    10030    2    1    2    0    0  0.00000000000E+00  0.00000000000E+00  0.50486379108E+03  0.33312456840E+04  0.32927663688E+04 0.  0.
        1    1    3    3  502    0 -0.39950423927E+03 -0.13410587303E+04 -0.62519358438E+03  0.15326151419E+04  0.50400001928E-02 0.  1.
       -1    1    3    3    0  502  0.39950423927E+03  0.13410587303E+04  0.11300573755E+04  0.17986305421E+04  0.50400001928E-02 0. -1.
</event>
<event>
 5   0  0.6603516E-08  0.3299049E+04  0.7818609E-02  0.8163137E-01
       -2   -1    0    0    0  501  0.00000000000E+00  0.00000000000E+00  0.10834281760E+04  0.10834281761E+04  0.25500000920E-02 0. -1.
        2   -1    0    0  501    0  0.00000000000E+00  0.00000000000E+00 -0.25114085366E+04  0.25114085366E+04  0.25500000920E-02 0.  1.
    10030    2    1    2    0    0  0.00000000000E+00  0.00000000000E+00 -0.14279803606E+04  0.35948367127E+04  0.32990488145E+04 0.  0.
        1    1    3    3  502    0 -0.14159405202E+04  0.15777935317E+03 -0.16198817828E+04  0.21572665277E+04  0.50400001928E-02 0.  1.
       -1    1    3    3    0  502  0.14159405202E+04 -0.15777935317E+03  0.19190142225E+03  0.14375701850E+04  0.50400001928E-02 0. -1.
</event>
<event>
 5   0  0.6821287E-08  0.3301142E+04  0.7818609E-02  0.8162605E-01
       -2   -1    0    0    0  501  0.00000000000E+00  0.00000000000E+00  0.12467681024E+04  0.12467681024E+04  0.25500000920E-02 0. -1.
        2   -1    0    0  501    0  0.00000000000E+00  0.00000000000E+00 -0.21851572509E+04  0.21851572509E+04  0.25500000920E-02 0.  1.
    10030    2    1    2    0    0  0.00000000000E+00  0.00000000000E+00 -0.93838914849E+03  0.34319253534E+04  0.33011418384E+04 0.  0.
        5    1    3    3  502    0  0.11775278734E+04 -0.42745559611E+03  0.64812702245E+03  0.14104541490E+04  0.46999998093E+01 0. -1.
       -5    1    3    3    0  502 -0.11775278734E+04  0.42745559611E+03 -0.15865161709E+04  0.20214712043E+04  0.46999998093E+01 0.  1.
</event>
<event>
 5   0  0.2291682E-08  0.3299457E+04  0.7818609E-02  0.8163034E-01
       -1   -1    0    0    0  501  0.00000000000E+00  0.00000000000E+00  0.15835995932E+04  0.15835995932E+04  0.50400001928E-02 0.  1.
        1   -1    0    0  501    0  0.00000000000E+00  0.00000000000E+00 -0.17186185883E+04  0.17186185883E+04  0.50400001928E-02 0. -1.
    10030    2    1    2    0    0  0.00000000000E+00  0.00000000000E+00 -0.13501899511E+03  0.33022181815E+04  0.32994567415E+04 0.  0.
        2    1    3    3  502    0  0.74331929232E+03  0.14653888423E+04 -0.21499519946E+03  0.16571393922E+04  0.25500000920E-02 0. -1.
       -2    1    3    3    0  502 -0.74331929232E+03 -0.14653888423E+04  0.79976204346E+02  0.16450787892E+04  0.25500000920E-02 0.  1.
</event>
<event>
 5   0  0.2291682E-08  0.3299673E+04  0.7818609E-02  0.8162979E-01
        1   -1    0    0  501    0  0.00000000000E+00  0.00000000000E+00  0.23029668201E+04  0.23029668201E+04  0.50400001928E-02 0.  1.
       -1   -1    0    0    0  501  0.00000000000E+00  0.00000000000E+00 -0.11819362459E+04  0.11819362459E+04  0.50400001928E-02 0. -1.
    10030    2    1    2    0    0  0.00000000000E+00  0.00000000000E+00  0.11210305742E+04  0.34849030661E+04  0.32996726855E+04 0.  0.
        2    1    3    3  502    0 -0.55613486535E+03 -0.81786743188E+03 -0.83413091130E+03  0.12938189602E+04  0.25500000920E-02 0. -1.
       -2    1    3    3    0  502  0.55613486535E+03  0.81786743188E+03  0.19551614855E+04  0.21910841059E+04  0.25500000920E-02 0.  1.
</event>
<event>
 5   0  0.2279938E-08  0.3299214E+04  0.7818609E-02  0.8163096E-01
        1   -1    0    0  501    0  0.00000000000E+00  0.00000000000E+00  0.15312708969E+04  0.15312708969E+04  0.50400001928E-02 0.  1.
       -1   -1    0    0    0  501  0.00000000000E+00  0.00000000000E+00 -0.17770876036E+04  0.17770876036E+04  0.50400001928E-02 0. -1.
    10030    2    1    2    0    0  0.00000000000E+00  0.00000000000E+00 -0.24581670670E+03  0.33083585006E+04  0.32992135601E+04 0.  0.
        3    1    3    3  502    0 -0.95018297507E+03 -0.13395562941E+04  0.32258294987E+02  0.16426501024E+04  0.10100000352E+00 0. -1.
       -3    1    3    3    0  502  0.95018297507E+03  0.13395562941E+04 -0.27807500169E+03  0.16657083982E+04  0.10100000352E+00 0.  1.
</event>
<event>
 5   0  0.7084130E-08  0.3299295E+04  0.7818609E-02  0.8163075E-01
        2   -1    0    0  501    0  0.00000000000E+00  0.00000000000E+00  0.15863508668E+04  0.15863508668E+04  0.25500000920E-02 0.  1.
       -2   -1    0    0    0  501  0.00000000000E+00  0.00000000000E+00 -0.17154693153E+04  0.17154693153E+04  0.25500000920E-02 0. -1.
    10030    2    1    2    0    0  0.00000000000E+00  0.00000000000E+00 -0.12911844853E+03  0.33018201821E+04  0.32992946127E+04 0.  0.
        3    1    3    3  502    0  0.16478157972E+03 -0.32416629445E+03  0.15457403859E+04  0.15879389491E+04  0.10100000352E+00 0.  1.
       -3    1    3    3    0  502 -0.16478157972E+03  0.32416629445E+03 -0.16748588344E+04  0.17138812330E+04  0.10100000352E+00 0. -1.
</event>
<event>
 5   0  0.2383270E-08  0.3299632E+04  0.7818609E-02  0.8162989E-01
       -1   -1    0    0    0  501  0.00000000000E+00  0.00000000000E+00  0.30571208368E+04  0.30571208368E+04  0.50400001928E-02 0. -1.
        1   -1    0    0  501    0  0.00000000000E+00  0.00000000000E+00 -0.89034513968E+03  0.89034513970E+03  0.50400001928E-02 0.  1.
    10030    2    1    2    0    0  0.00000000000E+00  0.00000000000E+00  0.21667756971E+04  0.39474659765E+04  0.32996319058E+04 0.  0.
        5    1    3    3  502    0 -0.92635329030E+03 -0.12012925768E+04  0.18592887976E+04  0.23996273037E+04  0.46999998093E+01 0. -1.
       -5    1    3    3    0  502  0.92635329030E+03  0.12012925768E+04  0.30748689948E+03  0.15478386728E+04  0.46999998093E+01 0.  1.
</event>
<event>
 5   0  0.2291682E-08  0.3299437E+04  0.7818609E-02  0.8163039E-01
        1   -1    0    0  501    0  0.00000000000E+00  0.00000000000E+00  0.19545834894E+04  0.19545834894E+04  0.50400001928E-02 0.  1.
       -1   -1    0    0    0  501  0.00000000000E+00  0.00000000000E+00 -0.13924049168E+04  0.13924049168E+04  0.50400001928E-02 0. -1.
    10030    2    1    2    0    0  0.00000000000E+00  0.00000000000E+00  0.56217857256E+03  0.33469884062E+04  0.32994373223E+04 0.  0.
        2    1    3    3  502    0  0.40948848195E+03 -0.23901387390E+03  0.18839766443E+04  0.19427239755E+04  0.25500000920E-02 0.  1.
       -2    1    3    3    0  502 -0.40948848195E+03  0.23901387390E+03 -0.13217980718E+04  0.14042644307E+04  0.25500000920E-02 0. -1.
</event>
<event>
 5   0  0.6603516E-08  0.3301025E+04  0.7818609E-02  0.8162635E-01
        2   -1    0    0  501    0  0.00000000000E+00  0.00000000000E+00  0.22757205504E+04  0.22757205504E+04  0.25500000920E-02 0. -1.
       -2   -1    0    0    0  501  0.00000000000E+00  0.00000000000E+00 -0.11970675085E+04  0.11970675085E+04  0.25500000920E-02 0.  1.
    10030    2    1    2    0    0  0.00000000000E+00  0.00000000000E+00  0.10786530419E+04  0.34727880589E+04  0.33010247678E+04 0.  0.
        1    1    3    3  502    0  0.15793751698E+03  0.15293341037E+04  0.11708831371E+04  0.19325564366E+04  0.50400001928E-02 0. -1.
       -1    1    3    3    0  502 -0.15793751698E+03 -0.15293341037E+04 -0.92230095271E+02  0.15402316223E+04  0.50400001928E-02 0.  1.
</event>
<event>
 5   0  0.6821287E-08  0.3296964E+04  0.7818609E-02  0.8163668E-01
       -2   -1    0    0    0  501  0.00000000000E+00  0.00000000000E+00  0.10992417935E+04  0.10992417935E+04  0.25500000920E-02 0.  1.
        2   -1    0    0  501    0  0.00000000000E+00  0.00000000000E+00 -0.24721521874E+04  0.24721521874E+04  0.25500000920E-02 0. -1.
    10030    2    1    2    0    0  0.00000000000E+00  0.00000000000E+00 -0.13729103939E+04  0.35713939808E+04  0.32969640606E+04 0.  0.
        5    1    3    3  502    0  0.99005226498E+03 -0.15024694880E+03  0.73200375460E+03  0.12404149385E+04  0.46999998093E+01 0.  1.
       -5    1    3    3    0  502 -0.99005226498E+03  0.15024694880E+03 -0.21049141485E+04  0.23309790423E+04  0.46999998093E+01 0. -1.
</event>
<event>
 5   0  0.6821287E-08  0.3300898E+04  0.7818609E-02  0.8162667E-01
       -2   -1    0    0    0  501  0.00000000000E+00  0.00000000000E+00  0.97067410583E+03  0.97067410583E+03  0.25500000920E-02 0.  1.
        2   -1    0    0  501    0  0.00000000000E+00  0.00000000000E+00 -0.28062785939E+04  0.28062785939E+04  0.25500000920E-02 0. -1.
    10030    2    1    2    0    0  0.00000000000E+00  0.00000000000E+00 -0.18356044881E+04  0.37769526997E+04  0.33008980383E+04 0.  0.
        5    1    3    3  502    0  0.41081168449E+03 -0.12367851309E+04  0.24094619821E+03  0.13253229269E+04  0.46999998093E+01 0.  1.
       -5    1    3    3    0  502 -0.41081168449E+03  0.12367851309E+04 -0.20765506863E+04  0.24516297728E+04  0.46999998093E+01 0. -1.
</event>
<event>
 5   0  0.6821287E-08  0.3300378E+04  0.7818609E-02  0.8162799E-01
       -2   -1    0    0    0  501  0.00000000000E+00  0.00000000000E+00  0.13034753069E+04  0.13034753069E+04  0.25500000920E-02 0. -1.
        2   -1    0    0  501    0  0.00000000000E+00  0.00000000000E+00 -0.20891257257E+04  0.20891257257E+04  0.25500000920E-02 0.  1.
    10030    2    1    2    0    0  0.00000000000E+00  0.00000000000E+00 -0.78565041880E+03  0.33926010325E+04  0.33003780367E+04 0.  0.
        5    1    3    3  502    0  0.82084272008E+03  0.76022401765E+03  0.85407381898E+03  0.14075466267E+04  0.46999998093E+01 0. -1.
       -5    1    3    3    0  502 -0.82084272008E+03 -0.76022401765E+03 -0.16397242378E+04  0.19850544058E+04  0.46999998093E+01 0.  1.
</event>
<event>
 5   0  0.6765252E-08  0.3301464E+04  0.7818609E-02  0.8162523E-01
       -2   -1    0    0    0  501  0.00000000000E+00  0.00000000000E+00  0.19664712975E+04  0.19664712975E+04  0.25500000920E-02 0.  1.
        2   -1    0    0  501    0  0.00000000000E+00  0.00000000000E+00 -0.13856879788E+04  0.13856879788E+04  0.25500000920E-02 0. -1.
    10030    2    1    2    0    0  0.00000000000E+00  0.00000000000E+00  0.58078331874E+03  0.33521592763E+04  0.33014636982E+04 0.  0.
        2    1    3    3  502    0 -0.61378579339E+03  0.53892839695E+03 -0.11661175833E+04  0.14237299727E+04  0.25500000920E-02 0. -1.
       -2    1    3    3    0  502  0.61378579339E+03 -0.53892839695E+03  0.17469009020E+04  0.19284293035E+04  0.25500000920E-02 0.  1.
</event>
<event>
 5   0  0.6706080E-08  0.3297805E+04  0.7818609E-02  0.8163454E-01
       -2   -1    0    0    0  501  0.00000000000E+00  0.00000000000E+00  0.11728182501E+04  0.11728182501E+04  0.25500000920E-02 0.  1.
        2   -1    0    0  501    0  0.00000000000E+00  0.00000000000E+00 -0.23182443643E+04  0.23182443643E+04  0.25500000920E-02 0. -1.
    10030    2    1    2    0    0  0.00000000000E+00  0.00000000000E+00 -0.11454261142E+04  0.34910626144E+04  0.32978049055E+04 0.  0.
        4    1    3    3  502    0  0.47739110590E+03 -0.71192526320E+03  0.91842755324E+03  0.12562844550E+04  0.12699999809E+01 0.  1.
       -4    1    3    3    0  502 -0.47739110590E+03  0.71192526320E+03 -0.20638536674E+04  0.22347781594E+04  0.12699999809E+01 0. -1.
</event>
<event>
 5   0  0.7084130E-08  0.3300350E+04  0.7818609E-02  0.8162806E-01
       -2   -1    0    0    0  501  0.00000000000E+00  0.00000000000E+00  0.92062632962E+03  0.92062632963E+03  0.25500000920E-02 0.  1.
        2   -1    0    0  501    0  0.00000000000E+00  0.00000000000E+00 -0.29578525511E+04  0.29578525511E+04  0.25500000920E-02 0. -1.
    10030    2    1    2    0    0  0.00000000000E+00  0.00000000000E+00 -0.20372262215E+04  0.38784788807E+04  0.33003496407E+04 0.  0.
        3    1    3    3  502    0  0.10873442449E+04 -0.11014823049E+04 -0.34609407693E+03  0.15859892481E+04  0.10100000352E+00 0.  1.
       -3    1    3    3    0  502 -0.10873442449E+04  0.11014823049E+04 -0.16911321446E+04  0.22924896326E+04  0.10100000352E+00 0. -1.
</event>
<event>
 5   0  0.6821287E-08  0.3301556E+04  0.7818609E-02  0.8162500E-01
        2   -1    0    0  501    0  0.00000000000E+00  0.00000000000E+00  0.18856030465E+04  0.18856030465E+04  0.25500000920E-02 0. -1.
       -2   -1    0    0    0  501  0.00000000000E+00  0.00000000000E+00 -0.14451971629E+04  0.14451971629E+04  0.25500000920E-02 0.  1.
    10030    2    1    2    0    0  0.00000000000E+00  0.00000000000E+00  0.44040588365E+03  0.33308002095E+04  0.33015561017E+04 0.  0.
        5    1    3    3  502    0 -0.14099092910E+04 -0.79889801281E+03  0.53757462146E+03  0.17073637009E+04  0.46999998093E+01 0.  1.
       -5    1    3    3    0  502  0.14099092910E+04  0.79889801281E+03 -0.97168737817E+02  0.16234365085E+04  0.46999998093E+01 0. -1.
</event>
<event>
 5   0  0.6706080E-08  0.3299687E+04  0.7818609E-02  0.8162975E-01
        2   -1    0    0  501    0  0.00000000000E+00  0.00000000000E+00  0.22462648791E+04  0.22462648791E+04  0.25500000920E-02 0.  1.
       -2   -1    0    0    0  501  0.00000000000E+00  0.00000000000E+00 -0.12117822084E+04  0.12117822084E+04  0.25500000920E-02 0. -1.
    10030    2    1    2    0    0  0.00000000000E+00  0.00000000000E+00  0.10344826707E+04  0.34580470876E+04  0.32996871464E+04 0.  0.
        4    1    3    3  502    0 -0.52807975486E+03 -0.10106649534E+04  0.17668026956E+04  0.21028326738E+04  0.12699999809E+01 0.  1.
       -4    1    3    3    0  502  0.52807975486E+03  0.10106649534E+04 -0.73232002492E+03  0.13552144138E+04  0.12699999809E+01 0. -1.
</event>
<event>
 5   0  0.2200750E-08  0.3298891E+04  0.7818609E-02  0.8163178E-01
       -3   -1    0    0    0  501  0.00000000000E+00  0.00000000000E+00  0.10302601361E+04  0.10302601410E+04  0.10100000352E+00 0.  1.
        3   -1    0    0  501    0  0.00000000000E+00  0.00000000000E+00 -0.26407611203E+04  0.26407611223E+04  0.10100000352E+00 0. -1.
    10030    2    1    2    0    0  0.00000000000E+00  0.00000000000E+00 -0.16105009843E+04  0.36710212633E+04  0.32988912827E+04 0.  0.
        5    1    3    3  502    0 -0.16893322064E+03  0.16031232434E+04 -0.11941056591E+04  0.20061039310E+04  0.46999998093E+01 0. -1.
       -5    1    3    3    0  502  0.16893322064E+03 -0.16031232434E+04 -0.41639532515E+03  0.16649173323E+04  0.46999998093E+01 0.  1.
</event>
<event>
 5   0  0.6603516E-08  0.3302007E+04  0.7818609E-02  0.8162385E-01
       -2   -1    0    0    0  501  0.00000000000E+00  0.00000000000E+00  0.16825956206E+04  0.16825956206E+04  0.25500000920E-02 0. -1.
        2   -1    0    0  501    0  0.00000000000E+00  0.00000000000E+00 -0.16200043383E+04  0.16200043383E+04  0.25500000920E-02 0.  1.
    10030    2    1    2    0    0  0.00000000000E+00  0.00000000000E+00  0.62591282386E+02  0.33025999589E+04  0.33020067868E+04 0.  0.
        1    1    3    3  502    0 -0.13949452563E+04  0.18042873070E+03  0.89596549407E+03  0.16676873093E+04  0.50400001928E-02 0. -1.
       -1    1    3    3    0  502  0.13949452563E+04 -0.18042873070E+03 -0.83337421168E+03  0.16349126496E+04  0.50400001928E-02 0.  1.
</event>
<event>
 5   0  0.2291682E-08  0.3300418E+04  0.7818609E-02  0.8162789E-01
       -1   -1    0    0    0  501  0.00000000000E+00  0.00000000000E+00  0.12773182180E+04  0.12773182180E+04  0.50400001928E-02 0.  1.
        1   -1    0    0  501    0  0.00000000000E+00  0.00000000000E+00 -0.21319586752E+04  0.21319586752E+04  0.50400001928E-02 0. -1.
    10030    2    1    2    0    0  0.00000000000E+00  0.00000000000E+00 -0.85464045728E+03  0.34092768932E+04  0.33004179468E+04 0.  0.
        2    1    3    3  502    0 -0.37170077941E+02  0.10347060490E+04 -0.17546903829E+04  0.20373847360E+04  0.25500000920E-02 0. -1.
       -2    1    3    3    0  502  0.37170077941E+02 -0.10347060490E+04  0.90004992563E+03  0.13718921572E+04  0.25500000920E-02 0.  1.
</event>
<event>
 5   0  0.7084130E-08  0.3302671E+04  0.7818609E-02  0.8162216E-01
       -2   -1    0    0    0  501  0.00000000000E+00  0.00000000000E+00  0.13389261248E+04  0.13389261248E+04  0.25500000920E-02 0. -1.
        2   -1    0    0  501    0  0.00000000000E+00  0.00000000000E+00 -0.20366386166E+04  0.20366386166E+04  0.25500000920E-02 0.  1.
    10030    2    1    2    0    0  0.00000000000E+00  0.00000000000E+00 -0.69771249180E+03  0.33755647414E+04  0.33026708286E+04 0.  0.
        3    1    3    3  502    0 -0.82780838449E+03 -0.94463043471E+03 -0.14445791455E+04  0.19142628601E+04  0.10100000352E+00 0.  1.
       -3    1    3    3    0  502  0.82780838449E+03  0.94463043471E+03  0.74686665373E+03  0.14613018813E+04  0.10100000352E+00 0. -1.
</event>
<event>
 5   0  0.2309822E-08  0.3299768E+04  0.7818609E-02  0.8162955E-01
       -1   -1    0    0    0  501  0.00000000000E+00  0.00000000000E+00  0.17402779485E+04  0.17402779485E+04  0.50400001928E-02 0. -1.
        1   -1    0    0  501    0  0.00000000000E+00  0.00000000000E+00 -0.15641849919E+04  0.15641849919E+04  0.50400001928E-02 0.  1.
    10030    2    1    2    0    0  0.00000000000E+00  0.00000000000E+00  0.17609295655E+03  0.33044629404E+04  0.32997676577E+04 0.  0.
        4    1    3    3  502    0 -0.43977280999E+03 -0.14152499960E+04  0.81418676091E+03  0.16909270742E+04  0.12699999809E+01 0. -1.
       -4    1    3    3    0  502  0.43977280999E+03  0.14152499960E+04 -0.63809380436E+03  0.16135358662E+04  0.12699999809E+01 0.  1.
</event>
<event>
 5   0  0.2244093E-08  0.3296006E+04  0.7818609E-02  0.8163912E-01
       -1   -1    0    0    0  501  0.00000000000E+00  0.00000000000E+00  0.14155866353E+04  0.14155866353E+04  0.50400001928E-02 0. -1.
        1   -1    0    0  501    0  0.00000000000E+00  0.00000000000E+00 -0.19185785487E+04  0.19185785487E+04  0.50400001928E-02 0.  1.
    10030    2    1    2    0    0  0.00000000000E+00  0.00000000000E+00 -0.50299191334E+03  0.33341651840E+04  0.32960061604E+04 0.  0.
        1    1    3    3  502    0  0.10163898018E+04  0.86908225685E+03  0.72275437168E+03  0.15201072594E+04  0.50400001928E-02 0. -1.
       -1    1    3    3    0  502 -0.10163898018E+04 -0.86908225685E+03 -0.12257462850E+04  0.18140579246E+04  0.50400001928E-02 0.  1.
</event>
<event>
 5   0  0.2383270E-08  0.3301174E+04  0.7818609E-02  0.8162597E-01
       -1   -1    0    0    0  501  0.00000000000E+00  0.00000000000E+00  0.24756840423E+04  0.24756840423E+04  0.50400001928E-02 0. -1.
        1   -1    0    0  501    0  0.00000000000E+00  0.00000000000E+00 -0.11004789571E+04  0.11004789571E+04  0.50400001928E-02 0.  1.
    10030    2    1    2    0    0  0.00000000000E+00  0.00000000000E+00  0.13752050852E+04  0.35761629993E+04  0.33011744534E+04 0.  0.
        5    1    3    3  502    0  0.16186617091E+04  0.27620258401E+03  0.50612952413E+03  0.17182964765E+04  0.46999998093E+01 0.  1.
       -5    1    3    3    0  502 -0.16186617091E+04 -0.27620258401E+03  0.86907556106E+03  0.18578665229E+04  0.46999998093E+01 0. -1.
</event>
<event>
 5   0  0.6706080E-08  0.3300442E+04  0.7818609E-02  0.8162783E-01
       -2   -1    0    0    0  501  0.00000000000E+00  0.00000000000E+00  0.91420365076E+03  0.91420365077E+03  0.25500000920E-02 0.  1.
        2   -1    0    0  501    0  0.00000000000E+00  0.00000000000E+00 -0.29787985942E+04  0.29787985942E+04  0.25500000920E-02 0. -1.
    10030    2    1    2    0    0  0.00000000000E+00  0.00000000000E+00 -0.20645949435E+04  0.38930022450E+04  0.33004415158E+04 0.  0.
        4    1    3    3  502    0  0.19873652764E+03  0.26527519375E+02  0.89978266632E+03  0.92185160206E+03  0.12699999809E+01 0.  1.
       -4    1    3    3    0  502 -0.19873652764E+03 -0.26527519375E+02 -0.29643776098E+04  0.29711506429E+04  0.12699999809E+01 0. -1.
</event>
<event>
 5   0  0.2291682E-08  0.3296316E+04  0.7818609E-02  0.8163834E-01
        1   -1    0    0  501    0  0.00000000000E+00  0.00000000000E+00  0.12973267347E+04  0.12973267347E+04  0.50400001928E-02 0.  1.
       -1   -1    0    0    0  501  0.00000000000E+00  0.00000000000E+00 -0.20938626485E+04  0.20938626485E+04  0.50400001928E-02 0. -1.
    10030    2    1    2    0    0  0.00000000000E+00  0.00000000000E+00 -0.79653591379E+03  0.33911893832E+04  0.32963155145E+04 0.  0.
        2    1    3    3  502    0  0.15062833422E+03  0.11379452595E+04  0.81848809775E+03  0.14097982390E+04  0.25500000920E-02 0.  1.
       -2    1    3    3    0  502 -0.15062833422E+03 -0.11379452595E+04 -0.16150240115E+04  0.19813911442E+04  0.25500000920E-02 0. -1.
</event>
<event>
 5   0  0.6765252E-08  0.3297475E+04  0.7818609E-02  0.8163538E-01
        2   -1    0    0  501    0  0.00000000000E+00  0.00000000000E+00  0.18498675230E+04  0.18498675230E+04  0.25500000920E-02 0.  1.
       -2   -1    0    0    0  501  0.00000000000E+00  0.00000000000E+00 -0.14694754276E+04  0.14694754276E+04  0.25500000920E-02 0. -1.
    10030    2    1    2    0    0  0.00000000000E+00  0.00000000000E+00  0.38039209548E+03  0.33193429506E+04  0.32974747122E+04 0.  0.
        2    1    3    3  502    0 -0.10646857876E+04 -0.60207984254E+02  0.14559746306E+04  0.18047279442E+04  0.25500000920E-02 0.  1.
       -2    1    3    3    0  502  0.10646857876E+04  0.60207984254E+02 -0.10755825351E+04  0.15146150064E+04  0.25500000920E-02 0. -1.
</event>
<event>
 5   0  0.6603516E-08  0.3301641E+04  0.7818609E-02  0.8162478E-01
        2   -1    0    0  501    0  0.00000000000E+00  0.00000000000E+00  0.18799326285E+04  0.18799326285E+04  0.25500000920E-02 0.  1.
       -2   -1    0    0    0  501  0.00000000000E+00  0.00000000000E+00 -0.14496304819E+04  0.14496304819E+04  0.25500000920E-02 0. -1.
    10030    2    1    2    0    0  0.00000000000E+00  0.00000000000E+00  0.43030214657E+03  0.33295631105E+04  0.33016405875E+04 0.  0.
        1    1    3    3  502    0 -0.92057934737E+03 -0.10434389217E+04  0.11109066011E+04  0.17805461507E+04  0.50400001928E-02 0.  1.
       -1    1    3    3    0  502  0.92057934737E+03  0.10434389217E+04 -0.68060445457E+03  0.15490169598E+04  0.50400001928E-02 0. -1.
</event>
<event>
 5   0  0.6821287E-08  0.3300284E+04  0.7818609E-02  0.8162823E-01
       -2   -1    0    0    0  501  0.00000000000E+00  0.00000000000E+00  0.11795278335E+04  0.11795278335E+04  0.25500000920E-02 0. -1.
        2   -1    0    0  501    0  0.00000000000E+00  0.00000000000E+00 -0.23085239668E+04  0.23085239668E+04  0.25500000920E-02 0.  1.
    10030    2    1    2    0    0  0.00000000000E+00  0.00000000000E+00 -0.11289961333E+04  0.34880518003E+04  0.33002837897E+04 0.  0.
        5    1    3    3  502    0 -0.63227341396E+03 -0.18584280867E+03 -0.21633943146E+04  0.22615490864E+04  0.46999998093E+01 0.  1.
       -5    1    3    3    0  502  0.63227341396E+03  0.18584280867E+03  0.10343981814E+04  0.12265027139E+04  0.46999998093E+01 0. -1.
</event>
<event>
 5   0  0.2291682E-08  0.3300088E+04  0.7818609E-02  0.8162873E-01
       -1   -1    0    0    0  501  0.00000000000E+00  0.00000000000E+00  0.19935126710E+04  0.19935126710E+04  0.50400001928E-02 0. -1.
        1   -1    0    0  501    0  0.00000000000E+00  0.00000000000E+00 -0.13657525536E+04  0.13657525537E+04  0.50400001928E-02 0.  1.
    10030    2    1    2    0    0  0.00000000000E+00  0.00000000000E+00  0.62776011737E+03  0.33592652247E+04  0.33000878905E+04 0.  0.
        2    1    3    3  502    0  0.57733234814E+03  0.12612062567E+04  0.12236010714E+04  0.18496360302E+04  0.25500000920E-02 0. -1.
       -2    1    3    3    0  502 -0.57733234814E+03 -0.12612062567E+04 -0.59584095407E+03  0.15096291945E+04  0.25500000920E-02 0.  1.
</event>
<event>
 5   0  0.2309822E-08  0.3308556E+04  0.7818609E-02  0.8160722E-01
        1   -1    0    0  501    0  0.00000000000E+00  0.00000000000E+00  0.24876930745E+04  0.24876930745E+04  0.50400001928E-02 0.  1.
       -1   -1    0    0    0  501  0.00000000000E+00  0.00000000000E+00 -0.11000699420E+04  0.11000699420E+04  0.50400001928E-02 0. -1.
    10030    2    1    2    0    0  0.00000000000E+00  0.00000000000E+00  0.13876231324E+04  0.35877630165E+04  0.33085564080E+04 0.  0.
        4    1    3    3  502    0  0.44377679327E+03  0.80305691622E+03 -0.79886767629E+03  0.12165646017E+04  0.12699999809E+01 0. -1.
       -4    1    3    3    0  502 -0.44377679327E+03 -0.80305691622E+03  0.21864908087E+04  0.23711984148E+04  0.12699999809E+01 0.  1.
</event>
<event>
 5   0  0.6706080E-08  0.3299938E+04  0.7818609E-02  0.8162911E-01
       -2   -1    0    0    0  501  0.00000000000E+00  0.00000000000E+00  0.15727424217E+04  0.15727424217E+04  0.25500000920E-02 0.  1.
        2   -1    0    0  501    0  0.00000000000E+00  0.00000000000E+00 -0.17309878818E+04  0.17309878818E+04  0.25500000920E-02 0. -1.
    10030    2    1    2    0    0  0.00000000000E+00  0.00000000000E+00 -0.15824546013E+03  0.33037303035E+04  0.32999382256E+04 0.  0.
        4    1    3    3  502    0 -0.57710217697E+03  0.47107731896E+02  0.14676868337E+04  0.15777744819E+04  0.12699999809E+01 0.  1.
       -4    1    3    3    0  502  0.57710217697E+03 -0.47107731896E+02 -0.16259322938E+04  0.17259558216E+04  0.12699999809E+01 0. -1.
</event>
<event>
 5   0  0.7084130E-08  0.3290797E+04  0.7818609E-02  0.8165241E-01
        2   -1    0    0  501    0  0.00000000000E+00  0.00000000000E+00  0.13146679867E+04  0.13146679867E+04  0.25500000920E-02 0.  1.
       -2   -1    0    0    0  501  0.00000000000E+00  0.00000000000E+00 -0.20593312680E+04  0.20593312680E+04  0.25500000920E-02 0. -1.
    10030    2    1    2    0    0  0.00000000000E+00  0.00000000000E+00 -0.74466328128E+03  0.33739992546E+04  0.32907974061E+04 0.  0.
        3    1    3    3  502    0 -0.54069203734E+03 -0.68704690163E+03 -0.18014732682E+04  0.20024203531E+04  0.10100000352E+00 0. -1.
       -3    1    3    3    0  502  0.54069203734E+03  0.68704690163E+03  0.10568099870E+04  0.13715789015E+04  0.10100000352E+00 0.  1.
</event>
<event>
 5   0  0.2244093E-08  0.3298247E+04  0.7818609E-02  0.8163342E-01
       -1   -1    0    0    0  501  0.00000000000E+00  0.00000000000E+00  0.17887419740E+04  0.17887419740E+04  0.50400001928E-02 0.  1.
        1   -1    0    0  501    0  0.00000000000E+00  0.00000000000E+00 -0.15204028727E+04  0.15204028727E+04  0.50400001928E-02 0. -1.
    10030    2    1    2    0    0  0.00000000000E+00  0.00000000000E+00  0.26833910132E+03  0.33091448467E+04  0.32982470713E+04 0.  0.
        1    1    3    3  502    0 -0.53819712771E+03  0.11681344665E+03  0.16937530782E+04  0.17810393088E+04  0.50400001928E-02 0.  1.
       -1    1    3    3    0  502  0.53819712771E+03 -0.11681344665E+03 -0.14254139769E+04  0.15281055379E+04  0.50400001928E-02 0. -1.
</event>
<event>
 5   0  0.2279938E-08  0.3300727E+04  0.7818609E-02  0.8162710E-01
        1   -1    0    0  501    0  0.00000000000E+00  0.00000000000E+00  0.17293431404E+04  0.17293431404E+04  0.50400001928E-02 0. -1.
       -1   -1    0    0    0  501  0.00000000000E+00  0.00000000000E+00 -0.15749906366E+04  0.15749906366E+04  0.50400001928E-02 0.  1.
    10030    2    1    2    0    0  0.00000000000E+00  0.00000000000E+00  0.15435250386E+03  0.33043337770E+04  0.33007267403E+04 0.  0.
        3    1    3    3  502    0  0.14064824881E+04 -0.77004388090E+03  0.46816505812E+03  0.16704308126E+04  0.10100000352E+00 0. -1.
       -3    1    3    3    0  502 -0.14064824881E+04  0.77004388090E+03 -0.31381255426E+03  0.16339029644E+04  0.10100000352E+00 0.  1.
</event>
<event>
 5   0  0.2291682E-08  0.3298044E+04  0.7818609E-02  0.8163393E-01
       -1   -1    0    0    0  501  0.00000000000E+00  0.00000000000E+00  0.12518642282E+04  0.12518642282E+04  0.50400001928E-02 0.  1.
        1   -1    0    0  501    0  0.00000000000E+00  0.00000000000E+00 -0.21721795104E+04  0.21721795104E+04  0.50400001928E-02 0. -1.
    10030    2    1    2    0    0  0.00000000000E+00  0.00000000000E+00 -0.92031528215E+03  0.34240437386E+04  0.32980441637E+04 0.  0.
        2    1    3    3  502    0 -0.11823585692E+04  0.10621151081E+04 -0.91651137938E+03  0.18346807345E+04  0.25500000920E-02 0. -1.
       -2    1    3    3    0  502  0.11823585692E+04 -0.10621151081E+04 -0.38039027630E+01  0.15893630041E+04  0.25500000920E-02 0.  1.
</event>
<event>
 5   0  0.2291682E-08  0.3299969E+04  0.7818609E-02  0.8162903E-01
        1   -1    0    0  501    0  0.00000000000E+00  0.00000000000E+00  0.83665645147E+03  0.83665645148E+03  0.50400001928E-02 0.  1.
       -1   -1    0    0    0  501  0.00000000000E+00  0.00000000000E+00 -0.32539627349E+04  0.32539627349E+04  0.50400001928E-02 0. -1.
    10030    2    1    2    0    0  0.00000000000E+00  0.00000000000E+00 -0.24173062834E+04  0.40906191864E+04  0.32999690393E+04 0.  0.
        2    1    3    3  502    0  0.11601950730E+04 -0.13430194090E+02 -0.26628475729E+04  0.29046497507E+04  0.25500000920E-02 0. -1.
       -2    1    3    3    0  502 -0.11601950730E+04  0.13430194090E+02  0.24554128949E+03  0.11859694357E+04  0.25500000920E-02 0.  1.
</event>
<event>
 5   0  0.6821287E-08  0.3300203E+04  0.7818609E-02  0.8162844E-01
        2   -1    0    0  501    0  0.00000000000E+00  0.00000000000E+00  0.15190539279E+04  0.15190539279E+04  0.25500000920E-02 0.  1.
       -2   -1    0    0    0  501  0.00000000000E+00  0.00000000000E+00 -0.17924539888E+04  0.17924539888E+04  0.25500000920E-02 0. -1.
    10030    2    1    2    0    0  0.00000000000E+00  0.00000000000E+00 -0.27340006087E+03  0.33115079166E+04  0.33002025830E+04 0.  0.
        5    1    3    3  502    0 -0.12691450920E+03  0.91770448131E+03  0.12334531208E+04  0.15426333002E+04  0.46999998093E+01 0.  1.
       -5    1    3    3    0  502  0.12691450920E+03 -0.91770448131E+03 -0.15068531817E+04  0.17688746165E+04  0.46999998093E+01 0. -1.
</event>
<event>
 5   0  0.2383270E-08  0.3300242E+04  0.7818609E-02  0.8162834E-01
       -1   -1    0    0    0  501  0.00000000000E+00  0.00000000000E+00  0.16462562927E+04  0.16462562927E+04  0.50400001928E-02 0.  1.
        1   -1    0    0  501    0  0.00000000000E+00  0.00000000000E+00 -0.16539949074E+04  0.16539949074E+04  0.50400001928E-02 0. -1.
    10030    2    1    2    0    0  0.00000000000E+00  0.00000000000E+00 -0.77386147244E+01  0.33002512001E+04  0.33002421271E+04 0.  0.
        5    1    3    3  502    0  0.90962717473E+03  0.44628075815E+03 -0.13062896117E+04  0.16531795885E+04  0.46999998093E+01 0. -1.
       -5    1    3    3    0  502 -0.90962717473E+03 -0.44628075815E+03  0.12985509970E+04  0.16470716116E+04  0.46999998093E+01 0.  1.
</event>
<event>
 5   0  0.2279938E-08  0.3298902E+04  0.7818609E-02  0.8163175E-01
        1   -1    0    0  501    0  0.00000000000E+00  0.00000000000E+00  0.22749925163E+04  0.22749925163E+04  0.50400001928E-02 0. -1.
       -1   -1    0    0    0  501  0.00000000000E+00  0.00000000000E+00 -0.11959106622E+04  0.11959106622E+04  0.50400001928E-02 0.  1.
    10030    2    1    2    0    0  0.00000000000E+00  0.00000000000E+00  0.10790818541E+04  0.34709031785E+04  0.32989015182E+04 0.  0.
        3    1    3    3  502    0  0.29973655821E+03 -0.54949292604E+03  0.21451835119E+04  0.22346357176E+04  0.10100000352E+00 0. -1.
       -3    1    3    3    0  502 -0.29973655821E+03  0.54949292604E+03 -0.10661016578E+04  0.12362674610E+04  0.10100000352E+00 0.  1.
</event>
<event>
 5   0  0.2383270E-08  0.3307803E+04  0.7818609E-02  0.8160913E-01
       -1   -1    0    0    0  501  0.00000000000E+00  0.00000000000E+00  0.12188892882E+04  0.12188892882E+04  0.50400001928E-02 0. -1.
        1   -1    0    0  501    0  0.00000000000E+00  0.00000000000E+00 -0.22441664122E+04  0.22441664123E+04  0.50400001928E-02 0.  1.
    10030    2    1    2    0    0  0.00000000000E+00  0.00000000000E+00 -0.10252771241E+04  0.34630557005E+04  0.33078031385E+04 0.  0.
        5    1    3    3  502    0  0.11622935371E+03  0.61850595555E+02  0.12133870217E+04  0.12205182969E+04  0.46999998093E+01 0. -1.
       -5    1    3    3    0  502 -0.11622935371E+03 -0.61850595555E+02 -0.22386641457E+04  0.22425374035E+04  0.46999998093E+01 0.  1.
</event>
<event>
 5   0  0.2244093E-08  0.3300005E+04  0.7818609E-02  0.8162894E-01
        1   -1    0    0  501    0  0.00000000000E+00  0.00000000000E+00  0.15357995657E+04  0.15357995657E+04  0.50400001928E-02 0.  1.
       -1   -1    0    0    0  501  0.00000000000E+00  0.00000000000E+00 -0.17726977453E+04  0.17726977453E+04  0.50400001928E-02 0. -1.
    10030    2    1    2    0    0  0.00000000000E+00  0.00000000000E+00 -0.23689817964E+03  0.33084973110E+04  0.33000051075E+04 0.  0.
        1    1    3    3  502    0 -0.94304321664E+03  0.56598525185E+03  0.11146911628E+04  0.15659521711E+04  0.50400001928E-02 0.  1.
       -1    1    3    3    0  502  0.94304321664E+03 -0.56598525185E+03 -0.13515893425E+04  0.17425451399E+04  0.50400001928E-02 0. -1.
</event>
<event>
 5   0  0.6765252E-08  0.3299524E+04  0.7818609E-02  0.8163017E-01
        2   -1    0    0  501    0  0.00000000000E+00  0.00000000000E+00  0.13204433150E+04  0.13204433150E+04  0.25500000920E-02 0.  1.
       -2   -1    0    0    0  501  0.00000000000E+00  0.00000000000E+00 -0.20612127147E+04  0.20612127147E+04  0.25500000920E-02 0. -1.
    10030    2    1    2    0    0  0.00000000000E+00  0.00000000000E+00 -0.74076939972E+03  0.33816560297E+04  0.32995239353E+04 0.  0.
        2    1    3    3  502    0 -0.40300476327E+03  0.15918110684E+04 -0.53385172333E+03  0.17266363193E+04  0.25500000920E-02 0. -1.
       -2    1    3    3    0  502  0.40300476327E+03 -0.15918110684E+04 -0.20691767639E+03  0.16550197103E+04  0.25500000920E-02 0.  1.
</event>
<event>
 5   0  0.6603516E-08  0.3298675E+04  0.7818609E-02  0.8163233E-01
        2   -1    0    0  501    0  0.00000000000E+00  0.00000000000E+00  0.14505168834E+04  0.14505168834E+04  0.25500000920E-02 0.  1.
       -2   -1    0    0    0  501  0.00000000000E+00  0.00000000000E+00 -0.18754104555E+04  0.18754104555E+04  0.25500000920E-02 0. -1.
    10030    2    1    2    0    0  0.00000000000E+00  0.00000000000E+00 -0.42489357208E+03  0.33259273390E+04  0.32986752063E+04 0.  0.
        1    1    3    3  502    0 -0.26440019391E+03  0.96984328821E+03  0.11059534199E+04  0.14945355242E+04  0.50400001928E-02 0.  1.
       -1    1    3    3    0  502  0.26440019391E+03 -0.96984328821E+03 -0.15308469920E+04  0.18313918147E+04  0.50400001928E-02 0. -1.
</event>
<event>
 5   0  0.2383270E-08  0.3300199E+04  0.7818609E-02  0.8162845E-01
       -1   -1    0    0    0  501  0.00000000000E+00  0.00000000000E+00  0.13251626848E+04  0.13251626848E+04  0.50400001928E-02 0. -1.
        1   -1    0    0  501    0  0.00000000000E+00  0.00000000000E+00 -0.20547127247E+04  0.20547127248E+04  0.50400001928E-02 0.  1.
    10030    2    1    2    0    0  0.00000000000E+00  0.00000000000E+00 -0.72955003994E+03  0.33798754096E+04  0.33001991642E+04 0.  0.
        5    1    3    3  502    0  0.93596872594E+03 -0.13378503295E+04 -0.60912610761E+03  0.17426811714E+04  0.46999998093E+01 0.  1.
       -5    1    3    3    0  502 -0.93596872594E+03  0.13378503295E+04 -0.12042393233E+03  0.16371942382E+04  0.46999998093E+01 0. -1.
</event>
<event>
 5   0  0.2291682E-08  0.3304123E+04  0.7818609E-02  0.8161847E-01
       -1   -1    0    0    0  501  0.00000000000E+00  0.00000000000E+00  0.22199478921E+04  0.22199478921E+04  0.50400001928E-02 0. -1.
        1   -1    0    0  501    0  0.00000000000E+00  0.00000000000E+00 -0.12294467240E+04  0.12294467240E+04  0.50400001928E-02 0.  1.
    10030    2    1    2    0    0  0.00000000000E+00  0.00000000000E+00  0.99050116813E+03  0.34493946162E+04  0.33041232807E+04 0.  0.
        2    1    3    3  502    0  0.13964776384E+04  0.76014332997E+03  0.26813082323E+02  0.15901844604E+04  0.25500000920E-02 0. -1.
       -2    1    3    3    0  502 -0.13964776384E+04 -0.76014332997E+03  0.96368808581E+03  0.18592101558E+04  0.25500000920E-02 0.  1.
</event>
<event>
 5   0  0.2279938E-08  0.3301250E+04  0.7818609E-02  0.8162577E-01
        1   -1    0    0  501    0  0.00000000000E+00  0.00000000000E+00  0.15184955042E+04  0.15184955042E+04  0.50400001928E-02 0. -1.
       -1   -1    0    0    0  501  0.00000000000E+00  0.00000000000E+00 -0.17942520299E+04  0.17942520299E+04  0.50400001928E-02 0.  1.
    10030    2    1    2    0    0  0.00000000000E+00  0.00000000000E+00 -0.27575652574E+03  0.33127475341E+04  0.33012504544E+04 0.  0.
        3    1    3    3  502    0 -0.13004498008E+04  0.66991874113E+03  0.62937778551E+03  0.15925065812E+04  0.10100000352E+00 0. -1.
       -3    1    3    3    0  502  0.13004498008E+04 -0.66991874113E+03 -0.90513431125E+03  0.17202409528E+04  0.10100000352E+00 0.  1.
</event>
<event>
 5   0  0.6765252E-08  0.3325220E+04  0.7818609E-02  0.8156508E-01
        2   -1    0    0  501    0  0.00000000000E+00  0.00000000000E+00  0.19274499791E+04  0.19274499791E+04  0.25500000920E-02 0.  1.
       -2   -1    0    0    0  501  0.00000000000E+00  0.00000000000E+00 -0.14341600771E+04  0.14341600771E+04  0.25500000920E-02 0. -1.
    10030    2    1    2    0    0  0.00000000000E+00  0.00000000000E+00  0.49328990201E+03  0.33616100561E+04  0.33252198788E+04 0.  0.
        2    1    3    3  502    0 -0.58589747781E+03  0.89873668139E+03 -0.10374001278E+04  0.14923814868E+04  0.25500000920E-02 0. -1.
       -2    1    3    3    0  502  0.58589747781E+03 -0.89873668139E+03  0.15306900298E+04  0.18692285693E+04  0.25500000920E-02 0.  1.
</event>
<event>
 5   0  0.6603516E-08  0.3300752E+04  0.7818609E-02  0.8162704E-01
        2   -1    0    0  501    0  0.00000000000E+00  0.00000000000E+00  0.20408024675E+04  0.20408024675E+04  0.25500000920E-02 0.  1.
       -2   -1    0    0    0  501  0.00000000000E+00  0.00000000000E+00 -0.13346419914E+04  0.13346419914E+04  0.25500000920E-02 0. -1.
    10030    2    1    2    0    0  0.00000000000E+00  0.00000000000E+00  0.70616047605E+03  0.33754444589E+04  0.33007518352E+04 0.  0.
        1    1    3    3  502    0 -0.30737016555E+03 -0.11748114529E+04  0.14959944159E+04  0.19268257993E+04  0.50400001928E-02 0.  1.
       -1    1    3    3    0  502  0.30737016555E+03  0.11748114529E+04 -0.78983393982E+03  0.14486186596E+04  0.50400001928E-02 0. -1.
</event>
<event>
 5   0  0.2244093E-08  0.3302509E+04  0.7818609E-02  0.8162257E-01
        1   -1    0    0  501    0  0.00000000000E+00  0.00000000000E+00  0.18465444170E+04  0.18465444170E+04  0.50400001928E-02 0.  1.
       -1   -1    0    0    0  501  0.00000000000E+00  0.00000000000E+00 -0.14766183816E+04  0.14766183816E+04  0.50400001928E-02 0. -1.
    10030    2    1    2    0    0  0.00000000000E+00  0.00000000000E+00  0.36992603537E+03  0.33231627986E+04  0.33025090029E+04 0.  0.
        1    1    3    3  502    0  0.73020691248E+03 -0.76230263943E+03 -0.10927552695E+04  0.15193490475E+04  0.50400001928E-02 0. -1.
       -1    1    3    3    0  502 -0.73020691248E+03  0.76230263943E+03  0.14626813048E+04  0.18038137511E+04  0.50400001928E-02 0.  1.
</event>
<event>
 5   0  0.6765252E-08  0.3299708E+04  0.7818609E-02  0.8162970E-01
        2   -1    0    0  501    0  0.00000000000E+00  0.00000000000E+00  0.14942345209E+04  0.14942345209E+04  0.25500000920E-02 0. -1.
       -2   -1    0    0    0  501  0.00000000000E+00  0.00000000000E+00 -0.18216804055E+04  0.18216804055E+04  0.25500000920E-02 0.  1.
    10030    2    1    2    0    0  0.00000000000E+00  0.00000000000E+00 -0.32744588462E+03  0.33159149264E+04  0.32997077131E+04 0.  0.
        2    1    3    3  502    0  0.71448644588E+03  0.13688003250E+04 -0.74788058104E+03  0.17156429042E+04  0.25500000920E-02 0.  1.
       -2    1    3    3    0  502 -0.71448644588E+03 -0.13688003250E+04  0.42043469642E+03  0.16002720222E+04  0.25500000920E-02 0. -1.
</event>
<event>
 5   0  0.2309822E-08  0.3302804E+04  0.7818609E-02  0.8162182E-01
        1   -1    0    0  501    0  0.00000000000E+00  0.00000000000E+00  0.21432859671E+04  0.21432859671E+04  0.50400001928E-02 0.  1.
       -1   -1    0    0    0  501  0.00000000000E+00  0.00000000000E+00 -0.12724051302E+04  0.12724051302E+04  0.50400001928E-02 0. -1.
    10030    2    1    2    0    0  0.00000000000E+00  0.00000000000E+00  0.87088083691E+03  0.34156910973E+04  0.33028036938E+04 0.  0.
        4    1    3    3  502    0 -0.77738116398E+03  0.60975438127E+03  0.18039236039E+04  0.20567605260E+04  0.12699999809E+01 0.  1.
       -4    1    3    3    0  502  0.77738116398E+03 -0.60975438127E+03 -0.93304276703E+03  0.13589305713E+04  0.12699999809E+01 0. -1.
</event>
<event>
 5   0  0.2279938E-08  0.3300334E+04  0.7818609E-02  0.8162810E-01
        1   -1    0    0  501    0  0.00000000000E+00  0.00000000000E+00  0.12883022702E+04  0.12883022703E+04  0.50400001928E-02 0. -1.
       -1   -1    0    0    0  501  0.00000000000E+00  0.00000000000E+00 -0.21136745012E+04  0.21136745012E+04  0.50400001928E-02 0.  1.
    10030    2    1    2    0    0  0.00000000000E+00  0.00000000000E+00 -0.82537223098E+03  0.34019767715E+04  0.33003343216E+04 0.  0.
        3    1    3    3  502    0  0.13275625624E+04  0.45774185749E+03 -0.13060384480E+04  0.19177294917E+04  0.10100000352E+00 0.  1.
       -3    1    3    3    0  502 -0.13275625624E+04 -0.45774185749E+03  0.48066621704E+03  0.14842472798E+04  0.10100000352E+00 0. -1.
</event>
<event>
 5   0  0.6821287E-08  0.3302854E+04  0.7818609E-02  0.8162169E-01
       -2   -1    0    0    0  501  0.00000000000E+00  0.00000000000E+00  0.13830444443E+04  0.13830444443E+04  0.25500000920E-02 0.  1.
        2   -1    0    0  501    0  0.00000000000E+00  0.00000000000E+00 -0.19718901159E+04  0.19718901159E+04  0.25500000920E-02 0. -1.
    10030    2    1    2    0    0  0.00000000000E+00  0.00000000000E+00 -0.58884567158E+03  0.33549345602E+04  0.33028543229E+04 0.  0.
        5    1    3    3  502    0 -0.15520978589E+04 -0.35416483225E+03  0.15153192032E+03  0.15991949552E+04  0.46999998093E+01 0.  1.
       -5    1    3    3    0  502  0.15520978589E+04  0.35416483225E+03 -0.74037759189E+03  0.17557396050E+04  0.46999998093E+01 0. -1.
</event>
<event>
 5   0  0.6765252E-08  0.3297811E+04  0.7818609E-02  0.8163452E-01
       -2   -1    0    0    0  501  0.00000000000E+00  0.00000000000E+00  0.11200667522E+04  0.11200667522E+04  0.25500000920E-02 0.  1.
        2   -1    0    0  501    0  0.00000000000E+00  0.00000000000E+00 -0.24274358066E+04  0.24274358066E+04  0.25500000920E-02 0. -1.
    10030    2    1    2    0    0  0.00000000000E+00  0.00000000000E+00 -0.13073690544E+04  0.35475025588E+04  0.32978114804E+04 0.  0.
        2    1    3    3  502    0 -0.10598260867E+04 -0.11064326275E+04 -0.13093106058E+04  0.20153706249E+04  0.25500000920E-02 0. -1.
       -2    1    3    3    0  502  0.10598260867E+04  0.11064326275E+04  0.19415514156E+01  0.15321319339E+04  0.25500000920E-02 0.  1.
</event>
<event>
 5   0  0.2200750E-08  0.3300250E+04  0.7818609E-02  0.8162832E-01
        3   -1    0    0  501    0  0.00000000000E+00  0.00000000000E+00  0.15859707100E+04  0.15859707132E+04  0.10100000352E+00 0. -1.
       -3   -1    0    0    0  501  0.00000000000E+00  0.00000000000E+00 -0.17168742777E+04  0.17168742807E+04  0.10100000352E+00 0.  1.
    10030    2    1    2    0    0  0.00000000000E+00  0.00000000000E+00 -0.13090356774E+03  0.33028449939E+04  0.33002498860E+04 0.  0.
        3    1    3    3  502    0  0.13024059463E+04  0.10131858953E+04 -0.55176780679E+02  0.16510152618E+04  0.10100000352E+00 0. -1.
       -3    1    3    3    0  502 -0.13024059463E+04 -0.10131858953E+04 -0.75726787066E+02  0.16518297321E+04  0.10100000352E+00 0.  1.
</event>
<event>
 5   0  0.2383270E-08  0.3300034E+04  0.7818609E-02  0.8162887E-01
       -1   -1    0    0    0  501  0.00000000000E+00  0.00000000000E+00  0.24487947199E+04  0.24487947199E+04  0.50400001928E-02 0. -1.
        1   -1    0    0  501    0  0.00000000000E+00  0.00000000000E+00 -0.11117942908E+04  0.11117942908E+04  0.50400001928E-02 0.  1.
    10030    2    1    2    0    0  0.00000000000E+00  0.00000000000E+00  0.13370004290E+04  0.35605890107E+04  0.33000339325E+04 0.  0.
        5    1    3    3  502    0 -0.60162683281E+03 -0.14853181878E+04  0.24452579522E+03  0.16210921996E+04  0.46999998093E+01 0.  1.
       -5    1    3    3    0  502  0.60162683281E+03  0.14853181878E+04  0.10924746338E+04  0.19394968111E+04  0.46999998093E+01 0. -1.
</event>
<event>
 5   0  0.2291682E-08  0.3299918E+04  0.7818609E-02  0.8162916E-01
       -1   -1    0    0    0  501  0.00000000000E+00  0.00000000000E+00  0.14855588767E+04  0.14855588767E+04  0.50400001928E-02 0.  1.
        1   -1    0    0  501    0  0.00000000000E+00  0.00000000000E+00 -0.18325522897E+04  0.18325522897E+04  0.50400001928E-02 0. -1.
    10030    2    1    2    0    0  0.00000000000E+00  0.00000000000E+00 -0.34699341308E+03  0.33181111664E+04  0.32999177693E+04 0.  0.
        2    1    3    3  502    0 -0.90970733477E+03 -0.11513858810E+04 -0.93204798643E+03  0.17383815263E+04  0.25500000920E-02 0. -1.
       -2    1    3    3    0  502  0.90970733477E+03  0.11513858810E+04  0.58505457335E+03  0.15797296401E+04  0.25500000920E-02 0.  1.
</event>
<event>
 5   0  0.2244093E-08  0.3300997E+04  0.7818609E-02  0.8162642E-01
        1   -1    0    0  501    0  0.00000000000E+00  0.00000000000E+00  0.24879603417E+04  0.24879603417E+04  0.50400001928E-02 0. -1.
       -1   -1    0    0    0  501  0.00000000000E+00  0.00000000000E+00 -0.10949309675E+04  0.10949309675E+04  0.50400001928E-02 0.  1.
    10030    2    1    2    0    0  0.00000000000E+00  0.00000000000E+00  0.13930293742E+04  0.35828913093E+04  0.33009967126E+04 0.  0.
        1    1    3    3  502    0  0.49875544296E+03  0.15733289959E+04  0.69123034938E+03  0.17893911023E+04  0.50400001928E-02 0.  1.
       -1    1    3    3    0  502 -0.49875544296E+03 -0.15733289959E+04  0.70179902483E+03  0.17935002070E+04  0.50400001928E-02 0. -1.
</event>
<event>
 5   0  0.6765252E-08  0.3299591E+04  0.7818609E-02  0.8162999E-01
        2   -1    0    0  501    0  0.00000000000E+00  0.00000000000E+00  0.14607956664E+04  0.14607956664E+04  0.25500000920E-02 0.  1.
       -2   -1    0    0    0  501  0.00000000000E+00  0.00000000000E+00 -0.18632482395E+04  0.18632482395E+04  0.25500000920E-02 0. -1.
    10030    2    1    2    0    0  0.00000000000E+00  0.00000000000E+00 -0.40245257318E+03  0.33240439059E+04  0.32995908557E+04 0.  0.
        2    1    3    3  502    0  0.21452990397E+03 -0.65635493886E+03 -0.17106627586E+04  0.18447742298E+04  0.25500000920E-02 0. -1.
       -2    1    3    3    0  502 -0.21452990397E+03  0.65635493886E+03  0.13082101854E+04  0.14792696761E+04  0.25500000920E-02 0.  1.
</event>
<event>
 5   0  0.2244093E-08  0.3297317E+04  0.7818609E-02  0.8163578E-01
       -1   -1    0    0    0  501  0.00000000000E+00  0.00000000000E+00  0.10356578513E+04  0.10356578513E+04  0.50400001928E-02 0. -1.
        1   -1    0    0  501    0  0.00000000000E+00  0.00000000000E+00 -0.26244911793E+04  0.26244911794E+04  0.50400001928E-02 0.  1.
    10030    2    1    2    0    0  0.00000000000E+00  0.00000000000E+00 -0.15888333280E+04  0.36601490307E+04  0.32973170279E+04 0.  0.
        1    1    3    3  502    0  0.45108168746E+03  0.11914625079E+04  0.36716180599E+03  0.13258451600E+04  0.50400001928E-02 0. -1.
       -1    1    3    3    0  502 -0.45108168746E+03 -0.11914625079E+04 -0.19559951340E+04  0.23343038707E+04  0.50400001928E-02 0.  1.
</event>
<event>
 5   0  0.6821287E-08  0.3300097E+04  0.7818609E-02  0.8162871E-01
        2   -1    0    0  501    0  0.00000000000E+00  0.00000000000E+00  0.15074998323E+04  0.15074998323E+04  0.25500000920E-02 0.  1.
       -2   -1    0    0    0  501  0.00000000000E+00  0.00000000000E+00 -0.18060770157E+04  0.18060770157E+04  0.25500000920E-02 0. -1.
    10030    2    1    2    0    0  0.00000000000E+00  0.00000000000E+00 -0.29857718334E+03  0.33135768480E+04  0.33000974521E+04 0.  0.
        5    1    3    3  502    0  0.55058346512E+03  0.13932805436E+04  0.54510384718E+03  0.15942186548E+04  0.46999998093E+01 0.  1.
       -5    1    3    3    0  502 -0.55058346512E+03 -0.13932805436E+04 -0.84368103052E+03  0.17193581932E+04  0.46999998093E+01 0. -1.
</event>
<event>
 5   0  0.2279938E-08  0.3299873E+04  0.7818609E-02  0.8162928E-01
        1   -1    0    0  501    0  0.00000000000E+00  0.00000000000E+00  0.17548631493E+04  0.17548631493E+04  0.50400001928E-02 0. -1.
       -1   -1    0    0    0  501  0.00000000000E+00  0.00000000000E+00 -0.15512840201E+04  0.15512840201E+04  0.50400001928E-02 0.  1.
    10030    2    1    2    0    0  0.00000000000E+00  0.00000000000E+00  0.20357912917E+03  0.33061471694E+04  0.32998734285E+04 0.  0.
        3    1    3    3  502    0  0.11142448424E+04  0.68033832884E+03 -0.90903359265E+03  0.15908311957E+04  0.10100000352E+00 0.  1.
       -3    1    3    3    0  502 -0.11142448424E+04 -0.68033832884E+03  0.11126127218E+04  0.17153159737E+04  0.10100000352E+00 0. -1.
</event>
<event>
 5   0  0.2200750E-08  0.3300271E+04  0.7818609E-02  0.8162827E-01
        3   -1    0    0  501    0  0.00000000000E+00  0.00000000000E+00  0.10266221138E+04  0.10266221188E+04  0.10100000352E+00 0.  1.
       -3   -1    0    0    0  501  0.00000000000E+00  0.00000000000E+00 -0.26523355916E+04  0.26523355935E+04  0.10100000352E+00 0. -1.
    10030    2    1    2    0    0  0.00000000000E+00  0.00000000000E+00 -0.16257134778E+04  0.36789577123E+04  0.33002705248E+04 0.  0.
        4    1    3    3  502    0  0.98611780849E+03  0.10872445103E+04  0.27586390400E+02  0.14680911345E+04  0.12699999809E+01 0.  1.
       -4    1    3    3    0  502 -0.98611780849E+03 -0.10872445103E+04 -0.16532998682E+04  0.22108665777E+04  0.12699999809E+01 0. -1.
</event>
<event>
 5   0  0.2383270E-08  0.3299698E+04  0.7818609E-02  0.8162972E-01
       -1   -1    0    0    0  501  0.00000000000E+00  0.00000000000E+00  0.22203802632E+04  0.22203802632E+04  0.50400001928E-02 0. -1.
        1   -1    0    0  501    0  0.00000000000E+00  0.00000000000E+00 -0.12259166555E+04  0.12259166555E+04  0.50400001928E-02 0.  1.
    10030    2    1    2    0    0  0.00000000000E+00  0.00000000000E+00  0.99446360767E+03  0.34462969187E+04  0.32996976505E+04 0.  0.
        5    1    3    3  502    0 -0.61988087775E+03  0.14175776846E+04 -0.10110815290E+03  0.15504914521E+04  0.46999998093E+01 0.  1.
       -5    1    3    3    0  502  0.61988087775E+03 -0.14175776846E+04  0.10955717606E+04  0.18958054666E+04  0.46999998093E+01 0. -1.
</event>
<event>
 5   0  0.6765252E-08  0.3298598E+04  0.7818609E-02  0.8163252E-01
        2   -1    0    0  501    0  0.00000000000E+00  0.00000000000E+00  0.25782074865E+04  0.25782074865E+04  0.25500000920E-02 0.  1.
       -2   -1    0    0    0  501  0.00000000000E+00  0.00000000000E+00 -0.10550691251E+04  0.10550691251E+04  0.25500000920E-02 0. -1.
    10030    2    1    2    0    0  0.00000000000E+00  0.00000000000E+00  0.15231383614E+04  0.36332766116E+04  0.32985979549E+04 0.  0.
        2    1    3    3  502    0 -0.91285136614E+03  0.13655561185E+04  0.92548339061E+03  0.18853542467E+04  0.25500000920E-02 0.  1.
       -2    1    3    3    0  502  0.91285136614E+03 -0.13655561185E+04  0.59765497079E+03  0.17479223648E+04  0.25500000920E-02 0. -1.
</event>
<event>
 5   0  0.2200750E-08  0.3299863E+04  0.7818609E-02  0.8162930E-01
        3   -1    0    0  501    0  0.00000000000E+00  0.00000000000E+00  0.17302753913E+04  0.17302753943E+04  0.10100000352E+00 0. -1.
       -3   -1    0    0    0  501  0.00000000000E+00  0.00000000000E+00 -0.15733182081E+04  0.15733182114E+04  0.10100000352E+00 0.  1.
    10030    2    1    2    0    0  0.00000000000E+00  0.00000000000E+00  0.15695718319E+03  0.33035936057E+04  0.32998628993E+04 0.  0.
        1    1    3    3  502    0  0.73999133482E+03 -0.13871592101E+04 -0.42256294079E+03  0.16279917962E+04  0.50400001928E-02 0. -1.
       -1    1    3    3    0  502 -0.73999133482E+03  0.13871592101E+04  0.57952012398E+03  0.16756018094E+04  0.50400001928E-02 0.  1.
</event>
<event>
 5   0  0.2244093E-08  0.3306292E+04  0.7818609E-02  0.8161296E-01
        1   -1    0    0  501    0  0.00000000000E+00  0.00000000000E+00  0.16460400786E+04  0.16460400786E+04  0.50400001928E-02 0. -1.
       -1   -1    0    0    0  501  0.00000000000E+00  0.00000000000E+00 -0.16602829259E+04  0.16602829259E+04  0.50400001928E-02 0.  1.
    10030    2    1    2    0    0  0.00000000000E+00  0.00000000000E+00 -0.14242847338E+02  0.33063230045E+04  0.33062923269E+04 0.  0.
        1    1    3    3  502    0  0.14056465246E+04 -0.12926051480E+01 -0.87721478843E+03  0.16569096560E+04  0.50400001928E-02 0.  1.
       -1    1    3    3    0  502 -0.14056465246E+04  0.12926051480E+01  0.86297194109E+03  0.16494133485E+04  0.50400001928E-02 0. -1.
</event>
<event>
 5   0  0.6765252E-08  0.3300837E+04  0.7818609E-02  0.8162682E-01
       -2   -1    0    0    0  501  0.00000000000E+00  0.00000000000E+00  0.14777542863E+04  0.14777542863E+04  0.25500000920E-02 0.  1.
        2   -1    0    0  501    0  0.00000000000E+00  0.00000000000E+00 -0.18432576037E+04  0.18432576037E+04  0.25500000920E-02 0. -1.
    10030    2    1    2    0    0  0.00000000000E+00  0.00000000000E+00 -0.36550331744E+03  0.33210118899E+04  0.33008373632E+04 0.  0.
        2    1    3    3  502    0 -0.11854075868E+04  0.61502383182E+03  0.79293644712E+03  0.15531238424E+04  0.25500000920E-02 0.  1.
       -2    1    3    3    0  502  0.11854075868E+04 -0.61502383182E+03 -0.11584397646E+04  0.17678880476E+04  0.25500000920E-02 0. -1.
</event>
<event>
 5   0  0.2291682E-08  0.3299636E+04  0.7818609E-02  0.8162988E-01
       -1   -1    0    0    0  501  0.00000000000E+00  0.00000000000E+00  0.23627579045E+04  0.23627579045E+04  0.50400001928E-02 0. -1.
        1   -1    0    0  501    0  0.00000000000E+00  0.00000000000E+00 -0.11520007948E+04  0.11520007948E+04  0.50400001928E-02 0.  1.
    10030    2    1    2    0    0  0.00000000000E+00  0.00000000000E+00  0.12107571096E+04  0.35147586993E+04  0.32996357277E+04 0.  0.
        2    1    3    3  502    0  0.12336754117E+04 -0.41290022452E+03  0.16861495976E+04  0.21296812161E+04  0.25500000920E-02 0. -1.
       -2    1    3    3    0  502 -0.12336754117E+04  0.41290022452E+03 -0.47539248797E+03  0.13850774832E+04  0.25500000920E-02 0.  1.
</event>
<event>
 5   0  0.2291682E-08  0.3294967E+04  0.7818609E-02  0.8164177E-01
        1   -1    0    0  501    0  0.00000000000E+00  0.00000000000E+00  0.12861675074E+04  0.12861675074E+04  0.50400001928E-02 0. -1.
       -1   -1    0    0    0  501  0.00000000000E+00  0.00000000000E+00 -0.21103024207E+04  0.21103024207E+04  0.50400001928E-02 0.  1.
    10030    2    1    2    0    0  0.00000000000E+00  0.00000000000E+00 -0.82413491332E+03  0.33964699282E+04  0.32949673166E+04 0.  0.
        2    1    3    3  502    0  0.78385477803E+03  0.12581630990E+04  0.32896595914E+03  0.15184272452E+04  0.25500000920E-02 0.  1.
       -2    1    3    3    0  502 -0.78385477803E+03 -0.12581630990E+04 -0.11531008725E+04  0.18780426829E+04  0.25500000920E-02 0. -1.
</event>
<event>
 5   0  0.2309822E-08  0.3300262E+04  0.7818609E-02  0.8162829E-01
        1   -1    0    0  501    0  0.00000000000E+00  0.00000000000E+00  0.15080286434E+04  0.15080286434E+04  0.50400001928E-02 0. -1.
       -1   -1    0    0    0  501  0.00000000000E+00  0.00000000000E+00 -0.18056240374E+04  0.18056240374E+04  0.50400001928E-02 0.  1.
    10030    2    1    2    0    0  0.00000000000E+00  0.00000000000E+00 -0.29759539395E+03  0.33136526808E+04  0.33002622730E+04 0.  0.
        4    1    3    3  502    0 -0.11637843981E+04  0.13067878836E+03  0.10184422517E+04  0.15519978427E+04  0.12699999809E+01 0. -1.
       -4    1    3    3    0  502  0.11637843981E+04 -0.13067878836E+03 -0.13160376456E+04  0.17616548381E+04  0.12699999809E+01 0.  1.
</event>
<event>
 5   0  0.2309822E-08  0.3300257E+04  0.7818609E-02  0.8162830E-01
       -1   -1    0    0    0  501  0.00000000000E+00  0.00000000000E+00  0.90442096619E+03  0.90442096621E+03  0.50400001928E-02 0.  1.
        1   -1    0    0  501    0  0.00000000000E+00  0.00000000000E+00 -0.30106820688E+04  0.30106820688E+04  0.50400001928E-02 0. -1.
    10030    2    1    2    0    0  0.00000000000E+00  0.00000000000E+00 -0.21062611026E+04  0.39151030350E+04  0.33002569509E+04 0.  0.
        4    1    3    3  502    0  0.12894404812E+04 -0.34778581552E+03 -0.22028716701E+04  0.25760933477E+04  0.12699999809E+01 0. -1.
       -4    1    3    3    0  502 -0.12894404812E+04  0.34778581552E+03  0.96610567573E+02  0.13390096873E+04  0.12699999809E+01 0.  1.
</event>
<event>
 5   0  0.2383270E-08  0.3292909E+04  0.7818609E-02  0.8164702E-01
        1   -1    0    0  501    0  0.00000000000E+00  0.00000000000E+00  0.19794188924E+04  0.19794188924E+04  0.50400001928E-02 0. -1.
       -1   -1    0    0    0  501  0.00000000000E+00  0.00000000000E+00 -0.13694995030E+04  0.13694995030E+04  0.50400001928E-02 0.  1.
    10030    2    1    2    0    0  0.00000000000E+00  0.00000000000E+00  0.60991938944E+03  0.33489183954E+04  0.32929094670E+04 0.  0.
        5    1    3    3  502    0  0.52168372175E+02 -0.50807615421E+03  0.18968071631E+04  0.19643732898E+04  0.46999998093E+01 0. -1.
       -5    1    3    3    0  502 -0.52168372175E+02  0.50807615421E+03 -0.12868877737E+04  0.13845451056E+04  0.46999998093E+01 0.  1.
</event>
<event>
 5   0  0.2279938E-08  0.3299605E+04  0.7818609E-02  0.8162996E-01
        1   -1    0    0  501    0  0.00000000000E+00  0.00000000000E+00  0.19314947977E+04  0.19314947977E+04  0.50400001928E-02 0. -1.
       -1   -1    0    0    0  501  0.00000000000E+00  0.00000000000E+00 -0.14091930588E+04  0.14091930588E+04  0.50400001928E-02 0.  1.
    10030    2    1    2    0    0  0.00000000000E+00  0.00000000000E+00  0.52230173891E+03  0.33406878566E+04  0.32996054686E+04 0.  0.
        3    1    3    3  502    0  0.29534128328E+03  0.87816680766E+03 -0.11209261550E+04  0.14542623115E+04  0.10100000352E+00 0.  1.
       -3    1    3    3    0  502 -0.29534128328E+03 -0.87816680766E+03  0.16432278939E+04  0.18864255451E+04  0.10100000352E+00 0. -1.
</event>
<event>
 5   0  0.6821287E-08  0.3300173E+04  0.7818609E-02  0.8162851E-01
       -2   -1    0    0    0  501  0.00000000000E+00  0.00000000000E+00  0.14428349227E+04  0.14428349227E+04  0.25500000920E-02 0. -1.
        2   -1    0    0  501    0  0.00000000000E+00  0.00000000000E+00 -0.18871076305E+04  0.18871076305E+04  0.25500000920E-02 0.  1.
    10030    2    1    2    0    0  0.00000000000E+00  0.00000000000E+00 -0.44427270777E+03  0.33299425532E+04  0.33001725968E+04 0.  0.
        5    1    3    3  502    0 -0.60897532353E+03 -0.14071201195E+04 -0.83749401769E+03  0.17470707756E+04  0.46999998093E+01 0.  1.
       -5    1    3    3    0  502  0.60897532353E+03  0.14071201195E+04  0.39322130992E+03  0.15828717775E+04  0.46999998093E+01 0. -1.
</event>
<event>
 5   0  0.2383270E-08  0.3299454E+04  0.7818609E-02  0.8163034E-01
       -1   -1    0    0    0  501  0.00000000000E+00  0.00000000000E+00  0.14245604894E+04  0.14245604894E+04  0.50400001928E-02 0. -1.
        1   -1    0    0  501    0  0.00000000000E+00  0.00000000000E+00 -0.19104838220E+04  0.19104838220E+04  0.50400001928E-02 0.  1.
    10030    2    1    2    0    0  0.00000000000E+00  0.00000000000E+00 -0.48592333261E+03  0.33350443115E+04  0.32994543601E+04 0.  0.
        5    1    3    3  502    0 -0.59165118099E+03  0.72852851076E+03 -0.16143472307E+04  0.18673360657E+04  0.46999998093E+01 0.  1.
       -5    1    3    3    0  502  0.59165118099E+03 -0.72852851076E+03  0.11284238981E+04  0.14677082458E+04  0.46999998093E+01 0. -1.
</event>
<event>
 5   0  0.6603516E-08  0.3296520E+04  0.7818609E-02  0.8163782E-01
       -2   -1    0    0    0  501  0.00000000000E+00  0.00000000000E+00  0.21267918479E+04  0.21267918479E+04  0.25500000920E-02 0.  1.
        2   -1    0    0  501    0  0.00000000000E+00  0.00000000000E+00 -0.12773982916E+04  0.12773982916E+04  0.25500000920E-02 0. -1.
    10030    2    1    2    0    0  0.00000000000E+00  0.00000000000E+00  0.84939355631E+03  0.34041901395E+04  0.32965195422E+04 0.  0.
        1    1    3    3  502    0  0.30076607922E+03 -0.82309932109E+03  0.18662896662E+04  0.20617928715E+04  0.50400001928E-02 0.  1.
       -1    1    3    3    0  502 -0.30076607922E+03  0.82309932109E+03 -0.10168961099E+04  0.13423972680E+04  0.50400001928E-02 0. -1.
</event>
<event>
 5   0  0.2279938E-08  0.3299742E+04  0.7818609E-02  0.8162961E-01
        1   -1    0    0  501    0  0.00000000000E+00  0.00000000000E+00  0.21490843886E+04  0.21490843886E+04  0.50400001928E-02 0.  1.
       -1   -1    0    0    0  501  0.00000000000E+00  0.00000000000E+00 -0.12666203138E+04  0.12666203138E+04  0.50400001928E-02 0. -1.
    10030    2    1    2    0    0  0.00000000000E+00  0.00000000000E+00  0.88246407478E+03  0.34157047023E+04  0.32997417733E+04 0.  0.
        3    1    3    3  502    0 -0.81004140162E+03 -0.12227534418E+04 -0.34081895492E+03  0.15058056389E+04  0.10100000352E+00 0. -1.
       -3    1    3    3    0  502  0.81004140162E+03  0.12227534418E+04  0.12232830297E+04  0.19098990635E+04  0.10100000352E+00 0.  1.
</event>
<event>
 5   0  0.2309822E-08  0.3299926E+04  0.7818609E-02  0.8162914E-01
        1   -1    0    0  501    0  0.00000000000E+00  0.00000000000E+00  0.15154761249E+04  0.15154761249E+04  0.50400001928E-02 0. -1.
       -1   -1    0    0    0  501  0.00000000000E+00  0.00000000000E+00 -0.17963846810E+04  0.17963846810E+04  0.50400001928E-02 0.  1.
    10030    2    1    2    0    0  0.00000000000E+00  0.00000000000E+00 -0.28090855611E+03  0.33118608060E+04  0.32999261176E+04 0.  0.
        4    1    3    3  502    0  0.11173745573E+04  0.74556072129E+03 -0.11020372963E+04  0.17374908649E+04  0.12699999809E+01 0. -1.
       -4    1    3    3    0  502 -0.11173745573E+04 -0.74556072129E+03  0.82112874016E+03  0.15743699410E+04  0.12699999809E+01 0.  1.
</event>
<event>
 5   0  0.6603516E-08  0.3299144E+04  0.7818609E-02  0.8163113E-01
        2   -1    0    0  501    0  0.00000000000E+00  0.00000000000E+00  0.96952640711E+03  0.96952640712E+03  0.25500000920E-02 0.  1.
       -2   -1    0    0    0  501  0.00000000000E+00  0.00000000000E+00 -0.28066145986E+04  0.28066145986E+04  0.25500000920E-02 0. -1.
    10030    2    1    2    0    0  0.00000000000E+00  0.00000000000E+00 -0.18370881915E+04  0.37761410057E+04  0.32991435058E+04 0.  0.
        1    1    3    3  502    0  0.23697378606E+03 -0.24344000627E+03  0.92904964479E+03  0.98921830474E+03  0.50400001928E-02 0.  1.
       -1    1    3    3    0  502 -0.23697378606E+03  0.24344000627E+03 -0.27661378363E+04  0.27869227010E+04  0.50400001928E-02 0. -1.
</event>
<event>
 5   0  0.7084130E-08  0.3302194E+04  0.7818609E-02  0.8162337E-01
        2   -1    0    0  501    0  0.00000000000E+00  0.00000000000E+00  0.19261364568E+04  0.19261364568E+04  0.25500000920E-02 0.  1.
       -2   -1    0    0    0  501  0.00000000000E+00  0.00000000000E+00 -0.14153309433E+04  0.14153309433E+04  0.25500000920E-02 0. -1.
    10030    2    1    2    0    0  0.00000000000E+00  0.00000000000E+00  0.51080551344E+03  0.33414674001E+04  0.33021935306E+04 0.  0.
        3    1    3    3  502    0  0.50814278429E+03 -0.45568962750E+03 -0.12658933416E+04  0.14381752634E+04  0.10100000352E+00 0. -1.
       -3    1    3    3    0  502 -0.50814278429E+03  0.45568962750E+03  0.17766988551E+04  0.19032921367E+04  0.10100000352E+00 0.  1.
</event>
<event>
 5   0  0.6603516E-08  0.3301502E+04  0.7818609E-02  0.8162513E-01
       -2   -1    0    0    0  501  0.00000000000E+00  0.00000000000E+00  0.14887758019E+04  0.14887758019E+04  0.25500000920E-02 0.  1.
        2   -1    0    0  501    0  0.00000000000E+00  0.00000000000E+00 -0.18303486690E+04  0.18303486690E+04  0.25500000920E-02 0. -1.
    10030    2    1    2    0    0  0.00000000000E+00  0.00000000000E+00 -0.34157286712E+03  0.33191244710E+04  0.33015019658E+04 0.  0.
        1    1    3    3  502    0  0.50513578000E+02 -0.14189146301E+04 -0.10173670333E+04  0.17466842959E+04  0.50400001928E-02 0. -1.
       -1    1    3    3    0  502 -0.50513578000E+02  0.14189146301E+04  0.67579416621E+03  0.15724401751E+04  0.50400001928E-02 0.  1.
</event>
<event>
 5   0  0.7084130E-08  0.3297928E+04  0.7818609E-02  0.8163423E-01
        2   -1    0    0  501    0  0.00000000000E+00  0.00000000000E+00  0.15274472895E+04  0.15274472895E+04  0.25500000920E-02 0. -1.
       -2   -1    0    0    0  501  0.00000000000E+00  0.00000000000E+00 -0.17801474973E+04  0.17801474973E+04  0.25500000920E-02 0.  1.
    10030    2    1    2    0    0  0.00000000000E+00  0.00000000000E+00 -0.25270020779E+03  0.33075947867E+04  0.32979275126E+04 0.  0.
        3    1    3    3  502    0  0.10640736394E+04  0.12212372971E+04 -0.43613773567E+03  0.16774651653E+04  0.10100000352E+00 0.  1.
       -3    1    3    3    0  502 -0.10640736394E+04 -0.12212372971E+04  0.18343752788E+03  0.16301296215E+04  0.10100000352E+00 0. -1.
</event>
<event>
 5   0  0.6765252E-08  0.3300891E+04  0.7818609E-02  0.8162669E-01
        2   -1    0    0  501    0  0.00000000000E+00  0.00000000000E+00  0.24091536222E+04  0.24091536222E+04  0.25500000920E-02 0.  1.
       -2   -1    0    0    0  501  0.00000000000E+00  0.00000000000E+00 -0.11306753741E+04  0.11306753741E+04  0.25500000920E-02 0. -1.
    10030    2    1    2    0    0  0.00000000000E+00  0.00000000000E+00  0.12784782482E+04  0.35398289963E+04  0.33008911966E+04 0.  0.
        2    1    3    3  502    0  0.62785540308E+03  0.55053448886E+03 -0.88742559206E+03  0.12185297748E+04  0.25500000920E-02 0. -1.
       -2    1    3    3    0  502 -0.62785540308E+03 -0.55053448886E+03  0.21659038402E+04  0.23212992215E+04  0.25500000920E-02 0.  1.
</event>
<event>
 5   0  0.6603516E-08  0.3299139E+04  0.7818609E-02  0.8163115E-01
        2   -1    0    0  501    0  0.00000000000E+00  0.00000000000E+00  0.14900678789E+04  0.14900678789E+04  0.25500000920E-02 0. -1.
       -2   -1    0    0    0  501  0.00000000000E+00  0.00000000000E+00 -0.18261446699E+04  0.18261446699E+04  0.25500000920E-02 0.  1.
    10030    2    1    2    0    0  0.00000000000E+00  0.00000000000E+00 -0.33607679106E+03  0.33162125488E+04  0.32991389876E+04 0.  0.
        1    1    3    3  502    0 -0.39257527226E+03  0.11217143590E+04  0.98187542337E+03  0.15415699124E+04  0.50400001928E-02 0. -1.
       -1    1    3    3    0  502  0.39257527226E+03 -0.11217143590E+04 -0.13179522144E+04  0.17746426365E+04  0.50400001928E-02 0.  1.
</event>
<event>
 5   0  0.2383270E-08  0.3297955E+04  0.7818609E-02  0.8163416E-01
       -1   -1    0    0    0  501  0.00000000000E+00  0.00000000000E+00  0.16174812586E+04  0.16174812586E+04  0.50400001928E-02 0.  1.
        1   -1    0    0  501    0  0.00000000000E+00  0.00000000000E+00 -0.16810872593E+04  0.16810872593E+04  0.50400001928E-02 0. -1.
    10030    2    1    2    0    0  0.00000000000E+00  0.00000000000E+00 -0.63606000762E+02  0.32985685179E+04  0.32979552065E+04 0.  0.
        5    1    3    3  502    0  0.16237158490E+04  0.28317196731E+03  0.17860282978E+02  0.16483266063E+04  0.46999998093E+01 0. -1.
       -5    1    3    3    0  502 -0.16237158490E+04 -0.28317196731E+03 -0.81466283740E+02  0.16502419116E+04  0.46999998093E+01 0.  1.
</event>
<event>
 5   0  0.2383270E-08  0.3287749E+04  0.7818609E-02  0.8166020E-01
        1   -1    0    0  501    0  0.00000000000E+00  0.00000000000E+00  0.12332430768E+04  0.12332430768E+04  0.50400001928E-02 0.  1.
       -1   -1    0    0    0  501  0.00000000000E+00  0.00000000000E+00 -0.21912338124E+04  0.21912338124E+04  0.50400001928E-02 0. -1.
    10030    2    1    2    0    0  0.00000000000E+00  0.00000000000E+00 -0.95799073562E+03  0.34244768893E+04  0.32877493389E+04 0.  0.
        5    1    3    3  502    0 -0.64337145021E+03 -0.13475478229E+04 -0.11949603747E+04  0.19125282599E+04  0.46999998093E+01 0. -1.
       -5    1    3    3    0  502  0.64337145021E+03  0.13475478229E+04  0.23696963905E+03  0.15119486293E+04  0.46999998093E+01 0.  1.
</event>
<event>
 5   0  0.6765252E-08  0.3300510E+04  0.7818609E-02  0.8162766E-01
        2   -1    0    0  501    0  0.00000000000E+00  0.00000000000E+00  0.22105292094E+04  0.22105292094E+04  0.25500000920E-02 0. -1.
       -2   -1    0    0    0  501  0.00000000000E+00  0.00000000000E+00 -0.12319861279E+04  0.12319861279E+04  0.25500000920E-02 0.  1.
    10030    2    1    2    0    0  0.00000000000E+00  0.00000000000E+00  0.97854308141E+03  0.34425153373E+04  0.33005098523E+04 0.  0.
        2    1    3    3  502    0 -0.12045199764E+04  0.10772769964E+04  0.83825232030E+03  0.18204562761E+04  0.25500000920E-02 0. -1.
       -2    1    3    3    0  502  0.12045199764E+04 -0.10772769964E+04  0.14029076111E+03  0.16220590613E+04  0.25500000920E-02 0.  1.
</event>
<event>
 5   0  0.2279938E-08  0.3299297E+04  0.7818609E-02  0.8163074E-01
       -1   -1    0    0    0  501  0.00000000000E+00  0.00000000000E+00  0.12578320981E+04  0.12578320982E+04  0.50400001928E-02 0.  1.
        1   -1    0    0  501    0  0.00000000000E+00  0.00000000000E+00 -0.21635163709E+04  0.21635163709E+04  0.50400001928E-02 0. -1.
    10030    2    1    2    0    0  0.00000000000E+00  0.00000000000E+00 -0.90568427275E+03  0.34213484691E+04  0.32992970986E+04 0.  0.
        3    1    3    3  502    0  0.52297431358E+03 -0.13104796388E+04 -0.13391415031E+04  0.19452914928E+04  0.10100000352E+00 0. -1.
       -3    1    3    3    0  502 -0.52297431358E+03  0.13104796388E+04  0.43345723031E+03  0.14760569763E+04  0.10100000352E+00 0.  1.
</event>
<event>
 5   0  0.2383270E-08  0.3299406E+04  0.7818609E-02  0.8163047E-01
       -1   -1    0    0    0  501  0.00000000000E+00  0.00000000000E+00  0.15384449346E+04  0.15384449346E+04  0.50400001928E-02 0. -1.
        1   -1    0    0  501    0  0.00000000000E+00  0.00000000000E+00 -0.17690066127E+04  0.17690066127E+04  0.50400001928E-02 0.  1.
    10030    2    1    2    0    0  0.00000000000E+00  0.00000000000E+00 -0.23056167809E+03  0.33074515474E+04  0.32994055602E+04 0.  0.
        5    1    3    3  502    0 -0.42097453575E+03 -0.11907245129E+04 -0.11792138352E+04  0.17278922954E+04  0.46999998093E+01 0.  1.
       -5    1    3    3    0  502  0.42097453575E+03  0.11907245129E+04  0.94865215713E+03  0.15795592520E+04  0.46999998093E+01 0. -1.
</event>
<event>
 5   0  0.6821287E-08  0.3299835E+04  0.7818609E-02  0.8162937E-01
       -2   -1    0    0    0  501  0.00000000000E+00  0.00000000000E+00  0.24164628233E+04  0.24164628233E+04  0.25500000920E-02 0.  1.
        2   -1    0    0  501    0  0.00000000000E+00  0.00000000000E+00 -0.11265340230E+04  0.11265340230E+04  0.25500000920E-02 0. -1.
    10030    2    1    2    0    0  0.00000000000E+00  0.00000000000E+00  0.12899288003E+04  0.35429968463E+04  0.32998348964E+04 0.  0.
        5    1    3    3  502    0  0.10870808915E+03  0.74730535975E+01  0.24125881056E+04  0.24150521221E+04  0.46999998093E+01 0.  1.
       -5    1    3    3    0  502 -0.10870808915E+03 -0.74730535975E+01 -0.11226593053E+04  0.11279447242E+04  0.46999998093E+01 0. -1.
</event>
<event>
 5   0  0.7084130E-08  0.3300091E+04  0.7818609E-02  0.8162872E-01
        2   -1    0    0  501    0  0.00000000000E+00  0.00000000000E+00  0.12676711544E+04  0.12676711544E+04  0.25500000920E-02 0. -1.
       -2   -1    0    0    0  501  0.00000000000E+00  0.00000000000E+00 -0.21477569971E+04  0.21477569971E+04  0.25500000920E-02 0.  1.
    10030    2    1    2    0    0  0.00000000000E+00  0.00000000000E+00 -0.88008584269E+03  0.34154281514E+04  0.33000906604E+04 0.  0.
        3    1    3    3  502    0 -0.89150283904E+03  0.63928666021E+03  0.83558668715E+03  0.13790104669E+04  0.10100000352E+00 0. -1.
       -3    1    3    3    0  502  0.89150283904E+03 -0.63928666021E+03 -0.17156725298E+04  0.20364176845E+04  0.10100000352E+00 0.  1.
</event>
<event>
 5   0  0.2383270E-08  0.3299326E+04  0.7818609E-02  0.8163067E-01
       -1   -1    0    0    0  501  0.00000000000E+00  0.00000000000E+00  0.13748331873E+04  0.13748331873E+04  0.50400001928E-02 0.  1.
        1   -1    0    0  501    0  0.00000000000E+00  0.00000000000E+00 -0.19794310732E+04  0.19794310732E+04  0.50400001928E-02 0. -1.
    10030    2    1    2    0    0  0.00000000000E+00  0.00000000000E+00 -0.60459788585E+03  0.33542642605E+04  0.32993257078E+04 0.  0.
        5    1    3    3  502    0  0.10446015575E+04 -0.80436229887E+03 -0.13103611824E+04  0.18588328704E+04  0.46999998093E+01 0. -1.
       -5    1    3    3    0  502 -0.10446015575E+04  0.80436229887E+03  0.70576329660E+03  0.14954313901E+04  0.46999998093E+01 0.  1.
</event>
<event>
 5   0  0.6765252E-08  0.3301902E+04  0.7818609E-02  0.8162411E-01
       -2   -1    0    0    0  501  0.00000000000E+00  0.00000000000E+00  0.12921404167E+04  0.12921404167E+04  0.25500000920E-02 0.  1.
        2   -1    0    0  501    0  0.00000000000E+00  0.00000000000E+00 -0.21093990833E+04  0.21093990833E+04  0.25500000920E-02 0. -1.
    10030    2    1    2    0    0  0.00000000000E+00  0.00000000000E+00 -0.81725866665E+03  0.34015395000E+04  0.33019023671E+04 0.  0.
        2    1    3    3  502    0  0.24660766936E+03 -0.67103541549E+03  0.11244077393E+04  0.13324401058E+04  0.25500000920E-02 0.  1.
       -2    1    3    3    0  502 -0.24660766936E+03  0.67103541549E+03 -0.19416664059E+04  0.20690993942E+04  0.25500000920E-02 0. -1.
</event>
<event>
 5   0  0.2244093E-08  0.3310611E+04  0.7818609E-02  0.8160201E-01
        1   -1    0    0  501    0  0.00000000000E+00  0.00000000000E+00  0.28142905207E+04  0.28142905207E+04  0.50400001928E-02 0.  1.
       -1   -1    0    0    0  501  0.00000000000E+00  0.00000000000E+00 -0.97361528000E+03  0.97361528002E+03  0.50400001928E-02 0. -1.
    10030    2    1    2    0    0  0.00000000000E+00  0.00000000000E+00  0.18406752407E+04  0.37879058007E+04  0.33106109728E+04 0.  0.
        1    1    3    3  502    0 -0.21240492991E+03  0.78393171987E+03  0.25706321627E+04  0.26958884457E+04  0.50400001928E-02 0.  1.
       -1    1    3    3    0  502  0.21240492991E+03 -0.78393171987E+03 -0.72995692201E+03  0.10920173550E+04  0.50400001928E-02 0. -1.
</event>
<event>
 5   0  0.6603516E-08  0.3299424E+04  0.7818609E-02  0.8163042E-01
        2   -1    0    0  501    0  0.00000000000E+00  0.00000000000E+00  0.22747435778E+04  0.22747435778E+04  0.25500000920E-02 0. -1.
       -2   -1    0    0    0  501  0.00000000000E+00  0.00000000000E+00 -0.11964207678E+04  0.11964207678E+04  0.25500000920E-02 0.  1.
    10030    2    1    2    0    0  0.00000000000E+00  0.00000000000E+00  0.10783228100E+04  0.34711643456E+04  0.32994244698E+04 0.  0.
        1    1    3    3  502    0  0.48169733682E+03  0.81134684510E+01 -0.11207652175E+04  0.12199232867E+04  0.50400001928E-02 0.  1.
       -1    1    3    3    0  502 -0.48169733682E+03 -0.81134684510E+01  0.21990880275E+04  0.22512410589E+04  0.50400001928E-02 0. -1.
</event>
<event>
 5   0  0.2291682E-08  0.3299421E+04  0.7818609E-02  0.8163043E-01
        1   -1    0    0  501    0  0.00000000000E+00  0.00000000000E+00  0.15333847501E+04  0.15333847501E+04  0.50400001928E-02 0. -1.
       -1   -1    0    0    0  501  0.00000000000E+00  0.00000000000E+00 -0.17748614257E+04  0.17748614257E+04  0.50400001928E-02 0.  1.
    10030    2    1    2    0    0  0.00000000000E+00  0.00000000000E+00 -0.24147667560E+03  0.33082461757E+04  0.32994214303E+04 0.  0.
        2    1    3    3  502    0 -0.87279030206E+03  0.81937615097E+03 -0.12588536649E+04  0.17371968046E+04  0.25500000920E-02 0.  1.
       -2    1    3    3    0  502  0.87279030206E+03 -0.81937615097E+03  0.10173769893E+04  0.15710493711E+04  0.25500000920E-02 0. -1.
</event>
<event>
 5   0  0.2279938E-08  0.3300058E+04  0.7818609E-02  0.8162881E-01
       -1   -1    0    0    0  501  0.00000000000E+00  0.00000000000E+00  0.15783592352E+04  0.15783592352E+04  0.50400001928E-02 0. -1.
        1   -1    0    0  501    0  0.00000000000E+00  0.00000000000E+00 -0.17249534426E+04  0.17249534426E+04  0.50400001928E-02 0.  1.
    10030    2    1    2    0    0  0.00000000000E+00  0.00000000000E+00 -0.14659420736E+03  0.33033126778E+04  0.33000583003E+04 0.  0.
        3    1    3    3  502    0 -0.11331776159E+04 -0.11677534018E+04  0.20057217784E+03  0.16395025847E+04  0.10100000352E+00 0.  1.
       -3    1    3    3    0  502  0.11331776159E+04  0.11677534018E+04 -0.34716638520E+03  0.16638100931E+04  0.10100000352E+00 0. -1.
</event>
<event>
 5   0  0.2383270E-08  0.3299847E+04  0.7818609E-02  0.8162934E-01
        1   -1    0    0  501    0  0.00000000000E+00  0.00000000000E+00  0.16507525861E+04  0.16507525861E+04  0.50400001928E-02 0. -1.
       -1   -1    0    0    0  501  0.00000000000E+00  0.00000000000E+00 -0.16490952584E+04  0.16490952584E+04  0.50400001928E-02 0.  1.
    10030    2    1    2    0    0  0.00000000000E+00  0.00000000000E+00  0.16573276686E+01  0.32998478444E+04  0.32998474283E+04 0.  0.
        5    1    3    3  502    0  0.36196585626E+03  0.12109188423E+04  0.10614335538E+04  0.16504566043E+04  0.46999998093E+01 0. -1.
       -5    1    3    3    0  502 -0.36196585626E+03 -0.12109188423E+04 -0.10597762261E+04  0.16493912401E+04  0.46999998093E+01 0.  1.
</event>
<event>
 5   0  0.2291682E-08  0.3302291E+04  0.7818609E-02  0.8162313E-01
       -1   -1    0    0    0  501  0.00000000000E+00  0.00000000000E+00  0.12684640859E+04  0.12684640859E+04  0.50400001928E-02 0.  1.
        1   -1    0    0  501    0  0.00000000000E+00  0.00000000000E+00 -0.21492774857E+04  0.21492774857E+04  0.50400001928E-02 0. -1.
    10030    2    1    2    0    0  0.00000000000E+00  0.00000000000E+00 -0.88081339981E+03  0.34177415716E+04  0.33022909025E+04 0.  0.
        2    1    3    3  502    0 -0.10614072935E+03 -0.13919763835E+04 -0.13529447112E+04  0.19440482243E+04  0.25500000920E-02 0. -1.
       -2    1    3    3    0  502  0.10614072935E+03  0.13919763835E+04  0.47213131144E+03  0.14736933473E+04  0.25500000920E-02 0.  1.
</event>
<event>
 5   0  0.6706080E-08  0.3300760E+04  0.7818609E-02  0.8162702E-01
       -2   -1    0    0    0  501  0.00000000000E+00  0.00000000000E+00  0.10861979919E+04  0.10861979919E+04  0.25500000920E-02 0. -1.
        2   -1    0    0  501    0  0.00000000000E+00  0.00000000000E+00 -0.25076043023E+04  0.25076043023E+04  0.25500000920E-02 0.  1.
    10030    2    1    2    0    0  0.00000000000E+00  0.00000000000E+00 -0.14214063103E+04  0.35938022942E+04  0.33007603716E+04 0.  0.
        4    1    3    3  502    0 -0.62337467534E+03  0.12943018848E+04 -0.15951919636E+04  0.21467306232E+04  0.12699999809E+01 0.  1.
       -4    1    3    3    0  502  0.62337467534E+03 -0.12943018848E+04  0.17378565327E+03  0.14470716710E+04  0.12699999809E+01 0. -1.
</event>
<event>
 5   0  0.2309822E-08  0.3299895E+04  0.7818609E-02  0.8162922E-01
       -1   -1    0    0    0  501  0.00000000000E+00  0.00000000000E+00  0.18976621140E+04  0.18976621141E+04  0.50400001928E-02 0.  1.
        1   -1    0    0  501    0  0.00000000000E+00  0.00000000000E+00 -0.14345685562E+04  0.14345685562E+04  0.50400001928E-02 0. -1.
    10030    2    1    2    0    0  0.00000000000E+00  0.00000000000E+00  0.46309355781E+03  0.33322306703E+04  0.32998947857E+04 0.  0.
        4    1    3    3  502    0  0.11760918139E+04  0.58894126785E+03  0.12374409821E+04  0.18059085162E+04  0.12699999809E+01 0.  1.
       -4    1    3    3    0  502 -0.11760918139E+04 -0.58894126785E+03 -0.77434742428E+03  0.15263221541E+04  0.12699999809E+01 0. -1.
</event>
<event>
 5   0  0.2383270E-08  0.3299497E+04  0.7818609E-02  0.8163023E-01
       -1   -1    0    0    0  501  0.00000000000E+00  0.00000000000E+00  0.18432524906E+04  0.18432524906E+04  0.50400001928E-02 0. -1.
        1   -1    0    0  501    0  0.00000000000E+00  0.00000000000E+00 -0.14765587531E+04  0.14765587531E+04  0.50400001928E-02 0.  1.
    10030    2    1    2    0    0  0.00000000000E+00  0.00000000000E+00  0.36669373753E+03  0.33198112437E+04  0.32994972945E+04 0.  0.
        5    1    3    3  502    0  0.11491170965E+04  0.47598326811E+01  0.13743388072E+04  0.17914580666E+04  0.46999998093E+01 0. -1.
       -5    1    3    3    0  502 -0.11491170965E+04 -0.47598326811E+01 -0.10076450696E+04  0.15283531771E+04  0.46999998093E+01 0.  1.
</event>
<event>
 5   0  0.2291682E-08  0.3302076E+04  0.7818609E-02  0.8162367E-01
        1   -1    0    0  501    0  0.00000000000E+00  0.00000000000E+00  0.18123038496E+04  0.18123038497E+04  0.50400001928E-02 0. -1.
       -1   -1    0    0    0  501  0.00000000000E+00  0.00000000000E+00 -0.15041225876E+04  0.15041225876E+04  0.50400001928E-02 0.  1.
    10030    2    1    2    0    0  0.00000000000E+00  0.00000000000E+00  0.30818126208E+03  0.33164264372E+04  0.33020764109E+04 0.  0.
        2    1    3    3  502    0 -0.98388225814E+03  0.68403294193E+03 -0.98662766331E+03  0.15522111678E+04  0.25500000920E-02 0.  1.
       -2    1    3    3    0  502  0.98388225814E+03 -0.68403294193E+03  0.12948089254E+04  0.17642152694E+04  0.25500000920E-02 0. -1.
</event>
<event>
 5   0  0.6603516E-08  0.3300806E+04  0.7818609E-02  0.8162690E-01
       -2   -1    0    0    0  501  0.00000000000E+00  0.00000000000E+00  0.10969751958E+04  0.10969751958E+04  0.25500000920E-02 0. -1.
        2   -1    0    0  501    0  0.00000000000E+00  0.00000000000E+00 -0.24830364628E+04  0.24830364628E+04  0.25500000920E-02 0.  1.
    10030    2    1    2    0    0  0.00000000000E+00  0.00000000000E+00 -0.13860612671E+04  0.35800116586E+04  0.33008056047E+04 0.  0.
        1    1    3    3  502    0  0.12341435963E+04 -0.73344230973E+03  0.18994687198E+03  0.14481463504E+04  0.50400001928E-02 0. -1.
       -1    1    3    3    0  502 -0.12341435963E+04  0.73344230973E+03 -0.15760081390E+04  0.21318653082E+04  0.50400001928E-02 0.  1.
</event>
<event>
 5   0  0.7084130E-08  0.3301144E+04  0.7818609E-02  0.8162604E-01
       -2   -1    0    0    0  501  0.00000000000E+00  0.00000000000E+00  0.13580752648E+04  0.13580752648E+04  0.25500000920E-02 0.  1.
        2   -1    0    0  501    0  0.00000000000E+00  0.00000000000E+00 -0.20060652657E+04  0.20060652657E+04  0.25500000920E-02 0. -1.
    10030    2    1    2    0    0  0.00000000000E+00  0.00000000000E+00 -0.64799000094E+03  0.33641405305E+04  0.33011438120E+04 0.  0.
        3    1    3    3  502    0 -0.12213591156E+04 -0.16095471035E+02 -0.14553199673E+04  0.18999824659E+04  0.10100000352E+00 0. -1.
       -3    1    3    3    0  502  0.12213591156E+04  0.16095471035E+02  0.80732996633E+03  0.14641580646E+04  0.10100000352E+00 0.  1.
</event>
<event>
 5   0  0.7084130E-08  0.3305370E+04  0.7818609E-02  0.8161530E-01
       -2   -1    0    0    0  501  0.00000000000E+00  0.00000000000E+00  0.12222649968E+04  0.12222649968E+04  0.25500000920E-02 0.  1.
        2   -1    0    0  501    0  0.00000000000E+00  0.00000000000E+00 -0.22346768779E+04  0.22346768779E+04  0.25500000920E-02 0. -1.
    10030    2    1    2    0    0  0.00000000000E+00  0.00000000000E+00 -0.10124118811E+04  0.34569418747E+04  0.33053697688E+04 0.  0.
        3    1    3    3  502    0 -0.14819716356E+04 -0.64329908148E+03 -0.14196302583E+03  0.16217975052E+04  0.10100000352E+00 0. -1.
       -3    1    3    3    0  502  0.14819716356E+04  0.64329908148E+03 -0.87044885528E+03  0.18351443695E+04  0.10100000352E+00 0.  1.
</event>
<event>
 5   0  0.2309822E-08  0.3296629E+04  0.7818609E-02  0.8163754E-01
       -1   -1    0    0    0  501  0.00000000000E+00  0.00000000000E+00  0.11816821682E+04  0.11816821682E+04  0.50400001928E-02 0. -1.
        1   -1    0    0  501    0  0.00000000000E+00  0.00000000000E+00 -0.22992149827E+04  0.22992149827E+04  0.50400001928E-02 0.  1.
    10030    2    1    2    0    0  0.00000000000E+00  0.00000000000E+00 -0.11175328145E+04  0.34808971509E+04  0.32966293974E+04 0.  0.
        4    1    3    3  502    0  0.12559665918E+04 -0.91817132123E+03 -0.11336714479E+04  0.19250203167E+04  0.12699999809E+01 0. -1.
       -4    1    3    3    0  502 -0.12559665918E+04  0.91817132123E+03  0.16138633468E+02  0.15558768342E+04  0.12699999809E+01 0.  1.
</event>
<event>
 5   0  0.6603516E-08  0.3299098E+04  0.7818609E-02  0.8163125E-01
        2   -1    0    0  501    0  0.00000000000E+00  0.00000000000E+00  0.17471832212E+04  0.17471832212E+04  0.25500000920E-02 0. -1.
       -2   -1    0    0    0  501  0.00000000000E+00  0.00000000000E+00 -0.15573706785E+04  0.15573706785E+04  0.25500000920E-02 0.  1.
    10030    2    1    2    0    0  0.00000000000E+00  0.00000000000E+00  0.18981254272E+03  0.33045538996E+04  0.32990980092E+04 0.  0.
        1    1    3    3  502    0 -0.38745387334E+03 -0.13329139580E+04  0.98757692306E+03  0.17035516729E+04  0.50400001928E-02 0. -1.
       -1    1    3    3    0  502  0.38745387334E+03  0.13329139580E+04 -0.79776438033E+03  0.16010022267E+04  0.50400001928E-02 0.  1.
</event>
<event>
 5   0  0.2291682E-08  0.3297120E+04  0.7818609E-02  0.8163629E-01
        1   -1    0    0  501    0  0.00000000000E+00  0.00000000000E+00  0.17873598202E+04  0.17873598202E+04  0.50400001928E-02 0.  1.
       -1   -1    0    0    0  501  0.00000000000E+00  0.00000000000E+00 -0.15205384679E+04  0.15205384679E+04  0.50400001928E-02 0. -1.
    10030    2    1    2    0    0  0.00000000000E+00  0.00000000000E+00  0.26682135229E+03  0.33078982881E+04  0.32971195687E+04 0.  0.
        2    1    3    3  502    0 -0.12389443354E+04 -0.10638225001E+03  0.12192840005E+04  0.17415377467E+04  0.25500000920E-02 0.  1.
       -2    1    3    3    0  502  0.12389443354E+04  0.10638225001E+03 -0.95246264817E+03  0.15663605414E+04  0.25500000920E-02 0. -1.
</event>
<event>
 5   0  0.2244093E-08  0.3303309E+04  0.7818609E-02  0.8162054E-01
       -1   -1    0    0    0  501  0.00000000000E+00  0.00000000000E+00  0.17485932863E+04  0.17485932863E+04  0.50400001928E-02 0.  1.
        1   -1    0    0  501    0  0.00000000000E+00  0.00000000000E+00 -0.15600894632E+04  0.15600894632E+04  0.50400001928E-02 0. -1.
    10030    2    1    2    0    0  0.00000000000E+00  0.00000000000E+00  0.18850382312E+03  0.33086827496E+04  0.33033086211E+04 0.  0.
        1    1    3    3  502    0 -0.10321714330E+04 -0.43931444377E+03 -0.11199855133E+04  0.15851632716E+04  0.50400001928E-02 0. -1.
       -1    1    3    3    0  502  0.10321714330E+04  0.43931444377E+03  0.13084893364E+04  0.17235194780E+04  0.50400001928E-02 0.  1.
</event>
<event>
 5   0  0.2383270E-08  0.3299362E+04  0.7818609E-02  0.8163058E-01
       -1   -1    0    0    0  501  0.00000000000E+00  0.00000000000E+00  0.20118586126E+04  0.20118586127E+04  0.50400001928E-02 0. -1.
        1   -1    0    0  501    0  0.00000000000E+00  0.00000000000E+00 -0.13527028466E+04  0.13527028466E+04  0.50400001928E-02 0.  1.
    10030    2    1    2    0    0  0.00000000000E+00  0.00000000000E+00  0.65915576602E+03  0.33645614593E+04  0.32993616791E+04 0.  0.
        5    1    3    3  502    0  0.15613817846E+04  0.50828547513E+03  0.16783209550E+03  0.16505928946E+04  0.46999998093E+01 0. -1.
       -5    1    3    3    0  502 -0.15613817846E+04 -0.50828547513E+03  0.49132367052E+03  0.17139685647E+04  0.46999998093E+01 0.  1.
</event>
<event>
 5   0  0.6765252E-08  0.3296336E+04  0.7818609E-02  0.8163828E-01
       -2   -1    0    0    0  501  0.00000000000E+00  0.00000000000E+00  0.13139528464E+04  0.13139528464E+04  0.25500000920E-02 0. -1.
        2   -1    0    0  501    0  0.00000000000E+00  0.00000000000E+00 -0.20673933838E+04  0.20673933838E+04  0.25500000920E-02 0.  1.
    10030    2    1    2    0    0  0.00000000000E+00  0.00000000000E+00 -0.75344053740E+03  0.33813462302E+04  0.32963357968E+04 0.  0.
        2    1    3    3  502    0  0.42115923535E+02  0.14730388739E+04  0.38044859388E+03  0.15219587405E+04  0.25500000920E-02 0. -1.
       -2    1    3    3    0  502 -0.42115923535E+02 -0.14730388739E+04 -0.11338891313E+04  0.18593874898E+04  0.25500000920E-02 0.  1.
</event>
<event>
 5   0  0.6603516E-08  0.3298502E+04  0.7818609E-02  0.8163277E-01
       -2   -1    0    0    0  501  0.00000000000E+00  0.00000000000E+00  0.15141327705E+04  0.15141327705E+04  0.25500000920E-02 0. -1.
        2   -1    0    0  501    0  0.00000000000E+00  0.00000000000E+00 -0.17964268013E+04  0.17964268013E+04  0.25500000920E-02 0.  1.
    10030    2    1    2    0    0  0.00000000000E+00  0.00000000000E+00 -0.28229403076E+03  0.33105595718E+04  0.32985018962E+04 0.  0.
        1    1    3    3  502    0  0.31092798626E+01 -0.24579524771E+03 -0.17779376629E+04  0.17948502179E+04  0.50400001928E-02 0.  1.
       -1    1    3    3    0  502 -0.31092798626E+01  0.24579524771E+03  0.14956436321E+04  0.15157093540E+04  0.50400001928E-02 0. -1.
</event>
<event>
 5   0  0.7084130E-08  0.3303000E+04  0.7818609E-02  0.8162132E-01
        2   -1    0    0  501    0  0.00000000000E+00  0.00000000000E+00  0.23690616965E+04  0.23690616965E+04  0.25500000920E-02 0.  1.
       -2   -1    0    0    0  501  0.00000000000E+00  0.00000000000E+00 -0.11512797548E+04  0.11512797548E+04  0.25500000920E-02 0. -1.
    10030    2    1    2    0    0  0.00000000000E+00  0.00000000000E+00  0.12177819417E+04  0.35203414513E+04  0.33030003143E+04 0.  0.
        3    1    3    3  502    0 -0.80364116565E+03 -0.64186157949E+03 -0.76827394202E+03  0.12837718919E+04  0.10100000352E+00 0. -1.
       -3    1    3    3    0  502  0.80364116565E+03  0.64186157949E+03  0.19860558837E+04  0.22365695594E+04  0.10100000352E+00 0.  1.
</event>
<event>
 5   0  0.2200750E-08  0.3299981E+04  0.7818609E-02  0.8162900E-01
        3   -1    0    0  501    0  0.00000000000E+00  0.00000000000E+00  0.31780973038E+04  0.31780973054E+04  0.10100000352E+00 0. -1.
       -3   -1    0    0    0  501  0.00000000000E+00  0.00000000000E+00 -0.85663482623E+03  0.85663483218E+03  0.10100000352E+00 0.  1.
    10030    2    1    2    0    0  0.00000000000E+00  0.00000000000E+00  0.23214624776E+04  0.40347321376E+04  0.32999811192E+04 0.  0.
        5    1    3    3  502    0  0.16374678189E+04  0.15082785410E+03  0.99489666692E+03  0.19219498868E+04  0.46999998093E+01 0. -1.
       -5    1    3    3    0  502 -0.16374678189E+04 -0.15082785410E+03  0.13265658106E+04  0.21127822508E+04  0.46999998093E+01 0.  1.
</event>
<event>
 5   0  0.2291682E-08  0.3302630E+04  0.7818609E-02  0.8162227E-01
       -1   -1    0    0    0  501  0.00000000000E+00  0.00000000000E+00  0.92409584879E+03  0.92409584880E+03  0.50400001928E-02 0.  1.
        1   -1    0    0  501    0  0.00000000000E+00  0.00000000000E+00 -0.29508207627E+04  0.29508207627E+04  0.50400001928E-02 0. -1.
    10030    2    1    2    0    0  0.00000000000E+00  0.00000000000E+00 -0.20267249139E+04  0.38749166115E+04  0.33026299928E+04 0.  0.
        2    1    3    3  502    0  0.94403309837E+03 -0.10739037831E+04 -0.19825626276E+04  0.24443858939E+04  0.25500000920E-02 0. -1.
       -2    1    3    3    0  502 -0.94403309837E+03  0.10739037831E+04 -0.44162286316E+02  0.14305307175E+04  0.25500000920E-02 0.  1.
</event>
<event>
 5   0  0.6706080E-08  0.3300341E+04  0.7818609E-02  0.8162809E-01
       -2   -1    0    0    0  501  0.00000000000E+00  0.00000000000E+00  0.16578056832E+04  0.16578056832E+04  0.25500000920E-02 0. -1.
        2   -1    0    0  501    0  0.00000000000E+00  0.00000000000E+00 -0.16425705445E+04  0.16425705445E+04  0.25500000920E-02 0.  1.
    10030    2    1    2    0    0  0.00000000000E+00  0.00000000000E+00  0.15235138691E+02  0.33003762277E+04  0.33003410634E+04 0.  0.
        4    1    3    3  502    0  0.10751180812E+04  0.12446594333E+04 -0.12656723324E+03  0.16495686923E+04  0.12699999809E+01 0.  1.
       -4    1    3    3    0  502 -0.10751180812E+04 -0.12446594333E+04  0.14180237194E+03  0.16508075354E+04  0.12699999809E+01 0. -1.
</event>
<event>
 5   0  0.6603516E-08  0.3300167E+04  0.7818609E-02  0.8162853E-01
       -2   -1    0    0    0  501  0.00000000000E+00  0.00000000000E+00  0.22375211168E+04  0.22375211168E+04  0.25500000920E-02 0. -1.
        2   -1    0    0  501    0  0.00000000000E+00  0.00000000000E+00 -0.12168717154E+04  0.12168717154E+04  0.25500000920E-02 0.  1.
    10030    2    1    2    0    0  0.00000000000E+00  0.00000000000E+00  0.10206494014E+04  0.34543928321E+04  0.33001673652E+04 0.  0.
        1    1    3    3  502    0  0.65304874842E+03 -0.27982104548E+03  0.20692197906E+04  0.21877941007E+04  0.50400001928E-02 0. -1.
       -1    1    3    3    0  502 -0.65304874842E+03  0.27982104548E+03 -0.10485703892E+04  0.12665987314E+04  0.50400001928E-02 0.  1.
</event>
<event>
 5   0  0.2244093E-08  0.3299396E+04  0.7818609E-02  0.8163049E-01
       -1   -1    0    0    0  501  0.00000000000E+00  0.00000000000E+00  0.13968275780E+04  0.13968275780E+04  0.50400001928E-02 0.  1.
        1   -1    0    0  501    0  0.00000000000E+00  0.00000000000E+00 -0.19483461161E+04  0.19483461161E+04  0.50400001928E-02 0. -1.
    10030    2    1    2    0    0  0.00000000000E+00  0.00000000000E+00 -0.55151853807E+03  0.33451736941E+04  0.32993960577E+04 0.  0.
        1    1    3    3  502    0 -0.19248234399E+03  0.31866641208E+03  0.13536812432E+04  0.14039411110E+04  0.50400001928E-02 0.  1.
       -1    1    3    3    0  502  0.19248234399E+03 -0.31866641208E+03 -0.19051997813E+04  0.19412325831E+04  0.50400001928E-02 0. -1.
</event>
<event>
 5   0  0.2383270E-08  0.3302695E+04  0.7818609E-02  0.8162210E-01
        1   -1    0    0  501    0  0.00000000000E+00  0.00000000000E+00  0.29569138946E+04  0.29569138946E+04  0.50400001928E-02 0.  1.
       -1   -1    0    0    0  501  0.00000000000E+00  0.00000000000E+00 -0.92222816080E+03  0.92222816081E+03  0.50400001928E-02 0. -1.
    10030    2    1    2    0    0  0.00000000000E+00  0.00000000000E+00  0.20346857338E+04  0.38791420554E+04  0.33026954220E+04 0.  0.
        5    1    3    3  502    0 -0.50980924312E+03 -0.74296268482E+03 -0.60803649636E+03  0.10870278222E+04  0.46999998093E+01 0. -1.
       -5    1    3    3    0  502  0.50980924312E+03  0.74296268482E+03  0.26427222302E+04  0.27921142332E+04  0.46999998093E+01 0.  1.
</event>
<event>
 5   0  0.6821287E-08  0.3299071E+04  0.7818609E-02  0.8163132E-01
        2   -1    0    0  501    0  0.00000000000E+00  0.00000000000E+00  0.96112440776E+03  0.96112440777E+03  0.25500000920E-02 0. -1.
       -2   -1    0    0    0  501  0.00000000000E+00  0.00000000000E+00 -0.28310244072E+04  0.28310244072E+04  0.25500000920E-02 0.  1.
    10030    2    1    2    0    0  0.00000000000E+00  0.00000000000E+00 -0.18698999994E+04  0.37921488149E+04  0.32990705702E+04 0.  0.
        5    1    3    3  502    0  0.52780757684E+03  0.13220646192E+04 -0.18928775528E+04  0.23684263162E+04  0.46999998093E+01 0.  1.
       -5    1    3    3    0  502 -0.52780757684E+03 -0.13220646192E+04  0.22977553339E+02  0.14237224988E+04  0.46999998093E+01 0. -1.
</event>
<event>
 5   0  0.6821287E-08  0.3299950E+04  0.7818609E-02  0.8162908E-01
       -2   -1    0    0    0  501  0.00000000000E+00  0.00000000000E+00  0.13791930510E+04  0.13791930510E+04  0.25500000920E-02 0.  1.
        2   -1    0    0  501    0  0.00000000000E+00  0.00000000000E+00 -0.19739205585E+04  0.19739205585E+04  0.25500000920E-02 0. -1.
    10030    2    1    2    0    0  0.00000000000E+00  0.00000000000E+00 -0.59472750749E+03  0.33531136095E+04  0.32999500102E+04 0.  0.
        5    1    3    3  502    0 -0.14563221122E+04  0.30266805321E+03  0.42822261038E+03  0.15478626357E+04  0.46999998093E+01 0.  1.
       -5    1    3    3    0  502  0.14563221122E+04 -0.30266805321E+03 -0.10229501179E+04  0.18052509738E+04  0.46999998093E+01 0. -1.
</event>
<event>
 5   0  0.6821287E-08  0.3300374E+04  0.7818609E-02  0.8162800E-01
       -2   -1    0    0    0  501  0.00000000000E+00  0.00000000000E+00  0.13619465266E+04  0.13619465266E+04  0.25500000920E-02 0. -1.
        2   -1    0    0  501    0  0.00000000000E+00  0.00000000000E+00 -0.19994306500E+04  0.19994306500E+04  0.25500000920E-02 0.  1.
    10030    2    1    2    0    0  0.00000000000E+00  0.00000000000E+00 -0.63748412342E+03  0.33613771765E+04  0.33003742993E+04 0.  0.
        5    1    3    3  502    0 -0.57369033284E+03  0.45420333621E+03  0.11876755343E+04  0.13949969654E+04  0.46999998093E+01 0. -1.
       -5    1    3    3    0  502  0.57369033284E+03 -0.45420333621E+03 -0.18251596577E+04  0.19663802112E+04  0.46999998093E+01 0.  1.
</event>
<event>
 5   0  0.6706080E-08  0.3300295E+04  0.7818609E-02  0.8162820E-01
       -2   -1    0    0    0  501  0.00000000000E+00  0.00000000000E+00  0.95592740777E+03  0.95592740777E+03  0.25500000920E-02 0.  1.
        2   -1    0    0  501    0  0.00000000000E+00  0.00000000000E+00 -0.28485285070E+04  0.28485285070E+04  0.25500000920E-02 0. -1.
    10030    2    1    2    0    0  0.00000000000E+00  0.00000000000E+00 -0.18926010992E+04  0.38044559148E+04  0.33002948181E+04 0.  0.
        4    1    3    3  502    0  0.21163850515E+03 -0.72674006463E+03  0.74399784591E+03  0.10613559186E+04  0.12699999809E+01 0.  1.
       -4    1    3    3    0  502 -0.21163850515E+03  0.72674006463E+03 -0.26365989451E+04  0.27430999961E+04  0.12699999809E+01 0. -1.
</event>
<event>
 5   0  0.6706080E-08  0.3300565E+04  0.7818609E-02  0.8162752E-01
        2   -1    0    0  501    0  0.00000000000E+00  0.00000000000E+00  0.22946683170E+04  0.22946683170E+04  0.25500000920E-02 0. -1.
       -2   -1    0    0    0  501  0.00000000000E+00  0.00000000000E+00 -0.11868525067E+04  0.11868525067E+04  0.25500000920E-02 0.  1.
    10030    2    1    2    0    0  0.00000000000E+00  0.00000000000E+00  0.11078158102E+04  0.34815208237E+04  0.33005653117E+04 0.  0.
        4    1    3    3  502    0 -0.34300026107E+03 -0.16142427165E+04  0.55223860005E+03  0.17402292410E+04  0.12699999809E+01 0.  1.
       -4    1    3    3    0  502  0.34300026107E+03  0.16142427165E+04  0.55557721017E+03  0.17412915827E+04  0.12699999809E+01 0. -1.
</event>
<event>
 5   0  0.2383270E-08  0.3297635E+04  0.7818609E-02  0.8163497E-01
       -1   -1    0    0    0  501  0.00000000000E+00  0.00000000000E+00  0.18830801254E+04  0.18830801254E+04  0.50400001928E-02 0. -1.
        1   -1    0    0  501    0  0.00000000000E+00  0.00000000000E+00 -0.14436984976E+04  0.14436984976E+04  0.50400001928E-02 0.  1.
    10030    2    1    2    0    0  0.00000000000E+00  0.00000000000E+00  0.43938162781E+03  0.33267786230E+04  0.32976354849E+04 0.  0.
        5    1    3    3  502    0 -0.19465171124E+03 -0.68436220385E+03  0.17202284410E+04  0.18615716193E+04  0.46999998093E+01 0. -1.
       -5    1    3    3    0  502  0.19465171124E+03  0.68436220385E+03 -0.12808468132E+04  0.14652070036E+04  0.46999998093E+01 0.  1.
</event>
<event>
 5   0  0.7084130E-08  0.3297871E+04  0.7818609E-02  0.8163437E-01
       -2   -1    0    0    0  501  0.00000000000E+00  0.00000000000E+00  0.15488805902E+04  0.15488805902E+04  0.25500000920E-02 0.  1.
        2   -1    0    0  501    0  0.00000000000E+00  0.00000000000E+00 -0.17554541996E+04  0.17554541996E+04  0.25500000920E-02 0. -1.
    10030    2    1    2    0    0  0.00000000000E+00  0.00000000000E+00 -0.20657360937E+03  0.33043347899E+04  0.32978713964E+04 0.  0.
        3    1    3    3  502    0 -0.14635165377E+03  0.15711685946E+04  0.37618985193E+03  0.16221924590E+04  0.10100000352E+00 0.  1.
       -3    1    3    3    0  502  0.14635165377E+03 -0.15711685946E+04 -0.58276346130E+03  0.16821423308E+04  0.10100000352E+00 0. -1.
</event>
<event>
 5   0  0.6765252E-08  0.3294141E+04  0.7818609E-02  0.8164388E-01
        2   -1    0    0  501    0  0.00000000000E+00  0.00000000000E+00  0.13405805470E+04  0.13405805470E+04  0.25500000920E-02 0. -1.
       -2   -1    0    0    0  501  0.00000000000E+00  0.00000000000E+00 -0.20236319527E+04  0.20236319527E+04  0.25500000920E-02 0.  1.
    10030    2    1    2    0    0  0.00000000000E+00  0.00000000000E+00 -0.68305140565E+03  0.33642124997E+04  0.32941412417E+04 0.  0.
        2    1    3    3  502    0 -0.10492799345E+04 -0.95401107829E+03 -0.11970294732E+04  0.18558030817E+04  0.25500000920E-02 0.  1.
       -2    1    3    3    0  502  0.10492799345E+04  0.95401107829E+03  0.51397806757E+03  0.15084094180E+04  0.25500000920E-02 0. -1.
</event>
<event>
 5   0  0.2279938E-08  0.3316031E+04  0.7818609E-02  0.8158828E-01
       -1   -1    0    0    0  501  0.00000000000E+00  0.00000000000E+00  0.16409566116E+04  0.16409566116E+04  0.50400001928E-02 0. -1.
        1   -1    0    0  501    0  0.00000000000E+00  0.00000000000E+00 -0.16752514060E+04  0.16752514060E+04  0.50400001928E-02 0.  1.
    10030    2    1    2    0    0  0.00000000000E+00  0.00000000000E+00 -0.34294794397E+02  0.33162080177E+04  0.33160306820E+04 0.  0.
        3    1    3    3  502    0 -0.46847275786E+03 -0.15476834125E+03 -0.16001391513E+04  0.16744746275E+04  0.10100000352E+00 0.  1.
       -3    1    3    3    0  502  0.46847275786E+03  0.15476834125E+03  0.15658443569E+04  0.16417333902E+04  0.10100000352E+00 0. -1.
</event>
<event>
 5   0  0.6821287E-08  0.3299465E+04  0.7818609E-02  0.8163032E-01
       -2   -1    0    0    0  501  0.00000000000E+00  0.00000000000E+00  0.10977139345E+04  0.10977139345E+04  0.25500000920E-02 0. -1.
        2   -1    0    0  501    0  0.00000000000E+00  0.00000000000E+00 -0.24793495209E+04  0.24793495209E+04  0.25500000920E-02 0.  1.
    10030    2    1    2    0    0  0.00000000000E+00  0.00000000000E+00 -0.13816355863E+04  0.35770634554E+04  0.32994645127E+04 0.  0.
        5    1    3    3  502    0  0.49557151069E+03  0.42354496024E+03  0.95214258283E+03  0.11539406586E+04  0.46999998093E+01 0. -1.
       -5    1    3    3    0  502 -0.49557151069E+03 -0.42354496024E+03 -0.23337781691E+04  0.24231227968E+04  0.46999998093E+01 0.  1.
</event>
<event>
 5   0  0.6765252E-08  0.3299463E+04  0.7818609E-02  0.8163032E-01
        2   -1    0    0  501    0  0.00000000000E+00  0.00000000000E+00  0.22244230663E+04  0.22244230663E+04  0.25500000920E-02 0.  1.
       -2   -1    0    0    0  501  0.00000000000E+00  0.00000000000E+00 -0.12235147329E+04  0.12235147329E+04  0.25500000920E-02 0. -1.
    10030    2    1    2    0    0  0.00000000000E+00  0.00000000000E+00  0.10009083334E+04  0.34479377992E+04  0.32994632254E+04 0.  0.
        2    1    3    3  502    0 -0.12746902783E+04 -0.58705248247E+03  0.14067456918E+04  0.19870579670E+04  0.25500000920E-02 0.  1.
       -2    1    3    3    0  502  0.12746902783E+04  0.58705248247E+03 -0.40583735843E+03  0.14608798323E+04  0.25500000920E-02 0. -1.
</event>
<event>
 5   0  0.2244093E-08  0.3296207E+04  0.7818609E-02  0.8163861E-01
        1   -1    0    0  501    0  0.00000000000E+00  0.00000000000E+00  0.27263095354E+04  0.27263095354E+04  0.50400001928E-02 0. -1.
       -1   -1    0    0    0  501  0.00000000000E+00  0.00000000000E+00 -0.99630855956E+03  0.99630855957E+03  0.50400001928E-02 0.  1.
    10030    2    1    2    0    0  0.00000000000E+00  0.00000000000E+00  0.17300009758E+04  0.37226180950E+04  0.32962072302E+04 0.  0.
        1    1    3    3  502    0 -0.98326370720E+03  0.68351787018E+03  0.21438482914E+04  0.24556240945E+04  0.50400001928E-02 0. -1.
       -1    1    3    3    0  502  0.98326370720E+03 -0.68351787018E+03 -0.41384731555E+03  0.12669940005E+04  0.50400001928E-02 0.  1.
</event>
<event>
 5   0  0.6821287E-08  0.3299863E+04  0.7818609E-02  0.8162930E-01
       -2   -1    0    0    0  501  0.00000000000E+00  0.00000000000E+00  0.14449334404E+04  0.14449334404E+04  0.25500000920E-02 0. -1.
        2   -1    0    0  501    0  0.00000000000E+00  0.00000000000E+00 -0.18840139442E+04  0.18840139442E+04  0.25500000920E-02 0.  1.
    10030    2    1    2    0    0  0.00000000000E+00  0.00000000000E+00 -0.43908050378E+03  0.33289473845E+04  0.32998634821E+04 0.  0.
        5    1    3    3  502    0 -0.18181196286E+03 -0.10627481355E+03 -0.18703930767E+04  0.18822173831E+04  0.46999998093E+01 0.  1.
       -5    1    3    3    0  502  0.18181196286E+03  0.10627481355E+03  0.14313125729E+04  0.14467300015E+04  0.46999998093E+01 0. -1.
</event>
<event>
 5   0  0.6821287E-08  0.3299357E+04  0.7818609E-02  0.8163059E-01
        2   -1    0    0  501    0  0.00000000000E+00  0.00000000000E+00  0.21472719007E+04  0.21472719007E+04  0.25500000920E-02 0. -1.
       -2   -1    0    0    0  501  0.00000000000E+00  0.00000000000E+00 -0.12673940759E+04  0.12673940759E+04  0.25500000920E-02 0.  1.
    10030    2    1    2    0    0  0.00000000000E+00  0.00000000000E+00  0.87987782482E+03  0.34146659766E+04  0.32993573231E+04 0.  0.
        5    1    3    3  502    0  0.75321638721E+02 -0.59493234927E+03 -0.11505857612E+04  0.12974927874E+04  0.46999998093E+01 0.  1.
       -5    1    3    3    0  502 -0.75321638721E+02  0.59493234927E+03  0.20304635860E+04  0.21171731893E+04  0.46999998093E+01 0. -1.
</event>
<event>
 5   0  0.7084130E-08  0.3302206E+04  0.7818609E-02  0.8162334E-01
        2   -1    0    0  501    0  0.00000000000E+00  0.00000000000E+00  0.14922113067E+04  0.14922113067E+04  0.25500000920E-02 0.  1.
       -2   -1    0    0    0  501  0.00000000000E+00  0.00000000000E+00 -0.18269133498E+04  0.18269133498E+04  0.25500000920E-02 0. -1.
    10030    2    1    2    0    0  0.00000000000E+00  0.00000000000E+00 -0.33470204305E+03  0.33191246565E+04  0.33022057821E+04 0.  0.
        3    1    3    3  502    0 -0.12721967259E+04 -0.66831080604E+03  0.64984400114E+03  0.15771560097E+04  0.10100000352E+00 0.  1.
       -3    1    3    3    0  502  0.12721967259E+04  0.66831080604E+03 -0.98454604419E+03  0.17419686468E+04  0.10100000352E+00 0. -1.
</event>
<event>
 5   0  0.2291682E-08  0.3298950E+04  0.7818609E-02  0.8163163E-01
        1   -1    0    0  501    0  0.00000000000E+00  0.00000000000E+00  0.16082855244E+04  0.16082855244E+04  0.50400001928E-02 0. -1.
       -1   -1    0    0    0  501  0.00000000000E+00  0.00000000000E+00 -0.16917190120E+04  0.16917190120E+04  0.50400001928E-02 0.  1.
    10030    2    1    2    0    0  0.00000000000E+00  0.00000000000E+00 -0.83433487583E+02  0.33000045364E+04  0.32989496500E+04 0.  0.
        2    1    3    3  502    0  0.30805250979E+03  0.85730059431E+02  0.15769852342E+04  0.16090768847E+04  0.25500000920E-02 0. -1.
       -2    1    3    3    0  502 -0.30805250979E+03 -0.85730059431E+02 -0.16604187218E+04  0.16909276518E+04  0.25500000920E-02 0.  1.
</event>
<event>
 5   0  0.2383270E-08  0.3299658E+04  0.7818609E-02  0.8162982E-01
        1   -1    0    0  501    0  0.00000000000E+00  0.00000000000E+00  0.18380398431E+04  0.18380398431E+04  0.50400001928E-02 0.  1.
       -1   -1    0    0    0  501  0.00000000000E+00  0.00000000000E+00 -0.14808903318E+04  0.14808903318E+04  0.50400001928E-02 0. -1.
    10030    2    1    2    0    0  0.00000000000E+00  0.00000000000E+00  0.35714951124E+03  0.33189301749E+04  0.32996578205E+04 0.  0.
        5    1    3    3  502    0  0.99631749972E+01  0.75288601577E+03  0.16551327265E+04  0.18183572394E+04  0.46999998093E+01 0.  1.
       -5    1    3    3    0  502 -0.99631749972E+01 -0.75288601577E+03 -0.12979832153E+04  0.15005729355E+04  0.46999998093E+01 0. -1.
</event>
<event>
 5   0  0.6765252E-08  0.3300242E+04  0.7818609E-02  0.8162834E-01
       -2   -1    0    0    0  501  0.00000000000E+00  0.00000000000E+00  0.12003615911E+04  0.12003615911E+04  0.25500000920E-02 0.  1.
        2   -1    0    0  501    0  0.00000000000E+00  0.00000000000E+00 -0.22683997781E+04  0.22683997781E+04  0.25500000920E-02 0. -1.
    10030    2    1    2    0    0  0.00000000000E+00  0.00000000000E+00 -0.10680381870E+04  0.34687613692E+04  0.33002423952E+04 0.  0.
        2    1    3    3  502    0  0.12853628626E+04 -0.83723596189E+03  0.10512569198E+03  0.15375867961E+04  0.25500000920E-02 0. -1.
       -2    1    3    3    0  502 -0.12853628626E+04  0.83723596189E+03 -0.11731638790E+04  0.19311745730E+04  0.25500000920E-02 0.  1.
</event>
<event>
 5   0  0.6603516E-08  0.3300741E+04  0.7818609E-02  0.8162707E-01
       -2   -1    0    0    0  501  0.00000000000E+00  0.00000000000E+00  0.97366398528E+03  0.97366398528E+03  0.25500000920E-02 0.  1.
        2   -1    0    0  501    0  0.00000000000E+00  0.00000000000E+00 -0.27973944591E+04  0.27973944591E+04  0.25500000920E-02 0. -1.
    10030    2    1    2    0    0  0.00000000000E+00  0.00000000000E+00 -0.18237304738E+04  0.37710584444E+04  0.33007406669E+04 0.  0.
        1    1    3    3  502    0 -0.79022513255E+03  0.26425731551E+03  0.71570366802E+03  0.10984167831E+04  0.50400001928E-02 0.  1.
       -1    1    3    3    0  502  0.79022513255E+03 -0.26425731551E+03 -0.25394341419E+04  0.26726416613E+04  0.50400001928E-02 0. -1.
</event>
<event>
 5   0  0.2309822E-08  0.3289962E+04  0.7818609E-02  0.8165454E-01
        1   -1    0    0  501    0  0.00000000000E+00  0.00000000000E+00  0.15889885242E+04  0.15889885242E+04  0.50400001928E-02 0. -1.
       -1   -1    0    0    0  501  0.00000000000E+00  0.00000000000E+00 -0.17029465403E+04  0.17029465403E+04  0.50400001928E-02 0.  1.
    10030    2    1    2    0    0  0.00000000000E+00  0.00000000000E+00 -0.11395801606E+03  0.32919350645E+04  0.32899620118E+04 0.  0.
        4    1    3    3  502    0 -0.12887321154E+04  0.50766568891E+03 -0.94487016565E+03  0.16767039571E+04  0.12699999809E+01 0.  1.
       -4    1    3    3    0  502  0.12887321154E+04 -0.50766568891E+03  0.83091214959E+03  0.16152311074E+04  0.12699999809E+01 0. -1.
</event>
<event>
 5   0  0.2279938E-08  0.3299781E+04  0.7818609E-02  0.8162951E-01
        1   -1    0    0  501    0  0.00000000000E+00  0.00000000000E+00  0.23735994169E+04  0.23735994169E+04  0.50400001928E-02 0. -1.
       -1   -1    0    0    0  501  0.00000000000E+00  0.00000000000E+00 -0.11468398341E+04  0.11468398341E+04  0.50400001928E-02 0.  1.
    10030    2    1    2    0    0  0.00000000000E+00  0.00000000000E+00  0.12267595828E+04  0.35204392510E+04  0.32997808179E+04 0.  0.
        3    1    3    3  502    0 -0.11056479007E+04 -0.37401187454E+03  0.18574608293E+04  0.21937417590E+04  0.10100000352E+00 0. -1.
       -3    1    3    3    0  502  0.11056479007E+04  0.37401187454E+03 -0.63070124649E+03  0.13266974920E+04  0.10100000352E+00 0.  1.
</event>
<event>
 5   0  0.6765252E-08  0.3298050E+04  0.7818609E-02  0.8163392E-01
       -2   -1    0    0    0  501  0.00000000000E+00  0.00000000000E+00  0.13514438040E+04  0.13514438040E+04  0.25500000920E-02 0. -1.
        2   -1    0    0  501    0  0.00000000000E+00  0.00000000000E+00 -0.20121316170E+04  0.20121316170E+04  0.25500000920E-02 0.  1.
    10030    2    1    2    0    0  0.00000000000E+00  0.00000000000E+00 -0.66068781298E+03  0.33635754211E+04  0.32980496095E+04 0.  0.
        2    1    3    3  502    0 -0.42791538863E+03 -0.12592301515E+04 -0.13246554477E+04  0.18770946192E+04  0.25500000920E-02 0.  1.
       -2    1    3    3    0  502  0.42791538863E+03  0.12592301515E+04  0.66396763475E+03  0.14864808019E+04  0.25500000920E-02 0. -1.
</event>
<event>
 5   0  0.2244093E-08  0.3299089E+04  0.7818609E-02  0.8163127E-01
       -1   -1    0    0    0  501  0.00000000000E+00  0.00000000000E+00  0.11853170354E+04  0.11853170354E+04  0.50400001928E-02 0.  1.
        1   -1    0    0  501    0  0.00000000000E+00  0.00000000000E+00 -0.22955859101E+04  0.22955859101E+04  0.50400001928E-02 0. -1.
    10030    2    1    2    0    0  0.00000000000E+00  0.00000000000E+00 -0.11102688748E+04  0.34809029455E+04  0.32990890169E+04 0.  0.
        1    1    3    3  502    0  0.15411221696E+04 -0.19102429038E+03 -0.11420729506E+04  0.19276613929E+04  0.50400001928E-02 0. -1.
       -1    1    3    3    0  502 -0.15411221696E+04  0.19102429038E+03  0.31804075860E+02  0.15532415525E+04  0.50400001928E-02 0.  1.
</event>
<event>
 5   0  0.2244093E-08  0.3304396E+04  0.7818609E-02  0.8161778E-01
       -1   -1    0    0    0  501  0.00000000000E+00  0.00000000000E+00  0.12700638086E+04  0.12700638086E+04  0.50400001928E-02 0. -1.
        1   -1    0    0  501    0  0.00000000000E+00  0.00000000000E+00 -0.21493081252E+04  0.21493081252E+04  0.50400001928E-02 0.  1.
    10030    2    1    2    0    0  0.00000000000E+00  0.00000000000E+00 -0.87924431666E+03  0.34193719338E+04  0.33043961405E+04 0.  0.
        1    1    3    3  502    0 -0.92687401776E+02  0.15104699767E+03 -0.21394446172E+04  0.21467718602E+04  0.50400001928E-02 0.  1.
       -1    1    3    3    0  502  0.92687401776E+02 -0.15104699767E+03  0.12602003005E+04  0.12726000736E+04  0.50400001928E-02 0. -1.
</event>
<event>
 5   0  0.2291682E-08  0.3275133E+04  0.7818609E-02  0.8169252E-01
       -1   -1    0    0    0  501  0.00000000000E+00  0.00000000000E+00  0.16034864547E+04  0.16034864547E+04  0.50400001928E-02 0. -1.
        1   -1    0    0  501    0  0.00000000000E+00  0.00000000000E+00 -0.16723708600E+04  0.16723708600E+04  0.50400001928E-02 0.  1.
    10030    2    1    2    0    0  0.00000000000E+00  0.00000000000E+00 -0.68884405383E+02  0.32758573147E+04  0.32751329874E+04 0.  0.
        2    1    3    3  502    0  0.18428620414E+02  0.13615753569E+03  0.15977108069E+04  0.16036079044E+04  0.25500000920E-02 0. -1.
       -2    1    3    3    0  502 -0.18428620414E+02 -0.13615753569E+03 -0.16665952123E+04  0.16722494103E+04  0.25500000920E-02 0.  1.
</event>
<event>
 5   0  0.6706080E-08  0.3299736E+04  0.7818609E-02  0.8162963E-01
        2   -1    0    0  501    0  0.00000000000E+00  0.00000000000E+00  0.18827277383E+04  0.18827277383E+04  0.25500000920E-02 0. -1.
       -2   -1    0    0    0  501  0.00000000000E+00  0.00000000000E+00 -0.14458084239E+04  0.14458084239E+04  0.25500000920E-02 0.  1.
    10030    2    1    2    0    0  0.00000000000E+00  0.00000000000E+00  0.43691931439E+03  0.33285361622E+04  0.32997355191E+04 0.  0.
        4    1    3    3  502    0 -0.64323225905E+03 -0.87360162360E+03 -0.10354241368E+04  0.14996773959E+04  0.12699999809E+01 0.  1.
       -4    1    3    3    0  502  0.64323225905E+03  0.87360162360E+03  0.14723434512E+04  0.18288587663E+04  0.12699999809E+01 0. -1.
</event>
<event>
 5   0  0.6821287E-08  0.3300007E+04  0.7818609E-02  0.8162894E-01
        2   -1    0    0  501    0  0.00000000000E+00  0.00000000000E+00  0.21686647113E+04  0.21686647113E+04  0.25500000920E-02 0.  1.
       -2   -1    0    0    0  501  0.00000000000E+00  0.00000000000E+00 -0.12553858203E+04  0.12553858203E+04  0.25500000920E-02 0. -1.
    10030    2    1    2    0    0  0.00000000000E+00  0.00000000000E+00  0.91327889101E+03  0.34240505317E+04  0.33000066228E+04 0.  0.
        5    1    3    3  502    0 -0.23489808246E+03  0.16202379308E+04  0.66963798208E+03  0.17688372391E+04  0.46999998093E+01 0.  1.
       -5    1    3    3    0  502  0.23489808246E+03 -0.16202379308E+04  0.24364090893E+03  0.16552132926E+04  0.46999998093E+01 0. -1.
</event>
<event>
 5   0  0.6706080E-08  0.3299947E+04  0.7818609E-02  0.8162909E-01
        2   -1    0    0  501    0  0.00000000000E+00  0.00000000000E+00  0.31562384118E+04  0.31562384118E+04  0.25500000920E-02 0.  1.
       -2   -1    0    0    0  501  0.00000000000E+00  0.00000000000E+00 -0.86254961001E+03  0.86254961001E+03  0.25500000920E-02 0. -1.
    10030    2    1    2    0    0  0.00000000000E+00  0.00000000000E+00  0.22936888018E+04  0.40187880218E+04  0.32999467942E+04 0.  0.
        4    1    3    3  502    0  0.37177130504E+03 -0.63052088918E+03 -0.65400259564E+03  0.98157603014E+03  0.12699999809E+01 0. -1.
       -4    1    3    3    0  502 -0.37177130504E+03  0.63052088918E+03  0.29476913974E+04  0.30372119916E+04  0.12699999809E+01 0.  1.
</event>
<event>
 5   0  0.6603516E-08  0.3300054E+04  0.7818609E-02  0.8162882E-01
        2   -1    0    0  501    0  0.00000000000E+00  0.00000000000E+00  0.17052235878E+04  0.17052235878E+04  0.25500000920E-02 0.  1.
       -2   -1    0    0    0  501  0.00000000000E+00  0.00000000000E+00 -0.15966170697E+04  0.15966170697E+04  0.25500000920E-02 0. -1.
    10030    2    1    2    0    0  0.00000000000E+00  0.00000000000E+00  0.10860651806E+03  0.33018406574E+04  0.33000539922E+04 0.  0.
        1    1    3    3  502    0  0.63227313807E+03 -0.12133803292E+04  0.97704328348E+03  0.16812717574E+04  0.50400001928E-02 0.  1.
       -1    1    3    3    0  502 -0.63227313807E+03  0.12133803292E+04 -0.86843676542E+03  0.16205689001E+04  0.50400001928E-02 0. -1.
</event>
<event>
 5   0  0.6821287E-08  0.3299424E+04  0.7818609E-02  0.8163042E-01
        2   -1    0    0  501    0  0.00000000000E+00  0.00000000000E+00  0.19251354838E+04  0.19251354838E+04  0.25500000920E-02 0.  1.
       -2   -1    0    0    0  501  0.00000000000E+00  0.00000000000E+00 -0.14136928886E+04  0.14136928886E+04  0.25500000920E-02 0. -1.
    10030    2    1    2    0    0  0.00000000000E+00  0.00000000000E+00  0.51144259514E+03  0.33388283724E+04  0.32994244002E+04 0.  0.
        5    1    3    3  502    0 -0.94944212928E+03 -0.10400873334E+04  0.11252304978E+04  0.18026058308E+04  0.46999998093E+01 0.  1.
       -5    1    3    3    0  502  0.94944212928E+03  0.10400873334E+04 -0.61378790262E+03  0.15362225416E+04  0.46999998093E+01 0. -1.
</event>
<event>
 5   0  0.7084130E-08  0.3299567E+04  0.7818609E-02  0.8163006E-01
       -2   -1    0    0    0  501  0.00000000000E+00  0.00000000000E+00  0.11364340516E+04  0.11364340516E+04  0.25500000920E-02 0.  1.
        2   -1    0    0  501    0  0.00000000000E+00  0.00000000000E+00 -0.23950231200E+04  0.23950231200E+04  0.25500000920E-02 0. -1.
    10030    2    1    2    0    0  0.00000000000E+00  0.00000000000E+00 -0.12585890684E+04  0.35314571716E+04  0.32995671401E+04 0.  0.
        3    1    3    3  502    0 -0.46902216017E+03 -0.15813964306E+04 -0.59562987667E+03  0.17537307141E+04  0.10100000352E+00 0. -1.
       -3    1    3    3    0  502  0.46902216017E+03  0.15813964306E+04 -0.66295919174E+03  0.17777264575E+04  0.10100000352E+00 0.  1.
</event>
<event>
 5   0  0.6706080E-08  0.3304665E+04  0.7818609E-02  0.8161709E-01
       -2   -1    0    0    0  501  0.00000000000E+00  0.00000000000E+00  0.17185816577E+04  0.17185816577E+04  0.25500000920E-02 0. -1.
        2   -1    0    0  501    0  0.00000000000E+00  0.00000000000E+00 -0.15886371666E+04  0.15886371666E+04  0.25500000920E-02 0.  1.
    10030    2    1    2    0    0  0.00000000000E+00  0.00000000000E+00  0.12994449114E+03  0.33072188243E+04  0.33046650029E+04 0.  0.
        4    1    3    3  502    0  0.10141197916E+03  0.12848368846E+04 -0.96980498347E+03  0.16129518060E+04  0.12699999809E+01 0.  1.
       -4    1    3    3    0  502 -0.10141197916E+03 -0.12848368846E+04  0.10997494746E+04  0.16942670183E+04  0.12699999809E+01 0. -1.
</event>
<event>
 5   0  0.2279938E-08  0.3298459E+04  0.7818609E-02  0.8163288E-01
        1   -1    0    0  501    0  0.00000000000E+00  0.00000000000E+00  0.21652302374E+04  0.21652302374E+04  0.50400001928E-02 0.  1.
       -1   -1    0    0    0  501  0.00000000000E+00  0.00000000000E+00 -0.12561981534E+04  0.12561981534E+04  0.50400001928E-02 0. -1.
    10030    2    1    2    0    0  0.00000000000E+00  0.00000000000E+00  0.90903208404E+03  0.34214283908E+04  0.32984591711E+04 0.  0.
        3    1    3    3  502    0  0.30561829512E+03  0.26053492824E+03 -0.12047044158E+04  0.12698794158E+04  0.10100000352E+00 0. -1.
       -3    1    3    3    0  502 -0.30561829512E+03 -0.26053492824E+03  0.21137364998E+04  0.21515489750E+04  0.10100000352E+00 0.  1.
</event>
<event>
 5   0  0.2291682E-08  0.3299107E+04  0.7818609E-02  0.8163123E-01
       -1   -1    0    0    0  501  0.00000000000E+00  0.00000000000E+00  0.11740373246E+04  0.11740373246E+04  0.50400001928E-02 0. -1.
        1   -1    0    0  501    0  0.00000000000E+00  0.00000000000E+00 -0.23176666549E+04  0.23176666549E+04  0.50400001928E-02 0.  1.
    10030    2    1    2    0    0  0.00000000000E+00  0.00000000000E+00 -0.11436293303E+04  0.34917039795E+04  0.32991072483E+04 0.  0.
        2    1    3    3  502    0 -0.15525044850E+04 -0.30586163506E+03 -0.10650753892E+04  0.19074084776E+04  0.25500000920E-02 0.  1.
       -2    1    3    3    0  502  0.15525044850E+04  0.30586163506E+03 -0.78553941155E+02  0.15842955019E+04  0.25500000920E-02 0. -1.
</event>
<event>
 5   0  0.2383270E-08  0.3287195E+04  0.7818609E-02  0.8166161E-01
        1   -1    0    0  501    0  0.00000000000E+00  0.00000000000E+00  0.18313426572E+04  0.18313426572E+04  0.50400001928E-02 0.  1.
       -1   -1    0    0    0  501  0.00000000000E+00  0.00000000000E+00 -0.14750994956E+04  0.14750994956E+04  0.50400001928E-02 0. -1.
    10030    2    1    2    0    0  0.00000000000E+00  0.00000000000E+00  0.35624316156E+03  0.33064421528E+04  0.32871949318E+04 0.  0.
        5    1    3    3  502    0  0.15692182206E+04 -0.48849507791E+03  0.19603808845E+03  0.16551514393E+04  0.46999998093E+01 0. -1.
       -5    1    3    3    0  502 -0.15692182206E+04  0.48849507791E+03  0.16020507311E+03  0.16512907135E+04  0.46999998093E+01 0.  1.
</event>
<event>
 5   0  0.6706080E-08  0.3302442E+04  0.7818609E-02  0.8162274E-01
       -2   -1    0    0    0  501  0.00000000000E+00  0.00000000000E+00  0.15271782495E+04  0.15271782495E+04  0.25500000920E-02 0.  1.
        2   -1    0    0  501    0  0.00000000000E+00  0.00000000000E+00 -0.17853387093E+04  0.17853387093E+04  0.25500000920E-02 0. -1.
    10030    2    1    2    0    0  0.00000000000E+00  0.00000000000E+00 -0.25816045979E+03  0.33125169589E+04  0.33024417905E+04 0.  0.
        4    1    3    3  502    0  0.68754120040E+03  0.68948674984E+03  0.12085639010E+04  0.15520094060E+04  0.12699999809E+01 0. -1.
       -4    1    3    3    0  502 -0.68754120040E+03 -0.68948674984E+03 -0.14667243608E+04  0.17605075529E+04  0.12699999809E+01 0.  1.
</event>
<event>
 5   0  0.2244093E-08  0.3298370E+04  0.7818609E-02  0.8163310E-01
       -1   -1    0    0    0  501  0.00000000000E+00  0.00000000000E+00  0.11545087573E+04  0.11545087573E+04  0.50400001928E-02 0. -1.
        1   -1    0    0  501    0  0.00000000000E+00  0.00000000000E+00 -0.23558168685E+04  0.23558168686E+04  0.50400001928E-02 0.  1.
    10030    2    1    2    0    0  0.00000000000E+00  0.00000000000E+00 -0.12013081113E+04  0.35103256258E+04  0.32983700249E+04 0.  0.
        1    1    3    3  502    0 -0.11162528185E+04 -0.94112842463E+03  0.21548066547E+03  0.14758641481E+04  0.50400001928E-02 0. -1.
       -1    1    3    3    0  502  0.11162528185E+04  0.94112842463E+03 -0.14167887768E+04  0.20344614777E+04  0.50400001928E-02 0.  1.
</event>
<event>
 5   0  0.2383270E-08  0.3298979E+04  0.7818609E-02  0.8163155E-01
       -1   -1    0    0    0  501  0.00000000000E+00  0.00000000000E+00  0.20934972323E+04  0.20934972323E+04  0.50400001928E-02 0.  1.
        1   -1    0    0  501    0  0.00000000000E+00  0.00000000000E+00 -0.12996505883E+04  0.12996505883E+04  0.50400001928E-02 0. -1.
    10030    2    1    2    0    0  0.00000000000E+00  0.00000000000E+00  0.79384664401E+03  0.33931478207E+04  0.32989785751E+04 0.  0.
        5    1    3    3  502    0  0.14381592172E+03  0.10126076930E+04  0.17279795224E+04  0.20079822408E+04  0.46999998093E+01 0.  1.
       -5    1    3    3    0  502 -0.14381592172E+03 -0.10126076930E+04 -0.93413287841E+03  0.13851655799E+04  0.46999998093E+01 0. -1.
</event>
<event>
 5   0  0.2244093E-08  0.3299856E+04  0.7818609E-02  0.8162932E-01
        1   -1    0    0  501    0  0.00000000000E+00  0.00000000000E+00  0.10497281329E+04  0.10497281329E+04  0.50400001928E-02 0. -1.
       -1   -1    0    0    0  501  0.00000000000E+00  0.00000000000E+00 -0.25933023919E+04  0.25933023919E+04  0.50400001928E-02 0.  1.
    10030    2    1    2    0    0  0.00000000000E+00  0.00000000000E+00 -0.15435742590E+04  0.36430305248E+04  0.32998560441E+04 0.  0.
        1    1    3    3  502    0  0.13183835060E+04 -0.99201527836E+03 -0.76543589284E+03  0.18188242047E+04  0.50400001928E-02 0.  1.
       -1    1    3    3    0  502 -0.13183835060E+04  0.99201527836E+03 -0.77813836612E+03  0.18242063201E+04  0.50400001928E-02 0. -1.
</event>
<event>
 5   0  0.2291682E-08  0.3300439E+04  0.7818609E-02  0.8162784E-01
       -1   -1    0    0    0  501  0.00000000000E+00  0.00000000000E+00  0.17172866310E+04  0.17172866310E+04  0.50400001928E-02 0.  1.
        1   -1    0    0  501    0  0.00000000000E+00  0.00000000000E+00 -0.15857713091E+04  0.15857713091E+04  0.50400001928E-02 0. -1.
    10030    2    1    2    0    0  0.00000000000E+00  0.00000000000E+00  0.13151532194E+03  0.33030579401E+04  0.33004386793E+04 0.  0.
        2    1    3    3  502    0 -0.15453418544E+04 -0.53517692277E+03 -0.15516190875E+03  0.16427327852E+04  0.25500000920E-02 0.  1.
       -2    1    3    3    0  502  0.15453418544E+04  0.53517692277E+03  0.28667723069E+03  0.16603251550E+04  0.25500000920E-02 0. -1.
</event>
<event>
 5   0  0.6821287E-08  0.3296553E+04  0.7818609E-02  0.8163773E-01
       -2   -1    0    0    0  501  0.00000000000E+00  0.00000000000E+00  0.96993402912E+03  0.96993402912E+03  0.25500000920E-02 0.  1.
        2   -1    0    0  501    0  0.00000000000E+00  0.00000000000E+00 -0.28010311188E+04  0.28010311188E+04  0.25500000920E-02 0. -1.
    10030    2    1    2    0    0  0.00000000000E+00  0.00000000000E+00 -0.18310970897E+04  0.37709651479E+04  0.32965529868E+04 0.  0.
        5    1    3    3  502    0  0.50237287955E+03  0.41310408128E+03 -0.26480213573E+04  0.27267329702E+04  0.46999998093E+01 0. -1.
       -5    1    3    3    0  502 -0.50237287955E+03 -0.41310408128E+03  0.81692426758E+03  0.10442321777E+04  0.46999998093E+01 0.  1.
</event>
<event>
 5   0  0.6706080E-08  0.3300443E+04  0.7818609E-02  0.8162783E-01
        2   -1    0    0  501    0  0.00000000000E+00  0.00000000000E+00  0.29358823544E+04  0.29358823544E+04  0.25500000920E-02 0.  1.
       -2   -1    0    0    0  501  0.00000000000E+00  0.00000000000E+00 -0.92756817683E+03  0.92756817683E+03  0.25500000920E-02 0. -1.
    10030    2    1    2    0    0  0.00000000000E+00  0.00000000000E+00  0.20083141776E+04  0.38634505312E+04  0.33004430265E+04 0.  0.
        4    1    3    3  502    0  0.48254806308E+03  0.15197197815E+04  0.15019361845E+04  0.21904827694E+04  0.12699999809E+01 0.  1.
       -4    1    3    3    0  502 -0.48254806308E+03 -0.15197197815E+04  0.50637799302E+03  0.16729677619E+04  0.12699999809E+01 0. -1.
</event>
<event>
 5   0  0.2279938E-08  0.3301164E+04  0.7818609E-02  0.8162599E-01
        1   -1    0    0  501    0  0.00000000000E+00  0.00000000000E+00  0.17779156546E+04  0.17779156546E+04  0.50400001928E-02 0.  1.
       -1   -1    0    0    0  501  0.00000000000E+00  0.00000000000E+00 -0.15323679124E+04  0.15323679124E+04  0.50400001928E-02 0. -1.
    10030    2    1    2    0    0  0.00000000000E+00  0.00000000000E+00  0.24554774226E+03  0.33102835670E+04  0.33011639766E+04 0.  0.
        3    1    3    3  502    0  0.15931203086E+04  0.36489884797E+03  0.35414359649E+03  0.16723041542E+04  0.10100000352E+00 0. -1.
       -3    1    3    3    0  502 -0.15931203086E+04 -0.36489884797E+03 -0.10859585424E+03  0.16379794128E+04  0.10100000352E+00 0.  1.
</event>
<event>
 5   0  0.2291682E-08  0.3299277E+04  0.7818609E-02  0.8163079E-01
        1   -1    0    0  501    0  0.00000000000E+00  0.00000000000E+00  0.14508453291E+04  0.14508453291E+04  0.50400001928E-02 0.  1.
       -1   -1    0    0    0  501  0.00000000000E+00  0.00000000000E+00 -0.18756701122E+04  0.18756701122E+04  0.50400001928E-02 0. -1.
    10030    2    1    2    0    0  0.00000000000E+00  0.00000000000E+00 -0.42482478310E+03  0.33265154413E+04  0.32992770246E+04 0.  0.
        2    1    3    3  502    0  0.13523468099E+04  0.78856381965E+03  0.31210594953E+03  0.15962721935E+04  0.25500000920E-02 0. -1.
       -2    1    3    3    0  502 -0.13523468099E+04 -0.78856381965E+03 -0.73693073263E+03  0.17302432478E+04  0.25500000920E-02 0.  1.
</event>
<event>
 5   0  0.6706080E-08  0.3298250E+04  0.7818609E-02  0.8163341E-01
        2   -1    0    0  501    0  0.00000000000E+00  0.00000000000E+00  0.22639832433E+04  0.22639832433E+04  0.25500000920E-02 0.  1.
       -2   -1    0    0    0  501  0.00000000000E+00  0.00000000000E+00 -0.12012516949E+04  0.12012516949E+04  0.25500000920E-02 0. -1.
    10030    2    1    2    0    0  0.00000000000E+00  0.00000000000E+00  0.10627315484E+04  0.34652349382E+04  0.32982502684E+04 0.  0.
        4    1    3    3  502    0  0.15324328222E+04 -0.58954700370E+03  0.36963701611E+03  0.16830178730E+04  0.12699999809E+01 0.  1.
       -4    1    3    3    0  502 -0.15324328222E+04  0.58954700370E+03  0.69309453225E+03  0.17822170652E+04  0.12699999809E+01 0. -1.
</event>
<event>
 5   0  0.2244093E-08  0.3301732E+04  0.7818609E-02  0.8162455E-01
        1   -1    0    0  501    0  0.00000000000E+00  0.00000000000E+00  0.29024744232E+04  0.29024744232E+04  0.50400001928E-02 0. -1.
       -1   -1    0    0    0  501  0.00000000000E+00  0.00000000000E+00 -0.93897782641E+03  0.93897782643E+03  0.50400001928E-02 0.  1.
    10030    2    1    2    0    0  0.00000000000E+00  0.00000000000E+00  0.19634965968E+04  0.38414522496E+04  0.33017323484E+04 0.  0.
        1    1    3    3  502    0 -0.51944513600E+03 -0.72526195082E+03  0.25978900581E+04  0.27467910187E+04  0.50400001928E-02 0. -1.
       -1    1    3    3    0  502  0.51944513600E+03  0.72526195082E+03 -0.63439346132E+03  0.10946612309E+04  0.50400001928E-02 0.  1.
</event>
<event>
 5   0  0.6706080E-08  0.3299923E+04  0.7818609E-02  0.8162915E-01
        2   -1    0    0  501    0  0.00000000000E+00  0.00000000000E+00  0.18495283887E+04  0.18495283887E+04  0.25500000920E-02 0.  1.
       -2   -1    0    0    0  501  0.00000000000E+00  0.00000000000E+00 -0.14719281581E+04  0.14719281581E+04  0.25500000920E-02 0. -1.
    10030    2    1    2    0    0  0.00000000000E+00  0.00000000000E+00  0.37760023055E+03  0.33214565468E+04  0.32999229776E+04 0.  0.
        4    1    3    3  502    0  0.98779673852E+03 -0.11037136194E+04  0.92048609043E+03  0.17439100911E+04  0.12699999809E+01 0.  1.
       -4    1    3    3    0  502 -0.98779673852E+03  0.11037136194E+04 -0.54288585988E+03  0.15775464557E+04  0.12699999809E+01 0. -1.
</event>
<event>
 5   0  0.2244093E-08  0.3299861E+04  0.7818609E-02  0.8162931E-01
        1   -1    0    0  501    0  0.00000000000E+00  0.00000000000E+00  0.25391753937E+04  0.25391753937E+04  0.50400001928E-02 0.  1.
       -1   -1    0    0    0  501  0.00000000000E+00  0.00000000000E+00 -0.10721079674E+04  0.10721079674E+04  0.50400001928E-02 0. -1.
    10030    2    1    2    0    0  0.00000000000E+00  0.00000000000E+00  0.14670674264E+04  0.36112833611E+04  0.32998607063E+04 0.  0.
        1    1    3    3  502    0  0.18929908774E+03  0.16333363428E+04  0.88298062487E+03  0.18663538081E+04  0.50400001928E-02 0. -1.
       -1    1    3    3    0  502 -0.18929908774E+03 -0.16333363428E+04  0.58408680149E+03  0.17449295530E+04  0.50400001928E-02 0.  1.
</event>
<event>
 5   0  0.2244093E-08  0.3299469E+04  0.7818609E-02  0.8163030E-01
        1   -1    0    0  501    0  0.00000000000E+00  0.00000000000E+00  0.21419005743E+04  0.21419005743E+04  0.50400001928E-02 0.  1.
       -1   -1    0    0    0  501  0.00000000000E+00  0.00000000000E+00 -0.12706586212E+04  0.12706586212E+04  0.50400001928E-02 0. -1.
    10030    2    1    2    0    0  0.00000000000E+00  0.00000000000E+00  0.87124195306E+03  0.34125591955E+04  0.32994693092E+04 0.  0.
        1    1    3    3  502    0  0.47800863287E+03 -0.46264402683E+03 -0.11257895174E+04  0.13076443653E+04  0.50400001928E-02 0. -1.
       -1    1    3    3    0  502 -0.47800863287E+03  0.46264402683E+03  0.19970314704E+04  0.21049148302E+04  0.50400001928E-02 0.  1.
</event>
<event>
 5   0  0.7084130E-08  0.3301419E+04  0.7818609E-02  0.8162534E-01
       -2   -1    0    0    0  501  0.00000000000E+00  0.00000000000E+00  0.16669522064E+04  0.16669522064E+04  0.25500000920E-02 0.  1.
        2   -1    0    0  501    0  0.00000000000E+00  0.00000000000E+00 -0.16346254138E+04  0.16346254138E+04  0.25500000920E-02 0. -1.
    10030    2    1    2    0    0  0.00000000000E+00  0.00000000000E+00  0.32326792593E+02  0.33015776202E+04  0.33014193555E+04 0.  0.
        3    1    3    3  502    0  0.74237563055E+03 -0.13809212564E+04  0.53269308103E+03  0.16558463159E+04  0.10100000352E+00 0.  1.
       -3    1    3    3    0  502 -0.74237563055E+03  0.13809212564E+04 -0.50036628844E+03  0.16457313043E+04  0.10100000352E+00 0. -1.
</event>
<event>
 5   0  0.2383270E-08  0.3301556E+04  0.7818609E-02  0.8162499E-01
       -1   -1    0    0    0  501  0.00000000000E+00  0.00000000000E+00  0.27042873096E+04  0.27042873096E+04  0.50400001928E-02 0. -1.
        1   -1    0    0  501    0  0.00000000000E+00  0.00000000000E+00 -0.10076846292E+04  0.10076846292E+04  0.50400001928E-02 0.  1.
    10030    2    1    2    0    0  0.00000000000E+00  0.00000000000E+00  0.16966026803E+04  0.37119719388E+04  0.33015564541E+04 0.  0.
        5    1    3    3  502    0  0.21536884101E+03  0.54776271094E+03  0.25822985447E+04  0.26485308359E+04  0.46999998093E+01 0. -1.
       -5    1    3    3    0  502 -0.21536884101E+03 -0.54776271094E+03 -0.88569586434E+03  0.10634411029E+04  0.46999998093E+01 0.  1.
</event>
<event>
 5   0  0.7084130E-08  0.3303171E+04  0.7818609E-02  0.8162089E-01
       -2   -1    0    0    0  501  0.00000000000E+00  0.00000000000E+00  0.18225565896E+04  0.18225565896E+04  0.25500000920E-02 0.  1.
        2   -1    0    0  501    0  0.00000000000E+00  0.00000000000E+00 -0.14966532064E+04  0.14966532064E+04  0.25500000920E-02 0. -1.
    10030    2    1    2    0    0  0.00000000000E+00  0.00000000000E+00  0.32590338314E+03  0.33192097960E+04  0.33031713026E+04 0.  0.
        3    1    3    3  502    0  0.28448465863E+03 -0.11983024969E+03 -0.14674071600E+04  0.14995247891E+04  0.10100000352E+00 0. -1.
       -3    1    3    3    0  502 -0.28448465863E+03  0.11983024969E+03  0.17933105432E+04  0.18196850069E+04  0.10100000352E+00 0.  1.
</event>
<event>
 5   0  0.6706080E-08  0.3302835E+04  0.7818609E-02  0.8162174E-01
       -2   -1    0    0    0  501  0.00000000000E+00  0.00000000000E+00  0.20163118684E+04  0.20163118684E+04  0.25500000920E-02 0.  1.
        2   -1    0    0  501    0  0.00000000000E+00  0.00000000000E+00 -0.13525587689E+04  0.13525587689E+04  0.25500000920E-02 0. -1.
    10030    2    1    2    0    0  0.00000000000E+00  0.00000000000E+00  0.66375309946E+03  0.33688706373E+04  0.33028353265E+04 0.  0.
        4    1    3    3  502    0 -0.15426749260E+03  0.22284287228E+03 -0.13297180312E+04  0.13570589745E+04  0.12699999809E+01 0. -1.
       -4    1    3    3    0  502  0.15426749260E+03 -0.22284287228E+03  0.19934711306E+04  0.20118116628E+04  0.12699999809E+01 0.  1.
</event>
<event>
 5   0  0.7084130E-08  0.3302712E+04  0.7818609E-02  0.8162206E-01
        2   -1    0    0  501    0  0.00000000000E+00  0.00000000000E+00  0.17728945748E+04  0.17728945748E+04  0.25500000920E-02 0.  1.
       -2   -1    0    0    0  501  0.00000000000E+00  0.00000000000E+00 -0.15381493524E+04  0.15381493524E+04  0.25500000920E-02 0. -1.
    10030    2    1    2    0    0  0.00000000000E+00  0.00000000000E+00  0.23474522241E+03  0.33110439271E+04  0.33027120020E+04 0.  0.
        3    1    3    3  502    0  0.44776601525E+03 -0.47489388658E+02  0.17101623181E+04  0.17684470054E+04  0.10100000352E+00 0.  1.
       -3    1    3    3    0  502 -0.44776601525E+03  0.47489388658E+02 -0.14754170957E+04  0.15425969217E+04  0.10100000352E+00 0. -1.
</event>
<event>
 5   0  0.6603516E-08  0.3299676E+04  0.7818609E-02  0.8162978E-01
       -2   -1    0    0    0  501  0.00000000000E+00  0.00000000000E+00  0.17488541093E+04  0.17488541093E+04  0.25500000920E-02 0. -1.
        2   -1    0    0  501    0  0.00000000000E+00  0.00000000000E+00 -0.15564282568E+04  0.15564282568E+04  0.25500000920E-02 0.  1.
    10030    2    1    2    0    0  0.00000000000E+00  0.00000000000E+00  0.19242585252E+03  0.33052823661E+04  0.32996763191E+04 0.  0.
        1    1    3    3  502    0 -0.82493601515E+03 -0.67874916369E+03  0.13556262562E+04  0.17259612982E+04  0.50400001928E-02 0. -1.
       -1    1    3    3    0  502  0.82493601515E+03  0.67874916369E+03 -0.11632004037E+04  0.15793210679E+04  0.50400001928E-02 0.  1.
</event>
<event>
 5   0  0.2291682E-08  0.3300938E+04  0.7818609E-02  0.8162657E-01
        1   -1    0    0  501    0  0.00000000000E+00  0.00000000000E+00  0.18754051538E+04  0.18754051538E+04  0.50400001928E-02 0. -1.
       -1   -1    0    0    0  501  0.00000000000E+00  0.00000000000E+00 -0.14525113727E+04  0.14525113727E+04  0.50400001928E-02 0.  1.
    10030    2    1    2    0    0  0.00000000000E+00  0.00000000000E+00  0.42289378107E+03  0.33279165265E+04  0.33009376331E+04 0.  0.
        2    1    3    3  502    0 -0.11298912866E+04 -0.11544052203E+04  0.55295067640E+03  0.17073547325E+04  0.25500000920E-02 0. -1.
       -2    1    3    3    0  502  0.11298912866E+04  0.11544052203E+04 -0.13005689533E+03  0.16205617940E+04  0.25500000920E-02 0.  1.
</event>
<event>
 5   0  0.2309822E-08  0.3299503E+04  0.7818609E-02  0.8163022E-01
       -1   -1    0    0    0  501  0.00000000000E+00  0.00000000000E+00  0.23983747309E+04  0.23983747309E+04  0.50400001928E-02 0.  1.
        1   -1    0    0  501    0  0.00000000000E+00  0.00000000000E+00 -0.11348016858E+04  0.11348016858E+04  0.50400001928E-02 0. -1.
    10030    2    1    2    0    0  0.00000000000E+00  0.00000000000E+00  0.12635730451E+04  0.35331764168E+04  0.32995028037E+04 0.  0.
        4    1    3    3  502    0 -0.34076781327E+03 -0.69427404048E+03 -0.92865297552E+03  0.12085268337E+04  0.12699999809E+01 0. -1.
       -4    1    3    3    0  502  0.34076781327E+03  0.69427404048E+03  0.21922260206E+04  0.23246495831E+04  0.12699999809E+01 0.  1.
</event>
<event>
 5   0  0.6821287E-08  0.3301107E+04  0.7818609E-02  0.8162614E-01
        2   -1    0    0  501    0  0.00000000000E+00  0.00000000000E+00  0.23026915487E+04  0.23026915487E+04  0.25500000920E-02 0.  1.
       -2   -1    0    0    0  501  0.00000000000E+00  0.00000000000E+00 -0.11831054739E+04  0.11831054739E+04  0.25500000920E-02 0. -1.
    10030    2    1    2    0    0  0.00000000000E+00  0.00000000000E+00  0.11195860747E+04  0.34857970226E+04  0.33011070725E+04 0.  0.
        5    1    3    3  502    0  0.14218354709E+04 -0.33038979329E+03 -0.25371963086E+03  0.14816103614E+04  0.46999998093E+01 0. -1.
       -5    1    3    3    0  502 -0.14218354709E+04  0.33038979329E+03  0.13733057056E+04  0.20041866612E+04  0.46999998093E+01 0.  1.
</event>
<event>
 5   0  0.2244093E-08  0.3302641E+04  0.7818609E-02  0.8162224E-01
        1   -1    0    0  501    0  0.00000000000E+00  0.00000000000E+00  0.15468327649E+04  0.15468327649E+04  0.50400001928E-02 0.  1.
       -1   -1    0    0    0  501  0.00000000000E+00  0.00000000000E+00 -0.17628660550E+04  0.17628660550E+04  0.50400001928E-02 0. -1.
    10030    2    1    2    0    0  0.00000000000E+00  0.00000000000E+00 -0.21603329016E+03  0.33096988199E+04  0.33026407458E+04 0.  0.
        1    1    3    3  502    0 -0.12501388739E+04 -0.95626189239E+03 -0.60865906881E+03  0.16875277399E+04  0.50400001928E-02 0. -1.
       -1    1    3    3    0  502  0.12501388739E+04  0.95626189239E+03  0.39262577864E+03  0.16221710800E+04  0.50400001928E-02 0.  1.
</event>
<event>
 5   0  0.2309822E-08  0.3298899E+04  0.7818609E-02  0.8163176E-01
       -1   -1    0    0    0  501  0.00000000000E+00  0.00000000000E+00  0.20616372311E+04  0.20616372311E+04  0.50400001928E-02 0. -1.
        1   -1    0    0  501    0  0.00000000000E+00  0.00000000000E+00 -0.13196713823E+04  0.13196713823E+04  0.50400001928E-02 0.  1.
    10030    2    1    2    0    0  0.00000000000E+00  0.00000000000E+00  0.74196584888E+03  0.33813086134E+04  0.32988990009E+04 0.  0.
        4    1    3    3  502    0 -0.11396834165E+04 -0.87067902197E+03 -0.46406005698E+03  0.15074195164E+04  0.12699999809E+01 0.  1.
       -4    1    3    3    0  502  0.11396834165E+04  0.87067902197E+03  0.12060259059E+04  0.18738890970E+04  0.12699999809E+01 0. -1.
</event>
<event>
 5   0  0.2383270E-08  0.3303212E+04  0.7818609E-02  0.8162079E-01
        1   -1    0    0  501    0  0.00000000000E+00  0.00000000000E+00  0.26810186506E+04  0.26810186506E+04  0.50400001928E-02 0.  1.
       -1   -1    0    0    0  501  0.00000000000E+00  0.00000000000E+00 -0.10174498049E+04  0.10174498049E+04  0.50400001928E-02 0. -1.
    10030    2    1    2    0    0  0.00000000000E+00  0.00000000000E+00  0.16635688458E+04  0.36984684555E+04  0.33032117116E+04 0.  0.
        5    1    3    3  502    0 -0.23450328140E+03 -0.82044870273E+03  0.24150826110E+04  0.25614007829E+04  0.46999998093E+01 0.  1.
       -5    1    3    3    0  502  0.23450328140E+03  0.82044870273E+03 -0.75151376520E+03  0.11370676726E+04  0.46999998093E+01 0. -1.
</event>
<event>
 5   0  0.6706080E-08  0.3298404E+04  0.7818609E-02  0.8163302E-01
        2   -1    0    0  501    0  0.00000000000E+00  0.00000000000E+00  0.17919089683E+04  0.17919089683E+04  0.25500000920E-02 0.  1.
       -2   -1    0    0    0  501  0.00000000000E+00  0.00000000000E+00 -0.15178597433E+04  0.15178597433E+04  0.25500000920E-02 0. -1.
    10030    2    1    2    0    0  0.00000000000E+00  0.00000000000E+00  0.27404922506E+03  0.33097687116E+04  0.32984035451E+04 0.  0.
        4    1    3    3  502    0  0.15968913981E+04 -0.12054703467E+03  0.53242695742E+03  0.16876237148E+04  0.12699999809E+01 0. -1.
       -4    1    3    3    0  502 -0.15968913981E+04  0.12054703467E+03 -0.25837773236E+03  0.16221449968E+04  0.12699999809E+01 0.  1.
</event>
<event>
 5   0  0.2244093E-08  0.3297365E+04  0.7818609E-02  0.8163566E-01
       -1   -1    0    0    0  501  0.00000000000E+00  0.00000000000E+00  0.11544652884E+04  0.11544652884E+04  0.50400001928E-02 0.  1.
        1   -1    0    0  501    0  0.00000000000E+00  0.00000000000E+00 -0.23544705813E+04  0.23544705813E+04  0.50400001928E-02 0. -1.
    10030    2    1    2    0    0  0.00000000000E+00  0.00000000000E+00 -0.12000052929E+04  0.35089358698E+04  0.32973653475E+04 0.  0.
        1    1    3    3  502    0 -0.79621468529E+03 -0.11213789307E+04  0.36757073796E+03  0.14235718383E+04  0.50400001928E-02 0.  1.
       -1    1    3    3    0  502  0.79621468529E+03  0.11213789307E+04 -0.15675760308E+04  0.20853640315E+04  0.50400001928E-02 0. -1.
</event>
<event>
 5   0  0.6765252E-08  0.3299503E+04  0.7818609E-02  0.8163022E-01
       -2   -1    0    0    0  501  0.00000000000E+00  0.00000000000E+00  0.10878845351E+04  0.10878845351E+04  0.25500000920E-02 0. -1.
        2   -1    0    0  501    0  0.00000000000E+00  0.00000000000E+00 -0.25018099090E+04  0.25018099090E+04  0.25500000920E-02 0.  1.
    10030    2    1    2    0    0  0.00000000000E+00  0.00000000000E+00 -0.14139253739E+04  0.35896944440E+04  0.32995031805E+04 0.  0.
        2    1    3    3  502    0 -0.31781771968E+03 -0.12624215730E+04 -0.18094828405E+04  0.22291129359E+04  0.25500000920E-02 0.  1.
       -2    1    3    3    0  502  0.31781771968E+03  0.12624215730E+04  0.39555746658E+03  0.13605815081E+04  0.25500000920E-02 0. -1.
</event>
<event>
 5   0  0.6821287E-08  0.3301133E+04  0.7818609E-02  0.8162607E-01
        2   -1    0    0  501    0  0.00000000000E+00  0.00000000000E+00  0.18426774202E+04  0.18426774202E+04  0.25500000920E-02 0. -1.
       -2   -1    0    0    0  501  0.00000000000E+00  0.00000000000E+00 -0.14784846954E+04  0.14784846954E+04  0.25500000920E-02 0.  1.
    10030    2    1    2    0    0  0.00000000000E+00  0.00000000000E+00  0.36419272477E+03  0.33211621156E+04  0.33011333596E+04 0.  0.
        5    1    3    3  502    0 -0.63851527482E+03  0.56030598396E+03  0.16058516778E+04  0.18167075309E+04  0.46999998093E+01 0. -1.
       -5    1    3    3    0  502  0.63851527482E+03 -0.56030598396E+03 -0.12416589530E+04  0.15044545847E+04  0.46999998093E+01 0.  1.
</event>
<event>
 5   0  0.2279938E-08  0.3300494E+04  0.7818609E-02  0.8162770E-01
        1   -1    0    0  501    0  0.00000000000E+00  0.00000000000E+00  0.14066211648E+04  0.14066211648E+04  0.50400001928E-02 0.  1.
       -1   -1    0    0    0  501  0.00000000000E+00  0.00000000000E+00 -0.19360681082E+04  0.19360681082E+04  0.50400001928E-02 0. -1.
    10030    2    1    2    0    0  0.00000000000E+00  0.00000000000E+00 -0.52944694341E+03  0.33426892731E+04  0.33004935253E+04 0.  0.
        3    1    3    3  502    0  0.41568539171E+03 -0.94331134886E+03  0.10404270067E+04  0.14646224811E+04  0.10100000352E+00 0.  1.
       -3    1    3    3    0  502 -0.41568539171E+03  0.94331134886E+03 -0.15698739501E+04  0.18780667920E+04  0.10100000352E+00 0. -1.
</event>
<event>
 5   0  0.2383270E-08  0.3298507E+04  0.7818609E-02  0.8163275E-01
        1   -1    0    0  501    0  0.00000000000E+00  0.00000000000E+00  0.17573285245E+04  0.17573285245E+04  0.50400001928E-02 0.  1.
       -1   -1    0    0    0  501  0.00000000000E+00  0.00000000000E+00 -0.15478247464E+04  0.15478247464E+04  0.50400001928E-02 0. -1.
    10030    2    1    2    0    0  0.00000000000E+00  0.00000000000E+00  0.20950377816E+03  0.33051532709E+04  0.32985066789E+04 0.  0.
        5    1    3    3  502    0 -0.89231492668E+03  0.13859640247E+04  0.15864019391E+03  0.16559924539E+04  0.46999998093E+01 0. -1.
       -5    1    3    3    0  502  0.89231492668E+03 -0.13859640247E+04  0.50863584248E+02  0.16491608170E+04  0.46999998093E+01 0.  1.
</event>
<event>
 5   0  0.6765252E-08  0.3298994E+04  0.7818609E-02  0.8163152E-01
        2   -1    0    0  501    0  0.00000000000E+00  0.00000000000E+00  0.16946516053E+04  0.16946516053E+04  0.25500000920E-02 0.  1.
       -2   -1    0    0    0  501  0.00000000000E+00  0.00000000000E+00 -0.16055451789E+04  0.16055451789E+04  0.25500000920E-02 0. -1.
    10030    2    1    2    0    0  0.00000000000E+00  0.00000000000E+00  0.89106426372E+02  0.33001967842E+04  0.32989936131E+04 0.  0.
        2    1    3    3  502    0 -0.13465596319E+04 -0.12522610960E+02  0.99750761618E+03  0.16758284824E+04  0.25500000920E-02 0.  1.
       -2    1    3    3    0  502  0.13465596319E+04  0.12522610960E+02 -0.90840118981E+03  0.16243683018E+04  0.25500000920E-02 0. -1.
</event>
<event>
 5   0  0.2309822E-08  0.3300265E+04  0.7818609E-02  0.8162828E-01
       -1   -1    0    0    0  501  0.00000000000E+00  0.00000000000E+00  0.17522164643E+04  0.17522164643E+04  0.50400001928E-02 0.  1.
        1   -1    0    0  501    0  0.00000000000E+00  0.00000000000E+00 -0.15539958137E+04  0.15539958137E+04  0.50400001928E-02 0. -1.
    10030    2    1    2    0    0  0.00000000000E+00  0.00000000000E+00  0.19822065064E+03  0.33062122780E+04  0.33002648683E+04 0.  0.
        4    1    3    3  502    0  0.15832882629E+03  0.15010709420E+04 -0.56891475803E+03  0.16130553632E+04  0.12699999809E+01 0. -1.
       -4    1    3    3    0  502 -0.15832882629E+03 -0.15010709420E+04  0.76713540867E+03  0.16931569148E+04  0.12699999809E+01 0.  1.
</event>
<event>
 5   0  0.7084130E-08  0.3300212E+04  0.7818609E-02  0.8162841E-01
        2   -1    0    0  501    0  0.00000000000E+00  0.00000000000E+00  0.21542751080E+04  0.21542751080E+04  0.25500000920E-02 0. -1.
       -2   -1    0    0    0  501  0.00000000000E+00  0.00000000000E+00 -0.12639286482E+04  0.12639286482E+04  0.25500000920E-02 0.  1.
    10030    2    1    2    0    0  0.00000000000E+00  0.00000000000E+00  0.89034645978E+03  0.34182037562E+04  0.33002121296E+04 0.  0.
        3    1    3    3  502    0 -0.27009450661E+03  0.41675831851E+03  0.20750319370E+04  0.21336344786E+04  0.10100000352E+00 0. -1.
       -3    1    3    3    0  502  0.27009450661E+03 -0.41675831851E+03 -0.11846854772E+04  0.12845692775E+04  0.10100000352E+00 0.  1.
</event>
<event>
 5   0  0.6821287E-08  0.3300456E+04  0.7818609E-02  0.8162779E-01
       -2   -1    0    0    0  501  0.00000000000E+00  0.00000000000E+00  0.14880023672E+04  0.14880023672E+04  0.25500000920E-02 0.  1.
        2   -1    0    0  501    0  0.00000000000E+00  0.00000000000E+00 -0.18301402730E+04  0.18301402731E+04  0.25500000920E-02 0. -1.
    10030    2    1    2    0    0  0.00000000000E+00  0.00000000000E+00 -0.34213790583E+03  0.33181426403E+04  0.33004563676E+04 0.  0.
        5    1    3    3  502    0 -0.14614027430E+04  0.27814445818E+03  0.54701949542E+03  0.15850283074E+04  0.46999998093E+01 0. -1.
       -5    1    3    3    0  502  0.14614027430E+04 -0.27814445818E+03 -0.88915740125E+03  0.17331143329E+04  0.46999998093E+01 0.  1.
</event>
<event>
 5   0  0.6706080E-08  0.3300583E+04  0.7818609E-02  0.8162747E-01
        2   -1    0    0  501    0  0.00000000000E+00  0.00000000000E+00  0.20300035526E+04  0.20300035526E+04  0.25500000920E-02 0. -1.
       -2   -1    0    0    0  501  0.00000000000E+00  0.00000000000E+00 -0.13416041801E+04  0.13416041801E+04  0.25500000920E-02 0.  1.
    10030    2    1    2    0    0  0.00000000000E+00  0.00000000000E+00  0.68839937256E+03  0.33716077327E+04  0.33005825254E+04 0.  0.
        4    1    3    3  502    0  0.21350156071E+03  0.12644549756E+04  0.14053166872E+04  0.19024578592E+04  0.12699999809E+01 0.  1.
       -4    1    3    3    0  502 -0.21350156071E+03 -0.12644549756E+04 -0.71691731468E+03  0.14691498735E+04  0.12699999809E+01 0. -1.
</event>
<event>
 5   0  0.2309822E-08  0.3297005E+04  0.7818609E-02  0.8163658E-01
        1   -1    0    0  501    0  0.00000000000E+00  0.00000000000E+00  0.23662436381E+04  0.23662436381E+04  0.50400001928E-02 0. -1.
       -1   -1    0    0    0  501  0.00000000000E+00  0.00000000000E+00 -0.11484700710E+04  0.11484700710E+04  0.50400001928E-02 0.  1.
    10030    2    1    2    0    0  0.00000000000E+00  0.00000000000E+00  0.12177735672E+04  0.35147137091E+04  0.32970047007E+04 0.  0.
        4    1    3    3  502    0 -0.13635765386E+04 -0.29720663776E+03 -0.32648334008E+03  0.14332709954E+04  0.12699999809E+01 0.  1.
       -4    1    3    3    0  502  0.13635765386E+04  0.29720663776E+03  0.15442569072E+04  0.20814427137E+04  0.12699999809E+01 0. -1.
</event>
<event>
 5   0  0.6603516E-08  0.3299415E+04  0.7818609E-02  0.8163044E-01
        2   -1    0    0  501    0  0.00000000000E+00  0.00000000000E+00  0.20888848989E+04  0.20888848989E+04  0.25500000920E-02 0. -1.
       -2   -1    0    0    0  501  0.00000000000E+00  0.00000000000E+00 -0.13028646328E+04  0.13028646328E+04  0.25500000920E-02 0.  1.
    10030    2    1    2    0    0  0.00000000000E+00  0.00000000000E+00  0.78602026618E+03  0.33917495317E+04  0.32994146491E+04 0.  0.
        1    1    3    3  502    0 -0.69711039677E+03 -0.14947649329E+04  0.35667777045E+03  0.16874549303E+04  0.50400001928E-02 0. -1.
       -1    1    3    3    0  502  0.69711039677E+03  0.14947649329E+04  0.42934249573E+03  0.17042946014E+04  0.50400001928E-02 0.  1.
</event>
<event>
 5   0  0.2244093E-08  0.3298277E+04  0.7818609E-02  0.8163334E-01
        1   -1    0    0  501    0  0.00000000000E+00  0.00000000000E+00  0.20544523122E+04  0.20544523123E+04  0.50400001928E-02 0.  1.
       -1   -1    0    0    0  501  0.00000000000E+00  0.00000000000E+00 -0.13237870026E+04  0.13237870026E+04  0.50400001928E-02 0. -1.
    10030    2    1    2    0    0  0.00000000000E+00  0.00000000000E+00  0.73066530964E+03  0.33782393149E+04  0.32982766824E+04 0.  0.
        1    1    3    3  502    0  0.71148914999E+02  0.12697184817E+04 -0.71007943526E+03  0.14565232560E+04  0.50400001928E-02 0. -1.
       -1    1    3    3    0  502 -0.71148914999E+02 -0.12697184817E+04  0.14407447449E+04  0.19217160589E+04  0.50400001928E-02 0.  1.
</event>
<event>
 5   0  0.6706080E-08  0.3302065E+04  0.7818609E-02  0.8162370E-01
        2   -1    0    0  501    0  0.00000000000E+00  0.00000000000E+00  0.17063923922E+04  0.17063923922E+04  0.25500000920E-02 0. -1.
       -2   -1    0    0    0  501  0.00000000000E+00  0.00000000000E+00 -0.15974688936E+04  0.15974688936E+04  0.25500000920E-02 0.  1.
    10030    2    1    2    0    0  0.00000000000E+00  0.00000000000E+00  0.10892349858E+03  0.33038612857E+04  0.33020652729E+04 0.  0.
        4    1    3    3  502    0  0.60716069026E+03  0.12184735606E+04  0.98909253138E+03  0.16827440596E+04  0.12699999809E+01 0.  1.
       -4    1    3    3    0  502 -0.60716069026E+03 -0.12184735606E+04 -0.88016903280E+03  0.16211172261E+04  0.12699999809E+01 0. -1.
</event>
<event>
 5   0  0.2244093E-08  0.3300868E+04  0.7818609E-02  0.8162675E-01
        1   -1    0    0  501    0  0.00000000000E+00  0.00000000000E+00  0.24238827493E+04  0.24238827493E+04  0.50400001928E-02 0. -1.
       -1   -1    0    0    0  501  0.00000000000E+00  0.00000000000E+00 -0.11237886890E+04  0.11237886890E+04  0.50400001928E-02 0.  1.
    10030    2    1    2    0    0  0.00000000000E+00  0.00000000000E+00  0.13000940603E+04  0.35476714384E+04  0.33008677752E+04 0.  0.
        1    1    3    3  502    0  0.14811001368E+04  0.34332994416E+03 -0.40151515576E+02  0.15209027615E+04  0.50400001928E-02 0.  1.
       -1    1    3    3    0  502 -0.14811001368E+04 -0.34332994416E+03  0.13402455759E+04  0.20267686769E+04  0.50400001928E-02 0. -1.
</event>
<event>
 5   0  0.6821287E-08  0.3303351E+04  0.7818609E-02  0.8162043E-01
       -2   -1    0    0    0  501  0.00000000000E+00  0.00000000000E+00  0.16103729679E+04  0.16103729679E+04  0.25500000920E-02 0.  1.
        2   -1    0    0  501    0  0.00000000000E+00  0.00000000000E+00 -0.16940376286E+04  0.16940376286E+04  0.25500000920E-02 0. -1.
    10030    2    1    2    0    0  0.00000000000E+00  0.00000000000E+00 -0.83664660650E+02  0.33044105965E+04  0.33033512703E+04 0.  0.
        5    1    3    3  502    0  0.52801924343E+03  0.15647408391E+04 -0.13679057404E+02  0.16514924831E+04  0.46999998093E+01 0. -1.
       -5    1    3    3    0  502 -0.52801924343E+03 -0.15647408391E+04 -0.69985603246E+02  0.16529181134E+04  0.46999998093E+01 0.  1.
</event>
<event>
 5   0  0.6821287E-08  0.3296894E+04  0.7818609E-02  0.8163686E-01
        2   -1    0    0  501    0  0.00000000000E+00  0.00000000000E+00  0.17950564085E+04  0.17950564085E+04  0.25500000920E-02 0.  1.
       -2   -1    0    0    0  501  0.00000000000E+00  0.00000000000E+00 -0.15138116959E+04  0.15138116959E+04  0.25500000920E-02 0. -1.
    10030    2    1    2    0    0  0.00000000000E+00  0.00000000000E+00  0.28124471264E+03  0.33088681044E+04  0.32968939237E+04 0.  0.
        5    1    3    3  502    0 -0.25450879366E+03  0.70076280762E+03 -0.13349255463E+04  0.15290165279E+04  0.46999998093E+01 0. -1.
       -5    1    3    3    0  502  0.25450879366E+03 -0.70076280762E+03  0.16161702589E+04  0.17798515765E+04  0.46999998093E+01 0.  1.
</event>
<event>
 5   0  0.6765252E-08  0.3296308E+04  0.7818609E-02  0.8163836E-01
        2   -1    0    0  501    0  0.00000000000E+00  0.00000000000E+00  0.16015887181E+04  0.16015887181E+04  0.25500000920E-02 0.  1.
       -2   -1    0    0    0  501  0.00000000000E+00  0.00000000000E+00 -0.16960728158E+04  0.16960728158E+04  0.25500000920E-02 0. -1.
    10030    2    1    2    0    0  0.00000000000E+00  0.00000000000E+00 -0.94484097666E+02  0.32976615339E+04  0.32963076839E+04 0.  0.
        2    1    3    3  502    0  0.13803999510E+04  0.63406133218E+03  0.59245258184E+03  0.16305023335E+04  0.25500000920E-02 0.  1.
       -2    1    3    3    0  502 -0.13803999510E+04 -0.63406133218E+03 -0.68693667951E+03  0.16671592004E+04  0.25500000920E-02 0. -1.
</event>
<event>
 5   0  0.6765252E-08  0.3300600E+04  0.7818609E-02  0.8162743E-01
        2   -1    0    0  501    0  0.00000000000E+00  0.00000000000E+00  0.15643513203E+04  0.15643513203E+04  0.25500000920E-02 0.  1.
       -2   -1    0    0    0  501  0.00000000000E+00  0.00000000000E+00 -0.17409704364E+04  0.17409704364E+04  0.25500000920E-02 0. -1.
    10030    2    1    2    0    0  0.00000000000E+00  0.00000000000E+00 -0.17661911609E+03  0.33053217567E+04  0.33005995824E+04 0.  0.
        2    1    3    3  502    0 -0.75318559804E+03 -0.77455307069E+03 -0.13375992340E+04  0.17194163880E+04  0.25500000920E-02 0. -1.
       -2    1    3    3    0  502  0.75318559804E+03  0.77455307069E+03  0.11609801179E+04  0.15859053688E+04  0.25500000920E-02 0.  1.
</event>
<event>
 5   0  0.6603516E-08  0.3299872E+04  0.7818609E-02  0.8162928E-01
       -2   -1    0    0    0  501  0.00000000000E+00  0.00000000000E+00  0.11781512199E+04  0.11781512199E+04  0.25500000920E-02 0. -1.
        2   -1    0    0  501    0  0.00000000000E+00  0.00000000000E+00 -0.23106450102E+04  0.23106450102E+04  0.25500000920E-02 0.  1.
    10030    2    1    2    0    0  0.00000000000E+00  0.00000000000E+00 -0.11324937903E+04  0.34887962302E+04  0.32998722628E+04 0.  0.
        1    1    3    3  502    0  0.51755281454E+03  0.11300293135E+04 -0.17134807090E+04  0.21168002517E+04  0.50400001928E-02 0.  1.
       -1    1    3    3    0  502 -0.51755281454E+03 -0.11300293135E+04  0.58098691874E+03  0.13719959785E+04  0.50400001928E-02 0. -1.
</event>
<event>
 5   0  0.2383270E-08  0.3306328E+04  0.7818609E-02  0.8161287E-01
        1   -1    0    0  501    0  0.00000000000E+00  0.00000000000E+00  0.19316168987E+04  0.19316168987E+04  0.50400001928E-02 0.  1.
       -1   -1    0    0    0  501  0.00000000000E+00  0.00000000000E+00 -0.14148516804E+04  0.14148516804E+04  0.50400001928E-02 0. -1.
    10030    2    1    2    0    0  0.00000000000E+00  0.00000000000E+00  0.51676521831E+03  0.33464685791E+04  0.33063281235E+04 0.  0.
        5    1    3    3  502    0  0.87893067702E+03  0.34738072119E+03 -0.11144533653E+04  0.14612395060E+04  0.46999998093E+01 0. -1.
       -5    1    3    3    0  502 -0.87893067702E+03 -0.34738072119E+03  0.16312185836E+04  0.18852290731E+04  0.46999998093E+01 0.  1.
</event>
<event>
 5   0  0.2279938E-08  0.3300391E+04  0.7818609E-02  0.8162796E-01
       -1   -1    0    0    0  501  0.00000000000E+00  0.00000000000E+00  0.14488103672E+04  0.14488103672E+04  0.50400001928E-02 0. -1.
        1   -1    0    0  501    0  0.00000000000E+00  0.00000000000E+00 -0.18795733560E+04  0.18795733560E+04  0.50400001928E-02 0.  1.
    10030    2    1    2    0    0  0.00000000000E+00  0.00000000000E+00 -0.43076298882E+03  0.33283837232E+04  0.33003911066E+04 0.  0.
        3    1    3    3  502    0  0.92627303590E+03 -0.13538236595E+04 -0.34064702680E+02  0.16407256481E+04  0.10100000352E+00 0.  1.
       -3    1    3    3    0  502 -0.92627303590E+03  0.13538236595E+04 -0.39669828614E+03  0.16876580751E+04  0.10100000352E+00 0. -1.
</event>
<event>
 5   0  0.7084130E-08  0.3299681E+04  0.7818609E-02  0.8162977E-01
        2   -1    0    0  501    0  0.00000000000E+00  0.00000000000E+00  0.19723111631E+04  0.19723111631E+04  0.25500000920E-02 0. -1.
       -2   -1    0    0    0  501  0.00000000000E+00  0.00000000000E+00 -0.13800935796E+04  0.13800935796E+04  0.25500000920E-02 0.  1.
    10030    2    1    2    0    0  0.00000000000E+00  0.00000000000E+00  0.59221758352E+03  0.33524047427E+04  0.32996811804E+04 0.  0.
        3    1    3    3  502    0 -0.13634501277E+03  0.70463887900E+03 -0.12131810542E+04  0.14095794382E+04  0.10100000352E+00 0.  1.
       -3    1    3    3    0  502  0.13634501277E+03 -0.70463887900E+03  0.18053986377E+04  0.19428253044E+04  0.10100000352E+00 0. -1.
</event>
<event>
 5   0  0.2244093E-08  0.3295820E+04  0.7818609E-02  0.8163960E-01
       -1   -1    0    0    0  501  0.00000000000E+00  0.00000000000E+00  0.13684610717E+04  0.13684610717E+04  0.50400001928E-02 0.  1.
        1   -1    0    0  501    0  0.00000000000E+00  0.00000000000E+00 -0.19844241794E+04  0.19844241794E+04  0.50400001928E-02 0. -1.
    10030    2    1    2    0    0  0.00000000000E+00  0.00000000000E+00 -0.61596310771E+03  0.33528852512E+04  0.32958199219E+04 0.  0.
        1    1    3    3  502    0  0.12215051916E+03 -0.68783651819E+03  0.12103640767E+04  0.13975052856E+04  0.50400001928E-02 0.  1.
       -1    1    3    3    0  502 -0.12215051916E+03  0.68783651819E+03 -0.18263271844E+04  0.19553799655E+04  0.50400001928E-02 0. -1.
</event>
<event>
 5   0  0.6765252E-08  0.3300303E+04  0.7818609E-02  0.8162818E-01
        2   -1    0    0  501    0  0.00000000000E+00  0.00000000000E+00  0.10158242430E+04  0.10158242430E+04  0.25500000920E-02 0.  1.
       -2   -1    0    0    0  501  0.00000000000E+00  0.00000000000E+00 -0.26805814292E+04  0.26805814292E+04  0.25500000920E-02 0. -1.
    10030    2    1    2    0    0  0.00000000000E+00  0.00000000000E+00 -0.16647571861E+04  0.36964056722E+04  0.33003027747E+04 0.  0.
        2    1    3    3  502    0 -0.13925980491E+04 -0.61389850462E+03 -0.11802089552E+03  0.15264762141E+04  0.25500000920E-02 0.  1.
       -2    1    3    3    0  502  0.13925980491E+04  0.61389850462E+03 -0.15467362906E+04  0.21699294581E+04  0.25500000920E-02 0. -1.
</event>
<event>
 5   0  0.2309822E-08  0.3300207E+04  0.7818609E-02  0.8162843E-01
        1   -1    0    0  501    0  0.00000000000E+00  0.00000000000E+00  0.11613641300E+04  0.11613641300E+04  0.50400001928E-02 0. -1.
       -1   -1    0    0    0  501  0.00000000000E+00  0.00000000000E+00 -0.23445206262E+04  0.23445206262E+04  0.50400001928E-02 0.  1.
    10030    2    1    2    0    0  0.00000000000E+00  0.00000000000E+00 -0.11831564961E+04  0.35058847562E+04  0.33002073616E+04 0.  0.
        4    1    3    3  502    0  0.91342648880E+03 -0.10089820891E+03 -0.20475075635E+04  0.22442854619E+04  0.12699999809E+01 0.  1.
       -4    1    3    3    0  502 -0.91342648880E+03  0.10089820891E+03  0.86435106733E+03  0.12615992943E+04  0.12699999809E+01 0. -1.
</event>
<event>
 5   0  0.2244093E-08  0.3308352E+04  0.7818609E-02  0.8160773E-01
        1   -1    0    0  501    0  0.00000000000E+00  0.00000000000E+00  0.15727923127E+04  0.15727923127E+04  0.50400001928E-02 0.  1.
       -1   -1    0    0    0  501  0.00000000000E+00  0.00000000000E+00 -0.17397708565E+04  0.17397708565E+04  0.50400001928E-02 0. -1.
    10030    2    1    2    0    0  0.00000000000E+00  0.00000000000E+00 -0.16697854380E+03  0.33125631692E+04  0.33083519940E+04 0.  0.
        1    1    3    3  502    0  0.48522999486E+03  0.99842874689E+03  0.11444445169E+04  0.15943843209E+04  0.50400001928E-02 0.  1.
       -1    1    3    3    0  502 -0.48522999486E+03 -0.99842874689E+03 -0.13114230607E+04  0.17181788483E+04  0.50400001928E-02 0. -1.
</event>
<event>
 5   0  0.2291682E-08  0.3300485E+04  0.7818609E-02  0.8162772E-01
        1   -1    0    0  501    0  0.00000000000E+00  0.00000000000E+00  0.12018599990E+04  0.12018599990E+04  0.50400001928E-02 0.  1.
       -1   -1    0    0    0  501  0.00000000000E+00  0.00000000000E+00 -0.22659044295E+04  0.22659044295E+04  0.50400001928E-02 0. -1.
    10030    2    1    2    0    0  0.00000000000E+00  0.00000000000E+00 -0.10640444305E+04  0.34677644285E+04  0.33004847495E+04 0.  0.
        2    1    3    3  502    0  0.10117276685E+04 -0.12576024833E+04 -0.89316245382E+03  0.18446940261E+04  0.25500000920E-02 0. -1.
       -2    1    3    3    0  502 -0.10117276685E+04  0.12576024833E+04 -0.17088197664E+03  0.16230704024E+04  0.25500000920E-02 0.  1.
</event>
<event>
 5   0  0.2279938E-08  0.3299380E+04  0.7818609E-02  0.8163053E-01
        1   -1    0    0  501    0  0.00000000000E+00  0.00000000000E+00  0.18205764765E+04  0.18205764765E+04  0.50400001928E-02 0. -1.
       -1   -1    0    0    0  501  0.00000000000E+00  0.00000000000E+00 -0.14948435917E+04  0.14948435918E+04  0.50400001928E-02 0.  1.
    10030    2    1    2    0    0  0.00000000000E+00  0.00000000000E+00  0.32573288479E+03  0.33154200683E+04  0.32993799898E+04 0.  0.
        3    1    3    3  502    0  0.10561453140E+04  0.61739700550E+03  0.12749785785E+04  0.17669726575E+04  0.10100000352E+00 0.  1.
       -3    1    3    3    0  502 -0.10561453140E+04 -0.61739700550E+03 -0.94924569373E+03  0.15484474108E+04  0.10100000352E+00 0. -1.
</event>
<event>
 5   0  0.6706080E-08  0.3297683E+04  0.7818609E-02  0.8163485E-01
        2   -1    0    0  501    0  0.00000000000E+00  0.00000000000E+00  0.14527076997E+04  0.14527076997E+04  0.25500000920E-02 0.  1.
       -2   -1    0    0    0  501  0.00000000000E+00  0.00000000000E+00 -0.18714558070E+04  0.18714558070E+04  0.25500000920E-02 0. -1.
    10030    2    1    2    0    0  0.00000000000E+00  0.00000000000E+00 -0.41874810729E+03  0.33241635067E+04  0.32976829808E+04 0.  0.
        4    1    3    3  502    0  0.52381290759E+03 -0.23672919140E+03  0.13484338791E+04  0.14658431742E+04  0.12699999809E+01 0.  1.
       -4    1    3    3    0  502 -0.52381290759E+03  0.23672919140E+03 -0.17671819864E+04  0.18583203325E+04  0.12699999809E+01 0. -1.
</event>
<event>
 5   0  0.6706080E-08  0.3300135E+04  0.7818609E-02  0.8162861E-01
        2   -1    0    0  501    0  0.00000000000E+00  0.00000000000E+00  0.18281394241E+04  0.18281394241E+04  0.25500000920E-02 0. -1.
       -2   -1    0    0    0  501  0.00000000000E+00  0.00000000000E+00 -0.14893406756E+04  0.14893406756E+04  0.25500000920E-02 0.  1.
    10030    2    1    2    0    0  0.00000000000E+00  0.00000000000E+00  0.33879874844E+03  0.33174800997E+04  0.33001347881E+04 0.  0.
        4    1    3    3  502    0  0.82523042779E+02 -0.10464496588E+04  0.14492184432E+04  0.17894419940E+04  0.12699999809E+01 0. -1.
       -4    1    3    3    0  502 -0.82523042779E+02  0.10464496588E+04 -0.11104196948E+04  0.15280381057E+04  0.12699999809E+01 0.  1.
</event>
<event>
 5   0  0.2291682E-08  0.3302476E+04  0.7818609E-02  0.8162266E-01
       -1   -1    0    0    0  501  0.00000000000E+00  0.00000000000E+00  0.20392745477E+04  0.20392745477E+04  0.50400001928E-02 0.  1.
        1   -1    0    0  501    0  0.00000000000E+00  0.00000000000E+00 -0.13370379898E+04  0.13370379898E+04  0.50400001928E-02 0. -1.
    10030    2    1    2    0    0  0.00000000000E+00  0.00000000000E+00  0.70223655788E+03  0.33763125375E+04  0.33024763690E+04 0.  0.
        2    1    3    3  502    0 -0.40125727269E+03 -0.12291192923E+04  0.14011379472E+04  0.19065490240E+04  0.25500000920E-02 0.  1.
       -2    1    3    3    0  502  0.40125727269E+03  0.12291192923E+04 -0.69890138936E+03  0.14697635135E+04  0.25500000920E-02 0. -1.
</event>
<event>
 5   0  0.6706080E-08  0.3300360E+04  0.7818609E-02  0.8162804E-01
       -2   -1    0    0    0  501  0.00000000000E+00  0.00000000000E+00  0.14415483481E+04  0.14415483481E+04  0.25500000920E-02 0.  1.
        2   -1    0    0  501    0  0.00000000000E+00  0.00000000000E+00 -0.18890060133E+04  0.18890060133E+04  0.25500000920E-02 0. -1.
    10030    2    1    2    0    0  0.00000000000E+00  0.00000000000E+00 -0.44745766512E+03  0.33305543614E+04  0.33003596762E+04 0.  0.
        4    1    3    3  502    0 -0.78554859937E+03 -0.22920199026E+03 -0.16698331363E+04  0.18595602895E+04  0.12699999809E+01 0. -1.
       -4    1    3    3    0  502  0.78554859937E+03  0.22920199026E+03  0.12223754711E+04  0.14709940719E+04  0.12699999809E+01 0.  1.
</event>
<event>
 5   0  0.6603516E-08  0.3299251E+04  0.7818609E-02  0.8163086E-01
       -2   -1    0    0    0  501  0.00000000000E+00  0.00000000000E+00  0.97105279539E+03  0.97105279540E+03  0.25500000920E-02 0. -1.
        2   -1    0    0  501    0  0.00000000000E+00  0.00000000000E+00 -0.28023856657E+04  0.28023856657E+04  0.25500000920E-02 0.  1.
    10030    2    1    2    0    0  0.00000000000E+00  0.00000000000E+00 -0.18313328703E+04  0.37734384611E+04  0.32992510874E+04 0.  0.
        1    1    3    3  502    0 -0.10011185427E+04  0.35229908273E+03  0.52874258450E+03  0.11857156914E+04  0.50400001928E-02 0. -1.
       -1    1    3    3    0  502  0.10011185427E+04 -0.35229908273E+03 -0.23600754548E+04  0.25877227697E+04  0.50400001928E-02 0.  1.
</event>
<event>
 5   0  0.6706080E-08  0.3298433E+04  0.7818609E-02  0.8163294E-01
        2   -1    0    0  501    0  0.00000000000E+00  0.00000000000E+00  0.14149390111E+04  0.14149390111E+04  0.25500000920E-02 0.  1.
       -2   -1    0    0    0  501  0.00000000000E+00  0.00000000000E+00 -0.19222846285E+04  0.19222846285E+04  0.25500000920E-02 0. -1.
    10030    2    1    2    0    0  0.00000000000E+00  0.00000000000E+00 -0.50734561748E+03  0.33372236396E+04  0.32984332713E+04 0.  0.
        4    1    3    3  502    0  0.43285879182E+03 -0.15770705647E+04 -0.38104714214E+02  0.16358398093E+04  0.12699999809E+01 0.  1.
       -4    1    3    3    0  502 -0.43285879182E+03  0.15770705647E+04 -0.46924090327E+03  0.17013838303E+04  0.12699999809E+01 0. -1.
</event>
<event>
 5   0  0.2383270E-08  0.3297659E+04  0.7818609E-02  0.8163491E-01
       -1   -1    0    0    0  501  0.00000000000E+00  0.00000000000E+00  0.15449511547E+04  0.15449511547E+04  0.50400001928E-02 0.  1.
        1   -1    0    0  501    0  0.00000000000E+00  0.00000000000E+00 -0.17596924842E+04  0.17596924842E+04  0.50400001928E-02 0. -1.
    10030    2    1    2    0    0  0.00000000000E+00  0.00000000000E+00 -0.21474132950E+03  0.33046436388E+04  0.32976591305E+04 0.  0.
        5    1    3    3  502    0 -0.36387428176E+03  0.15807446833E+04  0.18898970567E+03  0.16330638216E+04  0.46999998093E+01 0.  1.
       -5    1    3    3    0  502  0.36387428176E+03 -0.15807446833E+04 -0.40373103517E+03  0.16715798172E+04  0.46999998093E+01 0. -1.
</event>
<event>
 5   0  0.6821287E-08  0.3303768E+04  0.7818609E-02  0.8161937E-01
        2   -1    0    0  501    0  0.00000000000E+00  0.00000000000E+00  0.17849477930E+04  0.17849477930E+04  0.25500000920E-02 0. -1.
       -2   -1    0    0    0  501  0.00000000000E+00  0.00000000000E+00 -0.15287396217E+04  0.15287396217E+04  0.25500000920E-02 0.  1.
    10030    2    1    2    0    0  0.00000000000E+00  0.00000000000E+00  0.25620817121E+03  0.33136874147E+04  0.33037677968E+04 0.  0.
        5    1    3    3  502    0 -0.41963121994E+01  0.25091310058E+02  0.17847445936E+04  0.17849320820E+04  0.46999998093E+01 0. -1.
       -5    1    3    3    0  502  0.41963121994E+01 -0.25091310058E+02 -0.15285364224E+04  0.15287553327E+04  0.46999998093E+01 0.  1.
</event>
<event>
 5   0  0.2383270E-08  0.3300780E+04  0.7818609E-02  0.8162697E-01
       -1   -1    0    0    0  501  0.00000000000E+00  0.00000000000E+00  0.13618514415E+04  0.13618514415E+04  0.50400001928E-02 0.  1.
        1   -1    0    0  501    0  0.00000000000E+00  0.00000000000E+00 -0.20000623490E+04  0.20000623490E+04  0.50400001928E-02 0. -1.
    10030    2    1    2    0    0  0.00000000000E+00  0.00000000000E+00 -0.63821090747E+03  0.33619137905E+04  0.33007803884E+04 0.  0.
        5    1    3    3  502    0 -0.10475044401E+04  0.51216710604E+02  0.97881031145E+03  0.14345662827E+04  0.46999998093E+01 0.  1.
       -5    1    3    3    0  502  0.10475044401E+04 -0.51216710604E+02 -0.16170212189E+04  0.19273475078E+04  0.46999998093E+01 0. -1.
</event>
<event>
 5   0  0.2279938E-08  0.3299700E+04  0.7818609E-02  0.8162972E-01
        1   -1    0    0  501    0  0.00000000000E+00  0.00000000000E+00  0.20033397446E+04  0.20033397446E+04  0.50400001928E-02 0. -1.
       -1   -1    0    0    0  501  0.00000000000E+00  0.00000000000E+00 -0.13587337636E+04  0.13587337636E+04  0.50400001928E-02 0.  1.
    10030    2    1    2    0    0  0.00000000000E+00  0.00000000000E+00  0.64460598098E+03  0.33620735081E+04  0.32997001990E+04 0.  0.
        3    1    3    3  502    0  0.96266516906E+03 -0.42569975815E+03  0.16167750193E+04  0.19292241926E+04  0.10100000352E+00 0. -1.
       -3    1    3    3    0  502 -0.96266516906E+03  0.42569975815E+03 -0.97216903836E+03  0.14328493156E+04  0.10100000352E+00 0.  1.
</event>
<event>
 5   0  0.7084130E-08  0.3301947E+04  0.7818609E-02  0.8162400E-01
       -2   -1    0    0    0  501  0.00000000000E+00  0.00000000000E+00  0.10874259125E+04  0.10874259125E+04  0.25500000920E-02 0. -1.
        2   -1    0    0  501    0  0.00000000000E+00  0.00000000000E+00 -0.25065741865E+04  0.25065741865E+04  0.25500000920E-02 0.  1.
    10030    2    1    2    0    0  0.00000000000E+00  0.00000000000E+00 -0.14191482740E+04  0.35940000990E+04  0.33019471359E+04 0.  0.
        3    1    3    3  502    0  0.10846947702E+03  0.29960268942E+03  0.10536409847E+04  0.11007664302E+04  0.10100000352E+00 0. -1.
       -3    1    3    3    0  502 -0.10846947702E+03 -0.29960268942E+03 -0.24727892587E+04  0.24932336688E+04  0.10100000352E+00 0.  1.
</event>
<event>
 5   0  0.2244093E-08  0.3301774E+04  0.7818609E-02  0.8162444E-01
        1   -1    0    0  501    0  0.00000000000E+00  0.00000000000E+00  0.23088785027E+04  0.23088785027E+04  0.50400001928E-02 0. -1.
       -1   -1    0    0    0  501  0.00000000000E+00  0.00000000000E+00 -0.11804120661E+04  0.11804120661E+04  0.50400001928E-02 0.  1.
    10030    2    1    2    0    0  0.00000000000E+00  0.00000000000E+00  0.11284664366E+04  0.34892905688E+04  0.33017740951E+04 0.  0.
        1    1    3    3  502    0  0.44634206381E+03 -0.13058058398E+03  0.22382259599E+04  0.22860288656E+04  0.50400001928E-02 0. -1.
       -1    1    3    3    0  502 -0.44634206381E+03  0.13058058398E+03 -0.11097595233E+04  0.12032617032E+04  0.50400001928E-02 0.  1.
</event>
<event>
 5   0  0.2309822E-08  0.3300753E+04  0.7818609E-02  0.8162704E-01
       -1   -1    0    0    0  501  0.00000000000E+00  0.00000000000E+00  0.14489293592E+04  0.14489293592E+04  0.50400001928E-02 0. -1.
        1   -1    0    0  501    0  0.00000000000E+00  0.00000000000E+00 -0.18798315437E+04  0.18798315437E+04  0.50400001928E-02 0.  1.
    10030    2    1    2    0    0  0.00000000000E+00  0.00000000000E+00 -0.43090218446E+03  0.33287609029E+04  0.33007533165E+04 0.  0.
        4    1    3    3  502    0 -0.40973859102E+03 -0.37493127003E+03  0.13518537875E+04  0.14614956195E+04  0.12699999809E+01 0. -1.
       -4    1    3    3    0  502  0.40973859102E+03  0.37493127003E+03 -0.17827559719E+04  0.18672652834E+04  0.12699999809E+01 0.  1.
</event>
<event>
 5   0  0.2383270E-08  0.3295949E+04  0.7818609E-02  0.8163927E-01
       -1   -1    0    0    0  501  0.00000000000E+00  0.00000000000E+00  0.13818646983E+04  0.13818646983E+04  0.50400001928E-02 0.  1.
        1   -1    0    0  501    0  0.00000000000E+00  0.00000000000E+00 -0.19653296149E+04  0.19653296149E+04  0.50400001928E-02 0. -1.
    10030    2    1    2    0    0  0.00000000000E+00  0.00000000000E+00 -0.58346491652E+03  0.33471943132E+04  0.32959487953E+04 0.  0.
        5    1    3    3  502    0 -0.29854149294E+03  0.15545009142E+03  0.13465784376E+04  0.13880156096E+04  0.46999998093E+01 0.  1.
       -5    1    3    3    0  502  0.29854149294E+03 -0.15545009142E+03 -0.19300433541E+04  0.19591787036E+04  0.46999998093E+01 0. -1.
</event>
<event>
 5   0  0.2244093E-08  0.3310750E+04  0.7818609E-02  0.8160165E-01
       -1   -1    0    0    0  501  0.00000000000E+00  0.00000000000E+00  0.17789039547E+04  0.17789039547E+04  0.50400001928E-02 0.  1.
        1   -1    0    0  501    0  0.00000000000E+00  0.00000000000E+00 -0.15404240017E+04  0.15404240017E+04  0.50400001928E-02 0. -1.
    10030    2    1    2    0    0  0.00000000000E+00  0.00000000000E+00  0.23847995300E+03  0.33193279564E+04  0.33107499746E+04 0.  0.
        1    1    3    3  502    0  0.25060470565E+03  0.96653221643E+03 -0.12045138900E+04  0.15645577507E+04  0.50400001928E-02 0. -1.
       -1    1    3    3    0  502 -0.25060470565E+03 -0.96653221643E+03  0.14429938430E+04  0.17547702057E+04  0.50400001928E-02 0.  1.
</event>
<event>
 5   0  0.2244093E-08  0.3299654E+04  0.7818609E-02  0.8162983E-01
       -1   -1    0    0    0  501  0.00000000000E+00  0.00000000000E+00  0.99152169470E+03  0.99152169472E+03  0.50400001928E-02 0.  1.
        1   -1    0    0  501    0  0.00000000000E+00  0.00000000000E+00 -0.27452043099E+04  0.27452043099E+04  0.50400001928E-02 0. -1.
    10030    2    1    2    0    0  0.00000000000E+00  0.00000000000E+00 -0.17536826152E+04  0.37367260047E+04  0.32996543029E+04 0.  0.
        1    1    3    3  502    0  0.14471762808E+04 -0.28988482636E+03 -0.41904821150E+02  0.14765190193E+04  0.50400001928E-02 0.  1.
       -1    1    3    3    0  502 -0.14471762808E+04  0.28988482636E+03 -0.17117777941E+04  0.22602069854E+04  0.50400001928E-02 0. -1.
</event>
<event>
 5   0  0.6706080E-08  0.3297782E+04  0.7818609E-02  0.8163460E-01
       -2   -1    0    0    0  501  0.00000000000E+00  0.00000000000E+00  0.14286252448E+04  0.14286252448E+04  0.25500000920E-02 0. -1.
        2   -1    0    0  501    0  0.00000000000E+00  0.00000000000E+00 -0.19031174138E+04  0.19031174138E+04  0.25500000920E-02 0.  1.
    10030    2    1    2    0    0  0.00000000000E+00  0.00000000000E+00 -0.47449216899E+03  0.33317426586E+04  0.32977820311E+04 0.  0.
        4    1    3    3  502    0 -0.62766226186E+03 -0.57007892780E+03  0.11914918113E+04  0.14623967478E+04  0.12699999809E+01 0. -1.
       -4    1    3    3    0  502  0.62766226186E+03  0.57007892780E+03 -0.16659839802E+04  0.18693459108E+04  0.12699999809E+01 0.  1.
</event>
<event>
 5   0  0.2309822E-08  0.3297842E+04  0.7818609E-02  0.8163445E-01
       -1   -1    0    0    0  501  0.00000000000E+00  0.00000000000E+00  0.15493378639E+04  0.15493378639E+04  0.50400001928E-02 0.  1.
        1   -1    0    0  501    0  0.00000000000E+00  0.00000000000E+00 -0.17549045217E+04  0.17549045217E+04  0.50400001928E-02 0. -1.
    10030    2    1    2    0    0  0.00000000000E+00  0.00000000000E+00 -0.20556665776E+03  0.33042423856E+04  0.32978417324E+04 0.  0.
        4    1    3    3  502    0  0.69245059918E+03 -0.34194600034E+03  0.13569325864E+04  0.15613079633E+04  0.12699999809E+01 0.  1.
       -4    1    3    3    0  502 -0.69245059918E+03  0.34194600034E+03 -0.15624992442E+04  0.17429344223E+04  0.12699999809E+01 0. -1.
</event>
<event>
 5   0  0.2244093E-08  0.3299960E+04  0.7818609E-02  0.8162906E-01
        1   -1    0    0  501    0  0.00000000000E+00  0.00000000000E+00  0.18600322227E+04  0.18600322227E+04  0.50400001928E-02 0.  1.
       -1   -1    0    0    0  501  0.00000000000E+00  0.00000000000E+00 -0.14636487203E+04  0.14636487203E+04  0.50400001928E-02 0. -1.
    10030    2    1    2    0    0  0.00000000000E+00  0.00000000000E+00  0.39638350244E+03  0.33236809430E+04  0.32999598679E+04 0.  0.
        1    1    3    3  502    0 -0.10923795637E+04  0.53398303299E+03  0.13215579346E+04  0.17958135664E+04  0.50400001928E-02 0.  1.
       -1    1    3    3    0  502  0.10923795637E+04 -0.53398303299E+03 -0.92517443216E+03  0.15278673766E+04  0.50400001928E-02 0. -1.
</event>
<event>
 5   0  0.2279938E-08  0.3300369E+04  0.7818609E-02  0.8162801E-01
       -1   -1    0    0    0  501  0.00000000000E+00  0.00000000000E+00  0.22457100480E+04  0.22457100480E+04  0.50400001928E-02 0.  1.
        1   -1    0    0  501    0  0.00000000000E+00  0.00000000000E+00 -0.12125828573E+04  0.12125828573E+04  0.50400001928E-02 0. -1.
    10030    2    1    2    0    0  0.00000000000E+00  0.00000000000E+00  0.10331271907E+04  0.34582929053E+04  0.33003693773E+04 0.  0.
        3    1    3    3  502    0  0.12407055352E+04  0.10483624511E+04  0.21161316836E+03  0.16380458471E+04  0.10100000352E+00 0. -1.
       -3    1    3    3    0  502 -0.12407055352E+04 -0.10483624511E+04  0.82151402236E+03  0.18202470582E+04  0.10100000352E+00 0.  1.
</event>
<event>
 5   0  0.2279938E-08  0.3303899E+04  0.7818609E-02  0.8161904E-01
       -1   -1    0    0    0  501  0.00000000000E+00  0.00000000000E+00  0.96895174490E+03  0.96895174491E+03  0.50400001928E-02 0.  1.
        1   -1    0    0  501    0  0.00000000000E+00  0.00000000000E+00 -0.28163811905E+04  0.28163811905E+04  0.50400001928E-02 0. -1.
    10030    2    1    2    0    0  0.00000000000E+00  0.00000000000E+00 -0.18474294456E+04  0.37853329354E+04  0.33038991927E+04 0.  0.
        3    1    3    3  502    0 -0.14089785780E+04 -0.85857062945E+03 -0.83082471218E+03  0.18473315543E+04  0.10100000352E+00 0.  1.
       -3    1    3    3    0  502  0.14089785780E+04  0.85857062945E+03 -0.10166047334E+04  0.19380013811E+04  0.10100000352E+00 0. -1.
</event>
<event>
 5   0  0.6706080E-08  0.3300960E+04  0.7818609E-02  0.8162651E-01
       -2   -1    0    0    0  501  0.00000000000E+00  0.00000000000E+00  0.13275063976E+04  0.13275063976E+04  0.25500000920E-02 0. -1.
        2   -1    0    0  501    0  0.00000000000E+00  0.00000000000E+00 -0.20520315088E+04  0.20520315088E+04  0.25500000920E-02 0.  1.
    10030    2    1    2    0    0  0.00000000000E+00  0.00000000000E+00 -0.72452511117E+03  0.33795379064E+04  0.33009604397E+04 0.  0.
        4    1    3    3  502    0 -0.55447324543E+03 -0.59149145019E+03 -0.18341147292E+04  0.20053132345E+04  0.12699999809E+01 0.  1.
       -4    1    3    3    0  502  0.55447324543E+03  0.59149145019E+03  0.11095896181E+04  0.13742246719E+04  0.12699999809E+01 0. -1.
</event>
<event>
 5   0  0.2291682E-08  0.3299370E+04  0.7818609E-02  0.8163056E-01
       -1   -1    0    0    0  501  0.00000000000E+00  0.00000000000E+00  0.23098493960E+04  0.23098493960E+04  0.50400001928E-02 0. -1.
        1   -1    0    0  501    0  0.00000000000E+00  0.00000000000E+00 -0.11781981065E+04  0.11781981066E+04  0.50400001928E-02 0.  1.
    10030    2    1    2    0    0  0.00000000000E+00  0.00000000000E+00  0.11316512895E+04  0.34880475026E+04  0.32993697488E+04 0.  0.
        2    1    3    3  502    0  0.16753196981E+03 -0.16271826468E+04  0.33989963423E+03  0.16707250187E+04  0.25500000920E-02 0.  1.
       -2    1    3    3    0  502 -0.16753196981E+03  0.16271826468E+04  0.79175165525E+03  0.18173224839E+04  0.25500000920E-02 0. -1.
</event>
<event>
 5   0  0.2309822E-08  0.3299371E+04  0.7818609E-02  0.8163056E-01
       -1   -1    0    0    0  501  0.00000000000E+00  0.00000000000E+00  0.10227454036E+04  0.10227454036E+04  0.50400001928E-02 0.  1.
        1   -1    0    0  501    0  0.00000000000E+00  0.00000000000E+00 -0.26609376585E+04  0.26609376585E+04  0.50400001928E-02 0. -1.
    10030    2    1    2    0    0  0.00000000000E+00  0.00000000000E+00 -0.16381922549E+04  0.36836830621E+04  0.32993707033E+04 0.  0.
        4    1    3    3  502    0 -0.11804928637E+04 -0.67385410192E+03  0.22456975424E+03  0.13777067683E+04  0.12699999809E+01 0.  1.
       -4    1    3    3    0  502  0.11804928637E+04  0.67385410192E+03 -0.18627620092E+04  0.23059762938E+04  0.12699999809E+01 0. -1.
</event>
<event>
 5   0  0.6706080E-08  0.3303574E+04  0.7818609E-02  0.8161987E-01
       -2   -1    0    0    0  501  0.00000000000E+00  0.00000000000E+00  0.20155174317E+04  0.20155174317E+04  0.25500000920E-02 0. -1.
        2   -1    0    0  501    0  0.00000000000E+00  0.00000000000E+00 -0.13536973678E+04  0.13536973678E+04  0.25500000920E-02 0.  1.
    10030    2    1    2    0    0  0.00000000000E+00  0.00000000000E+00  0.66182006385E+03  0.33692147995E+04  0.33035742111E+04 0.  0.
        4    1    3    3  502    0  0.13406007147E+04 -0.25945516355E+03 -0.61700470205E+03  0.14984070453E+04  0.12699999809E+01 0.  1.
       -4    1    3    3    0  502 -0.13406007147E+04  0.25945516355E+03  0.12788247659E+04  0.18708077542E+04  0.12699999809E+01 0. -1.
</event>
<event>
 5   0  0.6821287E-08  0.3299790E+04  0.7818609E-02  0.8162949E-01
        2   -1    0    0  501    0  0.00000000000E+00  0.00000000000E+00  0.17831013099E+04  0.17831013099E+04  0.25500000920E-02 0.  1.
       -2   -1    0    0    0  501  0.00000000000E+00  0.00000000000E+00 -0.15266397590E+04  0.15266397590E+04  0.25500000920E-02 0. -1.
    10030    2    1    2    0    0  0.00000000000E+00  0.00000000000E+00  0.25646155095E+03  0.33097410689E+04  0.32997899048E+04 0.  0.
        5    1    3    3  502    0 -0.70965965528E+03 -0.18537122321E+03 -0.13541137488E+04  0.15400082634E+04  0.46999998093E+01 0. -1.
       -5    1    3    3    0  502  0.70965965528E+03  0.18537122321E+03  0.16105752997E+04  0.17697328055E+04  0.46999998093E+01 0.  1.
</event>
<event>
 5   0  0.2309822E-08  0.3300527E+04  0.7818609E-02  0.8162761E-01
        1   -1    0    0  501    0  0.00000000000E+00  0.00000000000E+00  0.14531553783E+04  0.14531553783E+04  0.50400001928E-02 0.  1.
       -1   -1    0    0    0  501  0.00000000000E+00  0.00000000000E+00 -0.18741080836E+04  0.18741080836E+04  0.50400001928E-02 0. -1.
    10030    2    1    2    0    0  0.00000000000E+00  0.00000000000E+00 -0.42095270524E+03  0.33272634619E+04  0.33005273768E+04 0.  0.
        4    1    3    3  502    0 -0.97562907634E+03 -0.12023892176E+04 -0.78586841096E+03  0.17364281435E+04  0.12699999809E+01 0. -1.
       -4    1    3    3    0  502  0.97562907634E+03  0.12023892176E+04  0.36491570572E+03  0.15908353184E+04  0.12699999809E+01 0.  1.
</event>
<event>
 5   0  0.6706080E-08  0.3300265E+04  0.7818609E-02  0.8162828E-01
       -2   -1    0    0    0  501  0.00000000000E+00  0.00000000000E+00  0.19457310872E+04  0.19457310872E+04  0.25500000920E-02 0. -1.
        2   -1    0    0  501    0  0.00000000000E+00  0.00000000000E+00 -0.13994413749E+04  0.13994413749E+04  0.25500000920E-02 0.  1.
    10030    2    1    2    0    0  0.00000000000E+00  0.00000000000E+00  0.54628971226E+03  0.33451724621E+04  0.33002645881E+04 0.  0.
        4    1    3    3  502    0  0.10404217572E+04  0.63987818037E+03 -0.85146310523E+03  0.14889300021E+04  0.12699999809E+01 0.  1.
       -4    1    3    3    0  502 -0.10404217572E+04 -0.63987818037E+03  0.13977528175E+04  0.18562424600E+04  0.12699999809E+01 0. -1.
</event>
<event>
 5   0  0.7084130E-08  0.3300417E+04  0.7818609E-02  0.8162789E-01
       -2   -1    0    0    0  501  0.00000000000E+00  0.00000000000E+00  0.13601225291E+04  0.13601225291E+04  0.25500000920E-02 0. -1.
        2   -1    0    0  501    0  0.00000000000E+00  0.00000000000E+00 -0.20021633350E+04  0.20021633350E+04  0.25500000920E-02 0.  1.
    10030    2    1    2    0    0  0.00000000000E+00  0.00000000000E+00 -0.64204080594E+03  0.33622858641E+04  0.33004166154E+04 0.  0.
        3    1    3    3  502    0  0.71017432306E+02  0.12831571525E+04 -0.13756323758E+04  0.18825249526E+04  0.10100000352E+00 0.  1.
       -3    1    3    3    0  502 -0.71017432306E+02 -0.12831571525E+04  0.73359156987E+03  0.14797609115E+04  0.10100000352E+00 0. -1.
</event>
<event>
 5   0  0.2383270E-08  0.3296059E+04  0.7818609E-02  0.8163899E-01
       -1   -1    0    0    0  501  0.00000000000E+00  0.00000000000E+00  0.15408781006E+04  0.15408781006E+04  0.50400001928E-02 0.  1.
        1   -1    0    0  501    0  0.00000000000E+00  0.00000000000E+00 -0.17626323276E+04  0.17626323276E+04  0.50400001928E-02 0. -1.
    10030    2    1    2    0    0  0.00000000000E+00  0.00000000000E+00 -0.22175422694E+03  0.33035104282E+04  0.32960591943E+04 0.  0.
        5    1    3    3  502    0 -0.81319085345E+03 -0.65118623267E+02  0.13243026255E+04  0.15554161286E+04  0.46999998093E+01 0.  1.
       -5    1    3    3    0  502  0.81319085345E+03  0.65118623267E+02 -0.15460568525E+04  0.17480942996E+04  0.46999998093E+01 0. -1.
</event>
<event>
 5   0  0.6765252E-08  0.3292631E+04  0.7818609E-02  0.8164773E-01
       -2   -1    0    0    0  501  0.00000000000E+00  0.00000000000E+00  0.19198073662E+04  0.19198073662E+04  0.25500000920E-02 0.  1.
        2   -1    0    0  501    0  0.00000000000E+00  0.00000000000E+00 -0.14117845770E+04  0.14117845770E+04  0.25500000920E-02 0. -1.
    10030    2    1    2    0    0  0.00000000000E+00  0.00000000000E+00  0.50802278915E+03  0.33315919432E+04  0.32926308207E+04 0.  0.
        2    1    3    3  502    0  0.14535737022E+04 -0.61209595190E+03  0.73163128775E+03  0.17386265566E+04  0.25500000920E-02 0. -1.
       -2    1    3    3    0  502 -0.14535737022E+04  0.61209595190E+03 -0.22360849860E+03  0.15929653866E+04  0.25500000920E-02 0.  1.
</event>
<event>
 5   0  0.2200750E-08  0.3300133E+04  0.7818609E-02  0.8162861E-01
       -3   -1    0    0    0  501  0.00000000000E+00  0.00000000000E+00  0.10480492692E+04  0.10480492741E+04  0.10100000352E+00 0.  1.
        3   -1    0    0  501    0  0.00000000000E+00  0.00000000000E+00 -0.25978931469E+04  0.25978931488E+04  0.10100000352E+00 0. -1.
    10030    2    1    2    0    0  0.00000000000E+00  0.00000000000E+00 -0.15498438777E+04  0.36459424229E+04  0.33001333467E+04 0.  0.
        2    1    3    3  502    0 -0.15023628542E+03  0.16372009525E+04 -0.93007315527E+03  0.18889240256E+04  0.25500000920E-02 0. -1.
       -2    1    3    3    0  502  0.15023628542E+03 -0.16372009525E+04 -0.61977072240E+03  0.17570183973E+04  0.25500000920E-02 0.  1.
</event>
<event>
 5   0  0.6765252E-08  0.3299915E+04  0.7818609E-02  0.8162917E-01
       -2   -1    0    0    0  501  0.00000000000E+00  0.00000000000E+00  0.93981273629E+03  0.93981273630E+03  0.25500000920E-02 0.  1.
        2   -1    0    0  501    0  0.00000000000E+00  0.00000000000E+00 -0.28967045105E+04  0.28967045105E+04  0.25500000920E-02 0. -1.
    10030    2    1    2    0    0  0.00000000000E+00  0.00000000000E+00 -0.19568917742E+04  0.38365172468E+04  0.32999150245E+04 0.  0.
        2    1    3    3  502    0  0.16216704136E+02  0.60666623003E+03 -0.27622308845E+04  0.28281135684E+04  0.25500000920E-02 0. -1.
       -2    1    3    3    0  502 -0.16216704136E+02 -0.60666623003E+03  0.80533911029E+03  0.10084036785E+04  0.25500000920E-02 0.  1.
</event>
<event>
 5   0  0.2279938E-08  0.3300459E+04  0.7818609E-02  0.8162779E-01
        1   -1    0    0  501    0  0.00000000000E+00  0.00000000000E+00  0.24895591755E+04  0.24895591755E+04  0.50400001928E-02 0.  1.
       -1   -1    0    0    0  501  0.00000000000E+00  0.00000000000E+00 -0.10938714642E+04  0.10938714642E+04  0.50400001928E-02 0. -1.
    10030    2    1    2    0    0  0.00000000000E+00  0.00000000000E+00  0.13956877113E+04  0.35834306397E+04  0.33004592047E+04 0.  0.
        3    1    3    3  502    0 -0.12514323600E+04  0.83583375421E+03  0.14330703725E+04  0.20780740408E+04  0.10100000352E+00 0. -1.
       -3    1    3    3    0  502  0.12514323600E+04 -0.83583375421E+03 -0.37382661209E+02  0.15053565989E+04  0.10100000352E+00 0.  1.
</event>
<event>
 5   0  0.7084130E-08  0.3300970E+04  0.7818609E-02  0.8162649E-01
       -2   -1    0    0    0  501  0.00000000000E+00  0.00000000000E+00  0.16478445631E+04  0.16478445631E+04  0.25500000920E-02 0.  1.
        2   -1    0    0  501    0  0.00000000000E+00  0.00000000000E+00 -0.16531296116E+04  0.16531296116E+04  0.25500000920E-02 0. -1.
    10030    2    1    2    0    0  0.00000000000E+00  0.00000000000E+00 -0.52850485092E+01  0.33009741747E+04  0.33009699439E+04 0.  0.
        3    1    3    3  502    0 -0.16053055317E+04  0.58245530558E+02 -0.38172379361E+03  0.16510940181E+04  0.10100000352E+00 0. -1.
       -3    1    3    3    0  502  0.16053055317E+04 -0.58245530558E+02  0.37643874510E+03  0.16498801565E+04  0.10100000352E+00 0.  1.
</event>
<event>
 5   0  0.2309822E-08  0.3299874E+04  0.7818609E-02  0.8162928E-01
        1   -1    0    0  501    0  0.00000000000E+00  0.00000000000E+00  0.11761045779E+04  0.11761045779E+04  0.50400001928E-02 0.  1.
       -1   -1    0    0    0  501  0.00000000000E+00  0.00000000000E+00 -0.23146678537E+04  0.23146678537E+04  0.50400001928E-02 0. -1.
    10030    2    1    2    0    0  0.00000000000E+00  0.00000000000E+00 -0.11385632758E+04  0.34907724316E+04  0.32998736091E+04 0.  0.
        4    1    3    3  502    0 -0.13464578251E+02  0.16438354288E+04 -0.42000237061E+03  0.16966967366E+04  0.12699999809E+01 0. -1.
       -4    1    3    3    0  502  0.13464578251E+02 -0.16438354288E+04 -0.71856090514E+03  0.17940756949E+04  0.12699999809E+01 0.  1.
</event>
<event>
 5   0  0.2244093E-08  0.3299664E+04  0.7818609E-02  0.8162981E-01
        1   -1    0    0  501    0  0.00000000000E+00  0.00000000000E+00  0.18628608918E+04  0.18628608918E+04  0.50400001928E-02 0. -1.
       -1   -1    0    0    0  501  0.00000000000E+00  0.00000000000E+00 -0.14611642920E+04  0.14611642921E+04  0.50400001928E-02 0.  1.
    10030    2    1    2    0    0  0.00000000000E+00  0.00000000000E+00  0.40169659979E+03  0.33240251839E+04  0.32996641140E+04 0.  0.
        1    1    3    3  502    0  0.15556192811E+03 -0.13589114519E+04  0.11302134650E+04  0.17743230608E+04  0.50400001928E-02 0. -1.
       -1    1    3    3    0  502 -0.15556192811E+03  0.13589114519E+04 -0.72851686521E+03  0.15497021231E+04  0.50400001928E-02 0.  1.
</event>
<event>
 5   0  0.6765252E-08  0.3299558E+04  0.7818609E-02  0.8163008E-01
       -2   -1    0    0    0  501  0.00000000000E+00  0.00000000000E+00  0.25972990283E+04  0.25972990283E+04  0.25500000920E-02 0. -1.
        2   -1    0    0  501    0  0.00000000000E+00  0.00000000000E+00 -0.10479232098E+04  0.10479232098E+04  0.25500000920E-02 0.  1.
    10030    2    1    2    0    0  0.00000000000E+00  0.00000000000E+00  0.15493758185E+04  0.36452222381E+04  0.32995575064E+04 0.  0.
        2    1    3    3  502    0 -0.23060784333E+03  0.11437431036E+04  0.20632586690E+04  0.23703089671E+04  0.25500000920E-02 0. -1.
       -2    1    3    3    0  502  0.23060784333E+03 -0.11437431036E+04 -0.51388285048E+03  0.12749132710E+04  0.25500000920E-02 0.  1.
</event>
<event>
 5   0  0.2279938E-08  0.3300377E+04  0.7818609E-02  0.8162799E-01
        1   -1    0    0  501    0  0.00000000000E+00  0.00000000000E+00  0.24329259704E+04  0.24329259704E+04  0.50400001928E-02 0.  1.
       -1   -1    0    0    0  501  0.00000000000E+00  0.00000000000E+00 -0.11192789680E+04  0.11192789680E+04  0.50400001928E-02 0. -1.
    10030    2    1    2    0    0  0.00000000000E+00  0.00000000000E+00  0.13136470024E+04  0.35522049384E+04  0.33003774750E+04 0.  0.
        3    1    3    3  502    0 -0.12477275233E+04 -0.22890384404E+03  0.17927699939E+04  0.21961887905E+04  0.10100000352E+00 0.  1.
       -3    1    3    3    0  502  0.12477275233E+04  0.22890384404E+03 -0.47912299150E+03  0.13560161479E+04  0.10100000352E+00 0. -1.
</event>
<event>
 5   0  0.6706080E-08  0.3299595E+04  0.7818609E-02  0.8162998E-01
       -2   -1    0    0    0  501  0.00000000000E+00  0.00000000000E+00  0.13152410858E+04  0.13152410858E+04  0.25500000920E-02 0. -1.
        2   -1    0    0  501    0  0.00000000000E+00  0.00000000000E+00 -0.20694551874E+04  0.20694551874E+04  0.25500000920E-02 0.  1.
    10030    2    1    2    0    0  0.00000000000E+00  0.00000000000E+00 -0.75421410161E+03  0.33846962731E+04  0.32995954222E+04 0.  0.
        4    1    3    3  502    0  0.46198648804E+03 -0.10803993650E+04  0.81083570517E+03  0.14276380692E+04  0.12699999809E+01 0.  1.
       -4    1    3    3    0  502 -0.46198648804E+03  0.10803993650E+04 -0.15650498068E+04  0.19570582039E+04  0.12699999809E+01 0. -1.
</event>
<event>
 5   0  0.7084130E-08  0.3300000E+04  0.7818609E-02  0.8162895E-01
       -2   -1    0    0    0  501  0.00000000000E+00  0.00000000000E+00  0.15212120923E+04  0.15212120923E+04  0.25500000920E-02 0.  1.
        2   -1    0    0  501    0  0.00000000000E+00  0.00000000000E+00 -0.17896911104E+04  0.17896911104E+04  0.25500000920E-02 0. -1.
    10030    2    1    2    0    0  0.00000000000E+00  0.00000000000E+00 -0.26847901805E+03  0.33109032027E+04  0.32999998537E+04 0.  0.
        3    1    3    3  502    0  0.11512453716E+03  0.76597239506E+03 -0.15959444850E+04  0.17739803207E+04  0.10100000352E+00 0. -1.
       -3    1    3    3    0  502 -0.11512453716E+03 -0.76597239506E+03  0.13274654669E+04  0.15369228820E+04  0.10100000352E+00 0.  1.
</event>
<event>
 5   0  0.6821287E-08  0.3292602E+04  0.7818609E-02  0.8164780E-01
       -2   -1    0    0    0  501  0.00000000000E+00  0.00000000000E+00  0.15124136617E+04  0.15124136617E+04  0.25500000920E-02 0. -1.
        2   -1    0    0  501    0  0.00000000000E+00  0.00000000000E+00 -0.17920404032E+04  0.17920404032E+04  0.25500000920E-02 0.  1.
    10030    2    1    2    0    0  0.00000000000E+00  0.00000000000E+00 -0.27962674144E+03  0.33044540649E+04  0.32926016389E+04 0.  0.
        5    1    3    3  502    0 -0.62036812268E+02  0.61707515461E+03 -0.16703124731E+04  0.17817396443E+04  0.46999998093E+01 0.  1.
       -5    1    3    3    0  502  0.62036812268E+02 -0.61707515461E+03  0.13906857316E+04  0.15227144206E+04  0.46999998093E+01 0. -1.
</event>
<event>
 5   0  0.2309822E-08  0.3300269E+04  0.7818609E-02  0.8162827E-01
        1   -1    0    0  501    0  0.00000000000E+00  0.00000000000E+00  0.23606115882E+04  0.23606115882E+04  0.50400001928E-02 0. -1.
       -1   -1    0    0    0  501  0.00000000000E+00  0.00000000000E+00 -0.11534909274E+04  0.11534909274E+04  0.50400001928E-02 0.  1.
    10030    2    1    2    0    0  0.00000000000E+00  0.00000000000E+00  0.12071206608E+04  0.35141025156E+04  0.33002691103E+04 0.  0.
        4    1    3    3  502    0 -0.12456327063E+04 -0.97748124521E+03  0.10883602946E+03  0.15871097372E+04  0.12699999809E+01 0.  1.
       -4    1    3    3    0  502  0.12456327063E+04  0.97748124521E+03  0.10982846314E+04  0.19269927784E+04  0.12699999809E+01 0. -1.
</event>
<event>
 5   0  0.2279938E-08  0.3298070E+04  0.7818609E-02  0.8163387E-01
        1   -1    0    0  501    0  0.00000000000E+00  0.00000000000E+00  0.21763320711E+04  0.21763320711E+04  0.50400001928E-02 0. -1.
       -1   -1    0    0    0  501  0.00000000000E+00  0.00000000000E+00 -0.12494952858E+04  0.12494952858E+04  0.50400001928E-02 0.  1.
    10030    2    1    2    0    0  0.00000000000E+00  0.00000000000E+00  0.92683678525E+03  0.34258273569E+04  0.32980701407E+04 0.  0.
        3    1    3    3  502    0  0.29891266022E+03  0.16284864910E+03  0.21394417060E+04  0.21663516069E+04  0.10100000352E+00 0. -1.
       -3    1    3    3    0  502 -0.29891266022E+03 -0.16284864910E+03 -0.12126049208E+04  0.12594757501E+04  0.10100000352E+00 0.  1.
</event>
<event>
 5   0  0.2383270E-08  0.3297045E+04  0.7818609E-02  0.8163648E-01
        1   -1    0    0  501    0  0.00000000000E+00  0.00000000000E+00  0.14343471183E+04  0.14343471183E+04  0.50400001928E-02 0.  1.
       -1   -1    0    0    0  501  0.00000000000E+00  0.00000000000E+00 -0.18946779972E+04  0.18946779972E+04  0.50400001928E-02 0. -1.
    10030    2    1    2    0    0  0.00000000000E+00  0.00000000000E+00 -0.46033087887E+03  0.33290251155E+04  0.32970446920E+04 0.  0.
        5    1    3    3  502    0  0.70161867334E+03  0.98410281085E+03 -0.13621449877E+04  0.18210404066E+04  0.46999998093E+01 0. -1.
       -5    1    3    3    0  502 -0.70161867334E+03 -0.98410281085E+03  0.90181410884E+03  0.15079847088E+04  0.46999998093E+01 0.  1.
</event>
<event>
 5   0  0.6706080E-08  0.3300067E+04  0.7818609E-02  0.8162878E-01
        2   -1    0    0  501    0  0.00000000000E+00  0.00000000000E+00  0.22977389529E+04  0.22977389529E+04  0.25500000920E-02 0. -1.
       -2   -1    0    0    0  501  0.00000000000E+00  0.00000000000E+00 -0.11849082902E+04  0.11849082902E+04  0.25500000920E-02 0.  1.
    10030    2    1    2    0    0  0.00000000000E+00  0.00000000000E+00  0.11128306627E+04  0.34826472431E+04  0.33000666261E+04 0.  0.
        4    1    3    3  502    0 -0.14455270475E+04 -0.79317421669E+03  0.49021903901E+03  0.17201715327E+04  0.12699999809E+01 0.  1.
       -4    1    3    3    0  502  0.14455270475E+04  0.79317421669E+03  0.62261162367E+03  0.17624757104E+04  0.12699999809E+01 0. -1.
</event>
<event>
 5   0  0.6603516E-08  0.3302249E+04  0.7818609E-02  0.8162323E-01
       -2   -1    0    0    0  501  0.00000000000E+00  0.00000000000E+00  0.10403481266E+04  0.10403481266E+04  0.25500000920E-02 0. -1.
        2   -1    0    0  501    0  0.00000000000E+00  0.00000000000E+00 -0.26204799838E+04  0.26204799838E+04  0.25500000920E-02 0.  1.
    10030    2    1    2    0    0  0.00000000000E+00  0.00000000000E+00 -0.15801318572E+04  0.36608281104E+04  0.33022485927E+04 0.  0.
        1    1    3    3  502    0  0.14571673031E+04  0.27179076842E+03 -0.15963708807E+04  0.21784413602E+04  0.50400001928E-02 0.  1.
       -1    1    3    3    0  502 -0.14571673031E+04 -0.27179076842E+03  0.16239023540E+02  0.14823867502E+04  0.50400001928E-02 0. -1.
</event>
<event>
 5   0  0.6821287E-08  0.3300296E+04  0.7818609E-02  0.8162820E-01
       -2   -1    0    0    0  501  0.00000000000E+00  0.00000000000E+00  0.12452420914E+04  0.12452420914E+04  0.25500000920E-02 0.  1.
        2   -1    0    0  501    0  0.00000000000E+00  0.00000000000E+00 -0.21867136726E+04  0.21867136726E+04  0.25500000920E-02 0. -1.
    10030    2    1    2    0    0  0.00000000000E+00  0.00000000000E+00 -0.94147158122E+03  0.34319557640E+04  0.33002956879E+04 0.  0.
        5    1    3    3  502    0 -0.86673698632E+03  0.14030748770E+04 -0.41270915077E+03  0.17000597187E+04  0.46999998093E+01 0. -1.
       -5    1    3    3    0  502  0.86673698632E+03 -0.14030748770E+04 -0.52876243045E+03  0.17318960453E+04  0.46999998093E+01 0.  1.
</event>
<event>
 5   0  0.6706080E-08  0.3300346E+04  0.7818609E-02  0.8162807E-01
        2   -1    0    0  501    0  0.00000000000E+00  0.00000000000E+00  0.16823986509E+04  0.16823986509E+04  0.25500000920E-02 0. -1.
       -2   -1    0    0    0  501  0.00000000000E+00  0.00000000000E+00 -0.16185646094E+04  0.16185646094E+04  0.25500000920E-02 0.  1.
    10030    2    1    2    0    0  0.00000000000E+00  0.00000000000E+00  0.63834041489E+02  0.33009632604E+04  0.33003459912E+04 0.  0.
        4    1    3    3  502    0  0.20666511027E+03  0.64013110963E+03 -0.14752128414E+04  0.16213367465E+04  0.12699999809E+01 0.  1.
       -4    1    3    3    0  502 -0.20666511027E+03 -0.64013110963E+03  0.15390468829E+04  0.16796265138E+04  0.12699999809E+01 0. -1.
</event>
<event>
 5   0  0.6765252E-08  0.3299532E+04  0.7818609E-02  0.8163014E-01
        2   -1    0    0  501    0  0.00000000000E+00  0.00000000000E+00  0.17584677671E+04  0.17584677671E+04  0.25500000920E-02 0.  1.
       -2   -1    0    0    0  501  0.00000000000E+00  0.00000000000E+00 -0.15477841934E+04  0.15477841934E+04  0.25500000920E-02 0. -1.
    10030    2    1    2    0    0  0.00000000000E+00  0.00000000000E+00  0.21068357369E+03  0.33062519605E+04  0.32995324606E+04 0.  0.
        2    1    3    3  502    0  0.19555495112E+03  0.15465856147E+04  0.64640420900E+03  0.16876039832E+04  0.25500000920E-02 0.  1.
       -2    1    3    3    0  502 -0.19555495112E+03 -0.15465856147E+04 -0.43572063531E+03  0.16186479774E+04  0.25500000920E-02 0. -1.
</event>
<event>
 5   0  0.6821287E-08  0.3298454E+04  0.7818609E-02  0.8163289E-01
       -2   -1    0    0    0  501  0.00000000000E+00  0.00000000000E+00  0.14283304165E+04  0.14283304165E+04  0.25500000920E-02 0.  1.
        2   -1    0    0  501    0  0.00000000000E+00  0.00000000000E+00 -0.19042855719E+04  0.19042855719E+04  0.25500000920E-02 0. -1.
    10030    2    1    2    0    0  0.00000000000E+00  0.00000000000E+00 -0.47595515537E+03  0.33326159884E+04  0.32984535795E+04 0.  0.
        5    1    3    3  502    0  0.16433884850E+04 -0.34406292297E+02 -0.37359674048E+03  0.16856767543E+04  0.46999998093E+01 0.  1.
       -5    1    3    3    0  502 -0.16433884850E+04  0.34406292297E+02 -0.10235841489E+03  0.16469392341E+04  0.46999998093E+01 0. -1.
</event>
<event>
 5   0  0.6821287E-08  0.3300321E+04  0.7818609E-02  0.8162814E-01
        2   -1    0    0  501    0  0.00000000000E+00  0.00000000000E+00  0.27147885451E+04  0.27147885451E+04  0.25500000920E-02 0.  1.
       -2   -1    0    0    0  501  0.00000000000E+00  0.00000000000E+00 -0.10030357060E+04  0.10030357060E+04  0.25500000920E-02 0. -1.
    10030    2    1    2    0    0  0.00000000000E+00  0.00000000000E+00  0.17117528392E+04  0.37178242511E+04  0.33003211025E+04 0.  0.
        5    1    3    3  502    0  0.71074441852E+03  0.37534605132E+02 -0.82123059212E+03  0.10867420349E+04  0.46999998093E+01 0. -1.
       -5    1    3    3    0  502 -0.71074441852E+03 -0.37534605132E+02  0.25329834313E+04  0.26310822162E+04  0.46999998093E+01 0.  1.
</event>
<event>
 5   0  0.2291682E-08  0.3300553E+04  0.7818609E-02  0.8162755E-01
       -1   -1    0    0    0  501  0.00000000000E+00  0.00000000000E+00  0.16462161809E+04  0.16462161809E+04  0.50400001928E-02 0.  1.
        1   -1    0    0  501    0  0.00000000000E+00  0.00000000000E+00 -0.16543464810E+04  0.16543464810E+04  0.50400001928E-02 0. -1.
    10030    2    1    2    0    0  0.00000000000E+00  0.00000000000E+00 -0.81303000634E+01  0.33005626619E+04  0.33005526482E+04 0.  0.
        2    1    3    3  502    0 -0.55300151188E+03  0.10115581666E+04 -0.11848952860E+04  0.16531900785E+04  0.25500000920E-02 0. -1.
       -2    1    3    3    0  502  0.55300151188E+03 -0.10115581666E+04  0.11767649860E+04  0.16473725835E+04  0.25500000920E-02 0.  1.
</event>
<event>
 5   0  0.2291682E-08  0.3299437E+04  0.7818609E-02  0.8163039E-01
        1   -1    0    0  501    0  0.00000000000E+00  0.00000000000E+00  0.20226900201E+04  0.20226900201E+04  0.50400001928E-02 0. -1.
       -1   -1    0    0    0  501  0.00000000000E+00  0.00000000000E+00 -0.13455206335E+04  0.13455206335E+04  0.50400001928E-02 0.  1.
    10030    2    1    2    0    0  0.00000000000E+00  0.00000000000E+00  0.67716938659E+03  0.33682106536E+04  0.32994370169E+04 0.  0.
        2    1    3    3  502    0  0.82002028346E+02  0.16117068208E+04 -0.10967497860E+02  0.16138288307E+04  0.25500000920E-02 0. -1.
       -2    1    3    3    0  502 -0.82002028346E+02 -0.16117068208E+04  0.68813688445E+03  0.17543818229E+04  0.25500000920E-02 0.  1.
</event>
<event>
 5   0  0.2291682E-08  0.3294852E+04  0.7818609E-02  0.8164207E-01
        1   -1    0    0  501    0  0.00000000000E+00  0.00000000000E+00  0.17094221337E+04  0.17094221337E+04  0.50400001928E-02 0. -1.
       -1   -1    0    0    0  501  0.00000000000E+00  0.00000000000E+00 -0.15876783223E+04  0.15876783223E+04  0.50400001928E-02 0.  1.
    10030    2    1    2    0    0  0.00000000000E+00  0.00000000000E+00  0.12174381145E+03  0.32971004560E+04  0.32948520242E+04 0.  0.
        2    1    3    3  502    0 -0.14990526191E+04 -0.30865801108E+03 -0.54912092963E+03  0.16260265428E+04  0.25500000920E-02 0.  1.
       -2    1    3    3    0  502  0.14990526191E+04  0.30865801108E+03  0.67086474108E+03  0.16710739132E+04  0.25500000920E-02 0. -1.
</event>
<event>
 5   0  0.2383270E-08  0.3299518E+04  0.7818609E-02  0.8163018E-01
        1   -1    0    0  501    0  0.00000000000E+00  0.00000000000E+00  0.13494499597E+04  0.13494499597E+04  0.50400001928E-02 0. -1.
       -1   -1    0    0    0  501  0.00000000000E+00  0.00000000000E+00 -0.20168989064E+04  0.20168989064E+04  0.50400001928E-02 0.  1.
    10030    2    1    2    0    0  0.00000000000E+00  0.00000000000E+00 -0.66744894672E+03  0.33663488660E+04  0.32995176301E+04 0.  0.
        5    1    3    3  502    0  0.13414949248E+04 -0.29198403907E+03  0.59958219381E+03  0.14981269003E+04  0.46999998093E+01 0. -1.
       -5    1    3    3    0  502 -0.13414949248E+04  0.29198403907E+03 -0.12670311405E+04  0.18682219658E+04  0.46999998093E+01 0.  1.
</event>
<event>
 5   0  0.7084130E-08  0.3288093E+04  0.7818609E-02  0.8165932E-01
       -2   -1    0    0    0  501  0.00000000000E+00  0.00000000000E+00  0.13744297073E+04  0.13744297073E+04  0.25500000920E-02 0. -1.
        2   -1    0    0  501    0  0.00000000000E+00  0.00000000000E+00 -0.19665534568E+04  0.19665534568E+04  0.25500000920E-02 0.  1.
    10030    2    1    2    0    0  0.00000000000E+00  0.00000000000E+00 -0.59212374953E+03  0.33409831640E+04  0.32880933636E+04 0.  0.
        3    1    3    3  502    0 -0.27838475448E+03 -0.24105554659E+03 -0.19241093782E+04  0.19590310762E+04  0.10100000352E+00 0.  1.
       -3    1    3    3    0  502  0.27838475448E+03  0.24105554659E+03  0.13319856286E+04  0.13819520879E+04  0.10100000352E+00 0. -1.
</event>
<event>
 5   0  0.2244093E-08  0.3301781E+04  0.7818609E-02  0.8162442E-01
        1   -1    0    0  501    0  0.00000000000E+00  0.00000000000E+00  0.25001253503E+04  0.25001253503E+04  0.50400001928E-02 0.  1.
       -1   -1    0    0    0  501  0.00000000000E+00  0.00000000000E+00 -0.10901210441E+04  0.10901210441E+04  0.50400001928E-02 0. -1.
    10030    2    1    2    0    0  0.00000000000E+00  0.00000000000E+00  0.14100043062E+04  0.35902463944E+04  0.33017808875E+04 0.  0.
        1    1    3    3  502    0 -0.92671122808E+03  0.93790115724E+03 -0.37526635670E+03  0.13708672873E+04  0.50400001928E-02 0. -1.
       -1    1    3    3    0  502  0.92671122808E+03 -0.93790115724E+03  0.17852706629E+04  0.22193791071E+04  0.50400001928E-02 0.  1.
</event>
<event>
 5   0  0.2291682E-08  0.3298308E+04  0.7818609E-02  0.8163326E-01
       -1   -1    0    0    0  501  0.00000000000E+00  0.00000000000E+00  0.13712241961E+04  0.13712241961E+04  0.50400001928E-02 0.  1.
        1   -1    0    0  501    0  0.00000000000E+00  0.00000000000E+00 -0.19834160706E+04  0.19834160707E+04  0.50400001928E-02 0. -1.
    10030    2    1    2    0    0  0.00000000000E+00  0.00000000000E+00 -0.61219187456E+03  0.33546402667E+04  0.32983075096E+04 0.  0.
        2    1    3    3  502    0 -0.55961919229E+03  0.97018712290E+03  0.92506222998E+03  0.14526447684E+04  0.25500000920E-02 0.  1.
       -2    1    3    3    0  502  0.55961919229E+03 -0.97018712290E+03 -0.15372541045E+04  0.19019954983E+04  0.25500000920E-02 0. -1.
</event>
<event>
 5   0  0.2383270E-08  0.3302761E+04  0.7818609E-02  0.8162193E-01
        1   -1    0    0  501    0  0.00000000000E+00  0.00000000000E+00  0.20406345694E+04  0.20406345694E+04  0.50400001928E-02 0. -1.
       -1   -1    0    0    0  501  0.00000000000E+00  0.00000000000E+00 -0.13363769753E+04  0.13363769753E+04  0.50400001928E-02 0.  1.
    10030    2    1    2    0    0  0.00000000000E+00  0.00000000000E+00  0.70425759412E+03  0.33770115446E+04  0.33027606958E+04 0.  0.
        5    1    3    3  502    0 -0.97467870476E+03 -0.64681273357E+03  0.15439534883E+04  0.19370544014E+04  0.46999998093E+01 0. -1.
       -5    1    3    3    0  502  0.97467870476E+03  0.64681273357E+03 -0.83969589417E+03  0.14399571433E+04  0.46999998093E+01 0.  1.
</event>
<event>
 5   0  0.6765252E-08  0.3305414E+04  0.7818609E-02  0.8161519E-01
        2   -1    0    0  501    0  0.00000000000E+00  0.00000000000E+00  0.19698068360E+04  0.19698068360E+04  0.25500000920E-02 0. -1.
       -2   -1    0    0    0  501  0.00000000000E+00  0.00000000000E+00 -0.13866538119E+04  0.13866538119E+04  0.25500000920E-02 0.  1.
    10030    2    1    2    0    0  0.00000000000E+00  0.00000000000E+00  0.58315302415E+03  0.33564606479E+04  0.33054138367E+04 0.  0.
        2    1    3    3  502    0  0.16224322217E+04 -0.30695798694E+03  0.36287942803E+03  0.16906185255E+04  0.25500000920E-02 0.  1.
       -2    1    3    3    0  502 -0.16224322217E+04  0.30695798694E+03  0.22027359612E+03  0.16658421224E+04  0.25500000920E-02 0. -1.
</event>
<event>
 5   0  0.6706080E-08  0.3300210E+04  0.7818609E-02  0.8162842E-01
        2   -1    0    0  501    0  0.00000000000E+00  0.00000000000E+00  0.15229386787E+04  0.15229386787E+04  0.25500000920E-02 0.  1.
       -2   -1    0    0    0  501  0.00000000000E+00  0.00000000000E+00 -0.17878902316E+04  0.17878902316E+04  0.25500000920E-02 0. -1.
    10030    2    1    2    0    0  0.00000000000E+00  0.00000000000E+00 -0.26495155290E+03  0.33108289104E+04  0.33002104097E+04 0.  0.
        4    1    3    3  502    0 -0.15551137747E+04 -0.54959481945E+03 -0.83203023330E+02  0.16514713664E+04  0.12699999809E+01 0. -1.
       -4    1    3    3    0  502  0.15551137747E+04  0.54959481945E+03 -0.18174852957E+03  0.16593575440E+04  0.12699999809E+01 0.  1.
</event>
<event>
 5   0  0.2279938E-08  0.3301507E+04  0.7818609E-02  0.8162512E-01
       -1   -1    0    0    0  501  0.00000000000E+00  0.00000000000E+00  0.18144857442E+04  0.18144857442E+04  0.50400001928E-02 0. -1.
        1   -1    0    0  501    0  0.00000000000E+00  0.00000000000E+00 -0.15017961193E+04  0.15017961193E+04  0.50400001928E-02 0.  1.
    10030    2    1    2    0    0  0.00000000000E+00  0.00000000000E+00  0.31268962493E+03  0.33162818636E+04  0.33015073220E+04 0.  0.
        3    1    3    3  502    0  0.28525087139E+03  0.48814129420E+03 -0.14015107747E+04  0.15112519461E+04  0.10100000352E+00 0.  1.
       -3    1    3    3    0  502 -0.28525087139E+03 -0.48814129420E+03  0.17142003996E+04  0.18050299175E+04  0.10100000352E+00 0. -1.
</event>
<event>
 5   0  0.6765252E-08  0.3299955E+04  0.7818609E-02  0.8162907E-01
       -2   -1    0    0    0  501  0.00000000000E+00  0.00000000000E+00  0.14515447891E+04  0.14515447891E+04  0.25500000920E-02 0. -1.
        2   -1    0    0  501    0  0.00000000000E+00  0.00000000000E+00 -0.18755367916E+04  0.18755367916E+04  0.25500000920E-02 0.  1.
    10030    2    1    2    0    0  0.00000000000E+00  0.00000000000E+00 -0.42399200249E+03  0.33270815807E+04  0.32999549431E+04 0.  0.
        2    1    3    3  502    0  0.29890771339E+03 -0.16188403089E+04 -0.32442902050E+03  0.16778688733E+04  0.25500000920E-02 0. -1.
       -2    1    3    3    0  502 -0.29890771339E+03  0.16188403089E+04 -0.99562981990E+02  0.16492127074E+04  0.25500000920E-02 0.  1.
</event>
<event>
 5   0  0.2383270E-08  0.3299924E+04  0.7818609E-02  0.8162915E-01
       -1   -1    0    0    0  501  0.00000000000E+00  0.00000000000E+00  0.16241510398E+04  0.16241510398E+04  0.50400001928E-02 0. -1.
        1   -1    0    0  501    0  0.00000000000E+00  0.00000000000E+00 -0.16761835956E+04  0.16761835956E+04  0.50400001928E-02 0.  1.
    10030    2    1    2    0    0  0.00000000000E+00  0.00000000000E+00 -0.52032555848E+02  0.33003346354E+04  0.32999244413E+04 0.  0.
        5    1    3    3  502    0 -0.68779361809E+03 -0.33081282450E+03 -0.14890227962E+04  0.16732328479E+04  0.46999998093E+01 0.  1.
       -5    1    3    3    0  502  0.68779361809E+03  0.33081282450E+03  0.14369902403E+04  0.16271017874E+04  0.46999998093E+01 0. -1.
</event>
<event>
 5   0  0.2309822E-08  0.3299762E+04  0.7818609E-02  0.8162956E-01
       -1   -1    0    0    0  501  0.00000000000E+00  0.00000000000E+00  0.12588463552E+04  0.12588463552E+04  0.50400001928E-02 0.  1.
        1   -1    0    0  501    0  0.00000000000E+00  0.00000000000E+00 -0.21623819677E+04  0.21623819677E+04  0.50400001928E-02 0. -1.
    10030    2    1    2    0    0  0.00000000000E+00  0.00000000000E+00 -0.90353561251E+03  0.34212283229E+04  0.32997616027E+04 0.  0.
        4    1    3    3  502    0  0.70392245513E+03 -0.95815812236E+02 -0.19956822659E+04  0.21183571021E+04  0.12699999809E+01 0. -1.
       -4    1    3    3    0  502 -0.70392245513E+03  0.95815812236E+02  0.10921466534E+04  0.13028712208E+04  0.12699999809E+01 0.  1.
</event>
<event>
 5   0  0.2291682E-08  0.3299471E+04  0.7818609E-02  0.8163030E-01
        1   -1    0    0  501    0  0.00000000000E+00  0.00000000000E+00  0.21757757147E+04  0.21757757147E+04  0.50400001928E-02 0. -1.
       -1   -1    0    0    0  501  0.00000000000E+00  0.00000000000E+00 -0.12508770725E+04  0.12508770725E+04  0.50400001928E-02 0.  1.
    10030    2    1    2    0    0  0.00000000000E+00  0.00000000000E+00  0.92489864224E+03  0.34266527872E+04  0.32994714464E+04 0.  0.
        2    1    3    3  502    0  0.11687127051E+04  0.77750831036E+03 -0.43768873463E+03  0.14703672970E+04  0.25500000920E-02 0.  1.
       -2    1    3    3    0  502 -0.11687127051E+04 -0.77750831036E+03  0.13625873769E+04  0.19562854902E+04  0.25500000920E-02 0. -1.
</event>
<event>
 5   0  0.2383270E-08  0.3298781E+04  0.7818609E-02  0.8163206E-01
        1   -1    0    0  501    0  0.00000000000E+00  0.00000000000E+00  0.28633140779E+04  0.28633140779E+04  0.50400001928E-02 0.  1.
       -1   -1    0    0    0  501  0.00000000000E+00  0.00000000000E+00 -0.95011869901E+03  0.95011869902E+03  0.50400001928E-02 0. -1.
    10030    2    1    2    0    0  0.00000000000E+00  0.00000000000E+00  0.19131953789E+04  0.38134327770E+04  0.32987805302E+04 0.  0.
        5    1    3    3  502    0 -0.19349461758E+03 -0.45613928005E+03 -0.86204350063E+03  0.99430593724E+03  0.46999998093E+01 0. -1.
       -5    1    3    3    0  502  0.19349461758E+03  0.45613928005E+03  0.27752388796E+04  0.28191268397E+04  0.46999998093E+01 0.  1.
</event>
<event>
 5   0  0.2244093E-08  0.3283525E+04  0.7818609E-02  0.8167100E-01
       -1   -1    0    0    0  501  0.00000000000E+00  0.00000000000E+00  0.21588420577E+04  0.21588420577E+04  0.50400001928E-02 0.  1.
        1   -1    0    0  501    0  0.00000000000E+00  0.00000000000E+00 -0.12485319526E+04  0.12485319526E+04  0.50400001928E-02 0. -1.
    10030    2    1    2    0    0  0.00000000000E+00  0.00000000000E+00  0.91031010510E+03  0.34073740104E+04  0.32835245026E+04 0.  0.
        1    1    3    3  502    0 -0.79594946889E+03 -0.14305610098E+04  0.58369369133E+03  0.17380272395E+04  0.50400001928E-02 0. -1.
       -1    1    3    3    0  502  0.79594946889E+03  0.14305610098E+04  0.32661641377E+03  0.16693467709E+04  0.50400001928E-02 0.  1.
</event>
<event>
 5   0  0.7084130E-08  0.3302158E+04  0.7818609E-02  0.8162346E-01
        2   -1    0    0  501    0  0.00000000000E+00  0.00000000000E+00  0.19200782411E+04  0.19200782411E+04  0.25500000920E-02 0. -1.
       -2   -1    0    0    0  501  0.00000000000E+00  0.00000000000E+00 -0.14197661780E+04  0.14197661780E+04  0.25500000920E-02 0.  1.
    10030    2    1    2    0    0  0.00000000000E+00  0.00000000000E+00  0.50031206311E+03  0.33398444191E+04  0.33021581706E+04 0.  0.
        3    1    3    3  502    0  0.13800302108E+04 -0.43886709846E+03  0.10522862124E+04  0.17900821198E+04  0.10100000352E+00 0. -1.
       -3    1    3    3    0  502 -0.13800302108E+04  0.43886709846E+03 -0.55197414925E+03  0.15497622993E+04  0.10100000352E+00 0.  1.
</event>
<event>
 5   0  0.7084130E-08  0.3299399E+04  0.7818609E-02  0.8163048E-01
        2   -1    0    0  501    0  0.00000000000E+00  0.00000000000E+00  0.15096054493E+04  0.15096054493E+04  0.25500000920E-02 0.  1.
       -2   -1    0    0    0  501  0.00000000000E+00  0.00000000000E+00 -0.18027946097E+04  0.18027946097E+04  0.25500000920E-02 0. -1.
    10030    2    1    2    0    0  0.00000000000E+00  0.00000000000E+00 -0.29318916040E+03  0.33124000590E+04  0.32993990767E+04 0.  0.
        3    1    3    3  502    0  0.39692535357E+03  0.12357958755E+04  0.87563535843E+03  0.15657197940E+04  0.10100000352E+00 0. -1.
       -3    1    3    3    0  502 -0.39692535357E+03 -0.12357958755E+04 -0.11688245188E+04  0.17466802650E+04  0.10100000352E+00 0.  1.
</event>
<event>
 5   0  0.2383270E-08  0.3299541E+04  0.7818609E-02  0.8163012E-01
       -1   -1    0    0    0  501  0.00000000000E+00  0.00000000000E+00  0.18380952917E+04  0.18380952917E+04  0.50400001928E-02 0. -1.
        1   -1    0    0  501    0  0.00000000000E+00  0.00000000000E+00 -0.14807407009E+04  0.14807407009E+04  0.50400001928E-02 0.  1.
    10030    2    1    2    0    0  0.00000000000E+00  0.00000000000E+00  0.35735459084E+03  0.33188359926E+04  0.32995408835E+04 0.  0.
        5    1    3    3  502    0 -0.11702703252E+03  0.37762832958E+03  0.17897371643E+04  0.18328883460E+04  0.46999998093E+01 0. -1.
       -5    1    3    3    0  502  0.11702703252E+03 -0.37762832958E+03 -0.14323825735E+04  0.14859476466E+04  0.46999998093E+01 0.  1.
</event>
<event>
 5   0  0.2279938E-08  0.3305309E+04  0.7818609E-02  0.8161546E-01
       -1   -1    0    0    0  501  0.00000000000E+00  0.00000000000E+00  0.24047777929E+04  0.24047777929E+04  0.50400001928E-02 0. -1.
        1   -1    0    0  501    0  0.00000000000E+00  0.00000000000E+00 -0.11357669750E+04  0.11357669750E+04  0.50400001928E-02 0.  1.
    10030    2    1    2    0    0  0.00000000000E+00  0.00000000000E+00  0.12690108179E+04  0.35405447678E+04  0.33053091833E+04 0.  0.
        3    1    3    3  502    0  0.77070987134E+03 -0.41265174866E+03 -0.86780369349E+03  0.12318110375E+04  0.10100000352E+00 0.  1.
       -3    1    3    3    0  502 -0.77070987134E+03  0.41265174866E+03  0.21368145114E+04  0.23087337304E+04  0.10100000352E+00 0. -1.
</event>
<event>
 5   0  0.2279938E-08  0.3306275E+04  0.7818609E-02  0.8161301E-01
       -1   -1    0    0    0  501  0.00000000000E+00  0.00000000000E+00  0.18227625611E+04  0.18227625611E+04  0.50400001928E-02 0.  1.
        1   -1    0    0  501    0  0.00000000000E+00  0.00000000000E+00 -0.14992975465E+04  0.14992975465E+04  0.50400001928E-02 0. -1.
    10030    2    1    2    0    0  0.00000000000E+00  0.00000000000E+00  0.32346501457E+03  0.33220601076E+04  0.33062749043E+04 0.  0.
        3    1    3    3  502    0  0.73994915900E+02  0.37593309945E+02  0.18206678261E+04  0.18225585992E+04  0.10100000352E+00 0.  1.
       -3    1    3    3    0  502 -0.73994915900E+02 -0.37593309945E+02 -0.14972028115E+04  0.14995015083E+04  0.10100000352E+00 0. -1.
</event>
<event>
 5   0  0.6765252E-08  0.3299781E+04  0.7818609E-02  0.8162951E-01
        2   -1    0    0  501    0  0.00000000000E+00  0.00000000000E+00  0.15672285365E+04  0.15672285365E+04  0.25500000920E-02 0. -1.
       -2   -1    0    0    0  501  0.00000000000E+00  0.00000000000E+00 -0.17369127741E+04  0.17369127741E+04  0.25500000920E-02 0.  1.
    10030    2    1    2    0    0  0.00000000000E+00  0.00000000000E+00 -0.16968423758E+03  0.33041413106E+04  0.32997813654E+04 0.  0.
        2    1    3    3  502    0  0.13181898341E+04 -0.91535088148E+03  0.29860979712E+03  0.16323784751E+04  0.25500000920E-02 0. -1.
       -2    1    3    3    0  502 -0.13181898341E+04  0.91535088148E+03 -0.46829403470E+03  0.16717628354E+04  0.25500000920E-02 0.  1.
</event>
<event>
 5   0  0.6765252E-08  0.3301314E+04  0.7818609E-02  0.8162561E-01
       -2   -1    0    0    0  501  0.00000000000E+00  0.00000000000E+00  0.15873143209E+04  0.15873143209E+04  0.25500000920E-02 0.  1.
        2   -1    0    0  501    0  0.00000000000E+00  0.00000000000E+00 -0.17165272305E+04  0.17165272305E+04  0.25500000920E-02 0. -1.
    10030    2    1    2    0    0  0.00000000000E+00  0.00000000000E+00 -0.12921290965E+03  0.33038415514E+04  0.33013138325E+04 0.  0.
        2    1    3    3  502    0  0.11306729914E+04  0.11591089417E+04  0.25612809638E+03  0.16393768798E+04  0.25500000920E-02 0. -1.
       -2    1    3    3    0  502 -0.11306729914E+04 -0.11591089417E+04 -0.38534100603E+03  0.16644646716E+04  0.25500000920E-02 0.  1.
</event>
<event>
 5   0  0.2309822E-08  0.3303016E+04  0.7818609E-02  0.8162129E-01
       -1   -1    0    0    0  501  0.00000000000E+00  0.00000000000E+00  0.15690792021E+04  0.15690792021E+04  0.50400001928E-02 0. -1.
        1   -1    0    0  501    0  0.00000000000E+00  0.00000000000E+00 -0.17382665480E+04  0.17382665480E+04  0.50400001928E-02 0.  1.
    10030    2    1    2    0    0  0.00000000000E+00  0.00000000000E+00 -0.16918734592E+03  0.33073457500E+04  0.33030155241E+04 0.  0.
        4    1    3    3  502    0 -0.44792158088E+03 -0.11203504540E+04  0.10445625797E+04  0.15959108616E+04  0.12699999809E+01 0. -1.
       -4    1    3    3    0  502  0.44792158088E+03  0.11203504540E+04 -0.12137499256E+04  0.17114348884E+04  0.12699999809E+01 0.  1.
</event>
<event>
 5   0  0.6603516E-08  0.3299917E+04  0.7818609E-02  0.8162916E-01
        2   -1    0    0  501    0  0.00000000000E+00  0.00000000000E+00  0.25778329855E+04  0.25778329855E+04  0.25500000920E-02 0. -1.
       -2   -1    0    0    0  501  0.00000000000E+00  0.00000000000E+00 -0.10560665738E+04  0.10560665738E+04  0.25500000920E-02 0.  1.
    10030    2    1    2    0    0  0.00000000000E+00  0.00000000000E+00  0.15217664117E+04  0.36338995593E+04  0.32999171195E+04 0.  0.
        1    1    3    3  502    0  0.52213695235E+03  0.46736415129E+03  0.24058212728E+04  0.25057997214E+04  0.50400001928E-02 0. -1.
       -1    1    3    3    0  502 -0.52213695235E+03 -0.46736415129E+03 -0.88405486111E+03  0.11280998380E+04  0.50400001928E-02 0.  1.
</event>
<event>
 5   0  0.6821287E-08  0.3299494E+04  0.7818609E-02  0.8163024E-01
        2   -1    0    0  501    0  0.00000000000E+00  0.00000000000E+00  0.16974790529E+04  0.16974790529E+04  0.25500000920E-02 0. -1.
       -2   -1    0    0    0  501  0.00000000000E+00  0.00000000000E+00 -0.16033569413E+04  0.16033569413E+04  0.25500000920E-02 0.  1.
    10030    2    1    2    0    0  0.00000000000E+00  0.00000000000E+00  0.94122111574E+02  0.33008359942E+04  0.32994937928E+04 0.  0.
        5    1    3    3  502    0 -0.98784030839E+03  0.72414621422E+03 -0.10585701884E+04  0.16188913331E+04  0.46999998093E+01 0.  1.
       -5    1    3    3    0  502  0.98784030839E+03 -0.72414621422E+03  0.11526923000E+04  0.16819446611E+04  0.46999998093E+01 0. -1.
</event>
<event>
 5   0  0.6821287E-08  0.3300878E+04  0.7818609E-02  0.8162672E-01
        2   -1    0    0  501    0  0.00000000000E+00  0.00000000000E+00  0.21067201756E+04  0.21067201756E+04  0.25500000920E-02 0.  1.
       -2   -1    0    0    0  501  0.00000000000E+00  0.00000000000E+00 -0.12929811776E+04  0.12929811776E+04  0.25500000920E-02 0. -1.
    10030    2    1    2    0    0  0.00000000000E+00  0.00000000000E+00  0.81373899796E+03  0.33997013532E+04  0.33008783883E+04 0.  0.
        5    1    3    3  502    0  0.77101216403E+03  0.44037276129E+03 -0.10260185657E+04  0.13568802869E+04  0.46999998093E+01 0. -1.
       -5    1    3    3    0  502 -0.77101216403E+03 -0.44037276129E+03  0.18397575636E+04  0.20428210663E+04  0.46999998093E+01 0.  1.
</event>
<event>
 5   0  0.6765252E-08  0.3300750E+04  0.7818609E-02  0.8162705E-01
       -2   -1    0    0    0  501  0.00000000000E+00  0.00000000000E+00  0.13623967151E+04  0.13623967151E+04  0.25500000920E-02 0. -1.
        2   -1    0    0  501    0  0.00000000000E+00  0.00000000000E+00 -0.19992249071E+04  0.19992249071E+04  0.25500000920E-02 0.  1.
    10030    2    1    2    0    0  0.00000000000E+00  0.00000000000E+00 -0.63682819204E+03  0.33616216221E+04  0.33007498821E+04 0.  0.
        2    1    3    3  502    0  0.84943889198E+03  0.10960663755E+04 -0.12298082690E+04  0.18534660259E+04  0.25500000920E-02 0.  1.
       -2    1    3    3    0  502 -0.84943889198E+03 -0.10960663755E+04  0.59298007694E+03  0.15081555962E+04  0.25500000920E-02 0. -1.
</event>
<event>
 5   0  0.2383270E-08  0.3302471E+04  0.7818609E-02  0.8162267E-01
        1   -1    0    0  501    0  0.00000000000E+00  0.00000000000E+00  0.27485474641E+04  0.27485474641E+04  0.50400001928E-02 0.  1.
       -1   -1    0    0    0  501  0.00000000000E+00  0.00000000000E+00 -0.99200740182E+03  0.99200740183E+03  0.50400001928E-02 0. -1.
    10030    2    1    2    0    0  0.00000000000E+00  0.00000000000E+00  0.17565400623E+04  0.37405548660E+04  0.33024714556E+04 0.  0.
        5    1    3    3  502    0 -0.14860324003E+03 -0.37703672151E+03  0.26913353363E+04  0.27216810237E+04  0.46999998093E+01 0.  1.
       -5    1    3    3    0  502  0.14860324003E+03  0.37703672151E+03 -0.93479527396E+03  0.10188738423E+04  0.46999998093E+01 0. -1.
</event>
<event>
 5   0  0.7084130E-08  0.3299086E+04  0.7818609E-02  0.8163128E-01
       -2   -1    0    0    0  501  0.00000000000E+00  0.00000000000E+00  0.12903519216E+04  0.12903519216E+04  0.25500000920E-02 0. -1.
        2   -1    0    0  501    0  0.00000000000E+00  0.00000000000E+00 -0.21087211114E+04  0.21087211114E+04  0.25500000920E-02 0.  1.
    10030    2    1    2    0    0  0.00000000000E+00  0.00000000000E+00 -0.81836918985E+03  0.33990730330E+04  0.32990861391E+04 0.  0.
        3    1    3    3  502    0 -0.13522386197E+04  0.86862853361E+03 -0.79182629320E+03  0.17916622736E+04  0.10100000352E+00 0.  1.
       -3    1    3    3    0  502  0.13522386197E+04 -0.86862853361E+03 -0.26542896647E+02  0.16074107594E+04  0.10100000352E+00 0. -1.
</event>
<event>
 5   0  0.2279938E-08  0.3293584E+04  0.7818609E-02  0.8164530E-01
       -1   -1    0    0    0  501  0.00000000000E+00  0.00000000000E+00  0.18437505605E+04  0.18437505606E+04  0.50400001928E-02 0.  1.
        1   -1    0    0  501    0  0.00000000000E+00  0.00000000000E+00 -0.14708733322E+04  0.14708733322E+04  0.50400001928E-02 0. -1.
    10030    2    1    2    0    0  0.00000000000E+00  0.00000000000E+00  0.37287722831E+03  0.33146238928E+04  0.32935837811E+04 0.  0.
        3    1    3    3  502    0  0.61212987105E+03 -0.41074298343E+03  0.16684322213E+04  0.18240281973E+04  0.10100000352E+00 0.  1.
       -3    1    3    3    0  502 -0.61212987105E+03  0.41074298343E+03 -0.12955549929E+04  0.14905956955E+04  0.10100000352E+00 0. -1.
</event>
<event>
 5   0  0.6706080E-08  0.3298688E+04  0.7818609E-02  0.8163229E-01
       -2   -1    0    0    0  501  0.00000000000E+00  0.00000000000E+00  0.11227695201E+04  0.11227695201E+04  0.25500000920E-02 0. -1.
        2   -1    0    0  501    0  0.00000000000E+00  0.00000000000E+00 -0.24228793930E+04  0.24228793930E+04  0.25500000920E-02 0.  1.
    10030    2    1    2    0    0  0.00000000000E+00  0.00000000000E+00 -0.13001098729E+04  0.35456489131E+04  0.32986876987E+04 0.  0.
        4    1    3    3  502    0  0.15852266593E+04 -0.74838548448E+02 -0.16721472055E+03  0.15957777869E+04  0.12699999809E+01 0. -1.
       -4    1    3    3    0  502 -0.15852266593E+04  0.74838548448E+02 -0.11328951523E+04  0.19498711262E+04  0.12699999809E+01 0.  1.
</event>
<event>
 5   0  0.2291682E-08  0.3302310E+04  0.7818609E-02  0.8162308E-01
       -1   -1    0    0    0  501  0.00000000000E+00  0.00000000000E+00  0.11361262094E+04  0.11361262094E+04  0.50400001928E-02 0.  1.
        1   -1    0    0  501    0  0.00000000000E+00  0.00000000000E+00 -0.23996569865E+04  0.23996569865E+04  0.50400001928E-02 0. -1.
    10030    2    1    2    0    0  0.00000000000E+00  0.00000000000E+00 -0.12635307771E+04  0.35357831960E+04  0.33023102193E+04 0.  0.
        2    1    3    3  502    0 -0.35884628381E+01 -0.11425417783E+04 -0.19080552013E+04  0.22239804953E+04  0.25500000920E-02 0. -1.
       -2    1    3    3    0  502  0.35884628381E+01  0.11425417783E+04  0.64452442417E+03  0.13118027007E+04  0.25500000920E-02 0.  1.
</event>
<event>
 5   0  0.2244093E-08  0.3294492E+04  0.7818609E-02  0.8164298E-01
        1   -1    0    0  501    0  0.00000000000E+00  0.00000000000E+00  0.23339613544E+04  0.23339613544E+04  0.50400001928E-02 0. -1.
       -1   -1    0    0    0  501  0.00000000000E+00  0.00000000000E+00 -0.11625808276E+04  0.11625808276E+04  0.50400001928E-02 0.  1.
    10030    2    1    2    0    0  0.00000000000E+00  0.00000000000E+00  0.11713805268E+04  0.34965421820E+04  0.32944915984E+04 0.  0.
        1    1    3    3  502    0  0.12178617487E+04  0.18439648972E+03  0.17464908180E+04  0.21371521896E+04  0.50400001928E-02 0. -1.
       -1    1    3    3    0  502 -0.12178617487E+04 -0.18439648972E+03 -0.57511029120E+03  0.13593899924E+04  0.50400001928E-02 0.  1.
</event>
<event>
 5   0  0.6821287E-08  0.3300252E+04  0.7818609E-02  0.8162831E-01
        2   -1    0    0  501    0  0.00000000000E+00  0.00000000000E+00  0.15870175804E+04  0.15870175804E+04  0.25500000920E-02 0.  1.
       -2   -1    0    0    0  501  0.00000000000E+00  0.00000000000E+00 -0.17157442237E+04  0.17157442237E+04  0.25500000920E-02 0. -1.
    10030    2    1    2    0    0  0.00000000000E+00  0.00000000000E+00 -0.12872664327E+03  0.33027618041E+04  0.33002522609E+04 0.  0.
        5    1    3    3  502    0  0.12300669222E+04  0.11286981833E+03  0.10305847030E+04  0.16087048048E+04  0.46999998093E+01 0.  1.
       -5    1    3    3    0  502 -0.12300669222E+04 -0.11286981833E+03 -0.11593113463E+04  0.16940569992E+04  0.46999998093E+01 0. -1.
</event>
<event>
 5   0  0.2383270E-08  0.3302154E+04  0.7818609E-02  0.8162347E-01
       -1   -1    0    0    0  501  0.00000000000E+00  0.00000000000E+00  0.14935841519E+04  0.14935841519E+04  0.50400001928E-02 0.  1.
        1   -1    0    0  501    0  0.00000000000E+00  0.00000000000E+00 -0.18251772548E+04  0.18251772548E+04  0.50400001928E-02 0. -1.
    10030    2    1    2    0    0  0.00000000000E+00  0.00000000000E+00 -0.33159310285E+03  0.33187614067E+04  0.33021543406E+04 0.  0.
        5    1    3    3  502    0 -0.68217835223E+03 -0.77453098651E+03 -0.14609856207E+04  0.17887891512E+04  0.46999998093E+01 0. -1.
       -5    1    3    3    0  502  0.68217835223E+03  0.77453098651E+03  0.11293925179E+04  0.15299722556E+04  0.46999998093E+01 0.  1.
</event>
<event>
 5   0  0.7084130E-08  0.3294961E+04  0.7818609E-02  0.8164179E-01
        2   -1    0    0  501    0  0.00000000000E+00  0.00000000000E+00  0.16175377188E+04  0.16175377188E+04  0.25500000920E-02 0.  1.
       -2   -1    0    0    0  501  0.00000000000E+00  0.00000000000E+00 -0.16779774888E+04  0.16779774888E+04  0.25500000920E-02 0. -1.
    10030    2    1    2    0    0  0.00000000000E+00  0.00000000000E+00 -0.60439770066E+02  0.32955152076E+04  0.32949609281E+04 0.  0.
        3    1    3    3  502    0  0.81708501863E+02  0.22997247157E+03 -0.16597969628E+04  0.16776440579E+04  0.10100000352E+00 0. -1.
       -3    1    3    3    0  502 -0.81708501863E+02 -0.22997247157E+03  0.15993571928E+04  0.16178711497E+04  0.10100000352E+00 0.  1.
</event>
<event>
 5   0  0.6603516E-08  0.3300844E+04  0.7818609E-02  0.8162681E-01
       -2   -1    0    0    0  501  0.00000000000E+00  0.00000000000E+00  0.17486669010E+04  0.17486669010E+04  0.25500000920E-02 0. -1.
        2   -1    0    0  501    0  0.00000000000E+00  0.00000000000E+00 -0.15576969017E+04  0.15576969017E+04  0.25500000920E-02 0.  1.
    10030    2    1    2    0    0  0.00000000000E+00  0.00000000000E+00  0.19096999931E+03  0.33063638027E+04  0.33008441428E+04 0.  0.
        1    1    3    3  502    0 -0.80428725488E+03  0.25297894093E+03 -0.13256957167E+04  0.15710968990E+04  0.50400001928E-02 0.  1.
       -1    1    3    3    0  502  0.80428725488E+03 -0.25297894093E+03  0.15166657160E+04  0.17352669037E+04  0.50400001928E-02 0. -1.
</event>
<event>
 5   0  0.2291682E-08  0.3300591E+04  0.7818609E-02  0.8162745E-01
        1   -1    0    0  501    0  0.00000000000E+00  0.00000000000E+00  0.18743628046E+04  0.18743628046E+04  0.50400001928E-02 0.  1.
       -1   -1    0    0    0  501  0.00000000000E+00  0.00000000000E+00 -0.14530137469E+04  0.14530137470E+04  0.50400001928E-02 0. -1.
    10030    2    1    2    0    0  0.00000000000E+00  0.00000000000E+00  0.42134905766E+03  0.33273765516E+04  0.33005908089E+04 0.  0.
        2    1    3    3  502    0  0.76503773738E+03  0.14620370284E+04  0.18517279914E+03  0.16604589660E+04  0.25500000920E-02 0. -1.
       -2    1    3    3    0  502 -0.76503773738E+03 -0.14620370284E+04  0.23617625852E+03  0.16669175856E+04  0.25500000920E-02 0.  1.
</event>
<event>
 5   0  0.2291682E-08  0.3306181E+04  0.7818609E-02  0.8161324E-01
       -1   -1    0    0    0  501  0.00000000000E+00  0.00000000000E+00  0.12795335534E+04  0.12795335535E+04  0.50400001928E-02 0.  1.
        1   -1    0    0  501    0  0.00000000000E+00  0.00000000000E+00 -0.21357063146E+04  0.21357063146E+04  0.50400001928E-02 0. -1.
    10030    2    1    2    0    0  0.00000000000E+00  0.00000000000E+00 -0.85617276118E+03  0.34152398681E+04  0.33061808117E+04 0.  0.
        2    1    3    3  502    0 -0.10627974006E+04  0.12092578338E+04 -0.81578679320E+03  0.18048132632E+04  0.25500000920E-02 0.  1.
       -2    1    3    3    0  502  0.10627974006E+04 -0.12092578338E+04 -0.40385967975E+02  0.16104266049E+04  0.25500000920E-02 0. -1.
</event>
<event>
 5   0  0.7084130E-08  0.3301758E+04  0.7818609E-02  0.8162448E-01
        2   -1    0    0  501    0  0.00000000000E+00  0.00000000000E+00  0.10618266648E+04  0.10618266648E+04  0.25500000920E-02 0.  1.
       -2   -1    0    0    0  501  0.00000000000E+00  0.00000000000E+00 -0.25667100768E+04  0.25667100768E+04  0.25500000920E-02 0. -1.
    10030    2    1    2    0    0  0.00000000000E+00  0.00000000000E+00 -0.15048834120E+04  0.36285367416E+04  0.33017578351E+04 0.  0.
        3    1    3    3  502    0  0.94517956509E+03  0.62299752505E+03 -0.20729967241E+04  0.23619495665E+04  0.10100000352E+00 0. -1.
       -3    1    3    3    0  502 -0.94517956509E+03 -0.62299752505E+03  0.56811331209E+03  0.12665871751E+04  0.10100000352E+00 0.  1.
</event>
<event>
 5   0  0.7084130E-08  0.3299956E+04  0.7818609E-02  0.8162907E-01
        2   -1    0    0  501    0  0.00000000000E+00  0.00000000000E+00  0.28932759768E+04  0.28932759768E+04  0.25500000920E-02 0.  1.
       -2   -1    0    0    0  501  0.00000000000E+00  0.00000000000E+00 -0.94094953542E+03  0.94094953543E+03  0.25500000920E-02 0. -1.
    10030    2    1    2    0    0  0.00000000000E+00  0.00000000000E+00  0.19523264414E+04  0.38342255122E+04  0.32999555671E+04 0.  0.
        3    1    3    3  502    0 -0.12848614596E+04  0.10037753335E+04  0.12700872331E+04  0.20667741726E+04  0.10100000352E+00 0.  1.
       -3    1    3    3    0  502  0.12848614596E+04 -0.10037753335E+04  0.68223920823E+03  0.17674513396E+04  0.10100000352E+00 0. -1.
</event>
<event>
 5   0  0.2309822E-08  0.3299180E+04  0.7818609E-02  0.8163104E-01
       -1   -1    0    0    0  501  0.00000000000E+00  0.00000000000E+00  0.18122321589E+04  0.18122321589E+04  0.50400001928E-02 0.  1.
        1   -1    0    0  501    0  0.00000000000E+00  0.00000000000E+00 -0.15015445222E+04  0.15015445222E+04  0.50400001928E-02 0. -1.
    10030    2    1    2    0    0  0.00000000000E+00  0.00000000000E+00  0.31068763663E+03  0.33137766811E+04  0.32991800625E+04 0.  0.
        4    1    3    3  502    0  0.29852890302E+03  0.93856962512E+03  0.14844948438E+04  0.17815047014E+04  0.12699999809E+01 0.  1.
       -4    1    3    3    0  502 -0.29852890302E+03 -0.93856962512E+03 -0.11738072072E+04  0.15322719797E+04  0.12699999809E+01 0. -1.
</event>
<event>
 5   0  0.2309822E-08  0.3299894E+04  0.7818609E-02  0.8162922E-01
        1   -1    0    0  501    0  0.00000000000E+00  0.00000000000E+00  0.14029343188E+04  0.14029343188E+04  0.50400001928E-02 0. -1.
       -1   -1    0    0    0  501  0.00000000000E+00  0.00000000000E+00 -0.19404506999E+04  0.19404506999E+04  0.50400001928E-02 0.  1.
    10030    2    1    2    0    0  0.00000000000E+00  0.00000000000E+00 -0.53751638106E+03  0.33433850187E+04  0.32998938654E+04 0.  0.
        4    1    3    3  502    0  0.14209303612E+04 -0.14893230413E+03  0.56740616758E+03  0.15372622725E+04  0.12699999809E+01 0. -1.
       -4    1    3    3    0  502 -0.14209303612E+04  0.14893230413E+03 -0.11049225486E+04  0.18061227461E+04  0.12699999809E+01 0.  1.
</event>
<event>
 5   0  0.2244093E-08  0.3294994E+04  0.7818609E-02  0.8164170E-01
       -1   -1    0    0    0  501  0.00000000000E+00  0.00000000000E+00  0.11241986875E+04  0.11241986875E+04  0.50400001928E-02 0.  1.
        1   -1    0    0  501    0  0.00000000000E+00  0.00000000000E+00 -0.24143828712E+04  0.24143828712E+04  0.50400001928E-02 0. -1.
    10030    2    1    2    0    0  0.00000000000E+00  0.00000000000E+00 -0.12901841837E+04  0.35385815587E+04  0.32949938117E+04 0.  0.
        1    1    3    3  502    0 -0.86427136194E+03  0.11993357852E+04 -0.14260920666E+04  0.20540471989E+04  0.50400001928E-02 0. -1.
       -1    1    3    3    0  502  0.86427136194E+03 -0.11993357852E+04  0.13590788284E+03  0.14845343598E+04  0.50400001928E-02 0.  1.
</event>
<event>
 5   0  0.2244093E-08  0.3301725E+04  0.7818609E-02  0.8162457E-01
       -1   -1    0    0    0  501  0.00000000000E+00  0.00000000000E+00  0.12082342864E+04  0.12082342864E+04  0.50400001928E-02 0.  1.
        1   -1    0    0  501    0  0.00000000000E+00  0.00000000000E+00 -0.22556447332E+04  0.22556447332E+04  0.50400001928E-02 0. -1.
    10030    2    1    2    0    0  0.00000000000E+00  0.00000000000E+00 -0.10474104467E+04  0.34638790196E+04  0.33017251882E+04 0.  0.
        1    1    3    3  502    0  0.43037289405E+03 -0.14283458798E+04  0.21809514357E+03  0.15076333347E+04  0.50400001928E-02 0.  1.
       -1    1    3    3    0  502 -0.43037289405E+03  0.14283458798E+04 -0.12655055903E+04  0.19562456849E+04  0.50400001928E-02 0. -1.
</event>
<event>
 5   0  0.2291682E-08  0.3298689E+04  0.7818609E-02  0.8163229E-01
        1   -1    0    0  501    0  0.00000000000E+00  0.00000000000E+00  0.30215657585E+04  0.30215657585E+04  0.50400001928E-02 0. -1.
       -1   -1    0    0    0  501  0.00000000000E+00  0.00000000000E+00 -0.90030690366E+03  0.90030690367E+03  0.50400001928E-02 0.  1.
    10030    2    1    2    0    0  0.00000000000E+00  0.00000000000E+00  0.21212588549E+04  0.39218726622E+04  0.32986885347E+04 0.  0.
        2    1    3    3  502    0  0.53945943280E+03  0.14456710159E+04  0.36803415070E+03  0.15863260390E+04  0.25500000920E-02 0.  1.
       -2    1    3    3    0  502 -0.53945943280E+03 -0.14456710159E+04  0.17532247042E+04  0.23355466232E+04  0.25500000920E-02 0. -1.
</event>
<event>
 5   0  0.2383270E-08  0.3301483E+04  0.7818609E-02  0.8162518E-01
        1   -1    0    0  501    0  0.00000000000E+00  0.00000000000E+00  0.21572839032E+04  0.21572839032E+04  0.50400001928E-02 0. -1.
       -1   -1    0    0    0  501  0.00000000000E+00  0.00000000000E+00 -0.12631382913E+04  0.12631382913E+04  0.50400001928E-02 0.  1.
    10030    2    1    2    0    0  0.00000000000E+00  0.00000000000E+00  0.89414561190E+03  0.34204221945E+04  0.33014832444E+04 0.  0.
        5    1    3    3  502    0 -0.40007174097E+03 -0.12017033556E+04 -0.64973444409E+03  0.14234905306E+04  0.46999998093E+01 0.  1.
       -5    1    3    3    0  502  0.40007174097E+03  0.12017033556E+04  0.15438800560E+04  0.19969316639E+04  0.46999998093E+01 0. -1.
</event>
<event>
 5   0  0.2291682E-08  0.3299559E+04  0.7818609E-02  0.8163008E-01
        1   -1    0    0  501    0  0.00000000000E+00  0.00000000000E+00  0.18241120388E+04  0.18241120388E+04  0.50400001928E-02 0. -1.
       -1   -1    0    0    0  501  0.00000000000E+00  0.00000000000E+00 -0.14921080581E+04  0.14921080581E+04  0.50400001928E-02 0.  1.
    10030    2    1    2    0    0  0.00000000000E+00  0.00000000000E+00  0.33200398071E+03  0.33162200970E+04  0.32995589233E+04 0.  0.
        2    1    3    3  502    0  0.10590544797E+04  0.89421098166E+03 -0.73325766079E+03  0.15680805043E+04  0.25500000920E-02 0.  1.
       -2    1    3    3    0  502 -0.10590544797E+04 -0.89421098166E+03  0.10652616415E+04  0.17481395927E+04  0.25500000920E-02 0. -1.
</event>
<event>
 5   0  0.6603516E-08  0.3301678E+04  0.7818609E-02  0.8162469E-01
       -2   -1    0    0    0  501  0.00000000000E+00  0.00000000000E+00  0.11925907966E+04  0.11925907966E+04  0.25500000920E-02 0.  1.
        2   -1    0    0  501    0  0.00000000000E+00  0.00000000000E+00 -0.22851668646E+04  0.22851668646E+04  0.25500000920E-02 0. -1.
    10030    2    1    2    0    0  0.00000000000E+00  0.00000000000E+00 -0.10925760680E+04  0.34777576612E+04  0.33016777381E+04 0.  0.
        1    1    3    3  502    0 -0.85942703251E+03  0.13394031661E+04 -0.83957190392E+02  0.15936324781E+04  0.50400001928E-02 0. -1.
       -1    1    3    3    0  502  0.85942703251E+03 -0.13394031661E+04 -0.10086188776E+04  0.18841251831E+04  0.50400001928E-02 0.  1.
</event>
<event>
 5   0  0.6603516E-08  0.3305660E+04  0.7818609E-02  0.8161457E-01
        2   -1    0    0  501    0  0.00000000000E+00  0.00000000000E+00  0.17896336747E+04  0.17896336747E+04  0.25500000920E-02 0. -1.
       -2   -1    0    0    0  501  0.00000000000E+00  0.00000000000E+00 -0.15264841385E+04  0.15264841385E+04  0.25500000920E-02 0.  1.
    10030    2    1    2    0    0  0.00000000000E+00  0.00000000000E+00  0.26314953620E+03  0.33161178133E+04  0.33056602477E+04 0.  0.
        1    1    3    3  502    0  0.76804722973E+02  0.10639329929E+04  0.13981040035E+04  0.17585639549E+04  0.50400001928E-02 0. -1.
       -1    1    3    3    0  502 -0.76804722973E+02 -0.10639329929E+04 -0.11349544673E+04  0.15575538584E+04  0.50400001928E-02 0.  1.
</event>
<event>
 5   0  0.6765252E-08  0.3299751E+04  0.7818609E-02  0.8162959E-01
        2   -1    0    0  501    0  0.00000000000E+00  0.00000000000E+00  0.12602619954E+04  0.12602619954E+04  0.25500000920E-02 0.  1.
       -2   -1    0    0    0  501  0.00000000000E+00  0.00000000000E+00 -0.21599393453E+04  0.21599393453E+04  0.25500000920E-02 0. -1.
    10030    2    1    2    0    0  0.00000000000E+00  0.00000000000E+00 -0.89967734991E+03  0.34202013407E+04  0.32997511841E+04 0.  0.
        2    1    3    3  502    0  0.77857491409E+03 -0.78990346413E+03 -0.17158847730E+04  0.20431316486E+04  0.25500000920E-02 0. -1.
       -2    1    3    3    0  502 -0.77857491409E+03  0.78990346413E+03  0.81620742306E+03  0.13770696921E+04  0.25500000920E-02 0.  1.
</event>
<event>
 5   0  0.2309822E-08  0.3299842E+04  0.7818609E-02  0.8162936E-01
        1   -1    0    0  501    0  0.00000000000E+00  0.00000000000E+00  0.19857720586E+04  0.19857720586E+04  0.50400001928E-02 0. -1.
       -1   -1    0    0    0  501  0.00000000000E+00  0.00000000000E+00 -0.13708720953E+04  0.13708720953E+04  0.50400001928E-02 0.  1.
    10030    2    1    2    0    0  0.00000000000E+00  0.00000000000E+00  0.61489996325E+03  0.33566441539E+04  0.32998421191E+04 0.  0.
        4    1    3    3  502    0 -0.84683616510E+03  0.55430109075E+03  0.16328978710E+04  0.19211294230E+04  0.12699999809E+01 0. -1.
       -4    1    3    3    0  502  0.84683616510E+03 -0.55430109075E+03 -0.10179979078E+04  0.14355147310E+04  0.12699999809E+01 0.  1.
</event>
<event>
 5   0  0.2309822E-08  0.3321890E+04  0.7818609E-02  0.8157348E-01
       -1   -1    0    0    0  501  0.00000000000E+00  0.00000000000E+00  0.21268430216E+04  0.21268430216E+04  0.50400001928E-02 0. -1.
        1   -1    0    0  501    0  0.00000000000E+00  0.00000000000E+00 -0.12971046365E+04  0.12971046365E+04  0.50400001928E-02 0.  1.
    10030    2    1    2    0    0  0.00000000000E+00  0.00000000000E+00  0.82973838509E+03  0.34239476581E+04  0.33218897901E+04 0.  0.
        4    1    3    3  502    0 -0.11610128554E+04  0.79156812207E+03 -0.49789124626E+03  0.14907810866E+04  0.12699999809E+01 0. -1.
       -4    1    3    3    0  502  0.11610128554E+04 -0.79156812207E+03  0.13276296314E+04  0.19331665715E+04  0.12699999809E+01 0.  1.
</event>
<event>
 5   0  0.2244093E-08  0.3299750E+04  0.7818609E-02  0.8162959E-01
       -1   -1    0    0    0  501  0.00000000000E+00  0.00000000000E+00  0.14880019609E+04  0.14880019609E+04  0.50400001928E-02 0.  1.
        1   -1    0    0  501    0  0.00000000000E+00  0.00000000000E+00 -0.18293579849E+04  0.18293579849E+04  0.50400001928E-02 0. -1.
    10030    2    1    2    0    0  0.00000000000E+00  0.00000000000E+00 -0.34135602396E+03  0.33173599458E+04  0.32997504565E+04 0.  0.
        1    1    3    3  502    0  0.13840445185E+04 -0.59612094940E+03  0.50458261541E+03  0.15891957183E+04  0.50400001928E-02 0.  1.
       -1    1    3    3    0  502 -0.13840445185E+04  0.59612094940E+03 -0.84593863937E+03  0.17281642274E+04  0.50400001928E-02 0. -1.
</event>
<event>
 5   0  0.2291682E-08  0.3304401E+04  0.7818609E-02  0.8161777E-01
       -1   -1    0    0    0  501  0.00000000000E+00  0.00000000000E+00  0.11072952859E+04  0.11072952859E+04  0.50400001928E-02 0.  1.
        1   -1    0    0  501    0  0.00000000000E+00  0.00000000000E+00 -0.24652557086E+04  0.24652557086E+04  0.50400001928E-02 0. -1.
    10030    2    1    2    0    0  0.00000000000E+00  0.00000000000E+00 -0.13579604227E+04  0.35725509946E+04  0.33044007171E+04 0.  0.
        2    1    3    3  502    0  0.98764601485E+03 -0.11848618206E+03  0.74726957631E+03  0.12441444633E+04  0.25500000920E-02 0.  1.
       -2    1    3    3    0  502 -0.98764601485E+03  0.11848618206E+03 -0.21052299990E+04  0.23284065312E+04  0.25500000920E-02 0. -1.
</event>
<event>
 5   0  0.2291682E-08  0.3305097E+04  0.7818609E-02  0.8161600E-01
        1   -1    0    0  501    0  0.00000000000E+00  0.00000000000E+00  0.21114487084E+04  0.21114487084E+04  0.50400001928E-02 0.  1.
       -1   -1    0    0    0  501  0.00000000000E+00  0.00000000000E+00 -0.12933853351E+04  0.12933853351E+04  0.50400001928E-02 0. -1.
    10030    2    1    2    0    0  0.00000000000E+00  0.00000000000E+00  0.81806337329E+03  0.34048340435E+04  0.33050971516E+04 0.  0.
        2    1    3    3  502    0 -0.41352164224E+03  0.13300128007E+04  0.13252420142E+04  0.19225505442E+04  0.25500000920E-02 0.  1.
       -2    1    3    3    0  502  0.41352164224E+03 -0.13300128007E+04 -0.50717864094E+03  0.14822834994E+04  0.25500000920E-02 0. -1.
</event>
<event>
 5   0  0.7084130E-08  0.3300478E+04  0.7818609E-02  0.8162774E-01
       -2   -1    0    0    0  501  0.00000000000E+00  0.00000000000E+00  0.11514914016E+04  0.11514914016E+04  0.25500000920E-02 0. -1.
        2   -1    0    0  501    0  0.00000000000E+00  0.00000000000E+00 -0.23650095462E+04  0.23650095462E+04  0.25500000920E-02 0.  1.
    10030    2    1    2    0    0  0.00000000000E+00  0.00000000000E+00 -0.12135181446E+04  0.35165009478E+04  0.33004776364E+04 0.  0.
        3    1    3    3  502    0 -0.15013514299E+04 -0.67099577053E+03 -0.45990935838E+03  0.17075737373E+04  0.10100000352E+00 0. -1.
       -3    1    3    3    0  502  0.15013514299E+04  0.67099577053E+03 -0.75360878621E+03  0.18089272105E+04  0.10100000352E+00 0.  1.
</event>
<event>
 5   0  0.6603516E-08  0.3300116E+04  0.7818609E-02  0.8162866E-01
        2   -1    0    0  501    0  0.00000000000E+00  0.00000000000E+00  0.12396383684E+04  0.12396383684E+04  0.25500000920E-02 0.  1.
       -2   -1    0    0    0  501  0.00000000000E+00  0.00000000000E+00 -0.21963590114E+04  0.21963590114E+04  0.25500000920E-02 0. -1.
    10030    2    1    2    0    0  0.00000000000E+00  0.00000000000E+00 -0.95672064295E+03  0.34359973798E+04  0.33001156958E+04 0.  0.
        1    1    3    3  502    0  0.60499183940E+03  0.68523636215E+03  0.95193003791E+03  0.13197480043E+04  0.50400001928E-02 0.  1.
       -1    1    3    3    0  502 -0.60499183940E+03 -0.68523636215E+03 -0.19086506809E+04  0.21162493755E+04  0.50400001928E-02 0. -1.
</event>
<event>
 5   0  0.7084130E-08  0.3299660E+04  0.7818609E-02  0.8162982E-01
       -2   -1    0    0    0  501  0.00000000000E+00  0.00000000000E+00  0.10792681864E+04  0.10792681865E+04  0.25500000920E-02 0.  1.
        2   -1    0    0  501    0  0.00000000000E+00  0.00000000000E+00 -0.25220223038E+04  0.25220223038E+04  0.25500000920E-02 0. -1.
    10030    2    1    2    0    0  0.00000000000E+00  0.00000000000E+00 -0.14427541174E+04  0.36012904903E+04  0.32996596419E+04 0.  0.
        3    1    3    3  502    0 -0.33523882990E+03  0.15233013195E+04 -0.13453950791E+03  0.15655455510E+04  0.10100000352E+00 0.  1.
       -3    1    3    3    0  502  0.33523882990E+03 -0.15233013195E+04 -0.13082146095E+04  0.20357449392E+04  0.10100000352E+00 0. -1.
</event>
<event>
 5   0  0.2244093E-08  0.3297841E+04  0.7818609E-02  0.8163445E-01
        1   -1    0    0  501    0  0.00000000000E+00  0.00000000000E+00  0.19579030878E+04  0.19579030878E+04  0.50400001928E-02 0.  1.
       -1   -1    0    0    0  501  0.00000000000E+00  0.00000000000E+00 -0.13886994897E+04  0.13886994897E+04  0.50400001928E-02 0. -1.
    10030    2    1    2    0    0  0.00000000000E+00  0.00000000000E+00  0.56920359806E+03  0.33466025775E+04  0.32978411234E+04 0.  0.
        1    1    3    3  502    0 -0.27753041283E+03 -0.56098472746E+03  0.18326781920E+04  0.19366043349E+04  0.50400001928E-02 0.  1.
       -1    1    3    3    0  502  0.27753041283E+03  0.56098472746E+03 -0.12634745939E+04  0.14099982426E+04  0.50400001928E-02 0. -1.
</event>
<event>
 5   0  0.6765252E-08  0.3301602E+04  0.7818609E-02  0.8162488E-01
        2   -1    0    0  501    0  0.00000000000E+00  0.00000000000E+00  0.30631627069E+04  0.30631627069E+04  0.25500000920E-02 0.  1.
       -2   -1    0    0    0  501  0.00000000000E+00  0.00000000000E+00 -0.88965064883E+03  0.88965064884E+03  0.25500000920E-02 0. -1.
    10030    2    1    2    0    0  0.00000000000E+00  0.00000000000E+00  0.21735120581E+04  0.39528133557E+04  0.33016024532E+04 0.  0.
        2    1    3    3  502    0 -0.14297883540E+03  0.25157730270E+03  0.30325618046E+04  0.30463363546E+04  0.25500000920E-02 0.  1.
       -2    1    3    3    0  502  0.14297883540E+03 -0.25157730270E+03 -0.85904974652E+03  0.90647700115E+03  0.25500000920E-02 0. -1.
</event>
<event>
 5   0  0.6765252E-08  0.3304434E+04  0.7818609E-02  0.8161768E-01
        2   -1    0    0  501    0  0.00000000000E+00  0.00000000000E+00  0.19188757502E+04  0.19188757502E+04  0.25500000920E-02 0. -1.
       -2   -1    0    0    0  501  0.00000000000E+00  0.00000000000E+00 -0.14226144199E+04  0.14226144199E+04  0.25500000920E-02 0.  1.
    10030    2    1    2    0    0  0.00000000000E+00  0.00000000000E+00  0.49626133027E+03  0.33414901701E+04  0.33044335747E+04 0.  0.
        2    1    3    3  502    0 -0.13108101538E+04  0.89403282527E+03 -0.21779922601E+03  0.16015475188E+04  0.25500000920E-02 0.  1.
       -2    1    3    3    0  502  0.13108101538E+04 -0.89403282527E+03  0.71406055627E+03  0.17399426514E+04  0.25500000920E-02 0. -1.
</event>
<event>
 5   0  0.2244093E-08  0.3299363E+04  0.7818609E-02  0.8163057E-01
        1   -1    0    0  501    0  0.00000000000E+00  0.00000000000E+00  0.11196970428E+04  0.11196970428E+04  0.50400001928E-02 0. -1.
       -1   -1    0    0    0  501  0.00000000000E+00  0.00000000000E+00 -0.24305226296E+04  0.24305226296E+04  0.50400001928E-02 0.  1.
    10030    2    1    2    0    0  0.00000000000E+00  0.00000000000E+00 -0.13108255868E+04  0.35502196724E+04  0.32993629693E+04 0.  0.
        1    1    3    3  502    0  0.26990898050E+03  0.62320899329E+03  0.96229247902E+03  0.11778145534E+04  0.50400001928E-02 0. -1.
       -1    1    3    3    0  502 -0.26990898050E+03 -0.62320899329E+03 -0.22731180658E+04  0.23724051189E+04  0.50400001928E-02 0.  1.
</event>
<event>
 5   0  0.2309822E-08  0.3299269E+04  0.7818609E-02  0.8163081E-01
       -1   -1    0    0    0  501  0.00000000000E+00  0.00000000000E+00  0.18365280469E+04  0.18365280469E+04  0.50400001928E-02 0.  1.
        1   -1    0    0  501    0  0.00000000000E+00  0.00000000000E+00 -0.14817599368E+04  0.14817599368E+04  0.50400001928E-02 0. -1.
    10030    2    1    2    0    0  0.00000000000E+00  0.00000000000E+00  0.35476811016E+03  0.33182879837E+04  0.32992688176E+04 0.  0.
        4    1    3    3  502    0  0.64987932215E+03  0.12487190393E+04  0.10423707233E+04  0.17516223081E+04  0.12699999809E+01 0.  1.
       -4    1    3    3    0  502 -0.64987932215E+03 -0.12487190393E+04 -0.68760261311E+03  0.15666656756E+04  0.12699999809E+01 0. -1.
</event>
<event>
 5   0  0.2383270E-08  0.3300951E+04  0.7818609E-02  0.8162653E-01
       -1   -1    0    0    0  501  0.00000000000E+00  0.00000000000E+00  0.14966000377E+04  0.14966000377E+04  0.50400001928E-02 0. -1.
        1   -1    0    0  501    0  0.00000000000E+00  0.00000000000E+00 -0.18201718485E+04  0.18201718485E+04  0.50400001928E-02 0.  1.
    10030    2    1    2    0    0  0.00000000000E+00  0.00000000000E+00 -0.32357181079E+03  0.33167718863E+04  0.33009509280E+04 0.  0.
        5    1    3    3  502    0 -0.52372122718E+03  0.10437397999E+04 -0.13337252480E+04  0.17727159448E+04  0.46999998093E+01 0.  1.
       -5    1    3    3    0  502  0.52372122718E+03 -0.10437397999E+04  0.10101534372E+04  0.15440559415E+04  0.46999998093E+01 0. -1.
</event>
<event>
 5   0  0.6706080E-08  0.3300625E+04  0.7818609E-02  0.8162736E-01
        2   -1    0    0  501    0  0.00000000000E+00  0.00000000000E+00  0.22971888554E+04  0.22971888554E+04  0.25500000920E-02 0.  1.
       -2   -1    0    0    0  501  0.00000000000E+00  0.00000000000E+00 -0.11855931194E+04  0.11855931194E+04  0.25500000920E-02 0. -1.
    10030    2    1    2    0    0  0.00000000000E+00  0.00000000000E+00  0.11115957360E+04  0.34827819748E+04  0.33006249717E+04 0.  0.
        4    1    3    3  502    0  0.48194411389E+03 -0.10674372385E+04  0.17826502764E+04  0.21329641366E+04  0.12699999809E+01 0.  1.
       -4    1    3    3    0  502 -0.48194411389E+03  0.10674372385E+04 -0.67105454047E+03  0.13498178382E+04  0.12699999809E+01 0. -1.
</event>
<event>
 5   0  0.2383270E-08  0.3298540E+04  0.7818609E-02  0.8163267E-01
       -1   -1    0    0    0  501  0.00000000000E+00  0.00000000000E+00  0.15011441659E+04  0.15011441659E+04  0.50400001928E-02 0.  1.
        1   -1    0    0  501    0  0.00000000000E+00  0.00000000000E+00 -0.18120127369E+04  0.18120127369E+04  0.50400001928E-02 0. -1.
    10030    2    1    2    0    0  0.00000000000E+00  0.00000000000E+00 -0.31086857099E+03  0.33131569028E+04  0.32985404945E+04 0.  0.
        5    1    3    3  502    0  0.45276690094E+03 -0.12779071842E+04  0.78788949669E+03  0.15680677878E+04  0.46999998093E+01 0.  1.
       -5    1    3    3    0  502 -0.45276690094E+03  0.12779071842E+04 -0.10987580677E+04  0.17450891150E+04  0.46999998093E+01 0. -1.
</event>
<event>
 5   0  0.6603516E-08  0.3301246E+04  0.7818609E-02  0.8162578E-01
       -2   -1    0    0    0  501  0.00000000000E+00  0.00000000000E+00  0.12488567605E+04  0.12488567605E+04  0.25500000920E-02 0. -1.
        2   -1    0    0  501    0  0.00000000000E+00  0.00000000000E+00 -0.21816402166E+04  0.21816402166E+04  0.25500000920E-02 0.  1.
    10030    2    1    2    0    0  0.00000000000E+00  0.00000000000E+00 -0.93278345611E+03  0.34304969771E+04  0.33012459063E+04 0.  0.
        1    1    3    3  502    0 -0.13199366192E+04  0.74281095415E+03 -0.11482492815E+04  0.19006517842E+04  0.50400001928E-02 0.  1.
       -1    1    3    3    0  502  0.13199366192E+04 -0.74281095415E+03  0.21546582534E+03  0.15298451929E+04  0.50400001928E-02 0. -1.
</event>
<event>
 5   0  0.2383270E-08  0.3298962E+04  0.7818609E-02  0.8163160E-01
        1   -1    0    0  501    0  0.00000000000E+00  0.00000000000E+00  0.16291439877E+04  0.16291439877E+04  0.50400001928E-02 0. -1.
       -1   -1    0    0    0  501  0.00000000000E+00  0.00000000000E+00 -0.16700719705E+04  0.16700719705E+04  0.50400001928E-02 0.  1.
    10030    2    1    2    0    0  0.00000000000E+00  0.00000000000E+00 -0.40927982765E+02  0.32992159582E+04  0.32989620851E+04 0.  0.
        5    1    3    3  502    0 -0.10565204980E+03 -0.14677334895E+04  0.72481927515E+03  0.16403624671E+04  0.46999998093E+01 0. -1.
       -5    1    3    3    0  502  0.10565204980E+03  0.14677334895E+04 -0.76574725791E+03  0.16588534911E+04  0.46999998093E+01 0.  1.
</event>
<event>
 5   0  0.2279938E-08  0.3300077E+04  0.7818609E-02  0.8162876E-01
        1   -1    0    0  501    0  0.00000000000E+00  0.00000000000E+00  0.19388632782E+04  0.19388632782E+04  0.50400001928E-02 0.  1.
       -1   -1    0    0    0  501  0.00000000000E+00  0.00000000000E+00 -0.14042389010E+04  0.14042389010E+04  0.50400001928E-02 0. -1.
    10030    2    1    2    0    0  0.00000000000E+00  0.00000000000E+00  0.53462437713E+03  0.33431021792E+04  0.33000771137E+04 0.  0.
        3    1    3    3  502    0  0.20637461136E+03 -0.14415160579E+04 -0.51873461916E+03  0.15458475477E+04  0.10100000352E+00 0. -1.
       -3    1    3    3    0  502 -0.20637461136E+03  0.14415160579E+04  0.10533589963E+04  0.17972546315E+04  0.10100000352E+00 0.  1.
</event>
<event>
 5   0  0.2279938E-08  0.3299278E+04  0.7818609E-02  0.8163079E-01
       -1   -1    0    0    0  501  0.00000000000E+00  0.00000000000E+00  0.16246553672E+04  0.16246553672E+04  0.50400001928E-02 0. -1.
        1   -1    0    0  501    0  0.00000000000E+00  0.00000000000E+00 -0.16750066930E+04  0.16750066930E+04  0.50400001928E-02 0.  1.
    10030    2    1    2    0    0  0.00000000000E+00  0.00000000000E+00 -0.50351325804E+02  0.32996620602E+04  0.32992778687E+04 0.  0.
        3    1    3    3  502    0  0.50314044934E+03  0.56204281681E+03  0.14420555539E+04  0.16274417564E+04  0.10100000352E+00 0. -1.
       -3    1    3    3    0  502 -0.50314044934E+03 -0.56204281681E+03 -0.14924068797E+04  0.16722203038E+04  0.10100000352E+00 0.  1.
</event>
<event>
 5   0  0.2383270E-08  0.3300289E+04  0.7818609E-02  0.8162822E-01
        1   -1    0    0  501    0  0.00000000000E+00  0.00000000000E+00  0.15392068693E+04  0.15392068693E+04  0.50400001928E-02 0. -1.
       -1   -1    0    0    0  501  0.00000000000E+00  0.00000000000E+00 -0.17690779147E+04  0.17690779147E+04  0.50400001928E-02 0.  1.
    10030    2    1    2    0    0  0.00000000000E+00  0.00000000000E+00 -0.22987104538E+03  0.33082847841E+04  0.33002890048E+04 0.  0.
        5    1    3    3  502    0  0.12810424493E+04 -0.17902459034E+03  0.91216153665E+03  0.15827761433E+04  0.46999998093E+01 0. -1.
       -5    1    3    3    0  502 -0.12810424493E+04  0.17902459034E+03 -0.11420325820E+04  0.17255086407E+04  0.46999998093E+01 0.  1.
</event>
<event>
 5   0  0.6706080E-08  0.3300955E+04  0.7818609E-02  0.8162653E-01
        2   -1    0    0  501    0  0.00000000000E+00  0.00000000000E+00  0.78226016408E+03  0.78226016409E+03  0.25500000920E-02 0.  1.
       -2   -1    0    0    0  501  0.00000000000E+00  0.00000000000E+00 -0.34823138456E+04  0.34823138456E+04  0.25500000920E-02 0. -1.
    10030    2    1    2    0    0  0.00000000000E+00  0.00000000000E+00 -0.27000536815E+04  0.42645740097E+04  0.33009546499E+04 0.  0.
        4    1    3    3  502    0 -0.31114678831E+03  0.86833541231E+03 -0.31182397500E+04  0.32518055697E+04  0.12699999809E+01 0. -1.
       -4    1    3    3    0  502  0.31114678831E+03 -0.86833541231E+03  0.41818606848E+03  0.10127684399E+04  0.12699999809E+01 0.  1.
</event>
<event>
 5   0  0.7084130E-08  0.3299722E+04  0.7818609E-02  0.8162966E-01
       -2   -1    0    0    0  501  0.00000000000E+00  0.00000000000E+00  0.14770209864E+04  0.14770209864E+04  0.25500000920E-02 0. -1.
        2   -1    0    0  501    0  0.00000000000E+00  0.00000000000E+00 -0.18429261033E+04  0.18429261033E+04  0.25500000920E-02 0.  1.
    10030    2    1    2    0    0  0.00000000000E+00  0.00000000000E+00 -0.36590511689E+03  0.33199470896E+04  0.32997215221E+04 0.  0.
        3    1    3    3  502    0  0.15757479905E+03  0.61534845537E+03  0.13490615326E+04  0.14911239277E+04  0.10100000352E+00 0. -1.
       -3    1    3    3    0  502 -0.15757479905E+03 -0.61534845537E+03 -0.17149666495E+04  0.18288231620E+04  0.10100000352E+00 0.  1.
</event>
<event>
 5   0  0.6765252E-08  0.3299837E+04  0.7818609E-02  0.8162937E-01
       -2   -1    0    0    0  501  0.00000000000E+00  0.00000000000E+00  0.14218186127E+04  0.14218186127E+04  0.25500000920E-02 0. -1.
        2   -1    0    0  501    0  0.00000000000E+00  0.00000000000E+00 -0.19146120428E+04  0.19146120428E+04  0.25500000920E-02 0.  1.
    10030    2    1    2    0    0  0.00000000000E+00  0.00000000000E+00 -0.49279343005E+03  0.33364306555E+04  0.32998369890E+04 0.  0.
        2    1    3    3  502    0  0.88250262637E+02  0.58817086262E+03 -0.18024559470E+04  0.18980464993E+04  0.25500000920E-02 0.  1.
       -2    1    3    3    0  502 -0.88250262637E+02 -0.58817086262E+03  0.13096625170E+04  0.14383841562E+04  0.25500000920E-02 0. -1.
</event>
<event>
 5   0  0.6603516E-08  0.3302942E+04  0.7818609E-02  0.8162147E-01
       -2   -1    0    0    0  501  0.00000000000E+00  0.00000000000E+00  0.17515643905E+04  0.17515643905E+04  0.25500000920E-02 0. -1.
        2   -1    0    0  501    0  0.00000000000E+00  0.00000000000E+00 -0.15570971705E+04  0.15570971705E+04  0.25500000920E-02 0.  1.
    10030    2    1    2    0    0  0.00000000000E+00  0.00000000000E+00  0.19446722005E+03  0.33086615610E+04  0.33029416928E+04 0.  0.
        1    1    3    3  502    0 -0.65434652607E+03 -0.15142598464E+04  0.18333655378E+02  0.16496934205E+04  0.50400001928E-02 0. -1.
       -1    1    3    3    0  502  0.65434652607E+03  0.15142598464E+04  0.17613356467E+03  0.16589681405E+04  0.50400001928E-02 0.  1.
</event>
<event>
 5   0  0.6821287E-08  0.3300421E+04  0.7818609E-02  0.8162788E-01
        2   -1    0    0  501    0  0.00000000000E+00  0.00000000000E+00  0.24838400285E+04  0.24838400285E+04  0.25500000920E-02 0. -1.
       -2   -1    0    0    0  501  0.00000000000E+00  0.00000000000E+00 -0.10963650511E+04  0.10963650511E+04  0.25500000920E-02 0.  1.
    10030    2    1    2    0    0  0.00000000000E+00  0.00000000000E+00  0.13874749774E+04  0.35802050797E+04  0.33004214276E+04 0.  0.
        5    1    3    3  502    0  0.56519510887E+03 -0.14881249006E+04  0.22187773651E+03  0.16072377082E+04  0.46999998093E+01 0.  1.
       -5    1    3    3    0  502 -0.56519510887E+03  0.14881249006E+04  0.11655972409E+04  0.19729673714E+04  0.46999998093E+01 0. -1.
</event>
<event>
 5   0  0.7084130E-08  0.3301972E+04  0.7818609E-02  0.8162394E-01
       -2   -1    0    0    0  501  0.00000000000E+00  0.00000000000E+00  0.98703362641E+03  0.98703362641E+03  0.25500000920E-02 0.  1.
        2   -1    0    0  501    0  0.00000000000E+00  0.00000000000E+00 -0.27615618919E+04  0.27615618919E+04  0.25500000920E-02 0. -1.
    10030    2    1    2    0    0  0.00000000000E+00  0.00000000000E+00 -0.17745282655E+04  0.37485955183E+04  0.33019718041E+04 0.  0.
        3    1    3    3  502    0 -0.43599545591E+02  0.71491854254E+03  0.80146853538E+03  0.10748773261E+04  0.10100000352E+00 0.  1.
       -3    1    3    3    0  502  0.43599545591E+02 -0.71491854254E+03 -0.25759968009E+04  0.26737181922E+04  0.10100000352E+00 0. -1.
</event>
<event>
 5   0  0.2244093E-08  0.3298532E+04  0.7818609E-02  0.8163269E-01
        1   -1    0    0  501    0  0.00000000000E+00  0.00000000000E+00  0.13428381363E+04  0.13428381363E+04  0.50400001928E-02 0. -1.
       -1   -1    0    0    0  501  0.00000000000E+00  0.00000000000E+00 -0.20256185665E+04  0.20256185665E+04  0.50400001928E-02 0.  1.
    10030    2    1    2    0    0  0.00000000000E+00  0.00000000000E+00 -0.68278043018E+03  0.33684567027E+04  0.32985317101E+04 0.  0.
        1    1    3    3  502    0 -0.60517676517E+03 -0.11355188322E+04 -0.13949764012E+04  0.18977884748E+04  0.50400001928E-02 0.  1.
       -1    1    3    3    0  502  0.60517676517E+03  0.11355188322E+04  0.71219597097E+03  0.14706682279E+04  0.50400001928E-02 0. -1.
</event>
<event>
 5   0  0.2279938E-08  0.3301240E+04  0.7818609E-02  0.8162580E-01
        1   -1    0    0  501    0  0.00000000000E+00  0.00000000000E+00  0.12915980333E+04  0.12915980333E+04  0.50400001928E-02 0.  1.
       -1   -1    0    0    0  501  0.00000000000E+00  0.00000000000E+00 -0.21094386642E+04  0.21094386642E+04  0.50400001928E-02 0. -1.
    10030    2    1    2    0    0  0.00000000000E+00  0.00000000000E+00 -0.81784063091E+03  0.34010366975E+04  0.33012402700E+04 0.  0.
        3    1    3    3  502    0  0.15194867920E+03 -0.15324365685E+04 -0.10211028580E+04  0.18477286853E+04  0.10100000352E+00 0. -1.
       -3    1    3    3    0  502 -0.15194867920E+03  0.15324365685E+04  0.20326222706E+03  0.15533080122E+04  0.10100000352E+00 0.  1.
</event>
<event>
 5   0  0.2383270E-08  0.3301811E+04  0.7818609E-02  0.8162435E-01
        1   -1    0    0  501    0  0.00000000000E+00  0.00000000000E+00  0.12405521649E+04  0.12405521649E+04  0.50400001928E-02 0.  1.
       -1   -1    0    0    0  501  0.00000000000E+00  0.00000000000E+00 -0.21969963030E+04  0.21969963030E+04  0.50400001928E-02 0. -1.
    10030    2    1    2    0    0  0.00000000000E+00  0.00000000000E+00 -0.95644413813E+03  0.34375484679E+04  0.33018107274E+04 0.  0.
        5    1    3    3  502    0 -0.10262938129E+04 -0.11200894703E+04 -0.11509975423E+04  0.19059634950E+04  0.46999998093E+01 0. -1.
       -5    1    3    3    0  502  0.10262938129E+04  0.11200894703E+04  0.19455340419E+03  0.15315849728E+04  0.46999998093E+01 0.  1.
</event>
<event>
 5   0  0.2279938E-08  0.3300638E+04  0.7818609E-02  0.8162733E-01
        1   -1    0    0  501    0  0.00000000000E+00  0.00000000000E+00  0.21002405094E+04  0.21002405094E+04  0.50400001928E-02 0.  1.
       -1   -1    0    0    0  501  0.00000000000E+00  0.00000000000E+00 -0.12967811861E+04  0.12967811861E+04  0.50400001928E-02 0. -1.
    10030    2    1    2    0    0  0.00000000000E+00  0.00000000000E+00  0.80345932332E+03  0.33970216956E+04  0.33006377438E+04 0.  0.
        3    1    3    3  502    0  0.70458256422E+03  0.67080986010E+03  0.17737484138E+04  0.20230190073E+04  0.10100000352E+00 0.  1.
       -3    1    3    3    0  502 -0.70458256422E+03 -0.67080986010E+03 -0.97028909046E+03  0.13740026883E+04  0.10100000352E+00 0. -1.
</event>
<event>
 5   0  0.6765252E-08  0.3299855E+04  0.7818609E-02  0.8162932E-01
       -2   -1    0    0    0  501  0.00000000000E+00  0.00000000000E+00  0.29879925596E+04  0.29879925596E+04  0.25500000920E-02 0. -1.
        2   -1    0    0  501    0  0.00000000000E+00  0.00000000000E+00 -0.91106671553E+03  0.91106671554E+03  0.25500000920E-02 0.  1.
    10030    2    1    2    0    0  0.00000000000E+00  0.00000000000E+00  0.20769258441E+04  0.38990592751E+04  0.32998548861E+04 0.  0.
        2    1    3    3  502    0 -0.83069795420E+03  0.18987074254E+03  0.27078676728E+04  0.28387774346E+04  0.25500000920E-02 0. -1.
       -2    1    3    3    0  502  0.83069795420E+03 -0.18987074254E+03 -0.63094182875E+03  0.10602818405E+04  0.25500000920E-02 0.  1.
</event>
<event>
 5   0  0.7084130E-08  0.3299626E+04  0.7818609E-02  0.8162991E-01
       -2   -1    0    0    0  501  0.00000000000E+00  0.00000000000E+00  0.24621266030E+04  0.24621266030E+04  0.25500000920E-02 0.  1.
        2   -1    0    0  501    0  0.00000000000E+00  0.00000000000E+00 -0.11055009290E+04  0.11055009290E+04  0.25500000920E-02 0. -1.
    10030    2    1    2    0    0  0.00000000000E+00  0.00000000000E+00  0.13566256740E+04  0.35676275319E+04  0.32996261890E+04 0.  0.
        3    1    3    3  502    0 -0.95203464328E+03  0.20815720689E+03 -0.76104624464E+03  0.12364832314E+04  0.10100000352E+00 0. -1.
       -3    1    3    3    0  502  0.95203464328E+03 -0.20815720689E+03  0.21176719186E+04  0.23311443005E+04  0.10100000352E+00 0.  1.
</event>
<event>
 5   0  0.2279938E-08  0.3299556E+04  0.7818609E-02  0.8163008E-01
       -1   -1    0    0    0  501  0.00000000000E+00  0.00000000000E+00  0.18861374199E+04  0.18861374199E+04  0.50400001928E-02 0. -1.
        1   -1    0    0  501    0  0.00000000000E+00  0.00000000000E+00 -0.14430376930E+04  0.14430376931E+04  0.50400001928E-02 0.  1.
    10030    2    1    2    0    0  0.00000000000E+00  0.00000000000E+00  0.44309972687E+03  0.33291751130E+04  0.32995559648E+04 0.  0.
        3    1    3    3  502    0 -0.44815784719E+03  0.10726520195E+04  0.14026731713E+04  0.18217902861E+04  0.10100000352E+00 0. -1.
       -3    1    3    3    0  502  0.44815784719E+03 -0.10726520195E+04 -0.95957344441E+03  0.15073848269E+04  0.10100000352E+00 0.  1.
</event>
<event>
 5   0  0.2291682E-08  0.3299850E+04  0.7818609E-02  0.8162934E-01
       -1   -1    0    0    0  501  0.00000000000E+00  0.00000000000E+00  0.12523123816E+04  0.12523123817E+04  0.50400001928E-02 0. -1.
        1   -1    0    0  501    0  0.00000000000E+00  0.00000000000E+00 -0.21737803936E+04  0.21737803936E+04  0.50400001928E-02 0.  1.
    10030    2    1    2    0    0  0.00000000000E+00  0.00000000000E+00 -0.92146801198E+03  0.34260927753E+04  0.32998497553E+04 0.  0.
        2    1    3    3  502    0  0.48911721680E+03  0.59301254293E+02 -0.20956181894E+04  0.21527582043E+04  0.25500000920E-02 0.  1.
       -2    1    3    3    0  502 -0.48911721680E+03 -0.59301254293E+02  0.11741501774E+04  0.12733345710E+04  0.25500000920E-02 0. -1.
</event>
<event>
 5   0  0.6765252E-08  0.3301352E+04  0.7818609E-02  0.8162552E-01
        2   -1    0    0  501    0  0.00000000000E+00  0.00000000000E+00  0.22673034127E+04  0.22673034127E+04  0.25500000920E-02 0.  1.
       -2   -1    0    0    0  501  0.00000000000E+00  0.00000000000E+00 -0.12017494841E+04  0.12017494841E+04  0.25500000920E-02 0. -1.
    10030    2    1    2    0    0  0.00000000000E+00  0.00000000000E+00  0.10655539286E+04  0.34690528968E+04  0.33013516665E+04 0.  0.
        2    1    3    3  502    0 -0.13011435868E+03 -0.11248064069E+04  0.17948771465E+04  0.21221930097E+04  0.25500000920E-02 0.  1.
       -2    1    3    3    0  502  0.13011435868E+03  0.11248064069E+04 -0.72932321788E+03  0.13468598871E+04  0.25500000920E-02 0. -1.
</event>
<event>
 5   0  0.2309822E-08  0.3299956E+04  0.7818609E-02  0.8162907E-01
       -1   -1    0    0    0  501  0.00000000000E+00  0.00000000000E+00  0.16261191902E+04  0.16261191902E+04  0.50400001928E-02 0.  1.
        1   -1    0    0  501    0  0.00000000000E+00  0.00000000000E+00 -0.16741864021E+04  0.16741864021E+04  0.50400001928E-02 0. -1.
    10030    2    1    2    0    0  0.00000000000E+00  0.00000000000E+00 -0.48067211910E+02  0.33003055922E+04  0.32999555369E+04 0.  0.
        4    1    3    3  502    0 -0.15186903245E+04 -0.54163269372E+03 -0.37426890822E+03  0.16552537887E+04  0.12699999809E+01 0.  1.
       -4    1    3    3    0  502  0.15186903245E+04  0.54163269372E+03  0.32620169631E+03  0.16450518035E+04  0.12699999809E+01 0. -1.
</event>
<event>
 5   0  0.6603516E-08  0.3299540E+04  0.7818609E-02  0.8163013E-01
        2   -1    0    0  501    0  0.00000000000E+00  0.00000000000E+00  0.12249201028E+04  0.12249201028E+04  0.25500000920E-02 0. -1.
       -2   -1    0    0    0  501  0.00000000000E+00  0.00000000000E+00 -0.22219738013E+04  0.22219738013E+04  0.25500000920E-02 0.  1.
    10030    2    1    2    0    0  0.00000000000E+00  0.00000000000E+00 -0.99705369852E+03  0.34468939041E+04  0.32995395903E+04 0.  0.
        1    1    3    3  502    0 -0.11804254919E+04  0.14373019044E+03  0.69607979438E+03  0.13778932432E+04  0.50400001928E-02 0. -1.
       -1    1    3    3    0  502  0.11804254919E+04 -0.14373019044E+03 -0.16931334929E+04  0.20690006608E+04  0.50400001928E-02 0.  1.
</event>
<event>
 5   0  0.2309822E-08  0.3298620E+04  0.7818609E-02  0.8163247E-01
        1   -1    0    0  501    0  0.00000000000E+00  0.00000000000E+00  0.17692281289E+04  0.17692281289E+04  0.50400001928E-02 0. -1.
       -1   -1    0    0    0  501  0.00000000000E+00  0.00000000000E+00 -0.15375197608E+04  0.15375197608E+04  0.50400001928E-02 0.  1.
    10030    2    1    2    0    0  0.00000000000E+00  0.00000000000E+00  0.23170836809E+03  0.33067478896E+04  0.32986198383E+04 0.  0.
        4    1    3    3  502    0  0.69666089447E+03  0.12849294806E+04  0.88183214008E+03  0.17070470726E+04  0.12699999809E+01 0.  1.
       -4    1    3    3    0  502 -0.69666089447E+03 -0.12849294806E+04 -0.65012377199E+03  0.15997008170E+04  0.12699999809E+01 0. -1.
</event>
<event>
 5   0  0.2279938E-08  0.3300175E+04  0.7818609E-02  0.8162851E-01
       -1   -1    0    0    0  501  0.00000000000E+00  0.00000000000E+00  0.14390112160E+04  0.14390112160E+04  0.50400001928E-02 0. -1.
        1   -1    0    0  501    0  0.00000000000E+00  0.00000000000E+00 -0.18921245369E+04  0.18921245369E+04  0.50400001928E-02 0.  1.
    10030    2    1    2    0    0  0.00000000000E+00  0.00000000000E+00 -0.45311332089E+03  0.33311357530E+04  0.33001748019E+04 0.  0.
        3    1    3    3  502    0 -0.11047320226E+04 -0.56412609338E+03 -0.13249370143E+04  0.18149736067E+04  0.10100000352E+00 0.  1.
       -3    1    3    3    0  502  0.11047320226E+04  0.56412609338E+03  0.87182369346E+03  0.15161621462E+04  0.10100000352E+00 0. -1.
</event>
<event>
 5   0  0.2291682E-08  0.3299484E+04  0.7818609E-02  0.8163027E-01
       -1   -1    0    0    0  501  0.00000000000E+00  0.00000000000E+00  0.14419307217E+04  0.14419307217E+04  0.50400001928E-02 0.  1.
        1   -1    0    0  501    0  0.00000000000E+00  0.00000000000E+00 -0.18875033531E+04  0.18875033531E+04  0.50400001928E-02 0. -1.
    10030    2    1    2    0    0  0.00000000000E+00  0.00000000000E+00 -0.44557263138E+03  0.33294340749E+04  0.32994842459E+04 0.  0.
        2    1    3    3  502    0  0.24940640101E+03 -0.14199143355E+04  0.58654688358E+03  0.15564053198E+04  0.25500000920E-02 0.  1.
       -2    1    3    3    0  502 -0.24940640101E+03  0.14199143355E+04 -0.10321195150E+04  0.17730287550E+04  0.25500000920E-02 0. -1.
</event>
<event>
 5   0  0.6603516E-08  0.3300217E+04  0.7818609E-02  0.8162840E-01
        2   -1    0    0  501    0  0.00000000000E+00  0.00000000000E+00  0.14252499259E+04  0.14252499259E+04  0.25500000920E-02 0.  1.
       -2   -1    0    0    0  501  0.00000000000E+00  0.00000000000E+00 -0.19104425694E+04  0.19104425694E+04  0.25500000920E-02 0. -1.
    10030    2    1    2    0    0  0.00000000000E+00  0.00000000000E+00 -0.48519264351E+03  0.33356924954E+04  0.33002170417E+04 0.  0.
        1    1    3    3  502    0 -0.41257431005E+03  0.12151150331E+03 -0.18527920270E+04  0.19020570186E+04  0.50400001928E-02 0. -1.
       -1    1    3    3    0  502  0.41257431005E+03 -0.12151150331E+03  0.13675993834E+04  0.14336354768E+04  0.50400001928E-02 0.  1.
</event>
<event>
 5   0  0.6821287E-08  0.3292780E+04  0.7818609E-02  0.8164735E-01
       -2   -1    0    0    0  501  0.00000000000E+00  0.00000000000E+00  0.23818072015E+04  0.23818072015E+04  0.25500000920E-02 0. -1.
        2   -1    0    0  501    0  0.00000000000E+00  0.00000000000E+00 -0.11380433581E+04  0.11380433581E+04  0.25500000920E-02 0.  1.
    10030    2    1    2    0    0  0.00000000000E+00  0.00000000000E+00  0.12437638434E+04  0.35198505595E+04  0.32927798990E+04 0.  0.
        5    1    3    3  502    0  0.57708646838E+03 -0.31686371642E+03 -0.99120212757E+03  0.11899307352E+04  0.46999998093E+01 0.  1.
       -5    1    3    3    0  502 -0.57708646838E+03  0.31686371642E+03  0.22349659709E+04  0.23299198244E+04  0.46999998093E+01 0. -1.
</event>
<event>
 5   0  0.2383270E-08  0.3300025E+04  0.7818609E-02  0.8162889E-01
       -1   -1    0    0    0  501  0.00000000000E+00  0.00000000000E+00  0.15865288125E+04  0.15865288125E+04  0.50400001928E-02 0. -1.
        1   -1    0    0  501    0  0.00000000000E+00  0.00000000000E+00 -0.17160361151E+04  0.17160361151E+04  0.50400001928E-02 0.  1.
    10030    2    1    2    0    0  0.00000000000E+00  0.00000000000E+00 -0.12950730258E+03  0.33025649276E+04  0.33000246907E+04 0.  0.
        5    1    3    3  502    0 -0.66551755417E+03 -0.53973621317E+03  0.13463990893E+04  0.15959452974E+04  0.46999998093E+01 0. -1.
       -5    1    3    3    0  502  0.66551755417E+03  0.53973621317E+03 -0.14759063918E+04  0.17066196302E+04  0.46999998093E+01 0.  1.
</event>
<event>
 5   0  0.6706080E-08  0.3298951E+04  0.7818609E-02  0.8163162E-01
        2   -1    0    0  501    0  0.00000000000E+00  0.00000000000E+00  0.15246814219E+04  0.15246814219E+04  0.25500000920E-02 0.  1.
       -2   -1    0    0    0  501  0.00000000000E+00  0.00000000000E+00 -0.17844838330E+04  0.17844838330E+04  0.25500000920E-02 0. -1.
    10030    2    1    2    0    0  0.00000000000E+00  0.00000000000E+00 -0.25980241106E+03  0.33091652549E+04  0.32989509532E+04 0.  0.
        4    1    3    3  502    0  0.16231066054E+04  0.10315500360E+03  0.14599899892E+03  0.16329217152E+04  0.12699999809E+01 0. -1.
       -4    1    3    3    0  502 -0.16231066054E+04 -0.10315500360E+03 -0.40580140998E+03  0.16762435397E+04  0.12699999809E+01 0.  1.
</event>
<event>
 5   0  0.2244093E-08  0.3302405E+04  0.7818609E-02  0.8162284E-01
       -1   -1    0    0    0  501  0.00000000000E+00  0.00000000000E+00  0.12877024909E+04  0.12877024909E+04  0.50400001928E-02 0.  1.
        1   -1    0    0  501    0  0.00000000000E+00  0.00000000000E+00 -0.21173134141E+04  0.21173134141E+04  0.50400001928E-02 0. -1.
    10030    2    1    2    0    0  0.00000000000E+00  0.00000000000E+00 -0.82961092327E+03  0.34050159050E+04  0.33024050371E+04 0.  0.
        1    1    3    3  502    0 -0.12371399401E+04  0.96964082979E+03 -0.93623740853E+03  0.18295515996E+04  0.50400001928E-02 0.  1.
       -1    1    3    3    0  502  0.12371399401E+04 -0.96964082979E+03  0.10662648526E+03  0.15754643054E+04  0.50400001928E-02 0. -1.
</event>
<event>
 5   0  0.2383270E-08  0.3298275E+04  0.7818609E-02  0.8163335E-01
        1   -1    0    0  501    0  0.00000000000E+00  0.00000000000E+00  0.14966957728E+04  0.14966957728E+04  0.50400001928E-02 0. -1.
       -1   -1    0    0    0  501  0.00000000000E+00  0.00000000000E+00 -0.18171053993E+04  0.18171053993E+04  0.50400001928E-02 0.  1.
    10030    2    1    2    0    0  0.00000000000E+00  0.00000000000E+00 -0.32040962656E+03  0.33138011721E+04  0.32982746823E+04 0.  0.
        5    1    3    3  502    0 -0.28196681196E+03 -0.16114744455E+04  0.48805028181E+02  0.16366915386E+04  0.46999998093E+01 0.  1.
       -5    1    3    3    0  502  0.28196681196E+03  0.16114744455E+04 -0.36921465474E+03  0.16771096336E+04  0.46999998093E+01 0. -1.
</event>
<event>
 5   0  0.2291682E-08  0.3300212E+04  0.7818609E-02  0.8162841E-01
        1   -1    0    0  501    0  0.00000000000E+00  0.00000000000E+00  0.14341065371E+04  0.14341065371E+04  0.50400001928E-02 0.  1.
       -1   -1    0    0    0  501  0.00000000000E+00  0.00000000000E+00 -0.18986383277E+04  0.18986383278E+04  0.50400001928E-02 0. -1.
    10030    2    1    2    0    0  0.00000000000E+00  0.00000000000E+00 -0.46453179066E+03  0.33327448648E+04  0.33002118947E+04 0.  0.
        2    1    3    3  502    0  0.34476019554E+03  0.14636135006E+04  0.45401076352E+03  0.15707163477E+04  0.25500000920E-02 0.  1.
       -2    1    3    3    0  502 -0.34476019554E+03 -0.14636135006E+04 -0.91854255418E+03  0.17620285172E+04  0.25500000920E-02 0. -1.
</event>
<event>
 5   0  0.2291682E-08  0.3299908E+04  0.7818609E-02  0.8162919E-01
        1   -1    0    0  501    0  0.00000000000E+00  0.00000000000E+00  0.17399500014E+04  0.17399500014E+04  0.50400001928E-02 0.  1.
       -1   -1    0    0    0  501  0.00000000000E+00  0.00000000000E+00 -0.15646127530E+04  0.15646127530E+04  0.50400001928E-02 0. -1.
    10030    2    1    2    0    0  0.00000000000E+00  0.00000000000E+00  0.17533724836E+03  0.33045627544E+04  0.32999078544E+04 0.  0.
        2    1    3    3  502    0  0.46931317226E+03 -0.74617870280E+03  0.14843799370E+04  0.17263896743E+04  0.25500000920E-02 0.  1.
       -2    1    3    3    0  502 -0.46931317226E+03  0.74617870280E+03 -0.13090426886E+04  0.15781730801E+04  0.25500000920E-02 0. -1.
</event>
<event>
 5   0  0.2383270E-08  0.3307461E+04  0.7818609E-02  0.8161000E-01
       -1   -1    0    0    0  501  0.00000000000E+00  0.00000000000E+00  0.13148429802E+04  0.13148429802E+04  0.50400001928E-02 0.  1.
        1   -1    0    0  501    0  0.00000000000E+00  0.00000000000E+00 -0.20799626661E+04  0.20799626661E+04  0.50400001928E-02 0. -1.
    10030    2    1    2    0    0  0.00000000000E+00  0.00000000000E+00 -0.76511968590E+03  0.33948056463E+04  0.33074608452E+04 0.  0.
        5    1    3    3  502    0 -0.11767437331E+04 -0.78374092855E+03  0.49789672068E+03  0.14989659406E+04  0.46999998093E+01 0.  1.
       -5    1    3    3    0  502  0.11767437331E+04  0.78374092855E+03 -0.12630164066E+04  0.18958397057E+04  0.46999998093E+01 0. -1.
</event>
<event>
 5   0  0.2383270E-08  0.3300434E+04  0.7818609E-02  0.8162785E-01
       -1   -1    0    0    0  501  0.00000000000E+00  0.00000000000E+00  0.13207901121E+04  0.13207901121E+04  0.50400001928E-02 0.  1.
        1   -1    0    0  501    0  0.00000000000E+00  0.00000000000E+00 -0.20618085363E+04  0.20618085363E+04  0.50400001928E-02 0. -1.
    10030    2    1    2    0    0  0.00000000000E+00  0.00000000000E+00 -0.74101842423E+03  0.33825986484E+04  0.33004341095E+04 0.  0.
        5    1    3    3  502    0  0.89245491564E+03 -0.21067120192E+03  0.10356289355E+04  0.13832597420E+04  0.46999998093E+01 0.  1.
       -5    1    3    3    0  502 -0.89245491564E+03  0.21067120192E+03 -0.17766473597E+04  0.19993389064E+04  0.46999998093E+01 0. -1.
</event>
<event>
 5   0  0.2291682E-08  0.3296833E+04  0.7818609E-02  0.8163702E-01
        1   -1    0    0  501    0  0.00000000000E+00  0.00000000000E+00  0.21781460674E+04  0.21781460674E+04  0.50400001928E-02 0. -1.
       -1   -1    0    0    0  501  0.00000000000E+00  0.00000000000E+00 -0.12475185899E+04  0.12475185899E+04  0.50400001928E-02 0.  1.
    10030    2    1    2    0    0  0.00000000000E+00  0.00000000000E+00  0.93062747749E+03  0.34256646573E+04  0.32968334569E+04 0.  0.
        2    1    3    3  502    0  0.57542100791E+03 -0.13499503087E+04 -0.31489597245E+03  0.15008779583E+04  0.25500000920E-02 0.  1.
       -2    1    3    3    0  502 -0.57542100791E+03  0.13499503087E+04  0.12455234499E+04  0.19247866990E+04  0.25500000920E-02 0. -1.
</event>
<event>
 5   0  0.2291682E-08  0.3300454E+04  0.7818609E-02  0.8162780E-01
       -1   -1    0    0    0  501  0.00000000000E+00  0.00000000000E+00  0.13217892952E+04  0.13217892952E+04  0.50400001928E-02 0. -1.
        1   -1    0    0  501    0  0.00000000000E+00  0.00000000000E+00 -0.20602747655E+04  0.20602747655E+04  0.50400001928E-02 0.  1.
    10030    2    1    2    0    0  0.00000000000E+00  0.00000000000E+00 -0.73848547028E+03  0.33820640607E+04  0.33004539871E+04 0.  0.
        2    1    3    3  502    0  0.22388428239E+03 -0.45807169041E+03 -0.19775402273E+04  0.20422093908E+04  0.25500000920E-02 0.  1.
       -2    1    3    3    0  502 -0.22388428239E+03  0.45807169041E+03  0.12390547570E+04  0.13398546699E+04  0.25500000920E-02 0. -1.
</event>
<event>
 5   0  0.2291682E-08  0.3301857E+04  0.7818609E-02  0.8162423E-01
        1   -1    0    0  501    0  0.00000000000E+00  0.00000000000E+00  0.15844250012E+04  0.15844250012E+04  0.50400001928E-02 0.  1.
       -1   -1    0    0    0  501  0.00000000000E+00  0.00000000000E+00 -0.17202235502E+04  0.17202235502E+04  0.50400001928E-02 0. -1.
    10030    2    1    2    0    0  0.00000000000E+00  0.00000000000E+00 -0.13579854897E+03  0.33046485514E+04  0.33018571747E+04 0.  0.
        2    1    3    3  502    0 -0.83707125278E+03 -0.11679361970E+04  0.74568520729E+03  0.16188914944E+04  0.25500000920E-02 0.  1.
       -2    1    3    3    0  502  0.83707125278E+03  0.11679361970E+04 -0.88148375626E+03  0.16857570569E+04  0.25500000920E-02 0. -1.
</event>
<event>
 5   0  0.6603516E-08  0.3299269E+04  0.7818609E-02  0.8163081E-01
        2   -1    0    0  501    0  0.00000000000E+00  0.00000000000E+00  0.30398322638E+04  0.30398322638E+04  0.25500000920E-02 0. -1.
       -2   -1    0    0    0  501  0.00000000000E+00  0.00000000000E+00 -0.89521190074E+03  0.89521190074E+03  0.25500000920E-02 0.  1.
    10030    2    1    2    0    0  0.00000000000E+00  0.00000000000E+00  0.21446203631E+04  0.39350441645E+04  0.32992690213E+04 0.  0.
        1    1    3    3  502    0  0.26151445463E+03 -0.49809309441E+03 -0.77726521046E+03  0.95949348518E+03  0.50400001928E-02 0.  1.
       -1    1    3    3    0  502 -0.26151445463E+03  0.49809309441E+03  0.29218855735E+04  0.29755506794E+04  0.50400001928E-02 0. -1.
</event>
<event>
 5   0  0.2383270E-08  0.3300142E+04  0.7818609E-02  0.8162859E-01
        1   -1    0    0  501    0  0.00000000000E+00  0.00000000000E+00  0.17901564486E+04  0.17901564486E+04  0.50400001928E-02 0. -1.
       -1   -1    0    0    0  501  0.00000000000E+00  0.00000000000E+00 -0.15209472267E+04  0.15209472267E+04  0.50400001928E-02 0.  1.
    10030    2    1    2    0    0  0.00000000000E+00  0.00000000000E+00  0.26920922191E+03  0.33111036752E+04  0.33001415035E+04 0.  0.
        5    1    3    3  502    0 -0.10201924059E+04 -0.12854503720E+04  0.30703645292E+03  0.16695714053E+04  0.46999998093E+01 0. -1.
       -5    1    3    3    0  502  0.10201924059E+04  0.12854503720E+04 -0.37827231008E+02  0.16415322700E+04  0.46999998093E+01 0.  1.
</event>
<event>
 5   0  0.2291682E-08  0.3303548E+04  0.7818609E-02  0.8161993E-01
       -1   -1    0    0    0  501  0.00000000000E+00  0.00000000000E+00  0.12769469149E+04  0.12769469149E+04  0.50400001928E-02 0. -1.
        1   -1    0    0  501    0  0.00000000000E+00  0.00000000000E+00 -0.21366252360E+04  0.21366252360E+04  0.50400001928E-02 0.  1.
    10030    2    1    2    0    0  0.00000000000E+00  0.00000000000E+00 -0.85967832107E+03  0.34135721510E+04  0.33035477920E+04 0.  0.
        2    1    3    3  502    0 -0.12424158830E+04  0.30093126231E+03 -0.15107176602E+04  0.19789958817E+04  0.25500000920E-02 0.  1.
       -2    1    3    3    0  502  0.12424158830E+04 -0.30093126231E+03  0.65103933916E+03  0.14345762692E+04  0.25500000920E-02 0. -1.
</event>
<event>
 5   0  0.2244093E-08  0.3302208E+04  0.7818609E-02  0.8162334E-01
        1   -1    0    0  501    0  0.00000000000E+00  0.00000000000E+00  0.18297732160E+04  0.18297732160E+04  0.50400001928E-02 0. -1.
       -1   -1    0    0    0  501  0.00000000000E+00  0.00000000000E+00 -0.14898812065E+04  0.14898812065E+04  0.50400001928E-02 0.  1.
    10030    2    1    2    0    0  0.00000000000E+00  0.00000000000E+00  0.33989200946E+03  0.33196544225E+04  0.33022081864E+04 0.  0.
        1    1    3    3  502    0 -0.16334960053E+04  0.16856747214E+03  0.34237635363E+03  0.16774819699E+04  0.50400001928E-02 0. -1.
       -1    1    3    3    0  502  0.16334960053E+04 -0.16856747214E+03 -0.24843441754E+01  0.16421724525E+04  0.50400001928E-02 0.  1.
</event>
<event>
 5   0  0.6821287E-08  0.3298072E+04  0.7818609E-02  0.8163386E-01
        2   -1    0    0  501    0  0.00000000000E+00  0.00000000000E+00  0.25610867771E+04  0.25610867771E+04  0.25500000920E-02 0.  1.
       -2   -1    0    0    0  501  0.00000000000E+00  0.00000000000E+00 -0.10617834049E+04  0.10617834049E+04  0.25500000920E-02 0. -1.
    10030    2    1    2    0    0  0.00000000000E+00  0.00000000000E+00  0.14993033722E+04  0.36228701820E+04  0.32980718237E+04 0.  0.
        5    1    3    3  502    0  0.50181677289E+03  0.17422937484E+03  0.24645218510E+04  0.25211239543E+04  0.46999998093E+01 0.  1.
       -5    1    3    3    0  502 -0.50181677289E+03 -0.17422937484E+03 -0.96521847880E+03  0.11017462278E+04  0.46999998093E+01 0. -1.
</event>
<event>
 5   0  0.6821287E-08  0.3300179E+04  0.7818609E-02  0.8162850E-01
       -2   -1    0    0    0  501  0.00000000000E+00  0.00000000000E+00  0.25282267420E+04  0.25282267420E+04  0.25500000920E-02 0. -1.
        2   -1    0    0  501    0  0.00000000000E+00  0.00000000000E+00 -0.10769586021E+04  0.10769586021E+04  0.25500000920E-02 0.  1.
    10030    2    1    2    0    0  0.00000000000E+00  0.00000000000E+00  0.14512681400E+04  0.36051853441E+04  0.33001791090E+04 0.  0.
        5    1    3    3  502    0  0.22598160167E+03  0.10431718260E+04  0.21003054392E+04  0.23559669290E+04  0.46999998093E+01 0. -1.
       -5    1    3    3    0  502 -0.22598160167E+03 -0.10431718260E+04 -0.64903729924E+03  0.12492184151E+04  0.46999998093E+01 0.  1.
</event>
<event>
 5   0  0.6706080E-08  0.3299839E+04  0.7818609E-02  0.8162936E-01
        2   -1    0    0  501    0  0.00000000000E+00  0.00000000000E+00  0.17659171677E+04  0.17659171677E+04  0.25500000920E-02 0.  1.
       -2   -1    0    0    0  501  0.00000000000E+00  0.00000000000E+00 -0.15415410823E+04  0.15415410824E+04  0.25500000920E-02 0. -1.
    10030    2    1    2    0    0  0.00000000000E+00  0.00000000000E+00  0.22437608533E+03  0.33074582500E+04  0.32998387003E+04 0.  0.
        4    1    3    3  502    0 -0.57284193277E+03  0.12240726432E+04  0.10608038308E+04  0.17180826802E+04  0.12699999809E+01 0.  1.
       -4    1    3    3    0  502  0.57284193277E+03 -0.12240726432E+04 -0.83642774546E+03  0.15893755698E+04  0.12699999809E+01 0. -1.
</event>
<event>
 5   0  0.2383270E-08  0.3300297E+04  0.7818609E-02  0.8162820E-01
        1   -1    0    0  501    0  0.00000000000E+00  0.00000000000E+00  0.95072165483E+03  0.95072165484E+03  0.50400001928E-02 0. -1.
       -1   -1    0    0    0  501  0.00000000000E+00  0.00000000000E+00 -0.28641291894E+04  0.28641291894E+04  0.50400001928E-02 0.  1.
    10030    2    1    2    0    0  0.00000000000E+00  0.00000000000E+00 -0.19134075346E+04  0.38148508443E+04  0.33002967398E+04 0.  0.
        5    1    3    3  502    0  0.11866797314E+04  0.58185303257E+03 -0.20987804566E+04  0.24802546707E+04  0.46999998093E+01 0.  1.
       -5    1    3    3    0  502 -0.11866797314E+04 -0.58185303257E+03  0.18537292199E+03  0.13345961736E+04  0.46999998093E+01 0. -1.
</event>
<event>
 5   0  0.6765252E-08  0.3299764E+04  0.7818609E-02  0.8162955E-01
       -2   -1    0    0    0  501  0.00000000000E+00  0.00000000000E+00  0.17927105288E+04  0.17927105288E+04  0.25500000920E-02 0.  1.
        2   -1    0    0  501    0  0.00000000000E+00  0.00000000000E+00 -0.15184330358E+04  0.15184330358E+04  0.25500000920E-02 0. -1.
    10030    2    1    2    0    0  0.00000000000E+00  0.00000000000E+00  0.27427749304E+03  0.33111435646E+04  0.32997641677E+04 0.  0.
        2    1    3    3  502    0  0.83035575145E+03  0.14086276316E+04 -0.83593505695E+02  0.16372874985E+04  0.25500000920E-02 0.  1.
       -2    1    3    3    0  502 -0.83035575145E+03 -0.14086276316E+04  0.35787099874E+03  0.16738560661E+04  0.25500000920E-02 0. -1.
</event>
<event>
 5   0  0.2291682E-08  0.3300366E+04  0.7818609E-02  0.8162802E-01
        1   -1    0    0  501    0  0.00000000000E+00  0.00000000000E+00  0.17961869110E+04  0.17961869110E+04  0.50400001928E-02 0. -1.
       -1   -1    0    0    0  501  0.00000000000E+00  0.00000000000E+00 -0.15160472452E+04  0.15160472452E+04  0.50400001928E-02 0.  1.
    10030    2    1    2    0    0  0.00000000000E+00  0.00000000000E+00  0.28013966575E+03  0.33122341562E+04  0.33003661726E+04 0.  0.
        2    1    3    3  502    0 -0.44785144707E+03 -0.12971753367E+04  0.10598092411E+04  0.17339061106E+04  0.25500000920E-02 0. -1.
       -2    1    3    3    0  502  0.44785144707E+03  0.12971753367E+04 -0.77966957532E+03  0.15783280456E+04  0.25500000920E-02 0.  1.
</event>
<event>
 5   0  0.6765252E-08  0.3294693E+04  0.7818609E-02  0.8164247E-01
        2   -1    0    0  501    0  0.00000000000E+00  0.00000000000E+00  0.27464422987E+04  0.27464422987E+04  0.25500000920E-02 0. -1.
       -2   -1    0    0    0  501  0.00000000000E+00  0.00000000000E+00 -0.98809641013E+03  0.98809641013E+03  0.25500000920E-02 0.  1.
    10030    2    1    2    0    0  0.00000000000E+00  0.00000000000E+00  0.17583458886E+04  0.37345387089E+04  0.32946925659E+04 0.  0.
        2    1    3    3  502    0 -0.46587863254E+03  0.74880550450E+03 -0.69798225095E+03  0.11246918718E+04  0.25500000920E-02 0.  1.
       -2    1    3    3    0  502  0.46587863254E+03 -0.74880550450E+03  0.24563281396E+04  0.26098468371E+04  0.25500000920E-02 0. -1.
</event>
<event>
 5   0  0.2383270E-08  0.3301754E+04  0.7818609E-02  0.8162449E-01
       -1   -1    0    0    0  501  0.00000000000E+00  0.00000000000E+00  0.14978562307E+04  0.14978562307E+04  0.50400001928E-02 0.  1.
        1   -1    0    0  501    0  0.00000000000E+00  0.00000000000E+00 -0.18195302553E+04  0.18195302553E+04  0.50400001928E-02 0. -1.
    10030    2    1    2    0    0  0.00000000000E+00  0.00000000000E+00 -0.32167402465E+03  0.33173864860E+04  0.33017539156E+04 0.  0.
        5    1    3    3  502    0 -0.55533229742E+02  0.41230543702E+03  0.14443167019E+04  0.15030477499E+04  0.46999998093E+01 0.  1.
       -5    1    3    3    0  502  0.55533229742E+02 -0.41230543702E+03 -0.17659907266E+04  0.18143387361E+04  0.46999998093E+01 0. -1.
</event>
<event>
 5   0  0.6706080E-08  0.3292370E+04  0.7818609E-02  0.8164840E-01
        2   -1    0    0  501    0  0.00000000000E+00  0.00000000000E+00  0.30085837360E+04  0.30085837360E+04  0.25500000920E-02 0.  1.
       -2   -1    0    0    0  501  0.00000000000E+00  0.00000000000E+00 -0.90073109944E+03  0.90073109944E+03  0.25500000920E-02 0. -1.
    10030    2    1    2    0    0  0.00000000000E+00  0.00000000000E+00  0.21078526366E+04  0.39093148354E+04  0.32923699284E+04 0.  0.
        4    1    3    3  502    0 -0.79568928212E+02  0.51724716170E+03  0.29071801038E+04  0.29539081925E+04  0.12699999809E+01 0.  1.
       -4    1    3    3    0  502  0.79568928212E+02 -0.51724716170E+03 -0.79932746726E+03  0.95540664297E+03  0.12699999809E+01 0. -1.
</event>
<event>
 5   0  0.2244093E-08  0.3298945E+04  0.7818609E-02  0.8163164E-01
        1   -1    0    0  501    0  0.00000000000E+00  0.00000000000E+00  0.11129335503E+04  0.11129335503E+04  0.50400001928E-02 0.  1.
       -1   -1    0    0    0  501  0.00000000000E+00  0.00000000000E+00 -0.24446731744E+04  0.24446731744E+04  0.50400001928E-02 0. -1.
    10030    2    1    2    0    0  0.00000000000E+00  0.00000000000E+00 -0.13317396241E+04  0.35576067246E+04  0.32989445556E+04 0.  0.
        1    1    3    3  502    0 -0.12339507203E+04 -0.53854920034E+03  0.36178478622E+03  0.13941154374E+04  0.50400001928E-02 0.  1.
       -1    1    3    3    0  502  0.12339507203E+04  0.53854920034E+03 -0.16935244103E+04  0.21634912872E+04  0.50400001928E-02 0. -1.
</event>
<event>
 5   0  0.2383270E-08  0.3301764E+04  0.7818609E-02  0.8162447E-01
        1   -1    0    0  501    0  0.00000000000E+00  0.00000000000E+00  0.19751103353E+04  0.19751103353E+04  0.50400001928E-02 0.  1.
       -1   -1    0    0    0  501  0.00000000000E+00  0.00000000000E+00 -0.13798779424E+04  0.13798779424E+04  0.50400001928E-02 0. -1.
    10030    2    1    2    0    0  0.00000000000E+00  0.00000000000E+00  0.59523239288E+03  0.33549882777E+04  0.33017638835E+04 0.  0.
        5    1    3    3  502    0 -0.10151098634E+03  0.44823612034E+03 -0.13135569975E+04  0.13916444142E+04  0.46999998093E+01 0. -1.
       -5    1    3    3    0  502  0.10151098634E+03 -0.44823612034E+03  0.19087893903E+04  0.19633438636E+04  0.46999998093E+01 0.  1.
</event>
<event>
 5   0  0.2244093E-08  0.3302677E+04  0.7818609E-02  0.8162214E-01
       -1   -1    0    0    0  501  0.00000000000E+00  0.00000000000E+00  0.19338885966E+04  0.19338885966E+04  0.50400001928E-02 0. -1.
        1   -1    0    0  501    0  0.00000000000E+00  0.00000000000E+00 -0.14100705877E+04  0.14100705877E+04  0.50400001928E-02 0.  1.
    10030    2    1    2    0    0  0.00000000000E+00  0.00000000000E+00  0.52381800884E+03  0.33439591843E+04  0.33026773563E+04 0.  0.
        1    1    3    3  502    0  0.13576552549E+04 -0.50191065939E+03 -0.54287037049E+03  0.15459140792E+04  0.50400001928E-02 0.  1.
       -1    1    3    3    0  502 -0.13576552549E+04  0.50191065939E+03  0.10666883793E+04  0.17980451051E+04  0.50400001928E-02 0. -1.
</event>
<event>
 5   0  0.6765252E-08  0.3298431E+04  0.7818609E-02  0.8163295E-01
       -2   -1    0    0    0  501  0.00000000000E+00  0.00000000000E+00  0.12247663489E+04  0.12247663489E+04  0.25500000920E-02 0. -1.
        2   -1    0    0  501    0  0.00000000000E+00  0.00000000000E+00 -0.22207591983E+04  0.22207591983E+04  0.25500000920E-02 0.  1.
    10030    2    1    2    0    0  0.00000000000E+00  0.00000000000E+00 -0.99599284940E+03  0.34455255473E+04  0.32984306179E+04 0.  0.
        2    1    3    3  502    0 -0.79340856526E+03  0.11238841184E+04 -0.14481181143E+04  0.19974130109E+04  0.25500000920E-02 0.  1.
       -2    1    3    3    0  502  0.79340856526E+03 -0.11238841184E+04  0.45212526487E+03  0.14481125364E+04  0.25500000920E-02 0. -1.
</event>
<event>
 5   0  0.6603516E-08  0.3299333E+04  0.7818609E-02  0.8163065E-01
       -2   -1    0    0    0  501  0.00000000000E+00  0.00000000000E+00  0.13407184061E+04  0.13407184061E+04  0.25500000920E-02 0. -1.
        2   -1    0    0  501    0  0.00000000000E+00  0.00000000000E+00 -0.20298066554E+04  0.20298066554E+04  0.25500000920E-02 0.  1.
    10030    2    1    2    0    0  0.00000000000E+00  0.00000000000E+00 -0.68908824930E+03  0.33705250616E+04  0.32993327470E+04 0.  0.
        1    1    3    3  502    0  0.93985266201E+02  0.98300442108E+03  0.10054345825E+04  0.14092656321E+04  0.50400001928E-02 0. -1.
       -1    1    3    3    0  502 -0.93985266201E+02 -0.98300442108E+03 -0.16945228318E+04  0.19612594295E+04  0.50400001928E-02 0.  1.
</event>
<event>
 5   0  0.2383270E-08  0.3299546E+04  0.7818609E-02  0.8163011E-01
        1   -1    0    0  501    0  0.00000000000E+00  0.00000000000E+00  0.21067549987E+04  0.21067549987E+04  0.50400001928E-02 0. -1.
       -1   -1    0    0    0  501  0.00000000000E+00  0.00000000000E+00 -0.12919163323E+04  0.12919163323E+04  0.50400001928E-02 0.  1.
    10030    2    1    2    0    0  0.00000000000E+00  0.00000000000E+00  0.81483866641E+03  0.33986713311E+04  0.32995461452E+04 0.  0.
        5    1    3    3  502    0 -0.13738728325E+04  0.48460916669E+03  0.12048585142E+04  0.18905234020E+04  0.46999998093E+01 0. -1.
       -5    1    3    3    0  502  0.13738728325E+04 -0.48460916669E+03 -0.39001984778E+03  0.15081479291E+04  0.46999998093E+01 0.  1.
</event>
<event>
 5   0  0.6821287E-08  0.3301179E+04  0.7818609E-02  0.8162595E-01
       -2   -1    0    0    0  501  0.00000000000E+00  0.00000000000E+00  0.11069835414E+04  0.11069835414E+04  0.25500000920E-02 0.  1.
        2   -1    0    0  501    0  0.00000000000E+00  0.00000000000E+00 -0.24611442193E+04  0.24611442193E+04  0.25500000920E-02 0. -1.
    10030    2    1    2    0    0  0.00000000000E+00  0.00000000000E+00 -0.13541606778E+04  0.35681277607E+04  0.33011792704E+04 0.  0.
        5    1    3    3  502    0  0.12133901753E+04 -0.14785633565E+03  0.52177675159E+03  0.13290787343E+04  0.46999998093E+01 0.  1.
       -5    1    3    3    0  502 -0.12133901753E+04  0.14785633565E+03 -0.18759374294E+04  0.22390490264E+04  0.46999998093E+01 0. -1.
</event>
<event>
 5   0  0.6821287E-08  0.3305028E+04  0.7818609E-02  0.8161617E-01
        2   -1    0    0  501    0  0.00000000000E+00  0.00000000000E+00  0.27442749398E+04  0.27442749398E+04  0.25500000920E-02 0.  1.
       -2   -1    0    0    0  501  0.00000000000E+00  0.00000000000E+00 -0.99509101131E+03  0.99509101131E+03  0.25500000920E-02 0. -1.
    10030    2    1    2    0    0  0.00000000000E+00  0.00000000000E+00  0.17491839285E+04  0.37393659511E+04  0.33050284871E+04 0.  0.
        5    1    3    3  502    0 -0.17142441093E+03 -0.86716115834E+03  0.24542976716E+04  0.26086306665E+04  0.46999998093E+01 0.  1.
       -5    1    3    3    0  502  0.17142441093E+03  0.86716115834E+03 -0.70511374312E+03  0.11307352846E+04  0.46999998093E+01 0. -1.
</event>
<event>
 5   0  0.6821287E-08  0.3300280E+04  0.7818609E-02  0.8162824E-01
        2   -1    0    0  501    0  0.00000000000E+00  0.00000000000E+00  0.20738722556E+04  0.20738722556E+04  0.25500000920E-02 0. -1.
       -2   -1    0    0    0  501  0.00000000000E+00  0.00000000000E+00 -0.13129845375E+04  0.13129845375E+04  0.25500000920E-02 0.  1.
    10030    2    1    2    0    0  0.00000000000E+00  0.00000000000E+00  0.76088771817E+03  0.33868567931E+04  0.33002801119E+04 0.  0.
        5    1    3    3  502    0 -0.63955157446E+03  0.14924110922E+04  0.68248264535E+03  0.17612841156E+04  0.46999998093E+01 0.  1.
       -5    1    3    3    0  502  0.63955157446E+03 -0.14924110922E+04  0.78405072821E+02  0.16255726775E+04  0.46999998093E+01 0. -1.
</event>
<event>
 5   0  0.2244093E-08  0.3299793E+04  0.7818609E-02  0.8162948E-01
       -1   -1    0    0    0  501  0.00000000000E+00  0.00000000000E+00  0.10544700566E+04  0.10544700566E+04  0.50400001928E-02 0. -1.
        1   -1    0    0  501    0  0.00000000000E+00  0.00000000000E+00 -0.25815424073E+04  0.25815424073E+04  0.50400001928E-02 0.  1.
    10030    2    1    2    0    0  0.00000000000E+00  0.00000000000E+00 -0.15270723507E+04  0.36360124639E+04  0.32997934290E+04 0.  0.
        1    1    3    3  502    0  0.89285531889E+03  0.12977475627E+04 -0.13042714678E+04  0.20451071901E+04  0.50400001928E-02 0.  1.
       -1    1    3    3    0  502 -0.89285531889E+03 -0.12977475627E+04 -0.22280088284E+03  0.15909052739E+04  0.50400001928E-02 0. -1.
</event>
<event>
 5   0  0.6706080E-08  0.3300210E+04  0.7818609E-02  0.8162842E-01
       -2   -1    0    0    0  501  0.00000000000E+00  0.00000000000E+00  0.30538948140E+04  0.30538948140E+04  0.25500000920E-02 0.  1.
        2   -1    0    0  501    0  0.00000000000E+00  0.00000000000E+00 -0.89159823670E+03  0.89159823670E+03  0.25500000920E-02 0. -1.
    10030    2    1    2    0    0  0.00000000000E+00  0.00000000000E+00  0.21622965773E+04  0.39454930507E+04  0.33002104365E+04 0.  0.
        4    1    3    3  502    0 -0.10473885036E+04  0.85354709608E+03 -0.51313911337E+02  0.13521094827E+04  0.12699999809E+01 0. -1.
       -4    1    3    3    0  502  0.10473885036E+04 -0.85354709608E+03  0.22136104887E+04  0.25933835681E+04  0.12699999809E+01 0.  1.
</event>
<event>
 5   0  0.2244093E-08  0.3280317E+04  0.7818609E-02  0.8167922E-01
        1   -1    0    0  501    0  0.00000000000E+00  0.00000000000E+00  0.16700199162E+04  0.16700199162E+04  0.50400001928E-02 0. -1.
       -1   -1    0    0    0  501  0.00000000000E+00  0.00000000000E+00 -0.16108306192E+04  0.16108306192E+04  0.50400001928E-02 0.  1.
    10030    2    1    2    0    0  0.00000000000E+00  0.00000000000E+00  0.59189296933E+02  0.32808505354E+04  0.32803165797E+04 0.  0.
        1    1    3    3  502    0  0.85484715853E+03  0.75830726439E+03  0.12063598544E+04  0.16616550996E+04  0.50400001928E-02 0. -1.
       -1    1    3    3    0  502 -0.85484715853E+03 -0.75830726439E+03 -0.11471705574E+04  0.16191954359E+04  0.50400001928E-02 0.  1.
</event>
<event>
 5   0  0.2279938E-08  0.3299655E+04  0.7818609E-02  0.8162983E-01
       -1   -1    0    0    0  501  0.00000000000E+00  0.00000000000E+00  0.14223193248E+04  0.14223193248E+04  0.50400001928E-02 0. -1.
        1   -1    0    0  501    0  0.00000000000E+00  0.00000000000E+00 -0.19137265232E+04  0.19137265232E+04  0.50400001928E-02 0.  1.
    10030    2    1    2    0    0  0.00000000000E+00  0.00000000000E+00 -0.49140719839E+03  0.33360458481E+04  0.32996546586E+04 0.  0.
        3    1    3    3  502    0  0.67568358511E+03  0.14101818684E+04 -0.77759410907E+03  0.17463716150E+04  0.10100000352E+00 0.  1.
       -3    1    3    3    0  502 -0.67568358511E+03 -0.14101818684E+04  0.28618691068E+03  0.15896742330E+04  0.10100000352E+00 0. -1.
</event>
<event>
 5   0  0.2291682E-08  0.3298528E+04  0.7818609E-02  0.8163270E-01
        1   -1    0    0  501    0  0.00000000000E+00  0.00000000000E+00  0.11312392582E+04  0.11312392582E+04  0.50400001928E-02 0.  1.
       -1   -1    0    0    0  501  0.00000000000E+00  0.00000000000E+00 -0.24045067067E+04  0.24045067067E+04  0.50400001928E-02 0. -1.
    10030    2    1    2    0    0  0.00000000000E+00  0.00000000000E+00 -0.12732674486E+04  0.35357459649E+04  0.32985283890E+04 0.  0.
        2    1    3    3  502    0  0.16438648676E+04  0.30116184465E+02 -0.49739310897E+03  0.17177306519E+04  0.25500000920E-02 0. -1.
       -2    1    3    3    0  502 -0.16438648676E+04 -0.30116184465E+02 -0.77587433958E+03  0.18180153130E+04  0.25500000920E-02 0.  1.
</event>
<event>
 5   0  0.6706080E-08  0.3300785E+04  0.7818609E-02  0.8162696E-01
       -2   -1    0    0    0  501  0.00000000000E+00  0.00000000000E+00  0.17254568017E+04  0.17254568017E+04  0.25500000920E-02 0.  1.
        2   -1    0    0  501    0  0.00000000000E+00  0.00000000000E+00 -0.15785942478E+04  0.15785942478E+04  0.25500000920E-02 0. -1.
    10030    2    1    2    0    0  0.00000000000E+00  0.00000000000E+00  0.14686255394E+03  0.33040510495E+04  0.33007854713E+04 0.  0.
        4    1    3    3  502    0 -0.10232305446E+04  0.11893969561E+04 -0.43906030768E+03  0.16292456639E+04  0.12699999809E+01 0.  1.
       -4    1    3    3    0  502  0.10232305446E+04 -0.11893969561E+04  0.58592286161E+03  0.16748053855E+04  0.12699999809E+01 0. -1.
</event>
<event>
 5   0  0.2309822E-08  0.3299929E+04  0.7818609E-02  0.8162913E-01
       -1   -1    0    0    0  501  0.00000000000E+00  0.00000000000E+00  0.13163351758E+04  0.13163351758E+04  0.50400001928E-02 0. -1.
        1   -1    0    0  501    0  0.00000000000E+00  0.00000000000E+00 -0.20681531450E+04  0.20681531450E+04  0.50400001928E-02 0.  1.
    10030    2    1    2    0    0  0.00000000000E+00  0.00000000000E+00 -0.75181796922E+03  0.33844883207E+04  0.32999289287E+04 0.  0.
        4    1    3    3  502    0 -0.10513159841E+03  0.97384686512E+03 -0.17376939133E+04  0.19947461289E+04  0.12699999809E+01 0.  1.
       -4    1    3    3    0  502  0.10513159841E+03 -0.97384686512E+03  0.98587594408E+03  0.13897421918E+04  0.12699999809E+01 0. -1.
</event>
<event>
 5   0  0.2279938E-08  0.3300262E+04  0.7818609E-02  0.8162829E-01
        1   -1    0    0  501    0  0.00000000000E+00  0.00000000000E+00  0.10729262597E+04  0.10729262597E+04  0.50400001928E-02 0. -1.
       -1   -1    0    0    0  501  0.00000000000E+00  0.00000000000E+00 -0.25378563715E+04  0.25378563715E+04  0.50400001928E-02 0.  1.
    10030    2    1    2    0    0  0.00000000000E+00  0.00000000000E+00 -0.14649301118E+04  0.36107826312E+04  0.33002622589E+04 0.  0.
        3    1    3    3  502    0  0.15158539991E+04  0.63900863231E+03 -0.87422189990E+03  0.18629034648E+04  0.10100000352E+00 0.  1.
       -3    1    3    3    0  502 -0.15158539991E+04 -0.63900863231E+03 -0.59070821186E+03  0.17478791664E+04  0.10100000352E+00 0. -1.
</event>
<event>
 5   0  0.6603516E-08  0.3300198E+04  0.7818609E-02  0.8162845E-01
       -2   -1    0    0    0  501  0.00000000000E+00  0.00000000000E+00  0.28259051174E+04  0.28259051174E+04  0.25500000920E-02 0.  1.
        2   -1    0    0  501    0  0.00000000000E+00  0.00000000000E+00 -0.96352368194E+03  0.96352368194E+03  0.25500000920E-02 0. -1.
    10030    2    1    2    0    0  0.00000000000E+00  0.00000000000E+00  0.18623814355E+04  0.37894287994E+04  0.33001978750E+04 0.  0.
        1    1    3    3  502    0 -0.19881160041E+03 -0.10513779844E+04 -0.51117093546E+03  0.11858403956E+04  0.50400001928E-02 0. -1.
       -1    1    3    3    0  502  0.19881160041E+03  0.10513779844E+04  0.23735523709E+04  0.26035884038E+04  0.50400001928E-02 0.  1.
</event>
<event>
 5   0  0.6821287E-08  0.3300842E+04  0.7818609E-02  0.8162681E-01
        2   -1    0    0  501    0  0.00000000000E+00  0.00000000000E+00  0.19939935027E+04  0.19939935027E+04  0.25500000920E-02 0. -1.
       -2   -1    0    0    0  501  0.00000000000E+00  0.00000000000E+00 -0.13660473909E+04  0.13660473909E+04  0.25500000920E-02 0.  1.
    10030    2    1    2    0    0  0.00000000000E+00  0.00000000000E+00  0.62794611185E+03  0.33600408936E+04  0.33008420877E+04 0.  0.
        5    1    3    3  502    0 -0.30115505819E+03 -0.12258867392E+04  0.13962316942E+04  0.18822799209E+04  0.46999998093E+01 0. -1.
       -5    1    3    3    0  502  0.30115505819E+03  0.12258867392E+04 -0.76828558240E+03  0.14777609728E+04  0.46999998093E+01 0.  1.
</event>
<event>
 5   0  0.2309822E-08  0.3299995E+04  0.7818609E-02  0.8162897E-01
        1   -1    0    0  501    0  0.00000000000E+00  0.00000000000E+00  0.16561015614E+04  0.16561015614E+04  0.50400001928E-02 0. -1.
       -1   -1    0    0    0  501  0.00000000000E+00  0.00000000000E+00 -0.16439164303E+04  0.16439164303E+04  0.50400001928E-02 0.  1.
    10030    2    1    2    0    0  0.00000000000E+00  0.00000000000E+00  0.12185131064E+02  0.33000179917E+04  0.32999954951E+04 0.  0.
        4    1    3    3  502    0  0.48569476702E+02 -0.76874728886E+03  0.14652665084E+04  0.16553969137E+04  0.12699999809E+01 0. -1.
       -4    1    3    3    0  502 -0.48569476702E+02  0.76874728886E+03 -0.14530813773E+04  0.16446210780E+04  0.12699999809E+01 0.  1.
</event>
<event>
 5   0  0.6706080E-08  0.3299684E+04  0.7818609E-02  0.8162976E-01
        2   -1    0    0  501    0  0.00000000000E+00  0.00000000000E+00  0.23967635814E+04  0.23967635814E+04  0.25500000920E-02 0. -1.
       -2   -1    0    0    0  501  0.00000000000E+00  0.00000000000E+00 -0.11356894669E+04  0.11356894669E+04  0.25500000920E-02 0.  1.
    10030    2    1    2    0    0  0.00000000000E+00  0.00000000000E+00  0.12610741146E+04  0.35324530483E+04  0.32996843207E+04 0.  0.
        4    1    3    3  502    0  0.14704134995E+04  0.56349658702E+03  0.11575369580E+04  0.19543637546E+04  0.12699999809E+01 0. -1.
       -4    1    3    3    0  502 -0.14704134995E+04 -0.56349658702E+03  0.10353715655E+03  0.15780892937E+04  0.12699999809E+01 0.  1.
</event>
<event>
 5   0  0.6765252E-08  0.3299385E+04  0.7818609E-02  0.8163052E-01
       -2   -1    0    0    0  501  0.00000000000E+00  0.00000000000E+00  0.16789695011E+04  0.16789695011E+04  0.25500000920E-02 0.  1.
        2   -1    0    0  501    0  0.00000000000E+00  0.00000000000E+00 -0.16209259347E+04  0.16209259347E+04  0.25500000920E-02 0. -1.
    10030    2    1    2    0    0  0.00000000000E+00  0.00000000000E+00  0.58043566327E+02  0.32998954358E+04  0.32993849172E+04 0.  0.
        2    1    3    3  502    0  0.14602017946E+04  0.65695122449E+03  0.42621169390E+03  0.16569340965E+04  0.25500000920E-02 0.  1.
       -2    1    3    3    0  502 -0.14602017946E+04 -0.65695122449E+03 -0.36816812757E+03  0.16429613393E+04  0.25500000920E-02 0. -1.
</event>
<event>
 5   0  0.2244093E-08  0.3300616E+04  0.7818609E-02  0.8162739E-01
       -1   -1    0    0    0  501  0.00000000000E+00  0.00000000000E+00  0.13432869241E+04  0.13432869242E+04  0.50400001928E-02 0. -1.
        1   -1    0    0  501    0  0.00000000000E+00  0.00000000000E+00 -0.20275013889E+04  0.20275013889E+04  0.50400001928E-02 0.  1.
    10030    2    1    2    0    0  0.00000000000E+00  0.00000000000E+00 -0.68421446472E+03  0.33707883130E+04  0.33006157634E+04 0.  0.
        1    1    3    3  502    0  0.79046539494E+02 -0.45150005745E+03  0.12769740420E+04  0.13567473461E+04  0.50400001928E-02 0. -1.
       -1    1    3    3    0  502 -0.79046539494E+02  0.45150005745E+03 -0.19611885067E+04  0.20140409669E+04  0.50400001928E-02 0.  1.
</event>
<event>
 5   0  0.6765252E-08  0.3293546E+04  0.7818609E-02  0.8164540E-01
        2   -1    0    0  501    0  0.00000000000E+00  0.00000000000E+00  0.26090851011E+04  0.26090851011E+04  0.25500000920E-02 0.  1.
       -2   -1    0    0    0  501  0.00000000000E+00  0.00000000000E+00 -0.10393916713E+04  0.10393916713E+04  0.25500000920E-02 0. -1.
    10030    2    1    2    0    0  0.00000000000E+00  0.00000000000E+00  0.15696934298E+04  0.36484767724E+04  0.32935460062E+04 0.  0.
        2    1    3    3  502    0 -0.16450355942E+04 -0.75100750567E+02  0.79469866300E+03  0.18284770149E+04  0.25500000920E-02 0. -1.
       -2    1    3    3    0  502  0.16450355942E+04  0.75100750567E+02  0.77499476682E+03  0.18199997576E+04  0.25500000920E-02 0.  1.
</event>
<event>
 5   0  0.2291682E-08  0.3301054E+04  0.7818609E-02  0.8162627E-01
       -1   -1    0    0    0  501  0.00000000000E+00  0.00000000000E+00  0.11926207361E+04  0.11926207361E+04  0.50400001928E-02 0. -1.
        1   -1    0    0  501    0  0.00000000000E+00  0.00000000000E+00 -0.22842458132E+04  0.22842458132E+04  0.50400001928E-02 0.  1.
    10030    2    1    2    0    0  0.00000000000E+00  0.00000000000E+00 -0.10916250771E+04  0.34768665493E+04  0.33010537245E+04 0.  0.
        2    1    3    3  502    0  0.15261416246E+04 -0.56427534212E+03 -0.83755594918E+03  0.18300313899E+04  0.25500000920E-02 0.  1.
       -2    1    3    3    0  502 -0.15261416246E+04  0.56427534212E+03 -0.25406912794E+03  0.16468351593E+04  0.25500000920E-02 0. -1.
</event>
<event>
 5   0  0.2309822E-08  0.3302042E+04  0.7818609E-02  0.8162376E-01
       -1   -1    0    0    0  501  0.00000000000E+00  0.00000000000E+00  0.11994568015E+04  0.11994568015E+04  0.50400001928E-02 0.  1.
        1   -1    0    0  501    0  0.00000000000E+00  0.00000000000E+00 -0.22725875797E+04  0.22725875797E+04  0.50400001928E-02 0. -1.
    10030    2    1    2    0    0  0.00000000000E+00  0.00000000000E+00 -0.10731307782E+04  0.34720443812E+04  0.33020421738E+04 0.  0.
        4    1    3    3  502    0  0.16743009338E+03 -0.15890547670E+04 -0.99546179299E+02  0.16009493881E+04  0.12699999809E+01 0.  1.
       -4    1    3    3    0  502 -0.16743009338E+03  0.15890547670E+04 -0.97358459894E+03  0.18710949930E+04  0.12699999809E+01 0. -1.
</event>
<event>
 5   0  0.6603516E-08  0.3300642E+04  0.7818609E-02  0.8162732E-01
       -2   -1    0    0    0  501  0.00000000000E+00  0.00000000000E+00  0.18244688750E+04  0.18244688750E+04  0.25500000920E-02 0. -1.
        2   -1    0    0  501    0  0.00000000000E+00  0.00000000000E+00 -0.14927960190E+04  0.14927960190E+04  0.25500000920E-02 0.  1.
    10030    2    1    2    0    0  0.00000000000E+00  0.00000000000E+00  0.33167285610E+03  0.33172648940E+04  0.33006422850E+04 0.  0.
        1    1    3    3  502    0  0.42958078493E+03 -0.11612039947E+04 -0.93081670662E+03  0.15489848641E+04  0.50400001928E-02 0.  1.
       -1    1    3    3    0  502 -0.42958078493E+03  0.11612039947E+04  0.12624895627E+04  0.17682800299E+04  0.50400001928E-02 0. -1.
</event>
<event>
 5   0  0.6765252E-08  0.3310935E+04  0.7818609E-02  0.8160119E-01
       -2   -1    0    0    0  501  0.00000000000E+00  0.00000000000E+00  0.14126950849E+04  0.14126950849E+04  0.25500000920E-02 0. -1.
        2   -1    0    0  501    0  0.00000000000E+00  0.00000000000E+00 -0.19399602705E+04  0.19399602705E+04  0.25500000920E-02 0.  1.
    10030    2    1    2    0    0  0.00000000000E+00  0.00000000000E+00 -0.52726518565E+03  0.33526553554E+04  0.33109348161E+04 0.  0.
        2    1    3    3  502    0 -0.21335721491E+03  0.33095436627E+03  0.13645842842E+04  0.14202613712E+04  0.25500000920E-02 0. -1.
       -2    1    3    3    0  502  0.21335721491E+03 -0.33095436627E+03 -0.18918494699E+04  0.19323939843E+04  0.25500000920E-02 0.  1.
</event>
<event>
 5   0  0.2244093E-08  0.3301680E+04  0.7818609E-02  0.8162468E-01
        1   -1    0    0  501    0  0.00000000000E+00  0.00000000000E+00  0.13665918748E+04  0.13665918748E+04  0.50400001928E-02 0. -1.
       -1   -1    0    0    0  501  0.00000000000E+00  0.00000000000E+00 -0.19942109078E+04  0.19942109078E+04  0.50400001928E-02 0.  1.
    10030    2    1    2    0    0  0.00000000000E+00  0.00000000000E+00 -0.62761903299E+03  0.33608027826E+04  0.33016798290E+04 0.  0.
        1    1    3    3  502    0 -0.11211225777E+04  0.74388702296E+03 -0.12874888085E+04  0.18622328451E+04  0.50400001928E-02 0.  1.
       -1    1    3    3    0  502  0.11211225777E+04 -0.74388702296E+03  0.65986977550E+03  0.14985699376E+04  0.50400001928E-02 0. -1.
</event>
<event>
 5   0  0.2291682E-08  0.3299375E+04  0.7818609E-02  0.8163054E-01
       -1   -1    0    0    0  501  0.00000000000E+00  0.00000000000E+00  0.11786691362E+04  0.11786691362E+04  0.50400001928E-02 0.  1.
        1   -1    0    0  501    0  0.00000000000E+00  0.00000000000E+00 -0.23089335710E+04  0.23089335710E+04  0.50400001928E-02 0. -1.
    10030    2    1    2    0    0  0.00000000000E+00  0.00000000000E+00 -0.11302644348E+04  0.34876027072E+04  0.32993749333E+04 0.  0.
        2    1    3    3  502    0 -0.14363788751E+03 -0.81486695303E+02 -0.23001742271E+04  0.23060948374E+04  0.25500000920E-02 0. -1.
       -2    1    3    3    0  502  0.14363788751E+03  0.81486695303E+02  0.11699097923E+04  0.11815078698E+04  0.25500000920E-02 0.  1.
</event>
<event>
 5   0  0.6603516E-08  0.3300539E+04  0.7818609E-02  0.8162758E-01
       -2   -1    0    0    0  501  0.00000000000E+00  0.00000000000E+00  0.17506178585E+04  0.17506178585E+04  0.25500000920E-02 0. -1.
        2   -1    0    0  501    0  0.00000000000E+00  0.00000000000E+00 -0.15556736484E+04  0.15556736484E+04  0.25500000920E-02 0.  1.
    10030    2    1    2    0    0  0.00000000000E+00  0.00000000000E+00  0.19494421009E+03  0.33062915068E+04  0.33005393927E+04 0.  0.
        1    1    3    3  502    0 -0.43774722093E+03  0.14608864144E+04 -0.53416490787E+03  0.16159034297E+04  0.50400001928E-02 0. -1.
       -1    1    3    3    0  502  0.43774722093E+03 -0.14608864144E+04  0.72910911797E+03  0.16903880771E+04  0.50400001928E-02 0.  1.
</event>
<event>
 5   0  0.2291682E-08  0.3298239E+04  0.7818609E-02  0.8163344E-01
        1   -1    0    0  501    0  0.00000000000E+00  0.00000000000E+00  0.18642465345E+04  0.18642465345E+04  0.50400001928E-02 0. -1.
       -1   -1    0    0    0  501  0.00000000000E+00  0.00000000000E+00 -0.14588175604E+04  0.14588175604E+04  0.50400001928E-02 0.  1.
    10030    2    1    2    0    0  0.00000000000E+00  0.00000000000E+00  0.40542897405E+03  0.33230640949E+04  0.32982392766E+04 0.  0.
        2    1    3    3  502    0  0.30860523577E+03 -0.68392680113E+03  0.16823052559E+04  0.18420488688E+04  0.25500000920E-02 0. -1.
       -2    1    3    3    0  502 -0.30860523577E+03  0.68392680113E+03 -0.12768762819E+04  0.14810152261E+04  0.25500000920E-02 0.  1.
</event>
<event>
 5   0  0.2279938E-08  0.3303522E+04  0.7818609E-02  0.8162000E-01
        1   -1    0    0  501    0  0.00000000000E+00  0.00000000000E+00  0.20498126214E+04  0.20498126214E+04  0.50400001928E-02 0. -1.
       -1   -1    0    0    0  501  0.00000000000E+00  0.00000000000E+00 -0.13310067829E+04  0.13310067829E+04  0.50400001928E-02 0.  1.
    10030    2    1    2    0    0  0.00000000000E+00  0.00000000000E+00  0.71880583850E+03  0.33808194043E+04  0.33035220616E+04 0.  0.
        3    1    3    3  502    0  0.12442004541E+04 -0.10687752248E+04  0.15990782310E+03  0.16479944700E+04  0.10100000352E+00 0. -1.
       -3    1    3    3    0  502 -0.12442004541E+04  0.10687752248E+04  0.55889801540E+03  0.17328249343E+04  0.10100000352E+00 0.  1.
</event>
<event>
 5   0  0.6706080E-08  0.3301082E+04  0.7818609E-02  0.8162620E-01
       -2   -1    0    0    0  501  0.00000000000E+00  0.00000000000E+00  0.98899476299E+03  0.98899476299E+03  0.25500000920E-02 0.  1.
        2   -1    0    0  501    0  0.00000000000E+00  0.00000000000E+00 -0.27546002783E+04  0.27546002783E+04  0.25500000920E-02 0. -1.
    10030    2    1    2    0    0  0.00000000000E+00  0.00000000000E+00 -0.17656055153E+04  0.37435950413E+04  0.33010817920E+04 0.  0.
        4    1    3    3  502    0  0.15781969817E+04  0.12510499846E+03 -0.35339809442E+03  0.16221124498E+04  0.12699999809E+01 0.  1.
       -4    1    3    3    0  502 -0.15781969817E+04 -0.12510499846E+03 -0.14122074209E+04  0.21214825915E+04  0.12699999809E+01 0. -1.
</event>
<event>
 5   0  0.6706080E-08  0.3299236E+04  0.7818609E-02  0.8163090E-01
        2   -1    0    0  501    0  0.00000000000E+00  0.00000000000E+00  0.27068503595E+04  0.27068503595E+04  0.25500000920E-02 0.  1.
       -2   -1    0    0    0  501  0.00000000000E+00  0.00000000000E+00 -0.10053160140E+04  0.10053160141E+04  0.25500000920E-02 0. -1.
    10030    2    1    2    0    0  0.00000000000E+00  0.00000000000E+00  0.17015343455E+04  0.37121663736E+04  0.32992362838E+04 0.  0.
        4    1    3    3  502    0  0.94950928651E+02  0.54148524357E+03  0.26007485363E+04  0.26582167914E+04  0.12699999809E+01 0.  1.
       -4    1    3    3    0  502 -0.94950928651E+02 -0.54148524357E+03 -0.89921419086E+03  0.10539495822E+04  0.12699999809E+01 0. -1.
</event>
<event>
 5   0  0.6706080E-08  0.3296643E+04  0.7818609E-02  0.8163750E-01
       -2   -1    0    0    0  501  0.00000000000E+00  0.00000000000E+00  0.13491864001E+04  0.13491864001E+04  0.25500000920E-02 0. -1.
        2   -1    0    0  501    0  0.00000000000E+00  0.00000000000E+00 -0.20137788921E+04  0.20137788921E+04  0.25500000920E-02 0.  1.
    10030    2    1    2    0    0  0.00000000000E+00  0.00000000000E+00 -0.66459249198E+03  0.33629652922E+04  0.32966425915E+04 0.  0.
        4    1    3    3  502    0  0.13211274051E+04 -0.98563188302E+03 -0.34317148172E+03  0.16836318208E+04  0.12699999809E+01 0.  1.
       -4    1    3    3    0  502 -0.13211274051E+04  0.98563188302E+03 -0.32142101026E+03  0.16793334714E+04  0.12699999809E+01 0. -1.
</event>
<event>
 5   0  0.7084130E-08  0.3300216E+04  0.7818609E-02  0.8162841E-01
        2   -1    0    0  501    0  0.00000000000E+00  0.00000000000E+00  0.26315951504E+04  0.26315951504E+04  0.25500000920E-02 0. -1.
       -2   -1    0    0    0  501  0.00000000000E+00  0.00000000000E+00 -0.10346788271E+04  0.10346788271E+04  0.25500000920E-02 0.  1.
    10030    2    1    2    0    0  0.00000000000E+00  0.00000000000E+00  0.15969163233E+04  0.36662739775E+04  0.33002156194E+04 0.  0.
        3    1    3    3  502    0  0.11331313652E+04  0.82322096494E+03 -0.17076824265E+03  0.14109717399E+04  0.10100000352E+00 0. -1.
       -3    1    3    3    0  502 -0.11331313652E+04 -0.82322096494E+03  0.17676845659E+04  0.22553022376E+04  0.10100000352E+00 0.  1.
</event>
<event>
 5   0  0.2244093E-08  0.3298714E+04  0.7818609E-02  0.8163223E-01
        1   -1    0    0  501    0  0.00000000000E+00  0.00000000000E+00  0.24029540729E+04  0.24029540729E+04  0.50400001928E-02 0.  1.
       -1   -1    0    0    0  501  0.00000000000E+00  0.00000000000E+00 -0.11320974558E+04  0.11320974558E+04  0.50400001928E-02 0. -1.
    10030    2    1    2    0    0  0.00000000000E+00  0.00000000000E+00  0.12708566171E+04  0.35350515288E+04  0.32987138054E+04 0.  0.
        1    1    3    3  502    0  0.99351921882E+03  0.12707863689E+04  0.26668298640E+03  0.16349612377E+04  0.50400001928E-02 0.  1.
       -1    1    3    3    0  502 -0.99351921882E+03 -0.12707863689E+04  0.10041736307E+04  0.19000902911E+04  0.50400001928E-02 0. -1.
</event>
<event>
 5   0  0.6765252E-08  0.3308221E+04  0.7818609E-02  0.8160807E-01
       -2   -1    0    0    0  501  0.00000000000E+00  0.00000000000E+00  0.11731877465E+04  0.11731877465E+04  0.25500000920E-02 0. -1.
        2   -1    0    0  501    0  0.00000000000E+00  0.00000000000E+00 -0.23321766345E+04  0.23321766345E+04  0.25500000920E-02 0.  1.
    10030    2    1    2    0    0  0.00000000000E+00  0.00000000000E+00 -0.11589888880E+04  0.35053643811E+04  0.33082207002E+04 0.  0.
        2    1    3    3  502    0 -0.12238111849E+04  0.69253773707E+03  0.34348183872E+03  0.14475158400E+04  0.25500000920E-02 0. -1.
       -2    1    3    3    0  502  0.12238111849E+04 -0.69253773707E+03 -0.15024707267E+04  0.20578485411E+04  0.25500000920E-02 0.  1.
</event>
<event>
 5   0  0.6603516E-08  0.3299514E+04  0.7818609E-02  0.8163019E-01
        2   -1    0    0  501    0  0.00000000000E+00  0.00000000000E+00  0.23166649461E+04  0.23166649461E+04  0.25500000920E-02 0.  1.
       -2   -1    0    0    0  501  0.00000000000E+00  0.00000000000E+00 -0.11748346890E+04  0.11748346890E+04  0.25500000920E-02 0. -1.
    10030    2    1    2    0    0  0.00000000000E+00  0.00000000000E+00  0.11418302570E+04  0.34914996351E+04  0.32995141106E+04 0.  0.
        1    1    3    3  502    0  0.99450035227E+03 -0.13633473645E+03 -0.81449252967E+03  0.12926779150E+04  0.50400001928E-02 0. -1.
       -1    1    3    3    0  502 -0.99450035227E+03  0.13633473645E+03  0.19563227867E+04  0.21988217201E+04  0.50400001928E-02 0.  1.
</event>
<event>
 5   0  0.2291682E-08  0.3303594E+04  0.7818609E-02  0.8161981E-01
        1   -1    0    0  501    0  0.00000000000E+00  0.00000000000E+00  0.11300293687E+04  0.11300293687E+04  0.50400001928E-02 0. -1.
       -1   -1    0    0    0  501  0.00000000000E+00  0.00000000000E+00 -0.24144802769E+04  0.24144802769E+04  0.50400001928E-02 0.  1.
    10030    2    1    2    0    0  0.00000000000E+00  0.00000000000E+00 -0.12844509082E+04  0.35445096456E+04  0.33035941779E+04 0.  0.
        2    1    3    3  502    0  0.10984496822E+04 -0.45603563291E+03  0.58760780554E+03  0.13265907944E+04  0.25500000920E-02 0. -1.
       -2    1    3    3    0  502 -0.10984496822E+04  0.45603563291E+03 -0.18720587137E+04  0.22179188512E+04  0.25500000920E-02 0.  1.
</event>
<event>
 5   0  0.2291682E-08  0.3298022E+04  0.7818609E-02  0.8163399E-01
       -1   -1    0    0    0  501  0.00000000000E+00  0.00000000000E+00  0.11949249886E+04  0.11949249886E+04  0.50400001928E-02 0.  1.
        1   -1    0    0  501    0  0.00000000000E+00  0.00000000000E+00 -0.22756552523E+04  0.22756552523E+04  0.50400001928E-02 0. -1.
    10030    2    1    2    0    0  0.00000000000E+00  0.00000000000E+00 -0.10807302638E+04  0.34705802409E+04  0.32980220293E+04 0.  0.
        2    1    3    3  502    0 -0.58897884840E+02  0.78713774788E+03 -0.20639374958E+04  0.22097268568E+04  0.25500000920E-02 0. -1.
       -2    1    3    3    0  502  0.58897884840E+02 -0.78713774788E+03  0.98320723207E+03  0.12608533841E+04  0.25500000920E-02 0.  1.
</event>
<event>
 5   0  0.6706080E-08  0.3301174E+04  0.7818609E-02  0.8162597E-01
        2   -1    0    0  501    0  0.00000000000E+00  0.00000000000E+00  0.18782907886E+04  0.18782907886E+04  0.25500000920E-02 0.  1.
       -2   -1    0    0    0  501  0.00000000000E+00  0.00000000000E+00 -0.14504875828E+04  0.14504875828E+04  0.25500000920E-02 0. -1.
    10030    2    1    2    0    0  0.00000000000E+00  0.00000000000E+00  0.42780320580E+03  0.33287783714E+04  0.33011740129E+04 0.  0.
        4    1    3    3  502    0 -0.12278948811E+04  0.11669080160E+03  0.13199295788E+04  0.18065321165E+04  0.12699999809E+01 0.  1.
       -4    1    3    3    0  502  0.12278948811E+04 -0.11669080160E+03 -0.89212637298E+03  0.15222462549E+04  0.12699999809E+01 0. -1.
</event>
<event>
 5   0  0.6706080E-08  0.3298801E+04  0.7818609E-02  0.8163201E-01
       -2   -1    0    0    0  501  0.00000000000E+00  0.00000000000E+00  0.12740587571E+04  0.12740587571E+04  0.25500000920E-02 0.  1.
        2   -1    0    0  501    0  0.00000000000E+00  0.00000000000E+00 -0.21353185058E+04  0.21353185058E+04  0.25500000920E-02 0. -1.
    10030    2    1    2    0    0  0.00000000000E+00  0.00000000000E+00 -0.86125974869E+03  0.34093772629E+04  0.32988005345E+04 0.  0.
        4    1    3    3  502    0  0.14598903897E+04 -0.75652782072E+03 -0.56500871748E+03  0.17386347394E+04  0.12699999809E+01 0.  1.
       -4    1    3    3    0  502 -0.14598903897E+04  0.75652782072E+03 -0.29625103121E+03  0.16707425235E+04  0.12699999809E+01 0. -1.
</event>
<event>
 5   0  0.6706080E-08  0.3289469E+04  0.7818609E-02  0.8165580E-01
       -2   -1    0    0    0  501  0.00000000000E+00  0.00000000000E+00  0.15792051133E+04  0.15792051133E+04  0.25500000920E-02 0. -1.
        2   -1    0    0  501    0  0.00000000000E+00  0.00000000000E+00 -0.17129825195E+04  0.17129825195E+04  0.25500000920E-02 0.  1.
    10030    2    1    2    0    0  0.00000000000E+00  0.00000000000E+00 -0.13377740624E+03  0.32921876328E+04  0.32894685004E+04 0.  0.
        4    1    3    3  502    0  0.12893490313E+04  0.10002005200E+04  0.13901695913E+03  0.16377268797E+04  0.12699999809E+01 0.  1.
       -4    1    3    3    0  502 -0.12893490313E+04 -0.10002005200E+04 -0.27279436537E+03  0.16544607531E+04  0.12699999809E+01 0. -1.
</event>
<event>
 5   0  0.2279938E-08  0.3300039E+04  0.7818609E-02  0.8162886E-01
        1   -1    0    0  501    0  0.00000000000E+00  0.00000000000E+00  0.18217585650E+04  0.18217585650E+04  0.50400001928E-02 0. -1.
       -1   -1    0    0    0  501  0.00000000000E+00  0.00000000000E+00 -0.14944700703E+04  0.14944700703E+04  0.50400001928E-02 0.  1.
    10030    2    1    2    0    0  0.00000000000E+00  0.00000000000E+00  0.32728849472E+03  0.33162286353E+04  0.33000385760E+04 0.  0.
        3    1    3    3  502    0 -0.77248301319E+03  0.30728679744E+03  0.15959115475E+04  0.17994690493E+04  0.10100000352E+00 0. -1.
       -3    1    3    3    0  502  0.77248301319E+03 -0.30728679744E+03 -0.12686230528E+04  0.15167595860E+04  0.10100000352E+00 0.  1.
</event>
<event>
 5   0  0.2383270E-08  0.3299416E+04  0.7818609E-02  0.8163044E-01
        1   -1    0    0  501    0  0.00000000000E+00  0.00000000000E+00  0.19742821682E+04  0.19742821682E+04  0.50400001928E-02 0. -1.
       -1   -1    0    0    0  501  0.00000000000E+00  0.00000000000E+00 -0.13784938246E+04  0.13784938246E+04  0.50400001928E-02 0.  1.
    10030    2    1    2    0    0  0.00000000000E+00  0.00000000000E+00  0.59578834358E+03  0.33527759928E+04  0.32994155706E+04 0.  0.
        5    1    3    3  502    0 -0.11539912360E+04 -0.87185484828E+03 -0.50846753457E+03  0.15330975093E+04  0.46999998093E+01 0.  1.
       -5    1    3    3    0  502  0.11539912360E+04  0.87185484828E+03  0.11042558781E+04  0.18196784836E+04  0.46999998093E+01 0. -1.
</event>
<event>
 5   0  0.6765252E-08  0.3300735E+04  0.7818609E-02  0.8162708E-01
       -2   -1    0    0    0  501  0.00000000000E+00  0.00000000000E+00  0.16569009541E+04  0.16569009541E+04  0.25500000920E-02 0. -1.
        2   -1    0    0  501    0  0.00000000000E+00  0.00000000000E+00 -0.16438596698E+04  0.16438596698E+04  0.25500000920E-02 0.  1.
    10030    2    1    2    0    0  0.00000000000E+00  0.00000000000E+00  0.13041284239E+02  0.33007606239E+04  0.33007348608E+04 0.  0.
        2    1    3    3  502    0 -0.58723668082E+03  0.11485040515E+03  0.15446077820E+04  0.16564572844E+04  0.25500000920E-02 0. -1.
       -2    1    3    3    0  502  0.58723668082E+03 -0.11485040515E+03 -0.15315664978E+04  0.16443033394E+04  0.25500000920E-02 0.  1.
</event>
<event>
 5   0  0.2291682E-08  0.3295673E+04  0.7818609E-02  0.8163997E-01
        1   -1    0    0  501    0  0.00000000000E+00  0.00000000000E+00  0.21219972040E+04  0.21219972040E+04  0.50400001928E-02 0. -1.
       -1   -1    0    0    0  501  0.00000000000E+00  0.00000000000E+00 -0.12796271642E+04  0.12796271642E+04  0.50400001928E-02 0.  1.
    10030    2    1    2    0    0  0.00000000000E+00  0.00000000000E+00  0.84237003977E+03  0.34016243682E+04  0.32956730812E+04 0.  0.
        2    1    3    3  502    0  0.69757429818E+03  0.28789433223E+01  0.19620785170E+04  0.20823953267E+04  0.25500000920E-02 0. -1.
       -2    1    3    3    0  502 -0.69757429818E+03 -0.28789433223E+01 -0.11197084772E+04  0.13192290414E+04  0.25500000920E-02 0.  1.
</event>
<event>
 5   0  0.2291682E-08  0.3297059E+04  0.7818609E-02  0.8163644E-01
        1   -1    0    0  501    0  0.00000000000E+00  0.00000000000E+00  0.26910590660E+04  0.26910590660E+04  0.50400001928E-02 0. -1.
       -1   -1    0    0    0  501  0.00000000000E+00  0.00000000000E+00 -0.10098807913E+04  0.10098807913E+04  0.50400001928E-02 0.  1.
    10030    2    1    2    0    0  0.00000000000E+00  0.00000000000E+00  0.16811782746E+04  0.37009398573E+04  0.32970586037E+04 0.  0.
        2    1    3    3  502    0 -0.85375079291E+03  0.83426975148E+03  0.21168605497E+04  0.24302253026E+04  0.25500000920E-02 0. -1.
       -2    1    3    3    0  502  0.85375079291E+03 -0.83426975148E+03 -0.43568227506E+03  0.12707145547E+04  0.25500000920E-02 0.  1.
</event>
<event>
 5   0  0.2244093E-08  0.3299707E+04  0.7818609E-02  0.8162970E-01
       -1   -1    0    0    0  501  0.00000000000E+00  0.00000000000E+00  0.16389015499E+04  0.16389015500E+04  0.50400001928E-02 0.  1.
        1   -1    0    0  501    0  0.00000000000E+00  0.00000000000E+00 -0.16608790784E+04  0.16608790784E+04  0.50400001928E-02 0. -1.
    10030    2    1    2    0    0  0.00000000000E+00  0.00000000000E+00 -0.21977528407E+02  0.32997806283E+04  0.32997074390E+04 0.  0.
        1    1    3    3  502    0  0.24613403843E+03  0.40338052978E+02 -0.16419167717E+04  0.16607527837E+04  0.50400001928E-02 0. -1.
       -1    1    3    3    0  502 -0.24613403843E+03 -0.40338052978E+02  0.16199392433E+04  0.16390278446E+04  0.50400001928E-02 0.  1.
</event>
<event>
 5   0  0.6765252E-08  0.3299027E+04  0.7818609E-02  0.8163143E-01
       -2   -1    0    0    0  501  0.00000000000E+00  0.00000000000E+00  0.16337005243E+04  0.16337005243E+04  0.25500000920E-02 0.  1.
        2   -1    0    0  501    0  0.00000000000E+00  0.00000000000E+00 -0.16654797703E+04  0.16654797703E+04  0.25500000920E-02 0. -1.
    10030    2    1    2    0    0  0.00000000000E+00  0.00000000000E+00 -0.31779245920E+02  0.32991802946E+04  0.32990272348E+04 0.  0.
        2    1    3    3  502    0 -0.20430173433E+03  0.53710235427E+03 -0.15621427958E+04  0.16644843802E+04  0.25500000920E-02 0. -1.
       -2    1    3    3    0  502  0.20430173433E+03 -0.53710235427E+03  0.15303635499E+04  0.16346959144E+04  0.25500000920E-02 0.  1.
</event>
<event>
 5   0  0.6706080E-08  0.3302240E+04  0.7818609E-02  0.8162326E-01
       -2   -1    0    0    0  501  0.00000000000E+00  0.00000000000E+00  0.14816644034E+04  0.14816644034E+04  0.25500000920E-02 0.  1.
        2   -1    0    0  501    0  0.00000000000E+00  0.00000000000E+00 -0.18399559536E+04  0.18399559536E+04  0.25500000920E-02 0. -1.
    10030    2    1    2    0    0  0.00000000000E+00  0.00000000000E+00 -0.35829155021E+03  0.33216203570E+04  0.33022399915E+04 0.  0.
        4    1    3    3  502    0  0.12803374694E+04  0.38822002113E+03 -0.11524073504E+04  0.17657924947E+04  0.12699999809E+01 0. -1.
       -4    1    3    3    0  502 -0.12803374694E+04 -0.38822002113E+03  0.79411580016E+03  0.15558278623E+04  0.12699999809E+01 0.  1.
</event>
<event>
 5   0  0.2244093E-08  0.3300155E+04  0.7818609E-02  0.8162856E-01
       -1   -1    0    0    0  501  0.00000000000E+00  0.00000000000E+00  0.14250710597E+04  0.14250710598E+04  0.50400001928E-02 0.  1.
        1   -1    0    0  501    0  0.00000000000E+00  0.00000000000E+00 -0.19106104159E+04  0.19106104159E+04  0.50400001928E-02 0. -1.
    10030    2    1    2    0    0  0.00000000000E+00  0.00000000000E+00 -0.48553935618E+03  0.33356814757E+04  0.33001549116E+04 0.  0.
        1    1    3    3  502    0 -0.44027439791E+03 -0.15445599085E+04 -0.62532625528E+03  0.17235253935E+04  0.50400001928E-02 0. -1.
       -1    1    3    3    0  502  0.44027439791E+03  0.15445599085E+04  0.13978689909E+03  0.16121560822E+04  0.50400001928E-02 0.  1.
</event>
<event>
 5   0  0.6603516E-08  0.3297678E+04  0.7818609E-02  0.8163487E-01
       -2   -1    0    0    0  501  0.00000000000E+00  0.00000000000E+00  0.15282327465E+04  0.15282327465E+04  0.25500000920E-02 0.  1.
        2   -1    0    0  501    0  0.00000000000E+00  0.00000000000E+00 -0.17789630108E+04  0.17789630108E+04  0.25500000920E-02 0. -1.
    10030    2    1    2    0    0  0.00000000000E+00  0.00000000000E+00 -0.25073026423E+03  0.33071957573E+04  0.32976776846E+04 0.  0.
        1    1    3    3  502    0  0.88977508815E+03 -0.63714734274E+03  0.11114881098E+04  0.15598276386E+04  0.50400001928E-02 0.  1.
       -1    1    3    3    0  502 -0.88977508815E+03  0.63714734274E+03 -0.13622183740E+04  0.17473681187E+04  0.50400001928E-02 0. -1.
</event>
<event>
 5   0  0.2291682E-08  0.3300145E+04  0.7818609E-02  0.8162858E-01
        1   -1    0    0  501    0  0.00000000000E+00  0.00000000000E+00  0.20845815555E+04  0.20845815555E+04  0.50400001928E-02 0. -1.
       -1   -1    0    0    0  501  0.00000000000E+00  0.00000000000E+00 -0.13061323007E+04  0.13061323007E+04  0.50400001928E-02 0.  1.
    10030    2    1    2    0    0  0.00000000000E+00  0.00000000000E+00  0.77844925481E+03  0.33907138562E+04  0.33001450290E+04 0.  0.
        2    1    3    3  502    0  0.38478834575E+03  0.39556868294E+03  0.19869585696E+04  0.20621690064E+04  0.25500000920E-02 0. -1.
       -2    1    3    3    0  502 -0.38478834575E+03 -0.39556868294E+03 -0.12085093148E+04  0.13285448498E+04  0.25500000920E-02 0.  1.
</event>
<event>
 5   0  0.2244093E-08  0.3300291E+04  0.7818609E-02  0.8162821E-01
       -1   -1    0    0    0  501  0.00000000000E+00  0.00000000000E+00  0.23651376492E+04  0.23651376492E+04  0.50400001928E-02 0. -1.
        1   -1    0    0  501    0  0.00000000000E+00  0.00000000000E+00 -0.11512988113E+04  0.11512988114E+04  0.50400001928E-02 0.  1.
    10030    2    1    2    0    0  0.00000000000E+00  0.00000000000E+00  0.12138388379E+04  0.35164364606E+04  0.33002909958E+04 0.  0.
        1    1    3    3  502    0  0.42924571044E+03  0.24436656719E+03  0.22845253978E+04  0.23373111031E+04  0.50400001928E-02 0. -1.
       -1    1    3    3    0  502 -0.42924571044E+03 -0.24436656719E+03 -0.10706865600E+04  0.11791253575E+04  0.50400001928E-02 0.  1.
</event>
<event>
 5   0  0.2279938E-08  0.3299779E+04  0.7818609E-02  0.8162952E-01
       -1   -1    0    0    0  501  0.00000000000E+00  0.00000000000E+00  0.13920254609E+04  0.13920254609E+04  0.50400001928E-02 0.  1.
        1   -1    0    0  501    0  0.00000000000E+00  0.00000000000E+00 -0.19555213216E+04  0.19555213216E+04  0.50400001928E-02 0. -1.
    10030    2    1    2    0    0  0.00000000000E+00  0.00000000000E+00 -0.56349586077E+03  0.33475467825E+04  0.32997790647E+04 0.  0.
        3    1    3    3  502    0 -0.94033605379E+03  0.37196799125E+03 -0.16042851989E+04  0.18963973977E+04  0.10100000352E+00 0. -1.
       -3    1    3    3    0  502  0.94033605379E+03 -0.37196799125E+03  0.10407893381E+04  0.14511493848E+04  0.10100000352E+00 0.  1.
</event>
<event>
 5   0  0.2244093E-08  0.3301612E+04  0.7818609E-02  0.8162485E-01
       -1   -1    0    0    0  501  0.00000000000E+00  0.00000000000E+00  0.16731465979E+04  0.16731465979E+04  0.50400001928E-02 0.  1.
        1   -1    0    0  501    0  0.00000000000E+00  0.00000000000E+00 -0.16287637057E+04  0.16287637058E+04  0.50400001928E-02 0. -1.
    10030    2    1    2    0    0  0.00000000000E+00  0.00000000000E+00  0.44382892108E+02  0.33019103036E+04  0.33016120020E+04 0.  0.
        1    1    3    3  502    0 -0.16284288479E+04  0.25781912620E+03  0.10532078430E+03  0.16520725415E+04  0.50400001928E-02 0. -1.
       -1    1    3    3    0  502  0.16284288479E+04 -0.25781912620E+03 -0.60937892193E+02  0.16498377621E+04  0.50400001928E-02 0.  1.
</event>
<event>
 5   0  0.2244093E-08  0.3299334E+04  0.7818609E-02  0.8163065E-01
        1   -1    0    0  501    0  0.00000000000E+00  0.00000000000E+00  0.19232114595E+04  0.19232114595E+04  0.50400001928E-02 0.  1.
       -1   -1    0    0    0  501  0.00000000000E+00  0.00000000000E+00 -0.14150297823E+04  0.14150297823E+04  0.50400001928E-02 0. -1.
    10030    2    1    2    0    0  0.00000000000E+00  0.00000000000E+00  0.50818167716E+03  0.33382412418E+04  0.32993341709E+04 0.  0.
        1    1    3    3  502    0 -0.92078520322E+03 -0.10645713278E+04  0.11246110491E+04  0.18016402288E+04  0.50400001928E-02 0. -1.
       -1    1    3    3    0  502  0.92078520322E+03  0.10645713278E+04 -0.61642937192E+03  0.15366010129E+04  0.50400001928E-02 0.  1.
</event>
<event>
 5   0  0.2291682E-08  0.3300620E+04  0.7818609E-02  0.8162738E-01
       -1   -1    0    0    0  501  0.00000000000E+00  0.00000000000E+00  0.13349977130E+04  0.13349977131E+04  0.50400001928E-02 0.  1.
        1   -1    0    0  501    0  0.00000000000E+00  0.00000000000E+00 -0.20400954389E+04  0.20400954389E+04  0.50400001928E-02 0. -1.
    10030    2    1    2    0    0  0.00000000000E+00  0.00000000000E+00 -0.70509772584E+03  0.33750931519E+04  0.33006197874E+04 0.  0.
        2    1    3    3  502    0 -0.14821559010E+03  0.25495209965E+02  0.13279758736E+04  0.13364646601E+04  0.25500000920E-02 0.  1.
       -2    1    3    3    0  502  0.14821559010E+03 -0.25495209965E+02 -0.20330735994E+04  0.20386284918E+04  0.25500000920E-02 0. -1.
</event>
<event>
 5   0  0.2244093E-08  0.3302960E+04  0.7818609E-02  0.8162143E-01
       -1   -1    0    0    0  501  0.00000000000E+00  0.00000000000E+00  0.11208178286E+04  0.11208178286E+04  0.50400001928E-02 0. -1.
        1   -1    0    0  501    0  0.00000000000E+00  0.00000000000E+00 -0.24333888058E+04  0.24333888058E+04  0.50400001928E-02 0.  1.
    10030    2    1    2    0    0  0.00000000000E+00  0.00000000000E+00 -0.13125709772E+04  0.35542066344E+04  0.33029596168E+04 0.  0.
        1    1    3    3  502    0  0.67184428028E+03  0.10644099384E+04  0.49417196251E+03  0.13522385819E+04  0.50400001928E-02 0. -1.
       -1    1    3    3    0  502 -0.67184428028E+03 -0.10644099384E+04 -0.18067429397E+04  0.22019680525E+04  0.50400001928E-02 0.  1.
</event>
<event>
 5   0  0.6765252E-08  0.3301290E+04  0.7818609E-02  0.8162567E-01
       -2   -1    0    0    0  501  0.00000000000E+00  0.00000000000E+00  0.21126445672E+04  0.21126445672E+04  0.25500000920E-02 0.  1.
        2   -1    0    0  501    0  0.00000000000E+00  0.00000000000E+00 -0.12896767832E+04  0.12896767832E+04  0.25500000920E-02 0. -1.
    10030    2    1    2    0    0  0.00000000000E+00  0.00000000000E+00  0.82296778404E+03  0.34023213504E+04  0.33012898385E+04 0.  0.
        2    1    3    3  502    0  0.86028418253E+03  0.33055070982E+03 -0.99983213505E+03  0.13597856246E+04  0.25500000920E-02 0. -1.
       -2    1    3    3    0  502 -0.86028418253E+03 -0.33055070982E+03  0.18227999191E+04  0.20425357259E+04  0.25500000920E-02 0.  1.
</event>
<event>
 5   0  0.2291682E-08  0.3299861E+04  0.7818609E-02  0.8162931E-01
        1   -1    0    0  501    0  0.00000000000E+00  0.00000000000E+00  0.13997278570E+04  0.13997278570E+04  0.50400001928E-02 0. -1.
       -1   -1    0    0    0  501  0.00000000000E+00  0.00000000000E+00 -0.19448570851E+04  0.19448570851E+04  0.50400001928E-02 0.  1.
    10030    2    1    2    0    0  0.00000000000E+00  0.00000000000E+00 -0.54512922810E+03  0.33445849420E+04  0.32998609909E+04 0.  0.
        2    1    3    3  502    0 -0.15430792394E+04  0.39230038530E+03 -0.71118558943E+03  0.17437826911E+04  0.25500000920E-02 0.  1.
       -2    1    3    3    0  502  0.15430792394E+04 -0.39230038530E+03  0.16605636133E+03  0.16008022509E+04  0.25500000920E-02 0. -1.
</event>
<event>
 5   0  0.2383270E-08  0.3299424E+04  0.7818609E-02  0.8163042E-01
       -1   -1    0    0    0  501  0.00000000000E+00  0.00000000000E+00  0.98891478900E+03  0.98891478901E+03  0.50400001928E-02 0. -1.
        1   -1    0    0  501    0  0.00000000000E+00  0.00000000000E+00 -0.27520573233E+04  0.27520573233E+04  0.50400001928E-02 0.  1.
    10030    2    1    2    0    0  0.00000000000E+00  0.00000000000E+00 -0.17631425343E+04  0.37409721123E+04  0.32994243057E+04 0.  0.
        5    1    3    3  502    0 -0.12654786813E+04 -0.14028570589E+02 -0.20814433667E+04  0.24359929541E+04  0.46999998093E+01 0.  1.
       -5    1    3    3    0  502  0.12654786813E+04  0.14028570589E+02  0.31830083240E+03  0.13049791582E+04  0.46999998093E+01 0. -1.
</event>
<event>
 5   0  0.6603516E-08  0.3299224E+04  0.7818609E-02  0.8163093E-01
       -2   -1    0    0    0  501  0.00000000000E+00  0.00000000000E+00  0.14222843282E+04  0.14222843282E+04  0.25500000920E-02 0. -1.
        2   -1    0    0  501    0  0.00000000000E+00  0.00000000000E+00 -0.19132740965E+04  0.19132740965E+04  0.25500000920E-02 0.  1.
    10030    2    1    2    0    0  0.00000000000E+00  0.00000000000E+00 -0.49098976837E+03  0.33355584247E+04  0.32992240076E+04 0.  0.
        1    1    3    3  502    0  0.13733114872E+04 -0.84215361438E+03 -0.60438686527E+03  0.17206076351E+04  0.50400001928E-02 0. -1.
       -1    1    3    3    0  502 -0.13733114872E+04  0.84215361438E+03  0.11339709690E+03  0.16149507896E+04  0.50400001928E-02 0.  1.
</event>
<event>
 5   0  0.6603516E-08  0.3301789E+04  0.7818609E-02  0.8162440E-01
       -2   -1    0    0    0  501  0.00000000000E+00  0.00000000000E+00  0.19981979008E+04  0.19981979008E+04  0.25500000920E-02 0.  1.
        2   -1    0    0  501    0  0.00000000000E+00  0.00000000000E+00 -0.13639556916E+04  0.13639556916E+04  0.25500000920E-02 0. -1.
    10030    2    1    2    0    0  0.00000000000E+00  0.00000000000E+00  0.63424220915E+03  0.33621535924E+04  0.33017894540E+04 0.  0.
        1    1    3    3  502    0 -0.48929399366E+03 -0.15168162095E+04 -0.12122944445E+03  0.15983856243E+04  0.50400001928E-02 0. -1.
       -1    1    3    3    0  502  0.48929399366E+03  0.15168162095E+04  0.75547165361E+03  0.17637679681E+04  0.50400001928E-02 0.  1.
</event>
<event>
 5   0  0.6765252E-08  0.3300538E+04  0.7818609E-02  0.8162758E-01
        2   -1    0    0  501    0  0.00000000000E+00  0.00000000000E+00  0.10582908041E+04  0.10582908041E+04  0.25500000920E-02 0. -1.
       -2   -1    0    0    0  501  0.00000000000E+00  0.00000000000E+00 -0.25733836369E+04  0.25733836369E+04  0.25500000920E-02 0.  1.
    10030    2    1    2    0    0  0.00000000000E+00  0.00000000000E+00 -0.15150928328E+04  0.36316744411E+04  0.33005382824E+04 0.  0.
        2    1    3    3  502    0 -0.84737681362E+03 -0.66678573725E+02  0.79890029656E+03  0.11665055423E+04  0.25500000920E-02 0. -1.
       -2    1    3    3    0  502  0.84737681362E+03  0.66678573725E+02 -0.23139931294E+04  0.24651688987E+04  0.25500000920E-02 0.  1.
</event>
<event>
 5   0  0.6821287E-08  0.3300483E+04  0.7818609E-02  0.8162773E-01
        2   -1    0    0  501    0  0.00000000000E+00  0.00000000000E+00  0.17504402086E+04  0.17504402086E+04  0.25500000920E-02 0. -1.
       -2   -1    0    0    0  501  0.00000000000E+00  0.00000000000E+00 -0.15557781145E+04  0.15557781145E+04  0.25500000920E-02 0.  1.
    10030    2    1    2    0    0  0.00000000000E+00  0.00000000000E+00  0.19466209410E+03  0.33062183230E+04  0.33004827327E+04 0.  0.
        5    1    3    3  502    0  0.46374872145E+02  0.11094184813E+04 -0.11255748078E+04  0.15811074389E+04  0.46999998093E+01 0.  1.
       -5    1    3    3    0  502 -0.46374872145E+02 -0.11094184813E+04  0.13202369019E+04  0.17251108841E+04  0.46999998093E+01 0. -1.
</event>
<event>
 5   0  0.2309822E-08  0.3299764E+04  0.7818609E-02  0.8162955E-01
        1   -1    0    0  501    0  0.00000000000E+00  0.00000000000E+00  0.24171992370E+04  0.24171992370E+04  0.50400001928E-02 0.  1.
       -1   -1    0    0    0  501  0.00000000000E+00  0.00000000000E+00 -0.11261423008E+04  0.11261423009E+04  0.50400001928E-02 0. -1.
    10030    2    1    2    0    0  0.00000000000E+00  0.00000000000E+00  0.12910569361E+04  0.35433415378E+04  0.32997638160E+04 0.  0.
        4    1    3    3  502    0  0.23538974753E+03  0.15703100821E+04  0.16431165964E+03  0.15963339317E+04  0.12699999809E+01 0. -1.
       -4    1    3    3    0  502 -0.23538974753E+03 -0.15703100821E+04  0.11267452765E+04  0.19470076061E+04  0.12699999809E+01 0.  1.
</event>
<event>
 5   0  0.6603516E-08  0.3299466E+04  0.7818609E-02  0.8163031E-01
       -2   -1    0    0    0  501  0.00000000000E+00  0.00000000000E+00  0.10118794707E+04  0.10118794707E+04  0.25500000920E-02 0. -1.
        2   -1    0    0  501    0  0.00000000000E+00  0.00000000000E+00 -0.26896664764E+04  0.26896664764E+04  0.25500000920E-02 0.  1.
    10030    2    1    2    0    0  0.00000000000E+00  0.00000000000E+00 -0.16777870057E+04  0.37015459472E+04  0.32994655874E+04 0.  0.
        1    1    3    3  502    0  0.12424216880E+04  0.54754431099E+03  0.21243083801E+03  0.13742428040E+04  0.50400001928E-02 0. -1.
       -1    1    3    3    0  502 -0.12424216880E+04 -0.54754431099E+03 -0.18902178437E+04  0.23273031431E+04  0.50400001928E-02 0.  1.
</event>
<event>
 5   0  0.2244093E-08  0.3299982E+04  0.7818609E-02  0.8162900E-01
        1   -1    0    0  501    0  0.00000000000E+00  0.00000000000E+00  0.17082622636E+04  0.17082622637E+04  0.50400001928E-02 0.  1.
       -1   -1    0    0    0  501  0.00000000000E+00  0.00000000000E+00 -0.15937077268E+04  0.15937077268E+04  0.50400001928E-02 0. -1.
    10030    2    1    2    0    0  0.00000000000E+00  0.00000000000E+00  0.11455453688E+03  0.33019699904E+04  0.32999822842E+04 0.  0.
        1    1    3    3  502    0  0.16297064031E+04  0.47631974148E+02 -0.19636901744E+03  0.16421852990E+04  0.50400001928E-02 0. -1.
       -1    1    3    3    0  502 -0.16297064031E+04 -0.47631974148E+02  0.31092355432E+03  0.16597846914E+04  0.50400001928E-02 0.  1.
</event>
<event>
 5   0  0.2291682E-08  0.3300216E+04  0.7818609E-02  0.8162840E-01
        1   -1    0    0  501    0  0.00000000000E+00  0.00000000000E+00  0.15617788547E+04  0.15617788547E+04  0.50400001928E-02 0.  1.
       -1   -1    0    0    0  501  0.00000000000E+00  0.00000000000E+00 -0.17434325192E+04  0.17434325192E+04  0.50400001928E-02 0. -1.
    10030    2    1    2    0    0  0.00000000000E+00  0.00000000000E+00 -0.18165366452E+03  0.33052113739E+04  0.33002157766E+04 0.  0.
        2    1    3    3  502    0  0.11464874351E+04  0.31878347997E+03  0.10540569805E+04  0.15896831333E+04  0.25500000920E-02 0.  1.
       -2    1    3    3    0  502 -0.11464874351E+04 -0.31878347997E+03 -0.12357106450E+04  0.17155282406E+04  0.25500000920E-02 0. -1.
</event>
<event>
 5   0  0.2244093E-08  0.3299857E+04  0.7818609E-02  0.8162932E-01
        1   -1    0    0  501    0  0.00000000000E+00  0.00000000000E+00  0.28947806346E+04  0.28947806346E+04  0.50400001928E-02 0.  1.
       -1   -1    0    0    0  501  0.00000000000E+00  0.00000000000E+00 -0.94040430577E+03  0.94040430578E+03  0.50400001928E-02 0. -1.
    10030    2    1    2    0    0  0.00000000000E+00  0.00000000000E+00  0.19543763288E+04  0.38351849404E+04  0.32998570715E+04 0.  0.
        1    1    3    3  502    0 -0.90497503693E+03 -0.87142295103E+03 -0.26585561926E+03  0.12841483510E+04  0.50400001928E-02 0. -1.
       -1    1    3    3    0  502  0.90497503693E+03  0.87142295103E+03  0.22202319481E+04  0.25510365894E+04  0.50400001928E-02 0.  1.
</event>
<event>
 5   0  0.2383270E-08  0.3298224E+04  0.7818609E-02  0.8163347E-01
        1   -1    0    0  501    0  0.00000000000E+00  0.00000000000E+00  0.18298625774E+04  0.18298625774E+04  0.50400001928E-02 0. -1.
       -1   -1    0    0    0  501  0.00000000000E+00  0.00000000000E+00 -0.14862160590E+04  0.14862160590E+04  0.50400001928E-02 0.  1.
    10030    2    1    2    0    0  0.00000000000E+00  0.00000000000E+00  0.34364651842E+03  0.33160786365E+04  0.32982244608E+04 0.  0.
        5    1    3    3  502    0  0.96666627462E+02  0.15613686282E+04  0.69650318857E+03  0.17124121033E+04  0.46999998093E+01 0.  1.
       -5    1    3    3    0  502 -0.96666627462E+02 -0.15613686282E+04 -0.35285667015E+03  0.16036665332E+04  0.46999998093E+01 0. -1.
</event>
<event>
 5   0  0.2291682E-08  0.3299582E+04  0.7818609E-02  0.8163002E-01
        1   -1    0    0  501    0  0.00000000000E+00  0.00000000000E+00  0.18413162371E+04  0.18413162371E+04  0.50400001928E-02 0. -1.
       -1   -1    0    0    0  501  0.00000000000E+00  0.00000000000E+00 -0.14781875413E+04  0.14781875413E+04  0.50400001928E-02 0.  1.
    10030    2    1    2    0    0  0.00000000000E+00  0.00000000000E+00  0.36312869577E+03  0.33195037784E+04  0.32995822289E+04 0.  0.
        2    1    3    3  502    0  0.65417215842E+03  0.53042386348E+03  0.16087626407E+04  0.18158766263E+04  0.25500000920E-02 0. -1.
       -2    1    3    3    0  502 -0.65417215842E+03 -0.53042386348E+03 -0.12456339449E+04  0.15036271521E+04  0.25500000920E-02 0.  1.
</event>
<event>
 5   0  0.6603516E-08  0.3300376E+04  0.7818609E-02  0.8162800E-01
       -2   -1    0    0    0  501  0.00000000000E+00  0.00000000000E+00  0.15336693169E+04  0.15336693169E+04  0.25500000920E-02 0.  1.
        2   -1    0    0  501    0  0.00000000000E+00  0.00000000000E+00 -0.17755586782E+04  0.17755586782E+04  0.25500000920E-02 0. -1.
    10030    2    1    2    0    0  0.00000000000E+00  0.00000000000E+00 -0.24188936125E+03  0.33092279951E+04  0.33003756545E+04 0.  0.
        1    1    3    3  502    0 -0.45182536226E+03 -0.82866245788E+03  0.12363079303E+04  0.15554050680E+04  0.50400001928E-02 0.  1.
       -1    1    3    3    0  502  0.45182536226E+03  0.82866245788E+03 -0.14781972915E+04  0.17538229271E+04  0.50400001928E-02 0. -1.
</event>
<event>
 5   0  0.7084130E-08  0.3297882E+04  0.7818609E-02  0.8163434E-01
        2   -1    0    0  501    0  0.00000000000E+00  0.00000000000E+00  0.19721737348E+04  0.19721737348E+04  0.25500000920E-02 0.  1.
       -2   -1    0    0    0  501  0.00000000000E+00  0.00000000000E+00 -0.13786854183E+04  0.13786854183E+04  0.25500000920E-02 0. -1.
    10030    2    1    2    0    0  0.00000000000E+00  0.00000000000E+00  0.59348831655E+03  0.33508591531E+04  0.32978824543E+04 0.  0.
        3    1    3    3  502    0  0.12898117129E+04  0.45904782336E+03 -0.63707767210E+03  0.15100354729E+04  0.10100000352E+00 0. -1.
       -3    1    3    3    0  502 -0.12898117129E+04 -0.45904782336E+03  0.12305659886E+04  0.18408236802E+04  0.10100000352E+00 0.  1.
</event>
<event>
 5   0  0.2244093E-08  0.3300674E+04  0.7818609E-02  0.8162724E-01
       -1   -1    0    0    0  501  0.00000000000E+00  0.00000000000E+00  0.18980004828E+04  0.18980004828E+04  0.50400001928E-02 0.  1.
        1   -1    0    0  501    0  0.00000000000E+00  0.00000000000E+00 -0.14349899672E+04  0.14349899672E+04  0.50400001928E-02 0. -1.
    10030    2    1    2    0    0  0.00000000000E+00  0.00000000000E+00  0.46301051563E+03  0.33329904500E+04  0.33006736589E+04 0.  0.
        1    1    3    3  502    0 -0.13626153122E+02  0.98386474550E+03 -0.11063958079E+04  0.14806374280E+04  0.50400001928E-02 0.  1.
       -1    1    3    3    0  502  0.13626153122E+02 -0.98386474550E+03  0.15694063236E+04  0.18523530220E+04  0.50400001928E-02 0. -1.
</event>
<event>
 5   0  0.2291682E-08  0.3303739E+04  0.7818609E-02  0.8161945E-01
       -1   -1    0    0    0  501  0.00000000000E+00  0.00000000000E+00  0.18034267770E+04  0.18034267771E+04  0.50400001928E-02 0. -1.
        1   -1    0    0  501    0  0.00000000000E+00  0.00000000000E+00 -0.15130486129E+04  0.15130486129E+04  0.50400001928E-02 0.  1.
    10030    2    1    2    0    0  0.00000000000E+00  0.00000000000E+00  0.29037816415E+03  0.33164753900E+04  0.33037387206E+04 0.  0.
        2    1    3    3  502    0 -0.12600603160E+04  0.54136328440E+03 -0.77914638814E+03  0.15773063431E+04  0.25500000920E-02 0.  1.
       -2    1    3    3    0  502  0.12600603160E+04 -0.54136328440E+03  0.10695245523E+04  0.17391690469E+04  0.25500000920E-02 0. -1.
</event>
<event>
 5   0  0.2244093E-08  0.3299918E+04  0.7818609E-02  0.8162916E-01
        1   -1    0    0  501    0  0.00000000000E+00  0.00000000000E+00  0.76227854688E+03  0.76227854689E+03  0.50400001928E-02 0.  1.
       -1   -1    0    0    0  501  0.00000000000E+00  0.00000000000E+00 -0.35713518922E+04  0.35713518922E+04  0.50400001928E-02 0. -1.
    10030    2    1    2    0    0  0.00000000000E+00  0.00000000000E+00 -0.28090733454E+04  0.43336304391E+04  0.32999181389E+04 0.  0.
        1    1    3    3  502    0 -0.56268976124E+03  0.13379096435E+04 -0.37403564236E+03  0.14988411001E+04  0.50400001928E-02 0.  1.
       -1    1    3    3    0  502  0.56268976124E+03 -0.13379096435E+04 -0.24350377030E+04  0.28347893390E+04  0.50400001928E-02 0. -1.
</event>
<event>
 5   0  0.2291682E-08  0.3300042E+04  0.7818609E-02  0.8162885E-01
        1   -1    0    0  501    0  0.00000000000E+00  0.00000000000E+00  0.24363545971E+04  0.24363545971E+04  0.50400001928E-02 0.  1.
       -1   -1    0    0    0  501  0.00000000000E+00  0.00000000000E+00 -0.11174763618E+04  0.11174763618E+04  0.50400001928E-02 0. -1.
    10030    2    1    2    0    0  0.00000000000E+00  0.00000000000E+00  0.13188782353E+04  0.35538309589E+04  0.33000416187E+04 0.  0.
        2    1    3    3  502    0 -0.14653328283E+04  0.10809860105E+03  0.14679667059E+04  0.20769717993E+04  0.25500000920E-02 0. -1.
       -2    1    3    3    0  502  0.14653328283E+04 -0.10809860105E+03 -0.14908847056E+03  0.14768591596E+04  0.25500000920E-02 0.  1.
</event>
<event>
 5   0  0.2279938E-08  0.3297685E+04  0.7818609E-02  0.8163485E-01
       -1   -1    0    0    0  501  0.00000000000E+00  0.00000000000E+00  0.13374540186E+04  0.13374540186E+04  0.50400001928E-02 0.  1.
        1   -1    0    0  501    0  0.00000000000E+00  0.00000000000E+00 -0.20327294833E+04  0.20327294833E+04  0.50400001928E-02 0. -1.
    10030    2    1    2    0    0  0.00000000000E+00  0.00000000000E+00 -0.69527546467E+03  0.33701835019E+04  0.32976853799E+04 0.  0.
        3    1    3    3  502    0  0.19089588661E+03 -0.14488696184E+04 -0.11279801859E+04  0.18460779292E+04  0.10100000352E+00 0. -1.
       -3    1    3    3    0  502 -0.19089588661E+03  0.14488696184E+04  0.43270472126E+03  0.15241055727E+04  0.10100000352E+00 0.  1.
</event>
<event>
 5   0  0.6603516E-08  0.3299865E+04  0.7818609E-02  0.8162930E-01
        2   -1    0    0  501    0  0.00000000000E+00  0.00000000000E+00  0.22678851200E+04  0.22678851200E+04  0.25500000920E-02 0.  1.
       -2   -1    0    0    0  501  0.00000000000E+00  0.00000000000E+00 -0.12003591627E+04  0.12003591627E+04  0.25500000920E-02 0. -1.
    10030    2    1    2    0    0  0.00000000000E+00  0.00000000000E+00  0.10675259573E+04  0.34682442828E+04  0.32998646541E+04 0.  0.
        1    1    3    3  502    0  0.24087499733E+03 -0.25410076914E+03  0.22283903876E+04  0.22557286372E+04  0.50400001928E-02 0.  1.
       -1    1    3    3    0  502 -0.24087499733E+03  0.25410076914E+03 -0.11608644303E+04  0.12125156456E+04  0.50400001928E-02 0. -1.
</event>
<event>
 5   0  0.2383270E-08  0.3302317E+04  0.7818609E-02  0.8162306E-01
       -1   -1    0    0    0  501  0.00000000000E+00  0.00000000000E+00  0.90072190034E+03  0.90072190035E+03  0.50400001928E-02 0.  1.
        1   -1    0    0  501    0  0.00000000000E+00  0.00000000000E+00 -0.30268206115E+04  0.30268206115E+04  0.50400001928E-02 0. -1.
    10030    2    1    2    0    0  0.00000000000E+00  0.00000000000E+00 -0.21260987111E+04  0.39275425118E+04  0.33023165282E+04 0.  0.
        5    1    3    3  502    0  0.42296068950E+03 -0.13162963131E+04  0.10494168519E+02  0.13826293597E+04  0.46999998093E+01 0.  1.
       -5    1    3    3    0  502 -0.42296068950E+03  0.13162963131E+04 -0.21365928797E+04  0.25449131522E+04  0.46999998093E+01 0. -1.
</event>
<event>
 5   0  0.6765252E-08  0.3298629E+04  0.7818609E-02  0.8163244E-01
       -2   -1    0    0    0  501  0.00000000000E+00  0.00000000000E+00  0.12290159029E+04  0.12290159029E+04  0.25500000920E-02 0. -1.
        2   -1    0    0  501    0  0.00000000000E+00  0.00000000000E+00 -0.22133466413E+04  0.22133466413E+04  0.25500000920E-02 0.  1.
    10030    2    1    2    0    0  0.00000000000E+00  0.00000000000E+00 -0.98433073840E+03  0.34423625443E+04  0.32986289400E+04 0.  0.
        2    1    3    3  502    0 -0.11422657027E+04  0.11843686954E+04 -0.60994633309E+03  0.17548602997E+04  0.25500000920E-02 0.  1.
       -2    1    3    3    0  502  0.11422657027E+04 -0.11843686954E+04 -0.37438440531E+03  0.16875022445E+04  0.25500000920E-02 0. -1.
</event>
<event>
 5   0  0.2291682E-08  0.3300071E+04  0.7818609E-02  0.8162877E-01
        1   -1    0    0  501    0  0.00000000000E+00  0.00000000000E+00  0.19830669614E+04  0.19830669614E+04  0.50400001928E-02 0. -1.
       -1   -1    0    0    0  501  0.00000000000E+00  0.00000000000E+00 -0.13729321947E+04  0.13729321947E+04  0.50400001928E-02 0.  1.
    10030    2    1    2    0    0  0.00000000000E+00  0.00000000000E+00  0.61013476675E+03  0.33559991561E+04  0.33000705905E+04 0.  0.
        2    1    3    3  502    0 -0.59386948787E+03 -0.12906158678E+04  0.11584835504E+04  0.18331542279E+04  0.25500000920E-02 0. -1.
       -2    1    3    3    0  502  0.59386948787E+03  0.12906158678E+04 -0.54834878361E+03  0.15228449282E+04  0.25500000920E-02 0.  1.
</event>
<event>
 5   0  0.7084130E-08  0.3300532E+04  0.7818609E-02  0.8162760E-01
       -2   -1    0    0    0  501  0.00000000000E+00  0.00000000000E+00  0.16947774352E+04  0.16947774352E+04  0.25500000920E-02 0.  1.
        2   -1    0    0  501    0  0.00000000000E+00  0.00000000000E+00 -0.16069238237E+04  0.16069238237E+04  0.25500000920E-02 0. -1.
    10030    2    1    2    0    0  0.00000000000E+00  0.00000000000E+00  0.87853611460E+02  0.33017012589E+04  0.33005322216E+04 0.  0.
        3    1    3    3  502    0  0.78289524177E+03  0.27054862157E+03 -0.13839037670E+04  0.16128580727E+04  0.10100000352E+00 0. -1.
       -3    1    3    3    0  502 -0.78289524177E+03 -0.27054862157E+03  0.14717573785E+04  0.16888431862E+04  0.10100000352E+00 0.  1.
</event>
<event>
 5   0  0.2244093E-08  0.3300589E+04  0.7818609E-02  0.8162746E-01
        1   -1    0    0  501    0  0.00000000000E+00  0.00000000000E+00  0.15578080041E+04  0.15578080041E+04  0.50400001928E-02 0.  1.
       -1   -1    0    0    0  501  0.00000000000E+00  0.00000000000E+00 -0.17482713781E+04  0.17482713781E+04  0.50400001928E-02 0. -1.
    10030    2    1    2    0    0  0.00000000000E+00  0.00000000000E+00 -0.19046337404E+03  0.33060793822E+04  0.33005885210E+04 0.  0.
        1    1    3    3  502    0  0.12680559356E+04 -0.98011403640E+03 -0.48943660529E+03  0.16757498532E+04  0.50400001928E-02 0. -1.
       -1    1    3    3    0  502 -0.12680559356E+04  0.98011403640E+03  0.29897323125E+03  0.16303295290E+04  0.50400001928E-02 0.  1.
</event>
<event>
 5   0  0.7084130E-08  0.3300915E+04  0.7818609E-02  0.8162663E-01
       -2   -1    0    0    0  501  0.00000000000E+00  0.00000000000E+00  0.13975377006E+04  0.13975377006E+04  0.25500000920E-02 0.  1.
        2   -1    0    0  501    0  0.00000000000E+00  0.00000000000E+00 -0.19491492757E+04  0.19491492757E+04  0.25500000920E-02 0. -1.
    10030    2    1    2    0    0  0.00000000000E+00  0.00000000000E+00 -0.55161157508E+03  0.33466869763E+04  0.33009147804E+04 0.  0.
        3    1    3    3  502    0 -0.13386254645E+03  0.15730298140E+04  0.21218704127E+03  0.15929109604E+04  0.10100000352E+00 0.  1.
       -3    1    3    3    0  502  0.13386254645E+03 -0.15730298140E+04 -0.76379861636E+03  0.17537760158E+04  0.10100000352E+00 0. -1.
</event>
<event>
 5   0  0.2279938E-08  0.3300313E+04  0.7818609E-02  0.8162816E-01
        1   -1    0    0  501    0  0.00000000000E+00  0.00000000000E+00  0.21084494487E+04  0.21084494487E+04  0.50400001928E-02 0.  1.
       -1   -1    0    0    0  501  0.00000000000E+00  0.00000000000E+00 -0.12914784371E+04  0.12914784371E+04  0.50400001928E-02 0. -1.
    10030    2    1    2    0    0  0.00000000000E+00  0.00000000000E+00  0.81697101158E+03  0.33999278859E+04  0.33003133177E+04 0.  0.
        3    1    3    3  502    0 -0.93946873004E+03  0.79802372489E+02  0.18036318743E+04  0.20352046240E+04  0.10100000352E+00 0.  1.
       -3    1    3    3    0  502  0.93946873004E+03 -0.79802372489E+02 -0.98666086268E+03  0.13647232619E+04  0.10100000352E+00 0. -1.
</event>
<event>
 5   0  0.2383270E-08  0.3294321E+04  0.7818609E-02  0.8164342E-01
       -1   -1    0    0    0  501  0.00000000000E+00  0.00000000000E+00  0.12973226541E+04  0.12973226541E+04  0.50400001928E-02 0. -1.
        1   -1    0    0  501    0  0.00000000000E+00  0.00000000000E+00 -0.20913355860E+04  0.20913355860E+04  0.50400001928E-02 0.  1.
    10030    2    1    2    0    0  0.00000000000E+00  0.00000000000E+00 -0.79401293187E+03  0.33886582401E+04  0.32943205873E+04 0.  0.
        5    1    3    3  502    0 -0.34811977391E+03  0.10051768598E+04  0.89660235441E+03  0.13912173692E+04  0.46999998093E+01 0. -1.
       -5    1    3    3    0  502  0.34811977391E+03 -0.10051768598E+04 -0.16906152863E+04  0.19974408709E+04  0.46999998093E+01 0.  1.
</event>
<event>
 5   0  0.2279938E-08  0.3299745E+04  0.7818609E-02  0.8162960E-01
       -1   -1    0    0    0  501  0.00000000000E+00  0.00000000000E+00  0.21711236807E+04  0.21711236807E+04  0.50400001928E-02 0. -1.
        1   -1    0    0  501    0  0.00000000000E+00  0.00000000000E+00 -0.12537654949E+04  0.12537654950E+04  0.50400001928E-02 0.  1.
    10030    2    1    2    0    0  0.00000000000E+00  0.00000000000E+00  0.91735818576E+03  0.34248891757E+04  0.32997454182E+04 0.  0.
        3    1    3    3  502    0  0.26059262890E+03 -0.14384834495E+04 -0.33513820515E+03  0.14998202491E+04  0.10100000352E+00 0.  1.
       -3    1    3    3    0  502 -0.26059262890E+03  0.14384834495E+04  0.12524963909E+04  0.19250689266E+04  0.10100000352E+00 0. -1.
</event>
<event>
 5   0  0.6821287E-08  0.3300507E+04  0.7818609E-02  0.8162766E-01
       -2   -1    0    0    0  501  0.00000000000E+00  0.00000000000E+00  0.26963934849E+04  0.26963934849E+04  0.25500000920E-02 0.  1.
        2   -1    0    0  501    0  0.00000000000E+00  0.00000000000E+00 -0.10099922127E+04  0.10099922127E+04  0.25500000920E-02 0. -1.
    10030    2    1    2    0    0  0.00000000000E+00  0.00000000000E+00  0.16864012721E+04  0.37063856976E+04  0.33005068836E+04 0.  0.
        5    1    3    3  502    0 -0.10081350669E+04 -0.20062047350E+03 -0.60658075961E+03  0.11935439646E+04  0.46999998093E+01 0. -1.
       -5    1    3    3    0  502  0.10081350669E+04  0.20062047350E+03  0.22929820318E+04  0.25128417330E+04  0.46999998093E+01 0.  1.
</event>
<event>
 5   0  0.6603516E-08  0.3302049E+04  0.7818609E-02  0.8162374E-01
        2   -1    0    0  501    0  0.00000000000E+00  0.00000000000E+00  0.25546802299E+04  0.25546802299E+04  0.25500000920E-02 0. -1.
       -2   -1    0    0    0  501  0.00000000000E+00  0.00000000000E+00 -0.10670148867E+04  0.10670148868E+04  0.25500000920E-02 0.  1.
    10030    2    1    2    0    0  0.00000000000E+00  0.00000000000E+00  0.14876653432E+04  0.36216951167E+04  0.33020489616E+04 0.  0.
        1    1    3    3  502    0 -0.71227457541E+03  0.11476880179E+04 -0.29747069781E+03  0.13831166521E+04  0.50400001928E-02 0.  1.
       -1    1    3    3    0  502  0.71227457541E+03 -0.11476880179E+04  0.17851360410E+04  0.22385784646E+04  0.50400001928E-02 0. -1.
</event>
<event>
 5   0  0.6603516E-08  0.3302702E+04  0.7818609E-02  0.8162208E-01
        2   -1    0    0  501    0  0.00000000000E+00  0.00000000000E+00  0.30630525793E+04  0.30630525793E+04  0.25500000920E-02 0. -1.
       -2   -1    0    0    0  501  0.00000000000E+00  0.00000000000E+00 -0.89027523083E+03  0.89027523083E+03  0.25500000920E-02 0.  1.
    10030    2    1    2    0    0  0.00000000000E+00  0.00000000000E+00  0.21727773485E+04  0.39533278102E+04  0.33027018286E+04 0.  0.
        1    1    3    3  502    0  0.78827849052E+03 -0.28681829038E+03 -0.61625944672E+03  0.10408762732E+04  0.50400001928E-02 0.  1.
       -1    1    3    3    0  502 -0.78827849052E+03  0.28681829038E+03  0.27890367952E+04  0.29124515370E+04  0.50400001928E-02 0. -1.
</event>
<event>
 5   0  0.2291682E-08  0.3300679E+04  0.7818609E-02  0.8162723E-01
       -1   -1    0    0    0  501  0.00000000000E+00  0.00000000000E+00  0.98703075761E+03  0.98703075762E+03  0.50400001928E-02 0.  1.
        1   -1    0    0  501    0  0.00000000000E+00  0.00000000000E+00 -0.27594070651E+04  0.27594070651E+04  0.50400001928E-02 0. -1.
    10030    2    1    2    0    0  0.00000000000E+00  0.00000000000E+00 -0.17723763075E+04  0.37464378228E+04  0.33006785036E+04 0.  0.
        2    1    3    3  502    0  0.46782842073E+03  0.14993110775E+04 -0.31097097772E+03  0.16010934037E+04  0.25500000920E-02 0. -1.
       -2    1    3    3    0  502 -0.46782842073E+03 -0.14993110775E+04 -0.14614053298E+04  0.21453444191E+04  0.25500000920E-02 0.  1.
</event>
<event>
 5   0  0.2200750E-08  0.3303333E+04  0.7818609E-02  0.8162048E-01
        4   -1    0    0  501    0  0.00000000000E+00  0.00000000000E+00  0.14952783826E+04  0.14952789220E+04  0.12699999809E+01 0.  1.
       -4   -1    0    0    0  501  0.00000000000E+00  0.00000000000E+00 -0.18244098738E+04  0.18244103158E+04  0.12699999809E+01 0. -1.
    10030    2    1    2    0    0  0.00000000000E+00  0.00000000000E+00 -0.32913149117E+03  0.33196892378E+04  0.33033330285E+04 0.  0.
        4    1    3    3  502    0  0.14124793945E+03 -0.16455142595E+04 -0.14624080031E+03  0.16580277872E+04  0.12699999809E+01 0. -1.
       -4    1    3    3    0  502 -0.14124793945E+03  0.16455142595E+04 -0.18289069086E+03  0.16616614506E+04  0.12699999809E+01 0.  1.
</event>
<event>
 5   0  0.6765252E-08  0.3300142E+04  0.7818609E-02  0.8162859E-01
       -2   -1    0    0    0  501  0.00000000000E+00  0.00000000000E+00  0.17261016691E+04  0.17261016691E+04  0.25500000920E-02 0.  1.
        2   -1    0    0  501    0  0.00000000000E+00  0.00000000000E+00 -0.15773890484E+04  0.15773890484E+04  0.25500000920E-02 0. -1.
    10030    2    1    2    0    0  0.00000000000E+00  0.00000000000E+00  0.14871262066E+03  0.33034907175E+04  0.33001417359E+04 0.  0.
        2    1    3    3  502    0  0.98343678312E+03  0.13015561179E+04 -0.17396323148E+03  0.16405668046E+04  0.25500000920E-02 0. -1.
       -2    1    3    3    0  502 -0.98343678312E+03 -0.13015561179E+04  0.32267585214E+03  0.16629239129E+04  0.25500000920E-02 0.  1.
</event>
<event>
 5   0  0.2383270E-08  0.3303859E+04  0.7818609E-02  0.8161914E-01
       -1   -1    0    0    0  501  0.00000000000E+00  0.00000000000E+00  0.15963718279E+04  0.15963718279E+04  0.50400001928E-02 0. -1.
        1   -1    0    0  501    0  0.00000000000E+00  0.00000000000E+00 -0.17094207948E+04  0.17094207948E+04  0.50400001928E-02 0.  1.
    10030    2    1    2    0    0  0.00000000000E+00  0.00000000000E+00 -0.11304896681E+03  0.33057926227E+04  0.33038590762E+04 0.  0.
        5    1    3    3  502    0  0.11204631397E+04 -0.10042464816E+04 -0.73875961914E+03  0.16762268665E+04  0.46999998093E+01 0.  1.
       -5    1    3    3    0  502 -0.11204631397E+04  0.10042464816E+04  0.62571065233E+03  0.16295657562E+04  0.46999998093E+01 0. -1.
</event>
<event>
 5   0  0.2309822E-08  0.3303493E+04  0.7818609E-02  0.8162007E-01
        1   -1    0    0  501    0  0.00000000000E+00  0.00000000000E+00  0.80823685700E+03  0.80823685701E+03  0.50400001928E-02 0. -1.
       -1   -1    0    0    0  501  0.00000000000E+00  0.00000000000E+00 -0.33755777968E+04  0.33755777968E+04  0.50400001928E-02 0.  1.
    10030    2    1    2    0    0  0.00000000000E+00  0.00000000000E+00 -0.25673409398E+04  0.41838146538E+04  0.33034929327E+04 0.  0.
        4    1    3    3  502    0 -0.14897495874E+04 -0.32723936041E+03 -0.20864896086E+04  0.25845463687E+04  0.12699999809E+01 0.  1.
       -4    1    3    3    0  502  0.14897495874E+04  0.32723936041E+03 -0.48085133118E+03  0.15992682851E+04  0.12699999809E+01 0. -1.
</event>
<event>
 5   0  0.2279938E-08  0.3300985E+04  0.7818609E-02  0.8162645E-01
       -1   -1    0    0    0  501  0.00000000000E+00  0.00000000000E+00  0.10726571853E+04  0.10726571853E+04  0.50400001928E-02 0.  1.
        1   -1    0    0  501    0  0.00000000000E+00  0.00000000000E+00 -0.25396055158E+04  0.25396055158E+04  0.50400001928E-02 0. -1.
    10030    2    1    2    0    0  0.00000000000E+00  0.00000000000E+00 -0.14669483304E+04  0.36122627011E+04  0.33009853707E+04 0.  0.
        3    1    3    3  502    0 -0.16057105256E+04  0.18503005510E+03 -0.36793318765E+03  0.16576843047E+04  0.10100000352E+00 0.  1.
       -3    1    3    3    0  502  0.16057105256E+04 -0.18503005510E+03 -0.10990151428E+04  0.19545783964E+04  0.10100000352E+00 0. -1.
</event>
<event>
 5   0  0.2383270E-08  0.3300083E+04  0.7818609E-02  0.8162874E-01
       -1   -1    0    0    0  501  0.00000000000E+00  0.00000000000E+00  0.12500106111E+04  0.12500106111E+04  0.50400001928E-02 0. -1.
        1   -1    0    0  501    0  0.00000000000E+00  0.00000000000E+00 -0.21780904155E+04  0.21780904155E+04  0.50400001928E-02 0.  1.
    10030    2    1    2    0    0  0.00000000000E+00  0.00000000000E+00 -0.92807980443E+03  0.34281010266E+04  0.33000825028E+04 0.  0.
        5    1    3    3  502    0  0.63103433805E+03 -0.97184491860E+03  0.75623279951E+03  0.13836896396E+04  0.46999998093E+01 0. -1.
       -5    1    3    3    0  502 -0.63103433805E+03  0.97184491860E+03 -0.16843126039E+04  0.20444113870E+04  0.46999998093E+01 0.  1.
</event>
<event>
 5   0  0.6765252E-08  0.3298650E+04  0.7818609E-02  0.8163239E-01
       -2   -1    0    0    0  501  0.00000000000E+00  0.00000000000E+00  0.14980229174E+04  0.14980229174E+04  0.25500000920E-02 0.  1.
        2   -1    0    0  501    0  0.00000000000E+00  0.00000000000E+00 -0.18159089487E+04  0.18159089487E+04  0.25500000920E-02 0. -1.
    10030    2    1    2    0    0  0.00000000000E+00  0.00000000000E+00 -0.31788603138E+03  0.33139318661E+04  0.32986501609E+04 0.  0.
        2    1    3    3  502    0 -0.12049595731E+04 -0.35638823885E+03  0.91433817195E+03  0.15540123688E+04  0.25500000920E-02 0.  1.
       -2    1    3    3    0  502  0.12049595731E+04  0.35638823885E+03 -0.12322242033E+04  0.17599194973E+04  0.25500000920E-02 0. -1.
</event>
<event>
 5   0  0.6765252E-08  0.3300786E+04  0.7818609E-02  0.8162695E-01
       -2   -1    0    0    0  501  0.00000000000E+00  0.00000000000E+00  0.19085076058E+04  0.19085076058E+04  0.25500000920E-02 0. -1.
        2   -1    0    0  501    0  0.00000000000E+00  0.00000000000E+00 -0.14271872797E+04  0.14271872797E+04  0.25500000920E-02 0.  1.
    10030    2    1    2    0    0  0.00000000000E+00  0.00000000000E+00  0.48132032603E+03  0.33356948855E+04  0.33007864386E+04 0.  0.
        2    1    3    3  502    0 -0.54394151245E+03  0.10954806783E+04 -0.87914149611E+03  0.15062669271E+04  0.25500000920E-02 0.  1.
       -2    1    3    3    0  502  0.54394151245E+03 -0.10954806783E+04  0.13604618221E+04  0.18294279584E+04  0.25500000920E-02 0. -1.
</event>
<event>
 5   0  0.2309822E-08  0.3300098E+04  0.7818609E-02  0.8162870E-01
        1   -1    0    0  501    0  0.00000000000E+00  0.00000000000E+00  0.20269648256E+04  0.20269648257E+04  0.50400001928E-02 0.  1.
       -1   -1    0    0    0  501  0.00000000000E+00  0.00000000000E+00 -0.13432212529E+04  0.13432212529E+04  0.50400001928E-02 0. -1.
    10030    2    1    2    0    0  0.00000000000E+00  0.00000000000E+00  0.68374357276E+03  0.33701860785E+04  0.33000983214E+04 0.  0.
        4    1    3    3  502    0  0.64713792599E+03  0.48830931069E+03 -0.11258101223E+04  0.13873296373E+04  0.12699999809E+01 0. -1.
       -4    1    3    3    0  502 -0.64713792599E+03 -0.48830931069E+03  0.18095536951E+04  0.19828564412E+04  0.12699999809E+01 0.  1.
</event>
<event>
 5   0  0.2244093E-08  0.3299386E+04  0.7818609E-02  0.8163052E-01
       -1   -1    0    0    0  501  0.00000000000E+00  0.00000000000E+00  0.10624281819E+04  0.10624281819E+04  0.50400001928E-02 0. -1.
        1   -1    0    0  501    0  0.00000000000E+00  0.00000000000E+00 -0.25615729444E+04  0.25615729444E+04  0.50400001928E-02 0.  1.
    10030    2    1    2    0    0  0.00000000000E+00  0.00000000000E+00 -0.14991447625E+04  0.36240011263E+04  0.32993861769E+04 0.  0.
        1    1    3    3  502    0  0.13795230476E+04  0.76519496142E+03 -0.12796279237E+04  0.20312692561E+04  0.50400001928E-02 0.  1.
       -1    1    3    3    0  502 -0.13795230476E+04 -0.76519496142E+03 -0.21951683887E+03  0.15927318702E+04  0.50400001928E-02 0. -1.
</event>
<event>
 5   0  0.2244093E-08  0.3297772E+04  0.7818609E-02  0.8163463E-01
       -1   -1    0    0    0  501  0.00000000000E+00  0.00000000000E+00  0.11784871118E+04  0.11784871118E+04  0.50400001928E-02 0. -1.
        1   -1    0    0  501    0  0.00000000000E+00  0.00000000000E+00 -0.23070469567E+04  0.23070469567E+04  0.50400001928E-02 0.  1.
    10030    2    1    2    0    0  0.00000000000E+00  0.00000000000E+00 -0.11285598449E+04  0.34855340685E+04  0.32977720387E+04 0.  0.
        1    1    3    3  502    0  0.13302449572E+04 -0.93177983368E+03 -0.86520020776E+03  0.18402001805E+04  0.50400001928E-02 0.  1.
       -1    1    3    3    0  502 -0.13302449572E+04  0.93177983368E+03 -0.26335963719E+03  0.16453338881E+04  0.50400001928E-02 0. -1.
</event>
<event>
 5   0  0.2383270E-08  0.3301750E+04  0.7818609E-02  0.8162450E-01
       -1   -1    0    0    0  501  0.00000000000E+00  0.00000000000E+00  0.18369213827E+04  0.18369213827E+04  0.50400001928E-02 0.  1.
        1   -1    0    0  501    0  0.00000000000E+00  0.00000000000E+00 -0.14836714028E+04  0.14836714028E+04  0.50400001928E-02 0. -1.
    10030    2    1    2    0    0  0.00000000000E+00  0.00000000000E+00  0.35324997991E+03  0.33205927855E+04  0.33017496723E+04 0.  0.
        5    1    3    3  502    0 -0.61860156947E+03  0.92370246412E+03  0.14040291025E+04  0.17908696085E+04  0.46999998093E+01 0.  1.
       -5    1    3    3    0  502  0.61860156947E+03 -0.92370246412E+03 -0.10507791225E+04  0.15297231770E+04  0.46999998093E+01 0. -1.
</event>
<event>
 5   0  0.6706080E-08  0.3299388E+04  0.7818609E-02  0.8163051E-01
        2   -1    0    0  501    0  0.00000000000E+00  0.00000000000E+00  0.96925852334E+03  0.96925852334E+03  0.25500000920E-02 0. -1.
       -2   -1    0    0    0  501  0.00000000000E+00  0.00000000000E+00 -0.28078071689E+04  0.28078071689E+04  0.25500000920E-02 0.  1.
    10030    2    1    2    0    0  0.00000000000E+00  0.00000000000E+00 -0.18385486455E+04  0.37770656922E+04  0.32993884466E+04 0.  0.
        4    1    3    3  502    0  0.37046692087E+03  0.14439353938E+04 -0.17281827765E+04  0.22822822969E+04  0.12699999809E+01 0.  1.
       -4    1    3    3    0  502 -0.37046692087E+03 -0.14439353938E+04 -0.11036586909E+03  0.14947833953E+04  0.12699999809E+01 0. -1.
</event>
<event>
 5   0  0.7084130E-08  0.3300963E+04  0.7818609E-02  0.8162651E-01
       -2   -1    0    0    0  501  0.00000000000E+00  0.00000000000E+00  0.14410031913E+04  0.14410031913E+04  0.25500000920E-02 0.  1.
        2   -1    0    0  501    0  0.00000000000E+00  0.00000000000E+00 -0.18904110992E+04  0.18904110992E+04  0.25500000920E-02 0. -1.
    10030    2    1    2    0    0  0.00000000000E+00  0.00000000000E+00 -0.44940790795E+03  0.33314142905E+04  0.33009625426E+04 0.  0.
        3    1    3    3  502    0  0.56284413584E+03 -0.21111583093E+03 -0.17759998250E+04  0.18749770142E+04  0.10100000352E+00 0. -1.
       -3    1    3    3    0  502 -0.56284413584E+03  0.21111583093E+03  0.13265919170E+04  0.14564372763E+04  0.10100000352E+00 0.  1.
</event>
<event>
 5   0  0.6603516E-08  0.3299807E+04  0.7818609E-02  0.8162945E-01
        2   -1    0    0  501    0  0.00000000000E+00  0.00000000000E+00  0.19738277362E+04  0.19738277362E+04  0.25500000920E-02 0.  1.
       -2   -1    0    0    0  501  0.00000000000E+00  0.00000000000E+00 -0.13791380433E+04  0.13791380433E+04  0.25500000920E-02 0. -1.
    10030    2    1    2    0    0  0.00000000000E+00  0.00000000000E+00  0.59468969290E+03  0.33529657796E+04  0.32998066137E+04 0.  0.
        1    1    3    3  502    0  0.72155247881E+02 -0.44410272834E+03  0.19102882451E+04  0.19625582265E+04  0.50400001928E-02 0.  1.
       -1    1    3    3    0  502 -0.72155247881E+02  0.44410272834E+03 -0.13155985522E+04  0.13904075531E+04  0.50400001928E-02 0. -1.
</event>
<event>
 5   0  0.7084130E-08  0.3299320E+04  0.7818609E-02  0.8163068E-01
        2   -1    0    0  501    0  0.00000000000E+00  0.00000000000E+00  0.24093836732E+04  0.24093836732E+04  0.25500000920E-02 0.  1.
       -2   -1    0    0    0  501  0.00000000000E+00  0.00000000000E+00 -0.11294913348E+04  0.11294913348E+04  0.25500000920E-02 0. -1.
    10030    2    1    2    0    0  0.00000000000E+00  0.00000000000E+00  0.12798923383E+04  0.35388750080E+04  0.32993199185E+04 0.  0.
        3    1    3    3  502    0  0.65579347021E+03 -0.11013657407E+04  0.17537581532E+04  0.21722659231E+04  0.10100000352E+00 0.  1.
       -3    1    3    3    0  502 -0.65579347021E+03  0.11013657407E+04 -0.47386581488E+03  0.13666090850E+04  0.10100000352E+00 0. -1.
</event>
<event>
 5   0  0.6821287E-08  0.3298855E+04  0.7818609E-02  0.8163187E-01
       -2   -1    0    0    0  501  0.00000000000E+00  0.00000000000E+00  0.12269936533E+04  0.12269936533E+04  0.25500000920E-02 0.  1.
        2   -1    0    0  501    0  0.00000000000E+00  0.00000000000E+00 -0.22172981859E+04  0.22172981859E+04  0.25500000920E-02 0. -1.
    10030    2    1    2    0    0  0.00000000000E+00  0.00000000000E+00 -0.99030453264E+03  0.34442918392E+04  0.32988548325E+04 0.  0.
        5    1    3    3  502    0  0.87320658448E+03  0.82554046099E+03  0.68451922086E+03  0.13829661766E+04  0.46999998093E+01 0.  1.
       -5    1    3    3    0  502 -0.87320658448E+03 -0.82554046099E+03 -0.16748237535E+04  0.20613256626E+04  0.46999998093E+01 0. -1.
</event>
<event>
 5   0  0.6821287E-08  0.3299384E+04  0.7818609E-02  0.8163052E-01
        2   -1    0    0  501    0  0.00000000000E+00  0.00000000000E+00  0.13570711491E+04  0.13570711491E+04  0.25500000920E-02 0.  1.
       -2   -1    0    0    0  501  0.00000000000E+00  0.00000000000E+00 -0.20054095903E+04  0.20054095903E+04  0.25500000920E-02 0. -1.
    10030    2    1    2    0    0  0.00000000000E+00  0.00000000000E+00 -0.64833844121E+03  0.33624807393E+04  0.32993838801E+04 0.  0.
        5    1    3    3  502    0 -0.15859580214E+04 -0.30536383637E+03 -0.66667896899E+03  0.17472815617E+04  0.46999998093E+01 0.  1.
       -5    1    3    3    0  502  0.15859580214E+04  0.30536383637E+03  0.18340527778E+02  0.16151991776E+04  0.46999998093E+01 0. -1.
</event>
<event>
 5   0  0.2279938E-08  0.3300016E+04  0.7818609E-02  0.8162891E-01
        1   -1    0    0  501    0  0.00000000000E+00  0.00000000000E+00  0.19535091931E+04  0.19535091931E+04  0.50400001928E-02 0. -1.
       -1   -1    0    0    0  501  0.00000000000E+00  0.00000000000E+00 -0.13936592169E+04  0.13936592169E+04  0.50400001928E-02 0.  1.
    10030    2    1    2    0    0  0.00000000000E+00  0.00000000000E+00  0.55984997627E+03  0.33471684100E+04  0.33000158134E+04 0.  0.
        3    1    3    3  502    0 -0.87639694239E+03  0.40175230880E+03  0.16381061122E+04  0.19007546299E+04  0.10100000352E+00 0. -1.
       -3    1    3    3    0  502  0.87639694239E+03 -0.40175230880E+03 -0.10782561359E+04  0.14464137800E+04  0.10100000352E+00 0.  1.
</event>
<event>
 5   0  0.6603516E-08  0.3299805E+04  0.7818609E-02  0.8162945E-01
       -2   -1    0    0    0  501  0.00000000000E+00  0.00000000000E+00  0.12891809763E+04  0.12891809763E+04  0.25500000920E-02 0.  1.
        2   -1    0    0  501    0  0.00000000000E+00  0.00000000000E+00 -0.21115566552E+04  0.21115566552E+04  0.25500000920E-02 0. -1.
    10030    2    1    2    0    0  0.00000000000E+00  0.00000000000E+00 -0.82237567894E+03  0.34007376315E+04  0.32998052490E+04 0.  0.
        1    1    3    3  502    0 -0.29877610386E+03  0.60112780487E+03  0.11420809843E+04  0.13247530988E+04  0.50400001928E-02 0.  1.
       -1    1    3    3    0  502  0.29877610386E+03 -0.60112780487E+03 -0.19644566633E+04  0.20759845327E+04  0.50400001928E-02 0. -1.
</event>
<event>
 5   0  0.2279938E-08  0.3287633E+04  0.7818609E-02  0.8166049E-01
        1   -1    0    0  501    0  0.00000000000E+00  0.00000000000E+00  0.24855146061E+04  0.24855146061E+04  0.50400001928E-02 0. -1.
       -1   -1    0    0    0  501  0.00000000000E+00  0.00000000000E+00 -0.10871523122E+04  0.10871523122E+04  0.50400001928E-02 0.  1.
    10030    2    1    2    0    0  0.00000000000E+00  0.00000000000E+00  0.13983622939E+04  0.35726669184E+04  0.32876331615E+04 0.  0.
        3    1    3    3  502    0 -0.15704937202E+04  0.38935792146E+03  0.38407068465E+03  0.16629974195E+04  0.10100000352E+00 0. -1.
       -3    1    3    3    0  502  0.15704937202E+04 -0.38935792146E+03  0.10142916093E+04  0.19096694989E+04  0.10100000352E+00 0.  1.
</event>
<event>
 5   0  0.2291682E-08  0.3299840E+04  0.7818609E-02  0.8162936E-01
        1   -1    0    0  501    0  0.00000000000E+00  0.00000000000E+00  0.25225617351E+04  0.25225617351E+04  0.50400001928E-02 0. -1.
       -1   -1    0    0    0  501  0.00000000000E+00  0.00000000000E+00 -0.10791550624E+04  0.10791550624E+04  0.50400001928E-02 0.  1.
    10030    2    1    2    0    0  0.00000000000E+00  0.00000000000E+00  0.14434066727E+04  0.36017167975E+04  0.32998395516E+04 0.  0.
        2    1    3    3  502    0 -0.15491096322E+04  0.14202054176E+03  0.12156190443E+03  0.15603486096E+04  0.25500000920E-02 0. -1.
       -2    1    3    3    0  502  0.15491096322E+04 -0.14202054176E+03  0.13218447683E+04  0.20413681879E+04  0.25500000920E-02 0.  1.
</event>
<event>
 5   0  0.2309822E-08  0.3299760E+04  0.7818609E-02  0.8162956E-01
        1   -1    0    0  501    0  0.00000000000E+00  0.00000000000E+00  0.15389340650E+04  0.15389340650E+04  0.50400001928E-02 0.  1.
       -1   -1    0    0    0  501  0.00000000000E+00  0.00000000000E+00 -0.17688244537E+04  0.17688244537E+04  0.50400001928E-02 0. -1.
    10030    2    1    2    0    0  0.00000000000E+00  0.00000000000E+00 -0.22989038863E+03  0.33077585187E+04  0.32997601166E+04 0.  0.
        4    1    3    3  502    0 -0.12303172166E+04  0.29655403469E+03 -0.11760372534E+04  0.17276255333E+04  0.12699999809E+01 0. -1.
       -4    1    3    3    0  502  0.12303172166E+04 -0.29655403469E+03  0.94614686474E+03  0.15801329854E+04  0.12699999809E+01 0.  1.
</event>
<event>
 5   0  0.6706080E-08  0.3300167E+04  0.7818609E-02  0.8162853E-01
        2   -1    0    0  501    0  0.00000000000E+00  0.00000000000E+00  0.18736668856E+04  0.18736668856E+04  0.25500000920E-02 0.  1.
       -2   -1    0    0    0  501  0.00000000000E+00  0.00000000000E+00 -0.14531798783E+04  0.14531798783E+04  0.25500000920E-02 0. -1.
    10030    2    1    2    0    0  0.00000000000E+00  0.00000000000E+00  0.42048700735E+03  0.33268467639E+04  0.33001666726E+04 0.  0.
        4    1    3    3  502    0 -0.91234106680E+03  0.69675416446E+03 -0.98464102574E+03  0.15123994678E+04  0.12699999809E+01 0. -1.
       -4    1    3    3    0  502  0.91234106680E+03 -0.69675416446E+03  0.14051280331E+04  0.18144472960E+04  0.12699999809E+01 0.  1.
</event>
<event>
 5   0  0.2383270E-08  0.3297253E+04  0.7818609E-02  0.8163595E-01
       -1   -1    0    0    0  501  0.00000000000E+00  0.00000000000E+00  0.20102405784E+04  0.20102405784E+04  0.50400001928E-02 0.  1.
        1   -1    0    0  501    0  0.00000000000E+00  0.00000000000E+00 -0.13520617953E+04  0.13520617953E+04  0.50400001928E-02 0. -1.
    10030    2    1    2    0    0  0.00000000000E+00  0.00000000000E+00  0.65817878306E+03  0.33623023737E+04  0.32972530904E+04 0.  0.
        5    1    3    3  502    0 -0.11672715449E+04 -0.62012372707E+03  0.13338561762E+04  0.18778367035E+04  0.46999998093E+01 0.  1.
       -5    1    3    3    0  502  0.11672715449E+04  0.62012372707E+03 -0.67567739313E+03  0.14844656702E+04  0.46999998093E+01 0. -1.
</event>
<event>
 5   0  0.2383270E-08  0.3299986E+04  0.7818609E-02  0.8162899E-01
       -1   -1    0    0    0  501  0.00000000000E+00  0.00000000000E+00  0.10558879832E+04  0.10558879832E+04  0.50400001928E-02 0. -1.
        1   -1    0    0  501    0  0.00000000000E+00  0.00000000000E+00 -0.25783767844E+04  0.25783767844E+04  0.50400001928E-02 0.  1.
    10030    2    1    2    0    0  0.00000000000E+00  0.00000000000E+00 -0.15224888012E+04  0.36342647676E+04  0.32999860986E+04 0.  0.
        5    1    3    3  502    0  0.11283207826E+04  0.13680874174E+03  0.55600558120E+03  0.12653018282E+04  0.46999998093E+01 0. -1.
       -5    1    3    3    0  502 -0.11283207826E+04 -0.13680874174E+03 -0.20784943824E+04  0.23689629393E+04  0.46999998093E+01 0.  1.
</event>
<event>
 5   0  0.2383270E-08  0.3298137E+04  0.7818609E-02  0.8163369E-01
       -1   -1    0    0    0  501  0.00000000000E+00  0.00000000000E+00  0.10950921233E+04  0.10950921233E+04  0.50400001928E-02 0.  1.
        1   -1    0    0  501    0  0.00000000000E+00  0.00000000000E+00 -0.24832867273E+04  0.24832867273E+04  0.50400001928E-02 0. -1.
    10030    2    1    2    0    0  0.00000000000E+00  0.00000000000E+00 -0.13881946041E+04  0.35783788506E+04  0.32981374956E+04 0.  0.
        5    1    3    3  502    0  0.13841898523E+04  0.78638983825E+03 -0.11607794329E+04  0.19702338711E+04  0.46999998093E+01 0.  1.
       -5    1    3    3    0  502 -0.13841898523E+04 -0.78638983825E+03 -0.22741517119E+03  0.16081449795E+04  0.46999998093E+01 0. -1.
</event>
<event>
 5   0  0.6821287E-08  0.3302150E+04  0.7818609E-02  0.8162349E-01
       -2   -1    0    0    0  501  0.00000000000E+00  0.00000000000E+00  0.10102121596E+04  0.10102121596E+04  0.25500000920E-02 0. -1.
        2   -1    0    0  501    0  0.00000000000E+00  0.00000000000E+00 -0.26984910289E+04  0.26984910289E+04  0.25500000920E-02 0.  1.
    10030    2    1    2    0    0  0.00000000000E+00  0.00000000000E+00 -0.16882788693E+04  0.37087031885E+04  0.33021498755E+04 0.  0.
        5    1    3    3  502    0 -0.65488547997E+03  0.90715315565E+03  0.51952373818E+03  0.12335837402E+04  0.46999998093E+01 0. -1.
       -5    1    3    3    0  502  0.65488547997E+03 -0.90715315565E+03 -0.22078026075E+04  0.24751194483E+04  0.46999998093E+01 0.  1.
</event>
<event>
 5   0  0.6603516E-08  0.3300340E+04  0.7818609E-02  0.8162809E-01
       -2   -1    0    0    0  501  0.00000000000E+00  0.00000000000E+00  0.18948980527E+04  0.18948980527E+04  0.25500000920E-02 0.  1.
        2   -1    0    0  501    0  0.00000000000E+00  0.00000000000E+00 -0.14370484496E+04  0.14370484496E+04  0.25500000920E-02 0. -1.
    10030    2    1    2    0    0  0.00000000000E+00  0.00000000000E+00  0.45784960317E+03  0.33319465023E+04  0.33003395636E+04 0.  0.
        1    1    3    3  502    0  0.11978685665E+04  0.70449687466E+03 -0.66945985168E+03  0.15425243732E+04  0.50400001928E-02 0.  1.
       -1    1    3    3    0  502 -0.11978685665E+04 -0.70449687466E+03  0.11273094548E+04  0.17894221291E+04  0.50400001928E-02 0. -1.
</event>
<event>
 5   0  0.2291682E-08  0.3300376E+04  0.7818609E-02  0.8162800E-01
       -1   -1    0    0    0  501  0.00000000000E+00  0.00000000000E+00  0.21424703474E+04  0.21424703474E+04  0.50400001928E-02 0.  1.
        1   -1    0    0  501    0  0.00000000000E+00  0.00000000000E+00 -0.12710186489E+04  0.12710186489E+04  0.50400001928E-02 0. -1.
    10030    2    1    2    0    0  0.00000000000E+00  0.00000000000E+00  0.87145169847E+03  0.34134889963E+04  0.33003755946E+04 0.  0.
        2    1    3    3  502    0 -0.85836764160E+03  0.13054001518E+04  0.98521119851E+03  0.18470261693E+04  0.25500000920E-02 0.  1.
       -2    1    3    3    0  502  0.85836764160E+03 -0.13054001518E+04 -0.11375950004E+03  0.15664628270E+04  0.25500000920E-02 0. -1.
</event>
<event>
 5   0  0.6821287E-08  0.3299869E+04  0.7818609E-02  0.8162929E-01
       -2   -1    0    0    0  501  0.00000000000E+00  0.00000000000E+00  0.10540746765E+04  0.10540746765E+04  0.25500000920E-02 0.  1.
        2   -1    0    0  501    0  0.00000000000E+00  0.00000000000E+00 -0.25826291146E+04  0.25826291146E+04  0.25500000920E-02 0. -1.
    10030    2    1    2    0    0  0.00000000000E+00  0.00000000000E+00 -0.15285544381E+04  0.36367037912E+04  0.32998690572E+04 0.  0.
        5    1    3    3  502    0 -0.16092540346E+04 -0.30390915340E+03 -0.98524957859E+03  0.19112294848E+04  0.46999998093E+01 0.  1.
       -5    1    3    3    0  502  0.16092540346E+04  0.30390915340E+03 -0.54330485949E+03  0.17254743064E+04  0.46999998093E+01 0. -1.
</event>
<event>
 5   0  0.6603516E-08  0.3297096E+04  0.7818609E-02  0.8163635E-01
       -2   -1    0    0    0  501  0.00000000000E+00  0.00000000000E+00  0.12697913872E+04  0.12697913872E+04  0.25500000920E-02 0.  1.
        2   -1    0    0  501    0  0.00000000000E+00  0.00000000000E+00 -0.21402816250E+04  0.21402816250E+04  0.25500000920E-02 0. -1.
    10030    2    1    2    0    0  0.00000000000E+00  0.00000000000E+00 -0.87049023785E+03  0.34100730122E+04  0.32970964035E+04 0.  0.
        1    1    3    3  502    0  0.84017740406E+02  0.49482714770E+03 -0.20593377852E+04  0.21196190697E+04  0.50400001928E-02 0. -1.
       -1    1    3    3    0  502 -0.84017740406E+02 -0.49482714770E+03  0.11888475474E+04  0.12904539425E+04  0.50400001928E-02 0.  1.
</event>
<event>
 5   0  0.6603516E-08  0.3291728E+04  0.7818609E-02  0.8165004E-01
        2   -1    0    0  501    0  0.00000000000E+00  0.00000000000E+00  0.21787271221E+04  0.21787271221E+04  0.25500000920E-02 0.  1.
       -2   -1    0    0    0  501  0.00000000000E+00  0.00000000000E+00 -0.12433257620E+04  0.12433257620E+04  0.25500000920E-02 0. -1.
    10030    2    1    2    0    0  0.00000000000E+00  0.00000000000E+00  0.93540136008E+03  0.34220528840E+04  0.32917275459E+04 0.  0.
        1    1    3    3  502    0 -0.65052168691E+03  0.49994130302E+03 -0.10155850574E+04  0.13055775658E+04  0.50400001928E-02 0. -1.
       -1    1    3    3    0  502  0.65052168691E+03 -0.49994130302E+03  0.19509864174E+04  0.21164753182E+04  0.50400001928E-02 0.  1.
</event>
<event>
 5   0  0.7084130E-08  0.3278785E+04  0.7818609E-02  0.8168315E-01
        2   -1    0    0  501    0  0.00000000000E+00  0.00000000000E+00  0.16998946557E+04  0.16998946557E+04  0.25500000920E-02 0. -1.
       -2   -1    0    0    0  501  0.00000000000E+00  0.00000000000E+00 -0.15810438145E+04  0.15810438145E+04  0.25500000920E-02 0.  1.
    10030    2    1    2    0    0  0.00000000000E+00  0.00000000000E+00  0.11885084116E+03  0.32809384702E+04  0.32787850986E+04 0.  0.
        3    1    3    3  502    0 -0.51938988047E+03 -0.12502935604E+02 -0.14964866803E+04  0.15841068670E+04  0.10100000352E+00 0.  1.
       -3    1    3    3    0  502  0.51938988047E+03  0.12502935604E+02  0.16153375215E+04  0.16968316033E+04  0.10100000352E+00 0. -1.
</event>
<event>
 5   0  0.2309822E-08  0.3300769E+04  0.7818609E-02  0.8162700E-01
       -1   -1    0    0    0  501  0.00000000000E+00  0.00000000000E+00  0.15009718398E+04  0.15009718398E+04  0.50400001928E-02 0. -1.
        1   -1    0    0  501    0  0.00000000000E+00  0.00000000000E+00 -0.18146697865E+04  0.18146697865E+04  0.50400001928E-02 0.  1.
    10030    2    1    2    0    0  0.00000000000E+00  0.00000000000E+00 -0.31369794671E+03  0.33156416263E+04  0.33007685457E+04 0.  0.
        4    1    3    3  502    0  0.17317221805E+03  0.15738042065E+04 -0.62469252190E+03  0.17020842098E+04  0.12699999809E+01 0. -1.
       -4    1    3    3    0  502 -0.17317221805E+03 -0.15738042065E+04  0.31099457519E+03  0.16135574165E+04  0.12699999809E+01 0.  1.
</event>
<event>
 5   0  0.2309822E-08  0.3299942E+04  0.7818609E-02  0.8162910E-01
       -1   -1    0    0    0  501  0.00000000000E+00  0.00000000000E+00  0.16962933594E+04  0.16962933594E+04  0.50400001928E-02 0. -1.
        1   -1    0    0  501    0  0.00000000000E+00  0.00000000000E+00 -0.16049137351E+04  0.16049137351E+04  0.50400001928E-02 0.  1.
    10030    2    1    2    0    0  0.00000000000E+00  0.00000000000E+00  0.91379624346E+02  0.33012070945E+04  0.32999421275E+04 0.  0.
        4    1    3    3  502    0  0.74929417469E+03 -0.93331410308E+03  0.11818566207E+04  0.16820534058E+04  0.12699999809E+01 0. -1.
       -4    1    3    3    0  502 -0.74929417469E+03  0.93331410308E+03 -0.10904769963E+04  0.16191536887E+04  0.12699999809E+01 0.  1.
</event>
<event>
 5   0  0.2244093E-08  0.3300215E+04  0.7818609E-02  0.8162841E-01
        1   -1    0    0  501    0  0.00000000000E+00  0.00000000000E+00  0.25865812098E+04  0.25865812098E+04  0.50400001928E-02 0. -1.
       -1   -1    0    0    0  501  0.00000000000E+00  0.00000000000E+00 -0.10526847116E+04  0.10526847116E+04  0.50400001928E-02 0.  1.
    10030    2    1    2    0    0  0.00000000000E+00  0.00000000000E+00  0.15338964982E+04  0.36392659214E+04  0.33002148384E+04 0.  0.
        1    1    3    3  502    0 -0.33363540734E+03 -0.37202103982E+03  0.25011360503E+04  0.25505673449E+04  0.50400001928E-02 0. -1.
       -1    1    3    3    0  502  0.33363540734E+03  0.37202103982E+03 -0.96723955212E+03  0.10886985764E+04  0.50400001928E-02 0.  1.
</event>
<event>
 5   0  0.6821287E-08  0.3299225E+04  0.7818609E-02  0.8163093E-01
        2   -1    0    0  501    0  0.00000000000E+00  0.00000000000E+00  0.21454743649E+04  0.21454743649E+04  0.25500000920E-02 0. -1.
       -2   -1    0    0    0  501  0.00000000000E+00  0.00000000000E+00 -0.12683541798E+04  0.12683541798E+04  0.25500000920E-02 0.  1.
    10030    2    1    2    0    0  0.00000000000E+00  0.00000000000E+00  0.87712018512E+03  0.34138285446E+04  0.32992249867E+04 0.  0.
        5    1    3    3  502    0  0.12517015093E+04  0.37857185212E+03 -0.60191671884E+03  0.14395829751E+04  0.46999998093E+01 0.  1.
       -5    1    3    3    0  502 -0.12517015093E+04 -0.37857185212E+03  0.14790369040E+04  0.19742455696E+04  0.46999998093E+01 0. -1.
</event>
<event>
 5   0  0.2244093E-08  0.3299231E+04  0.7818609E-02  0.8163091E-01
       -1   -1    0    0    0  501  0.00000000000E+00  0.00000000000E+00  0.20121212226E+04  0.20121212226E+04  0.50400001928E-02 0.  1.
        1   -1    0    0  501    0  0.00000000000E+00  0.00000000000E+00 -0.13524188539E+04  0.13524188539E+04  0.50400001928E-02 0. -1.
    10030    2    1    2    0    0  0.00000000000E+00  0.00000000000E+00  0.65970236870E+03  0.33645400764E+04  0.32992306241E+04 0.  0.
        1    1    3    3  502    0 -0.13361939433E+03  0.48420014822E+03  0.19322371539E+04  0.19964579497E+04  0.50400001928E-02 0.  1.
       -1    1    3    3    0  502  0.13361939433E+03 -0.48420014822E+03 -0.12725347852E+04  0.13680821268E+04  0.50400001928E-02 0. -1.
</event>
<event>
 5   0  0.6821287E-08  0.3301040E+04  0.7818609E-02  0.8162631E-01
        2   -1    0    0  501    0  0.00000000000E+00  0.00000000000E+00  0.18129493310E+04  0.18129493310E+04  0.25500000920E-02 0. -1.
       -2   -1    0    0    0  501  0.00000000000E+00  0.00000000000E+00 -0.15026429536E+04  0.15026429536E+04  0.25500000920E-02 0.  1.
    10030    2    1    2    0    0  0.00000000000E+00  0.00000000000E+00  0.31030637743E+03  0.33155922846E+04  0.33010395559E+04 0.  0.
        5    1    3    3  502    0  0.11363437053E+04  0.50952526744E+03  0.12431183968E+04  0.17596188375E+04  0.46999998093E+01 0. -1.
       -5    1    3    3    0  502 -0.11363437053E+04 -0.50952526744E+03 -0.93281201937E+03  0.15559734471E+04  0.46999998093E+01 0.  1.
</event>
<event>
 5   0  0.6603516E-08  0.3294735E+04  0.7818609E-02  0.8164236E-01
        2   -1    0    0  501    0  0.00000000000E+00  0.00000000000E+00  0.18720760331E+04  0.18720760331E+04  0.25500000920E-02 0. -1.
       -2   -1    0    0    0  501  0.00000000000E+00  0.00000000000E+00 -0.14496312181E+04  0.14496312181E+04  0.25500000920E-02 0.  1.
    10030    2    1    2    0    0  0.00000000000E+00  0.00000000000E+00  0.42244481491E+03  0.33217072512E+04  0.32947351094E+04 0.  0.
        1    1    3    3  502    0 -0.59765811198E+03  0.15312931235E+04  0.10186316747E+03  0.16469456438E+04  0.50400001928E-02 0. -1.
       -1    1    3    3    0  502  0.59765811198E+03 -0.15312931235E+04  0.32058164744E+03  0.16747616074E+04  0.50400001928E-02 0.  1.
</event>
<event>
 5   0  0.6706080E-08  0.3300941E+04  0.7818609E-02  0.8162656E-01
       -2   -1    0    0    0  501  0.00000000000E+00  0.00000000000E+00  0.19824487968E+04  0.19824487968E+04  0.25500000920E-02 0. -1.
        2   -1    0    0  501    0  0.00000000000E+00  0.00000000000E+00 -0.13740844954E+04  0.13740844954E+04  0.25500000920E-02 0.  1.
    10030    2    1    2    0    0  0.00000000000E+00  0.00000000000E+00  0.60836430137E+03  0.33565332921E+04  0.33009405657E+04 0.  0.
        4    1    3    3  502    0  0.14598651100E+04 -0.50268747576E+03 -0.28886374278E+03  0.15707783779E+04  0.12699999809E+01 0.  1.
       -4    1    3    3    0  502 -0.14598651100E+04  0.50268747576E+03  0.89722804415E+03  0.17857549143E+04  0.12699999809E+01 0. -1.
</event>
<event>
 5   0  0.6821287E-08  0.3299474E+04  0.7818609E-02  0.8163029E-01
       -2   -1    0    0    0  501  0.00000000000E+00  0.00000000000E+00  0.17711798865E+04  0.17711798865E+04  0.25500000920E-02 0. -1.
        2   -1    0    0  501    0  0.00000000000E+00  0.00000000000E+00 -0.15366210179E+04  0.15366210179E+04  0.25500000920E-02 0.  1.
    10030    2    1    2    0    0  0.00000000000E+00  0.00000000000E+00  0.23455886854E+03  0.33078009044E+04  0.32994740430E+04 0.  0.
        5    1    3    3  502    0  0.64257296385E+03  0.12261458708E+04 -0.78235722048E+03  0.15901064809E+04  0.46999998093E+01 0.  1.
       -5    1    3    3    0  502 -0.64257296385E+03 -0.12261458708E+04  0.10169160890E+04  0.17176944235E+04  0.46999998093E+01 0. -1.
</event>
<event>
 5   0  0.2309822E-08  0.3308703E+04  0.7818609E-02  0.8160684E-01
        1   -1    0    0  501    0  0.00000000000E+00  0.00000000000E+00  0.14131812088E+04  0.14131812088E+04  0.50400001928E-02 0. -1.
       -1   -1    0    0    0  501  0.00000000000E+00  0.00000000000E+00 -0.19366793728E+04  0.19366793728E+04  0.50400001928E-02 0.  1.
    10030    2    1    2    0    0  0.00000000000E+00  0.00000000000E+00 -0.52349816400E+03  0.33498605816E+04  0.33087030070E+04 0.  0.
        4    1    3    3  502    0 -0.13654596522E+03  0.39454439490E+03  0.13589656439E+04  0.14216537252E+04  0.12699999809E+01 0. -1.
       -4    1    3    3    0  502  0.13654596522E+03 -0.39454439490E+03 -0.18824638079E+04  0.19282068564E+04  0.12699999809E+01 0.  1.
</event>
<event>
 5   0  0.6603516E-08  0.3305579E+04  0.7818609E-02  0.8161477E-01
       -2   -1    0    0    0  501  0.00000000000E+00  0.00000000000E+00  0.16569838736E+04  0.16569838736E+04  0.25500000920E-02 0.  1.
        2   -1    0    0  501    0  0.00000000000E+00  0.00000000000E+00 -0.16486059596E+04  0.16486059596E+04  0.25500000920E-02 0. -1.
    10030    2    1    2    0    0  0.00000000000E+00  0.00000000000E+00  0.83779140267E+01  0.33055898333E+04  0.33055792165E+04 0.  0.
        1    1    3    3  502    0  0.56397428807E+02 -0.15328393105E+04 -0.61139117703E+03  0.16512347480E+04  0.50400001928E-02 0.  1.
       -1    1    3    3    0  502 -0.56397428807E+02  0.15328393105E+04  0.61976909106E+03  0.16543550852E+04  0.50400001928E-02 0. -1.
</event>
<event>
 5   0  0.2309822E-08  0.3299919E+04  0.7818609E-02  0.8162916E-01
       -1   -1    0    0    0  501  0.00000000000E+00  0.00000000000E+00  0.11246158568E+04  0.11246158568E+04  0.50400001928E-02 0.  1.
        1   -1    0    0  501    0  0.00000000000E+00  0.00000000000E+00 -0.24207072791E+04  0.24207072791E+04  0.50400001928E-02 0. -1.
    10030    2    1    2    0    0  0.00000000000E+00  0.00000000000E+00 -0.12960914223E+04  0.35453231360E+04  0.32999186602E+04 0.  0.
        4    1    3    3  502    0  0.10956266620E+04  0.11703553306E+04 -0.22885702367E+03  0.16194154910E+04  0.12699999809E+01 0.  1.
       -4    1    3    3    0  502 -0.10956266620E+04 -0.11703553306E+04 -0.10672343986E+04  0.19259076450E+04  0.12699999809E+01 0. -1.
</event>
<event>
 5   0  0.2291682E-08  0.3299129E+04  0.7818609E-02  0.8163117E-01
       -1   -1    0    0    0  501  0.00000000000E+00  0.00000000000E+00  0.13813804315E+04  0.13813804315E+04  0.50400001928E-02 0.  1.
        1   -1    0    0  501    0  0.00000000000E+00  0.00000000000E+00 -0.19698140570E+04  0.19698140570E+04  0.50400001928E-02 0. -1.
    10030    2    1    2    0    0  0.00000000000E+00  0.00000000000E+00 -0.58843362546E+03  0.33511944885E+04  0.32991287286E+04 0.  0.
        2    1    3    3  502    0 -0.61215121807E+03 -0.61747342429E+03 -0.17181456472E+04  0.19256237973E+04  0.25500000920E-02 0. -1.
       -2    1    3    3    0  502  0.61215121807E+03  0.61747342429E+03  0.11297120218E+04  0.14255706912E+04  0.25500000920E-02 0.  1.
</event>
<event>
 5   0  0.2291682E-08  0.3300082E+04  0.7818609E-02  0.8162874E-01
       -1   -1    0    0    0  501  0.00000000000E+00  0.00000000000E+00  0.14860400077E+04  0.14860400077E+04  0.50400001928E-02 0.  1.
        1   -1    0    0  501    0  0.00000000000E+00  0.00000000000E+00 -0.18321418201E+04  0.18321418201E+04  0.50400001928E-02 0. -1.
    10030    2    1    2    0    0  0.00000000000E+00  0.00000000000E+00 -0.34610181244E+03  0.33181818278E+04  0.33000824502E+04 0.  0.
        2    1    3    3  502    0  0.13081137808E+04  0.87374259432E+03  0.32772506558E+03  0.16068576487E+04  0.25500000920E-02 0.  1.
       -2    1    3    3    0  502 -0.13081137808E+04 -0.87374259432E+03 -0.67382687802E+03  0.17113241791E+04  0.25500000920E-02 0. -1.
</event>
<event>
 5   0  0.2244093E-08  0.3301465E+04  0.7818609E-02  0.8162523E-01
       -1   -1    0    0    0  501  0.00000000000E+00  0.00000000000E+00  0.15669919025E+04  0.15669919025E+04  0.50400001928E-02 0. -1.
        1   -1    0    0  501    0  0.00000000000E+00  0.00000000000E+00 -0.17389479514E+04  0.17389479514E+04  0.50400001928E-02 0.  1.
    10030    2    1    2    0    0  0.00000000000E+00  0.00000000000E+00 -0.17195604890E+03  0.33059398540E+04  0.33014647409E+04 0.  0.
        1    1    3    3  502    0  0.16362906463E+03  0.16385874114E+04  0.28956401964E+02  0.16469916967E+04  0.50400001928E-02 0. -1.
       -1    1    3    3    0  502 -0.16362906463E+03 -0.16385874114E+04 -0.20091245087E+03  0.16589481573E+04  0.50400001928E-02 0.  1.
</event>
<event>
 5   0  0.2309822E-08  0.3306424E+04  0.7818609E-02  0.8161263E-01
       -1   -1    0    0    0  501  0.00000000000E+00  0.00000000000E+00  0.22148003400E+04  0.22148003400E+04  0.50400001928E-02 0.  1.
        1   -1    0    0  501    0  0.00000000000E+00  0.00000000000E+00 -0.12340207536E+04  0.12340207536E+04  0.50400001928E-02 0. -1.
    10030    2    1    2    0    0  0.00000000000E+00  0.00000000000E+00  0.98077958639E+03  0.34488210935E+04  0.33064237989E+04 0.  0.
        4    1    3    3  502    0 -0.14399308716E+04  0.15139497771E+03 -0.34196620155E+03  0.14877042213E+04  0.12699999809E+01 0. -1.
       -4    1    3    3    0  502  0.14399308716E+04 -0.15139497771E+03  0.13227457879E+04  0.19611168722E+04  0.12699999809E+01 0.  1.
</event>
<event>
 5   0  0.6706080E-08  0.3299493E+04  0.7818609E-02  0.8163024E-01
        2   -1    0    0  501    0  0.00000000000E+00  0.00000000000E+00  0.12614121157E+04  0.12614121157E+04  0.25500000920E-02 0.  1.
       -2   -1    0    0    0  501  0.00000000000E+00  0.00000000000E+00 -0.21576319661E+04  0.21576319661E+04  0.25500000920E-02 0. -1.
    10030    2    1    2    0    0  0.00000000000E+00  0.00000000000E+00 -0.89621985037E+03  0.34190440818E+04  0.32994927509E+04 0.  0.
        4    1    3    3  502    0 -0.33724756569E+03  0.10262742503E+04 -0.17401588766E+04  0.20482014759E+04  0.12699999809E+01 0. -1.
       -4    1    3    3    0  502  0.33724756569E+03 -0.10262742503E+04  0.84393902620E+03  0.13708426059E+04  0.12699999809E+01 0.  1.
</event>
<event>
 5   0  0.6765252E-08  0.3297988E+04  0.7818609E-02  0.8163408E-01
       -2   -1    0    0    0  501  0.00000000000E+00  0.00000000000E+00  0.12446795982E+04  0.12446795982E+04  0.25500000920E-02 0. -1.
        2   -1    0    0  501    0  0.00000000000E+00  0.00000000000E+00 -0.21846431505E+04  0.21846431505E+04  0.25500000920E-02 0.  1.
    10030    2    1    2    0    0  0.00000000000E+00  0.00000000000E+00 -0.93996355227E+03  0.34293227487E+04  0.32979877251E+04 0.  0.
        2    1    3    3  502    0  0.16475970122E+04  0.61453755387E+02 -0.49990772327E+03  0.17228639559E+04  0.25500000920E-02 0.  1.
       -2    1    3    3    0  502 -0.16475970122E+04 -0.61453755387E+02 -0.44005582900E+03  0.17064587928E+04  0.25500000920E-02 0. -1.
</event>
<event>
 5   0  0.2383270E-08  0.3299766E+04  0.7818609E-02  0.8162955E-01
       -1   -1    0    0    0  501  0.00000000000E+00  0.00000000000E+00  0.14994112810E+04  0.14994112810E+04  0.50400001928E-02 0. -1.
        1   -1    0    0  501    0  0.00000000000E+00  0.00000000000E+00 -0.18154546827E+04  0.18154546827E+04  0.50400001928E-02 0.  1.
    10030    2    1    2    0    0  0.00000000000E+00  0.00000000000E+00 -0.31604340172E+03  0.33148659636E+04  0.32997655864E+04 0.  0.
        5    1    3    3  502    0  0.42039247952E+03  0.15886455598E+04 -0.30554941776E+03  0.16714984560E+04  0.46999998093E+01 0. -1.
       -5    1    3    3    0  502 -0.42039247952E+03 -0.15886455598E+04 -0.10493983954E+02  0.16433675077E+04  0.46999998093E+01 0.  1.
</event>
<event>
 5   0  0.6765252E-08  0.3300526E+04  0.7818609E-02  0.8162762E-01
       -2   -1    0    0    0  501  0.00000000000E+00  0.00000000000E+00  0.26074752633E+04  0.26074752633E+04  0.25500000920E-02 0.  1.
        2   -1    0    0  501    0  0.00000000000E+00  0.00000000000E+00 -0.10444463569E+04  0.10444463569E+04  0.25500000920E-02 0. -1.
    10030    2    1    2    0    0  0.00000000000E+00  0.00000000000E+00  0.15630289064E+04  0.36519216202E+04  0.33005260426E+04 0.  0.
        2    1    3    3  502    0  0.17071881752E+03 -0.84616085171E+03 -0.77472785470E+03  0.11598863524E+04  0.25500000920E-02 0. -1.
       -2    1    3    3    0  502 -0.17071881752E+03  0.84616085171E+03  0.23377567611E+04  0.24920352678E+04  0.25500000920E-02 0.  1.
</event>
<event>
 5   0  0.2383270E-08  0.3297896E+04  0.7818609E-02  0.8163431E-01
       -1   -1    0    0    0  501  0.00000000000E+00  0.00000000000E+00  0.11199385744E+04  0.11199385744E+04  0.50400001928E-02 0. -1.
        1   -1    0    0  501    0  0.00000000000E+00  0.00000000000E+00 -0.24278387045E+04  0.24278387045E+04  0.50400001928E-02 0.  1.
    10030    2    1    2    0    0  0.00000000000E+00  0.00000000000E+00 -0.13079001301E+04  0.35477772789E+04  0.32978964311E+04 0.  0.
        5    1    3    3  502    0 -0.11555392323E+04 -0.19898047883E+03 -0.19011676654E+04  0.22336796392E+04  0.46999998093E+01 0.  1.
       -5    1    3    3    0  502  0.11555392323E+04  0.19898047883E+03  0.59326753532E+03  0.13140976398E+04  0.46999998093E+01 0. -1.
</event>
<event>
 5   0  0.6603516E-08  0.3299795E+04  0.7818609E-02  0.8162948E-01
        2   -1    0    0  501    0  0.00000000000E+00  0.00000000000E+00  0.18385843673E+04  0.18385843673E+04  0.25500000920E-02 0. -1.
       -2   -1    0    0    0  501  0.00000000000E+00  0.00000000000E+00 -0.14805746387E+04  0.14805746387E+04  0.25500000920E-02 0.  1.
    10030    2    1    2    0    0  0.00000000000E+00  0.00000000000E+00  0.35800972859E+03  0.33191590060E+04  0.32997947727E+04 0.  0.
        1    1    3    3  502    0  0.69983792612E+03  0.14721821806E+04 -0.77576133103E+02  0.16319042717E+04  0.50400001928E-02 0. -1.
       -1    1    3    3    0  502 -0.69983792612E+03 -0.14721821806E+04  0.43558586169E+03  0.16872547343E+04  0.50400001928E-02 0.  1.
</event>
<event>
 5   0  0.6706080E-08  0.3299302E+04  0.7818609E-02  0.8163073E-01
        2   -1    0    0  501    0  0.00000000000E+00  0.00000000000E+00  0.25776821455E+04  0.25776821455E+04  0.25500000920E-02 0.  1.
       -2   -1    0    0    0  501  0.00000000000E+00  0.00000000000E+00 -0.10557346000E+04  0.10557346000E+04  0.25500000920E-02 0. -1.
    10030    2    1    2    0    0  0.00000000000E+00  0.00000000000E+00  0.15219475455E+04  0.36334167455E+04  0.32993018830E+04 0.  0.
        4    1    3    3  502    0  0.28454080416E+03 -0.11906719617E+04 -0.45675388805E+03  0.13066326632E+04  0.12699999809E+01 0. -1.
       -4    1    3    3    0  502 -0.28454080416E+03  0.11906719617E+04  0.19787014336E+04  0.23267840823E+04  0.12699999809E+01 0.  1.
</event>
<event>
 5   0  0.2383270E-08  0.3300365E+04  0.7818609E-02  0.8162803E-01
        1   -1    0    0  501    0  0.00000000000E+00  0.00000000000E+00  0.15056581966E+04  0.15056581966E+04  0.50400001928E-02 0.  1.
       -1   -1    0    0    0  501  0.00000000000E+00  0.00000000000E+00 -0.18085793380E+04  0.18085793380E+04  0.50400001928E-02 0. -1.
    10030    2    1    2    0    0  0.00000000000E+00  0.00000000000E+00 -0.30292114133E+03  0.33142375346E+04  0.33003650128E+04 0.  0.
        5    1    3    3  502    0  0.16116963044E+04  0.23172609249E+03  0.11765515772E+03  0.16325216035E+04  0.46999998093E+01 0. -1.
       -5    1    3    3    0  502 -0.16116963044E+04 -0.23172609249E+03 -0.42057629905E+03  0.16817159311E+04  0.46999998093E+01 0.  1.
</event>
<event>
 5   0  0.6706080E-08  0.3294933E+04  0.7818609E-02  0.8164186E-01
        2   -1    0    0  501    0  0.00000000000E+00  0.00000000000E+00  0.15049613319E+04  0.15049613319E+04  0.25500000920E-02 0.  1.
       -2   -1    0    0    0  501  0.00000000000E+00  0.00000000000E+00 -0.18034660139E+04  0.18034660139E+04  0.25500000920E-02 0. -1.
    10030    2    1    2    0    0  0.00000000000E+00  0.00000000000E+00 -0.29850468198E+03  0.33084273458E+04  0.32949334526E+04 0.  0.
        4    1    3    3  502    0 -0.20044846390E+03  0.12989718024E+04  0.84811191786E+03  0.15642259326E+04  0.12699999809E+01 0.  1.
       -4    1    3    3    0  502  0.20044846390E+03 -0.12989718024E+04 -0.11466165998E+04  0.17442014132E+04  0.12699999809E+01 0. -1.
</event>
<event>
 5   0  0.6821287E-08  0.3300385E+04  0.7818609E-02  0.8162797E-01
        2   -1    0    0  501    0  0.00000000000E+00  0.00000000000E+00  0.15976955797E+04  0.15976955797E+04  0.25500000920E-02 0.  1.
       -2   -1    0    0    0  501  0.00000000000E+00  0.00000000000E+00 -0.17044146964E+04  0.17044146964E+04  0.25500000920E-02 0. -1.
    10030    2    1    2    0    0  0.00000000000E+00  0.00000000000E+00 -0.10671911664E+03  0.33021102761E+04  0.33003853268E+04 0.  0.
        5    1    3    3  502    0  0.82554715075E+03  0.10301922626E+04 -0.10439727556E+04  0.16830702304E+04  0.46999998093E+01 0. -1.
       -5    1    3    3    0  502 -0.82554715075E+03 -0.10301922626E+04  0.93725363893E+03  0.16190400457E+04  0.46999998093E+01 0.  1.
</event>
<event>
 5   0  0.6603516E-08  0.3297505E+04  0.7818609E-02  0.8163531E-01
       -2   -1    0    0    0  501  0.00000000000E+00  0.00000000000E+00  0.10987932266E+04  0.10987932267E+04  0.25500000920E-02 0.  1.
        2   -1    0    0  501    0  0.00000000000E+00  0.00000000000E+00 -0.24739723245E+04  0.24739723245E+04  0.25500000920E-02 0. -1.
    10030    2    1    2    0    0  0.00000000000E+00  0.00000000000E+00 -0.13751790978E+04  0.35727655511E+04  0.32975045310E+04 0.  0.
        1    1    3    3  502    0 -0.60681971889E+03  0.14647481944E+03  0.96580230889E+03  0.11499822363E+04  0.50400001928E-02 0.  1.
       -1    1    3    3    0  502  0.60681971889E+03 -0.14647481944E+03 -0.23409814067E+04  0.24227833148E+04  0.50400001928E-02 0. -1.
</event>
<event>
 5   0  0.2309822E-08  0.3301863E+04  0.7818609E-02  0.8162422E-01
       -1   -1    0    0    0  501  0.00000000000E+00  0.00000000000E+00  0.16581767453E+04  0.16581767453E+04  0.50400001928E-02 0.  1.
        1   -1    0    0  501    0  0.00000000000E+00  0.00000000000E+00 -0.16437179149E+04  0.16437179149E+04  0.50400001928E-02 0. -1.
    10030    2    1    2    0    0  0.00000000000E+00  0.00000000000E+00  0.14458830394E+02  0.33018946602E+04  0.33018630028E+04 0.  0.
        4    1    3    3  502    0 -0.55417002745E+02 -0.13188527835E+04  0.99876779200E+03  0.16552892267E+04  0.12699999809E+01 0.  1.
       -4    1    3    3    0  502  0.55417002745E+02  0.13188527835E+04 -0.98430896160E+03  0.16466054335E+04  0.12699999809E+01 0. -1.
</event>
<event>
 5   0  0.6603516E-08  0.3297020E+04  0.7818609E-02  0.8163654E-01
        2   -1    0    0  501    0  0.00000000000E+00  0.00000000000E+00  0.18158994899E+04  0.18158994899E+04  0.25500000920E-02 0.  1.
       -2   -1    0    0    0  501  0.00000000000E+00  0.00000000000E+00 -0.14965501733E+04  0.14965501733E+04  0.25500000920E-02 0. -1.
    10030    2    1    2    0    0  0.00000000000E+00  0.00000000000E+00  0.31934931657E+03  0.33124496632E+04  0.32970196823E+04 0.  0.
        1    1    3    3  502    0  0.74382814470E+03 -0.88982175512E+03 -0.10173548384E+04  0.15427488233E+04  0.50400001928E-02 0. -1.
       -1    1    3    3    0  502 -0.74382814470E+03  0.88982175512E+03  0.13367041549E+04  0.17697008399E+04  0.50400001928E-02 0.  1.
</event>
<event>
 5   0  0.2291682E-08  0.3299570E+04  0.7818609E-02  0.8163005E-01
       -1   -1    0    0    0  501  0.00000000000E+00  0.00000000000E+00  0.15219048141E+04  0.15219048141E+04  0.50400001928E-02 0.  1.
        1   -1    0    0  501    0  0.00000000000E+00  0.00000000000E+00 -0.17884109167E+04  0.17884109167E+04  0.50400001928E-02 0. -1.
    10030    2    1    2    0    0  0.00000000000E+00  0.00000000000E+00 -0.26650610262E+03  0.33103157308E+04  0.32995703864E+04 0.  0.
        2    1    3    3  502    0  0.10305492695E+04  0.44755991955E+03 -0.13452640404E+04  0.17527341546E+04  0.25500000920E-02 0. -1.
       -2    1    3    3    0  502 -0.10305492695E+04 -0.44755991955E+03  0.10787579377E+04  0.15575815762E+04  0.25500000920E-02 0.  1.
</event>
<event>
 5   0  0.7084130E-08  0.3286193E+04  0.7818609E-02  0.8166417E-01
       -2   -1    0    0    0  501  0.00000000000E+00  0.00000000000E+00  0.17353536335E+04  0.17353536335E+04  0.25500000920E-02 0. -1.
        2   -1    0    0  501    0  0.00000000000E+00  0.00000000000E+00 -0.15557441957E+04  0.15557441957E+04  0.25500000920E-02 0.  1.
    10030    2    1    2    0    0  0.00000000000E+00  0.00000000000E+00  0.17960943780E+03  0.32910978293E+04  0.32861931428E+04 0.  0.
        3    1    3    3  502    0 -0.11478973715E+04 -0.82814328254E+03 -0.74587262075E+03  0.15999423891E+04  0.10100000352E+00 0.  1.
       -3    1    3    3    0  502  0.11478973715E+04  0.82814328254E+03  0.92548205856E+03  0.16911554402E+04  0.10100000352E+00 0. -1.
</event>
<event>
 5   0  0.2309822E-08  0.3299912E+04  0.7818609E-02  0.8162918E-01
        1   -1    0    0  501    0  0.00000000000E+00  0.00000000000E+00  0.19257451606E+04  0.19257451606E+04  0.50400001928E-02 0.  1.
       -1   -1    0    0    0  501  0.00000000000E+00  0.00000000000E+00 -0.14136632193E+04  0.14136632193E+04  0.50400001928E-02 0. -1.
    10030    2    1    2    0    0  0.00000000000E+00  0.00000000000E+00  0.51208194129E+03  0.33394083799E+04  0.32999121827E+04 0.  0.
        4    1    3    3  502    0 -0.79612410181E+03 -0.13679664019E+04  0.72767473282E+03  0.17420269205E+04  0.12699999809E+01 0.  1.
       -4    1    3    3    0  502  0.79612410181E+03  0.13679664019E+04 -0.21559279153E+03  0.15973814594E+04  0.12699999809E+01 0. -1.
</event>
<event>
 5   0  0.2244093E-08  0.3304229E+04  0.7818609E-02  0.8161820E-01
       -1   -1    0    0    0  501  0.00000000000E+00  0.00000000000E+00  0.10360700727E+04  0.10360700727E+04  0.50400001928E-02 0. -1.
        1   -1    0    0  501    0  0.00000000000E+00  0.00000000000E+00 -0.26344571342E+04  0.26344571342E+04  0.50400001928E-02 0.  1.
    10030    2    1    2    0    0  0.00000000000E+00  0.00000000000E+00 -0.15983870615E+04  0.36705272069E+04  0.33042289234E+04 0.  0.
        1    1    3    3  502    0  0.67092277026E+03  0.10551545491E+04 -0.19987105729E+04  0.23576115966E+04  0.50400001928E-02 0.  1.
       -1    1    3    3    0  502 -0.67092277026E+03 -0.10551545491E+04  0.40032351131E+03  0.13129156104E+04  0.50400001928E-02 0. -1.
</event>
<event>
 5   0  0.6603516E-08  0.3299765E+04  0.7818609E-02  0.8162955E-01
        2   -1    0    0  501    0  0.00000000000E+00  0.00000000000E+00  0.15835071867E+04  0.15835071867E+04  0.25500000920E-02 0.  1.
       -2   -1    0    0    0  501  0.00000000000E+00  0.00000000000E+00 -0.17190404977E+04  0.17190404977E+04  0.25500000920E-02 0. -1.
    10030    2    1    2    0    0  0.00000000000E+00  0.00000000000E+00 -0.13553331101E+03  0.33025476844E+04  0.32997654355E+04 0.  0.
        1    1    3    3  502    0  0.79726875071E+03  0.13557210955E+04  0.43114722047E+03  0.16307989071E+04  0.50400001928E-02 0. -1.
       -1    1    3    3    0  502 -0.79726875071E+03 -0.13557210955E+04 -0.56668053148E+03  0.16717487773E+04  0.50400001928E-02 0.  1.
</event>
<event>
 5   0  0.6706080E-08  0.3304111E+04  0.7818609E-02  0.8161850E-01
        2   -1    0    0  501    0  0.00000000000E+00  0.00000000000E+00  0.19903134370E+04  0.19903134370E+04  0.25500000920E-02 0.  1.
       -2   -1    0    0    0  501  0.00000000000E+00  0.00000000000E+00 -0.13712855055E+04  0.13712855055E+04  0.25500000920E-02 0. -1.
    10030    2    1    2    0    0  0.00000000000E+00  0.00000000000E+00  0.61902793151E+03  0.33615989424E+04  0.33041113585E+04 0.  0.
        4    1    3    3  502    0  0.10915228179E+04 -0.12762529522E+03  0.15644975877E+04  0.19119007801E+04  0.12699999809E+01 0.  1.
       -4    1    3    3    0  502 -0.10915228179E+04  0.12762529522E+03 -0.94546965624E+03  0.14496981623E+04  0.12699999809E+01 0. -1.
</event>
<event>
 5   0  0.2383270E-08  0.3300539E+04  0.7818609E-02  0.8162758E-01
       -1   -1    0    0    0  501  0.00000000000E+00  0.00000000000E+00  0.12295470334E+04  0.12295470334E+04  0.50400001928E-02 0.  1.
        1   -1    0    0  501    0  0.00000000000E+00  0.00000000000E+00 -0.22149528332E+04  0.22149528332E+04  0.50400001928E-02 0. -1.
    10030    2    1    2    0    0  0.00000000000E+00  0.00000000000E+00 -0.98540579985E+03  0.34444998666E+04  0.33005385531E+04 0.  0.
        5    1    3    3  502    0 -0.91407441716E+03 -0.16671895683E+03 -0.19160224923E+04  0.21294345568E+04  0.46999998093E+01 0. -1.
       -5    1    3    3    0  502  0.91407441716E+03  0.16671895683E+03  0.93061669249E+03  0.13150653098E+04  0.46999998093E+01 0.  1.
</event>
<event>
 5   0  0.6603516E-08  0.3291807E+04  0.7818609E-02  0.8164983E-01
       -2   -1    0    0    0  501  0.00000000000E+00  0.00000000000E+00  0.10997416531E+04  0.10997416531E+04  0.25500000920E-02 0.  1.
        2   -1    0    0  501    0  0.00000000000E+00  0.00000000000E+00 -0.24633040030E+04  0.24633040031E+04  0.25500000920E-02 0. -1.
    10030    2    1    2    0    0  0.00000000000E+00  0.00000000000E+00 -0.13635623500E+04  0.35630456561E+04  0.32918068086E+04 0.  0.
        1    1    3    3  502    0 -0.14076688986E+04  0.57618676066E+02 -0.16028672764E+04  0.21340185438E+04  0.50400001928E-02 0.  1.
       -1    1    3    3    0  502  0.14076688986E+04 -0.57618676066E+02  0.23930492639E+03  0.14290271123E+04  0.50400001928E-02 0. -1.
</event>
<event>
 5   0  0.7084130E-08  0.3300662E+04  0.7818609E-02  0.8162727E-01
       -2   -1    0    0    0  501  0.00000000000E+00  0.00000000000E+00  0.10240685451E+04  0.10240685451E+04  0.25500000920E-02 0. -1.
        2   -1    0    0  501    0  0.00000000000E+00  0.00000000000E+00 -0.26595801714E+04  0.26595801714E+04  0.25500000920E-02 0.  1.
    10030    2    1    2    0    0  0.00000000000E+00  0.00000000000E+00 -0.16355116263E+04  0.36836487165E+04  0.33006619922E+04 0.  0.
        3    1    3    3  502    0  0.43368301055E+03  0.15922104373E+04 -0.79607612882E+03  0.18321987456E+04  0.10100000352E+00 0. -1.
       -3    1    3    3    0  502 -0.43368301055E+03 -0.15922104373E+04 -0.83943549746E+03  0.18514499709E+04  0.10100000352E+00 0.  1.
</event>
<event>
 5   0  0.2244093E-08  0.3301269E+04  0.7818609E-02  0.8162572E-01
        1   -1    0    0  501    0  0.00000000000E+00  0.00000000000E+00  0.21573620944E+04  0.21573620944E+04  0.50400001928E-02 0. -1.
       -1   -1    0    0    0  501  0.00000000000E+00  0.00000000000E+00 -0.12629287927E+04  0.12629287927E+04  0.50400001928E-02 0.  1.
    10030    2    1    2    0    0  0.00000000000E+00  0.00000000000E+00  0.89443330173E+03  0.34202908871E+04  0.33012692743E+04 0.  0.
        1    1    3    3  502    0  0.12351276894E+04 -0.72263805647E+03  0.12995860314E+04  0.19330468237E+04  0.50400001928E-02 0. -1.
       -1    1    3    3    0  502 -0.12351276894E+04  0.72263805647E+03 -0.40515272965E+03  0.14872440634E+04  0.50400001928E-02 0.  1.
</event>
<event>
 5   0  0.2244093E-08  0.3299390E+04  0.7818609E-02  0.8163051E-01
       -1   -1    0    0    0  501  0.00000000000E+00  0.00000000000E+00  0.13705806117E+04  0.13705806117E+04  0.50400001928E-02 0. -1.
        1   -1    0    0  501    0  0.00000000000E+00  0.00000000000E+00 -0.19856497101E+04  0.19856497101E+04  0.50400001928E-02 0.  1.
    10030    2    1    2    0    0  0.00000000000E+00  0.00000000000E+00 -0.61506909838E+03  0.33562303218E+04  0.32993896371E+04 0.  0.
        1    1    3    3  502    0 -0.37827690648E+03 -0.41995571392E+03  0.12690162780E+04  0.13891934831E+04  0.50400001928E-02 0. -1.
       -1    1    3    3    0  502  0.37827690648E+03  0.41995571392E+03 -0.18840853763E+04  0.19670368388E+04  0.50400001928E-02 0.  1.
</event>
<event>
 5   0  0.2279938E-08  0.3300133E+04  0.7818609E-02  0.8162862E-01
        1   -1    0    0  501    0  0.00000000000E+00  0.00000000000E+00  0.16673899030E+04  0.16673899030E+04  0.50400001928E-02 0.  1.
       -1   -1    0    0    0  501  0.00000000000E+00  0.00000000000E+00 -0.16329228077E+04  0.16329228077E+04  0.50400001928E-02 0. -1.
    10030    2    1    2    0    0  0.00000000000E+00  0.00000000000E+00  0.34467095305E+02  0.33003127106E+04  0.33001327257E+04 0.  0.
        3    1    3    3  502    0 -0.16153878766E+04  0.31852648146E+02 -0.31778682540E+03  0.16466575417E+04  0.10100000352E+00 0. -1.
       -3    1    3    3    0  502  0.16153878766E+04 -0.31852648146E+02  0.35225392070E+03  0.16536551690E+04  0.10100000352E+00 0.  1.
</event>
<event>
 5   0  0.2383270E-08  0.3299691E+04  0.7818609E-02  0.8162974E-01
       -1   -1    0    0    0  501  0.00000000000E+00  0.00000000000E+00  0.14297253857E+04  0.14297253857E+04  0.50400001928E-02 0.  1.
        1   -1    0    0  501    0  0.00000000000E+00  0.00000000000E+00 -0.19038551319E+04  0.19038551319E+04  0.50400001928E-02 0. -1.
    10030    2    1    2    0    0  0.00000000000E+00  0.00000000000E+00 -0.47412974626E+03  0.33335805176E+04  0.32996909024E+04 0.  0.
        5    1    3    3  502    0  0.44370089104E+02 -0.84354224557E+03 -0.16688131065E+04  0.18704254862E+04  0.46999998093E+01 0. -1.
       -5    1    3    3    0  502 -0.44370089104E+02  0.84354224557E+03  0.11946833602E+04  0.14631550315E+04  0.46999998093E+01 0.  1.
</event>
<event>
 5   0  0.2279938E-08  0.3301066E+04  0.7818609E-02  0.8162624E-01
       -1   -1    0    0    0  501  0.00000000000E+00  0.00000000000E+00  0.13259458220E+04  0.13259458220E+04  0.50400001928E-02 0. -1.
        1   -1    0    0  501    0  0.00000000000E+00  0.00000000000E+00 -0.20545779089E+04  0.20545779089E+04  0.50400001928E-02 0.  1.
    10030    2    1    2    0    0  0.00000000000E+00  0.00000000000E+00 -0.72863208691E+03  0.33805237309E+04  0.33010658850E+04 0.  0.
        3    1    3    3  502    0  0.49807508147E+03  0.10041906403E+04 -0.16049980391E+04  0.19576762615E+04  0.10100000352E+00 0.  1.
       -3    1    3    3    0  502 -0.49807508147E+03 -0.10041906403E+04  0.87636595222E+03  0.14228474694E+04  0.10100000352E+00 0. -1.
</event>
<event>
 5   0  0.6706080E-08  0.3299677E+04  0.7818609E-02  0.8162978E-01
       -2   -1    0    0    0  501  0.00000000000E+00  0.00000000000E+00  0.14588159936E+04  0.14588159936E+04  0.25500000920E-02 0.  1.
        2   -1    0    0  501    0  0.00000000000E+00  0.00000000000E+00 -0.18658743747E+04  0.18658743747E+04  0.25500000920E-02 0. -1.
    10030    2    1    2    0    0  0.00000000000E+00  0.00000000000E+00 -0.40705838111E+03  0.33246903683E+04  0.32996771841E+04 0.  0.
        4    1    3    3  502    0 -0.15697420523E+04 -0.43976130532E+03 -0.45939443298E+03  0.16936720386E+04  0.12699999809E+01 0.  1.
       -4    1    3    3    0  502  0.15697420523E+04  0.43976130532E+03  0.52336051862E+02  0.16310183297E+04  0.12699999809E+01 0. -1.
</event>
<event>
 5   0  0.6603516E-08  0.3303262E+04  0.7818609E-02  0.8162066E-01
        2   -1    0    0  501    0  0.00000000000E+00  0.00000000000E+00  0.17048600710E+04  0.17048600711E+04  0.25500000920E-02 0. -1.
       -2   -1    0    0    0  501  0.00000000000E+00  0.00000000000E+00 -0.16000642453E+04  0.16000642453E+04  0.25500000920E-02 0.  1.
    10030    2    1    2    0    0  0.00000000000E+00  0.00000000000E+00  0.10479582577E+03  0.33049243163E+04  0.33032624134E+04 0.  0.
        1    1    3    3  502    0  0.15641298709E+04  0.43398972252E+03  0.35756991190E+03  0.16621388553E+04  0.50400001928E-02 0. -1.
       -1    1    3    3    0  502 -0.15641298709E+04 -0.43398972252E+03 -0.25277408613E+03  0.16427854610E+04  0.50400001928E-02 0.  1.
</event>
<event>
 5   0  0.2291682E-08  0.3298154E+04  0.7818609E-02  0.8163365E-01
       -1   -1    0    0    0  501  0.00000000000E+00  0.00000000000E+00  0.14591198343E+04  0.14591198343E+04  0.50400001928E-02 0.  1.
        1   -1    0    0  501    0  0.00000000000E+00  0.00000000000E+00 -0.18637638139E+04  0.18637638139E+04  0.50400001928E-02 0. -1.
    10030    2    1    2    0    0  0.00000000000E+00  0.00000000000E+00 -0.40464397966E+03  0.33228836482E+04  0.32981538759E+04 0.  0.
        2    1    3    3  502    0  0.14301244334E+04  0.78907795813E+03 -0.43108136043E+03  0.16892989843E+04  0.25500000920E-02 0. -1.
       -2    1    3    3    0  502 -0.14301244334E+04 -0.78907795813E+03  0.26437380774E+02  0.16335846639E+04  0.25500000920E-02 0.  1.
</event>
<event>
 5   0  0.6821287E-08  0.3300544E+04  0.7818609E-02  0.8162757E-01
       -2   -1    0    0    0  501  0.00000000000E+00  0.00000000000E+00  0.12859721875E+04  0.12859721875E+04  0.25500000920E-02 0. -1.
        2   -1    0    0  501    0  0.00000000000E+00  0.00000000000E+00 -0.21177729570E+04  0.21177729570E+04  0.25500000920E-02 0.  1.
    10030    2    1    2    0    0  0.00000000000E+00  0.00000000000E+00 -0.83180076943E+03  0.34037451445E+04  0.33005436656E+04 0.  0.
        5    1    3    3  502    0 -0.14220478699E+04 -0.45250990876E+03  0.31067874632E+03  0.15243125451E+04  0.46999998093E+01 0. -1.
       -5    1    3    3    0  502  0.14220478699E+04  0.45250990876E+03 -0.11424795158E+04  0.18794325994E+04  0.46999998093E+01 0.  1.
</event>
<event>
 5   0  0.2291682E-08  0.3300799E+04  0.7818609E-02  0.8162692E-01
        1   -1    0    0  501    0  0.00000000000E+00  0.00000000000E+00  0.10581025653E+04  0.10581025653E+04  0.50400001928E-02 0. -1.
       -1   -1    0    0    0  501  0.00000000000E+00  0.00000000000E+00 -0.25742480448E+04  0.25742480448E+04  0.50400001928E-02 0.  1.
    10030    2    1    2    0    0  0.00000000000E+00  0.00000000000E+00 -0.15161454795E+04  0.36323506101E+04  0.33007989699E+04 0.  0.
        2    1    3    3  502    0 -0.74964754629E+03  0.70380031141E+03  0.66253091400E+03  0.12232144268E+04  0.25500000920E-02 0. -1.
       -2    1    3    3    0  502  0.74964754629E+03 -0.70380031141E+03 -0.21786763935E+04  0.24091361833E+04  0.25500000920E-02 0.  1.
</event>
<event>
 5   0  0.6765252E-08  0.3299108E+04  0.7818609E-02  0.8163122E-01
       -2   -1    0    0    0  501  0.00000000000E+00  0.00000000000E+00  0.19754273703E+04  0.19754273703E+04  0.25500000920E-02 0.  1.
        2   -1    0    0  501    0  0.00000000000E+00  0.00000000000E+00 -0.13774378677E+04  0.13774378677E+04  0.25500000920E-02 0. -1.
    10030    2    1    2    0    0  0.00000000000E+00  0.00000000000E+00  0.59798950263E+03  0.33528652380E+04  0.32991080399E+04 0.  0.
        2    1    3    3  502    0 -0.44253052087E+02  0.16284925620E+04  0.56221719058E+03  0.17233788111E+04  0.25500000920E-02 0.  1.
       -2    1    3    3    0  502  0.44253052087E+02 -0.16284925620E+04  0.35772312052E+02  0.16294864269E+04  0.25500000920E-02 0. -1.
</event>
<event>
 5   0  0.7084130E-08  0.3300628E+04  0.7818609E-02  0.8162736E-01
        2   -1    0    0  501    0  0.00000000000E+00  0.00000000000E+00  0.18218274520E+04  0.18218274520E+04  0.25500000920E-02 0. -1.
       -2   -1    0    0    0  501  0.00000000000E+00  0.00000000000E+00 -0.14949474277E+04  0.14949474277E+04  0.25500000920E-02 0.  1.
    10030    2    1    2    0    0  0.00000000000E+00  0.00000000000E+00  0.32688002421E+03  0.33167748797E+04  0.33006279785E+04 0.  0.
        3    1    3    3  502    0  0.17028341326E+03 -0.15749478296E+04  0.62839038543E+03  0.17042099617E+04  0.10100000352E+00 0. -1.
       -3    1    3    3    0  502 -0.17028341326E+03  0.15749478296E+04 -0.30151036121E+03  0.16125649180E+04  0.10100000352E+00 0.  1.
</event>
<event>
 5   0  0.6603516E-08  0.3300150E+04  0.7818609E-02  0.8162857E-01
       -2   -1    0    0    0  501  0.00000000000E+00  0.00000000000E+00  0.98211082243E+03  0.98211082243E+03  0.25500000920E-02 0. -1.
        2   -1    0    0  501    0  0.00000000000E+00  0.00000000000E+00 -0.27723429890E+04  0.27723429890E+04  0.25500000920E-02 0.  1.
    10030    2    1    2    0    0  0.00000000000E+00  0.00000000000E+00 -0.17902321665E+04  0.37544538114E+04  0.33001503317E+04 0.  0.
        1    1    3    3  502    0  0.74903824184E+03  0.12989276988E+04 -0.16787630210E+04  0.22508924309E+04  0.50400001928E-02 0.  1.
       -1    1    3    3    0  502 -0.74903824184E+03 -0.12989276988E+04 -0.11146914549E+03  0.15035613805E+04  0.50400001928E-02 0. -1.
</event>
<event>
 5   0  0.6706080E-08  0.3300398E+04  0.7818609E-02  0.8162794E-01
       -2   -1    0    0    0  501  0.00000000000E+00  0.00000000000E+00  0.15515759584E+04  0.15515759584E+04  0.25500000920E-02 0.  1.
        2   -1    0    0  501    0  0.00000000000E+00  0.00000000000E+00 -0.17550912732E+04  0.17550912732E+04  0.25500000920E-02 0. -1.
    10030    2    1    2    0    0  0.00000000000E+00  0.00000000000E+00 -0.20351531480E+03  0.33066672316E+04  0.33003984150E+04 0.  0.
        4    1    3    3  502    0  0.97368789922E+03  0.11920730632E+04  0.49439311849E+03  0.16166423481E+04  0.12699999809E+01 0.  1.
       -4    1    3    3    0  502 -0.97368789922E+03 -0.11920730632E+04 -0.69790843329E+03  0.16900248836E+04  0.12699999809E+01 0. -1.
</event>
<event>
 5   0  0.2383270E-08  0.3300579E+04  0.7818609E-02  0.8162748E-01
        1   -1    0    0  501    0  0.00000000000E+00  0.00000000000E+00  0.30558014789E+04  0.30558014789E+04  0.50400001928E-02 0.  1.
       -1   -1    0    0    0  501  0.00000000000E+00  0.00000000000E+00 -0.89124120392E+03  0.89124120394E+03  0.50400001928E-02 0. -1.
    10030    2    1    2    0    0  0.00000000000E+00  0.00000000000E+00  0.21645602750E+04  0.39470426828E+04  0.33005794576E+04 0.  0.
        5    1    3    3  502    0 -0.86545697877E+03 -0.64987256028E+01 -0.59805756233E+03  0.10520232666E+04  0.46999998093E+01 0. -1.
       -5    1    3    3    0  502  0.86545697877E+03  0.64987256028E+01  0.27626178373E+04  0.28950194163E+04  0.46999998093E+01 0.  1.
</event>
<event>
 5   0  0.2309822E-08  0.3299152E+04  0.7818609E-02  0.8163111E-01
       -1   -1    0    0    0  501  0.00000000000E+00  0.00000000000E+00  0.13392273425E+04  0.13392273425E+04  0.50400001928E-02 0.  1.
        1   -1    0    0  501    0  0.00000000000E+00  0.00000000000E+00 -0.20318443974E+04  0.20318443974E+04  0.50400001928E-02 0. -1.
    10030    2    1    2    0    0  0.00000000000E+00  0.00000000000E+00 -0.69261705490E+03  0.33710717399E+04  0.32991523594E+04 0.  0.
        4    1    3    3  502    0 -0.10194186991E+04  0.10424599422E+04 -0.11345939428E+04  0.18474962093E+04  0.12699999809E+01 0. -1.
       -4    1    3    3    0  502  0.10194186991E+04 -0.10424599422E+04  0.44197688793E+03  0.15235755306E+04  0.12699999809E+01 0.  1.
</event>
<event>
 5   0  0.2383270E-08  0.3302265E+04  0.7818609E-02  0.8162319E-01
       -1   -1    0    0    0  501  0.00000000000E+00  0.00000000000E+00  0.30753780967E+04  0.30753780967E+04  0.50400001928E-02 0.  1.
        1   -1    0    0  501    0  0.00000000000E+00  0.00000000000E+00 -0.88647262025E+03  0.88647262026E+03  0.50400001928E-02 0. -1.
    10030    2    1    2    0    0  0.00000000000E+00  0.00000000000E+00  0.21889054764E+04  0.39618507169E+04  0.33022649680E+04 0.  0.
        5    1    3    3  502    0  0.45120366224E+03 -0.90230339801E+03 -0.47371013578E+03  0.11145221171E+04  0.46999998093E+01 0. -1.
       -5    1    3    3    0  502 -0.45120366224E+03  0.90230339801E+03  0.26626156122E+04  0.28473285998E+04  0.46999998093E+01 0.  1.
</event>
<event>
 5   0  0.7084130E-08  0.3294726E+04  0.7818609E-02  0.8164239E-01
       -2   -1    0    0    0  501  0.00000000000E+00  0.00000000000E+00  0.19822195799E+04  0.19822195799E+04  0.25500000920E-02 0. -1.
        2   -1    0    0  501    0  0.00000000000E+00  0.00000000000E+00 -0.13690734406E+04  0.13690734406E+04  0.25500000920E-02 0.  1.
    10030    2    1    2    0    0  0.00000000000E+00  0.00000000000E+00  0.61314613939E+03  0.33512930205E+04  0.32947255912E+04 0.  0.
        3    1    3    3  502    0 -0.31954628366E+03 -0.12048943162E+04 -0.78891568947E+03  0.14752179893E+04  0.10100000352E+00 0.  1.
       -3    1    3    3    0  502  0.31954628366E+03  0.12048943162E+04  0.14020618289E+04  0.18760750312E+04  0.10100000352E+00 0. -1.
</event>
<event>
 5   0  0.6765252E-08  0.3300577E+04  0.7818609E-02  0.8162749E-01
       -2   -1    0    0    0  501  0.00000000000E+00  0.00000000000E+00  0.14257439625E+04  0.14257439625E+04  0.25500000920E-02 0.  1.
        2   -1    0    0  501    0  0.00000000000E+00  0.00000000000E+00 -0.19101971887E+04  0.19101971887E+04  0.25500000920E-02 0. -1.
    10030    2    1    2    0    0  0.00000000000E+00  0.00000000000E+00 -0.48445322618E+03  0.33359411513E+04  0.33005769854E+04 0.  0.
        2    1    3    3  502    0  0.31314226648E+03 -0.16156057218E+04 -0.11756743371E+03  0.16498672762E+04  0.25500000920E-02 0.  1.
       -2    1    3    3    0  502 -0.31314226648E+03  0.16156057218E+04 -0.36688579248E+03  0.16860738751E+04  0.25500000920E-02 0. -1.
</event>
<event>
 5   0  0.6821287E-08  0.3299032E+04  0.7818609E-02  0.8163142E-01
       -2   -1    0    0    0  501  0.00000000000E+00  0.00000000000E+00  0.15330322595E+04  0.15330322595E+04  0.25500000920E-02 0.  1.
        2   -1    0    0  501    0  0.00000000000E+00  0.00000000000E+00 -0.17748502343E+04  0.17748502343E+04  0.25500000920E-02 0. -1.
    10030    2    1    2    0    0  0.00000000000E+00  0.00000000000E+00 -0.24181797481E+03  0.33078824938E+04  0.32990317761E+04 0.  0.
        5    1    3    3  502    0 -0.49300463393E+03  0.78972799587E+01  0.14574057086E+04  0.15385608293E+04  0.46999998093E+01 0.  1.
       -5    1    3    3    0  502  0.49300463393E+03 -0.78972799587E+01 -0.16992236834E+04  0.17693216644E+04  0.46999998093E+01 0. -1.
</event>
<event>
 5   0  0.2309822E-08  0.3300717E+04  0.7818609E-02  0.8162713E-01
        1   -1    0    0  501    0  0.00000000000E+00  0.00000000000E+00  0.20566059638E+04  0.20566059638E+04  0.50400001928E-02 0. -1.
       -1   -1    0    0    0  501  0.00000000000E+00  0.00000000000E+00 -0.13243586409E+04  0.13243586409E+04  0.50400001928E-02 0.  1.
    10030    2    1    2    0    0  0.00000000000E+00  0.00000000000E+00  0.73224732290E+03  0.33809646047E+04  0.33007174245E+04 0.  0.
        4    1    3    3  502    0 -0.12796207794E+04 -0.84333259374E+03 -0.26117281338E+03  0.15546228013E+04  0.12699999809E+01 0. -1.
       -4    1    3    3    0  502  0.12796207794E+04  0.84333259374E+03  0.99342013629E+03  0.18263418034E+04  0.12699999809E+01 0.  1.
</event>
<event>
 5   0  0.2244093E-08  0.3299134E+04  0.7818609E-02  0.8163116E-01
       -1   -1    0    0    0  501  0.00000000000E+00  0.00000000000E+00  0.10981955950E+04  0.10981955950E+04  0.50400001928E-02 0.  1.
        1   -1    0    0  501    0  0.00000000000E+00  0.00000000000E+00 -0.24777651887E+04  0.24777651887E+04  0.50400001928E-02 0. -1.
    10030    2    1    2    0    0  0.00000000000E+00  0.00000000000E+00 -0.13795695937E+04  0.35759607836E+04  0.32991337139E+04 0.  0.
        1    1    3    3  502    0 -0.13738578595E+03  0.16409543036E+04 -0.79523602517E+03  0.18286624118E+04  0.50400001928E-02 0. -1.
       -1    1    3    3    0  502  0.13738578595E+03 -0.16409543036E+04 -0.58433356853E+03  0.17472983718E+04  0.50400001928E-02 0.  1.
</event>
<event>
 5   0  0.6765252E-08  0.3296417E+04  0.7818609E-02  0.8163808E-01
       -2   -1    0    0    0  501  0.00000000000E+00  0.00000000000E+00  0.96839934074E+03  0.96839934075E+03  0.25500000920E-02 0.  1.
        2   -1    0    0  501    0  0.00000000000E+00  0.00000000000E+00 -0.28052393548E+04  0.28052393548E+04  0.25500000920E-02 0. -1.
    10030    2    1    2    0    0  0.00000000000E+00  0.00000000000E+00 -0.18368400140E+04  0.37736386955E+04  0.32964174140E+04 0.  0.
        2    1    3    3  502    0  0.15108657335E+04  0.20541499118E+03 -0.16348678312E+04  0.22355543851E+04  0.25500000920E-02 0.  1.
       -2    1    3    3    0  502 -0.15108657335E+04 -0.20541499118E+03 -0.20197218287E+03  0.15380843104E+04  0.25500000920E-02 0. -1.
</event>
<event>
 5   0  0.2309822E-08  0.3296601E+04  0.7818609E-02  0.8163761E-01
        1   -1    0    0  501    0  0.00000000000E+00  0.00000000000E+00  0.17256224667E+04  0.17256224667E+04  0.50400001928E-02 0.  1.
       -1   -1    0    0    0  501  0.00000000000E+00  0.00000000000E+00 -0.15744428955E+04  0.15744428955E+04  0.50400001928E-02 0. -1.
    10030    2    1    2    0    0  0.00000000000E+00  0.00000000000E+00  0.15117957120E+03  0.33000653622E+04  0.32966006934E+04 0.  0.
        4    1    3    3  502    0 -0.11281507991E+04 -0.65891415214E+03  0.10816337385E+04  0.16961206450E+04  0.12699999809E+01 0.  1.
       -4    1    3    3    0  502  0.11281507991E+04  0.65891415214E+03 -0.93045416732E+03  0.16039447172E+04  0.12699999809E+01 0. -1.
</event>
<event>
 5   0  0.6706080E-08  0.3297697E+04  0.7818609E-02  0.8163482E-01
        2   -1    0    0  501    0  0.00000000000E+00  0.00000000000E+00  0.10965132608E+04  0.10965132608E+04  0.25500000920E-02 0. -1.
       -2   -1    0    0    0  501  0.00000000000E+00  0.00000000000E+00 -0.24794060496E+04  0.24794060496E+04  0.25500000920E-02 0.  1.
    10030    2    1    2    0    0  0.00000000000E+00  0.00000000000E+00 -0.13828927888E+04  0.35759193104E+04  0.32976971434E+04 0.  0.
        4    1    3    3  502    0 -0.85463141034E+03 -0.91800453831E+03  0.46916890944E+03  0.13391221970E+04  0.12699999809E+01 0. -1.
       -4    1    3    3    0  502  0.85463141034E+03  0.91800453831E+03 -0.18520616982E+04  0.22367971135E+04  0.12699999809E+01 0.  1.
</event>
<event>
 5   0  0.2383270E-08  0.3299077E+04  0.7818609E-02  0.8163130E-01
        1   -1    0    0  501    0  0.00000000000E+00  0.00000000000E+00  0.23133052170E+04  0.23133052170E+04  0.50400001928E-02 0.  1.
       -1   -1    0    0    0  501  0.00000000000E+00  0.00000000000E+00 -0.11762292997E+04  0.11762292997E+04  0.50400001928E-02 0. -1.
    10030    2    1    2    0    0  0.00000000000E+00  0.00000000000E+00  0.11370759173E+04  0.34895345167E+04  0.32990770681E+04 0.  0.
        5    1    3    3  502    0 -0.10597530152E+04 -0.54604430720E+03 -0.63732793154E+03  0.13518320239E+04  0.46999998093E+01 0. -1.
       -5    1    3    3    0  502  0.10597530152E+04  0.54604430720E+03  0.17744038488E+04  0.21377024927E+04  0.46999998093E+01 0.  1.
</event>
<event>
 5   0  0.7084130E-08  0.3299038E+04  0.7818609E-02  0.8163140E-01
       -2   -1    0    0    0  501  0.00000000000E+00  0.00000000000E+00  0.13248533737E+04  0.13248533737E+04  0.25500000920E-02 0.  1.
        2   -1    0    0  501    0  0.00000000000E+00  0.00000000000E+00 -0.20537469763E+04  0.20537469763E+04  0.25500000920E-02 0. -1.
    10030    2    1    2    0    0  0.00000000000E+00  0.00000000000E+00 -0.72889360260E+03  0.33786003499E+04  0.32990384115E+04 0.  0.
        3    1    3    3  502    0  0.10394495604E+04 -0.12563346070E+04 -0.10927611358E+03  0.16342500765E+04  0.10100000352E+00 0. -1.
       -3    1    3    3    0  502 -0.10394495604E+04  0.12563346070E+04 -0.61961748902E+03  0.17443502734E+04  0.10100000352E+00 0.  1.
</event>
<event>
 5   0  0.6603516E-08  0.3302617E+04  0.7818609E-02  0.8162230E-01
        2   -1    0    0  501    0  0.00000000000E+00  0.00000000000E+00  0.11402904606E+04  0.11402904606E+04  0.25500000920E-02 0. -1.
       -2   -1    0    0    0  501  0.00000000000E+00  0.00000000000E+00 -0.23913378137E+04  0.23913378137E+04  0.25500000920E-02 0.  1.
    10030    2    1    2    0    0  0.00000000000E+00  0.00000000000E+00 -0.12510473532E+04  0.35316282743E+04  0.33026169605E+04 0.  0.
        1    1    3    3  502    0  0.12047054127E+04 -0.81210590400E+03 -0.14647963906E+04  0.20631189003E+04  0.50400001928E-02 0.  1.
       -1    1    3    3    0  502 -0.12047054127E+04  0.81210590400E+03  0.21374903742E+03  0.14685093741E+04  0.50400001928E-02 0. -1.
</event>
<event>
 5   0  0.2279938E-08  0.3302015E+04  0.7818609E-02  0.8162383E-01
        1   -1    0    0  501    0  0.00000000000E+00  0.00000000000E+00  0.18527378672E+04  0.18527378672E+04  0.50400001928E-02 0.  1.
       -1   -1    0    0    0  501  0.00000000000E+00  0.00000000000E+00 -0.14712424435E+04  0.14712424435E+04  0.50400001928E-02 0. -1.
    10030    2    1    2    0    0  0.00000000000E+00  0.00000000000E+00  0.38149542375E+03  0.33239803107E+04  0.33020154978E+04 0.  0.
        3    1    3    3  502    0  0.99412248755E+03 -0.12722761635E+03 -0.11299858460E+04  0.15104086894E+04  0.10100000352E+00 0. -1.
       -3    1    3    3    0  502 -0.99412248755E+03  0.12722761635E+03  0.15114812698E+04  0.18135716213E+04  0.10100000352E+00 0.  1.
</event>
<event>
 5   0  0.2309822E-08  0.3305730E+04  0.7818609E-02  0.8161439E-01
       -1   -1    0    0    0  501  0.00000000000E+00  0.00000000000E+00  0.12217431361E+04  0.12217431362E+04  0.50400001928E-02 0.  1.
        1   -1    0    0  501    0  0.00000000000E+00  0.00000000000E+00 -0.22361192244E+04  0.22361192244E+04  0.50400001928E-02 0. -1.
    10030    2    1    2    0    0  0.00000000000E+00  0.00000000000E+00 -0.10143760883E+04  0.34578623606E+04  0.33057303665E+04 0.  0.
        4    1    3    3  502    0  0.34210912034E+02 -0.16524965170E+04 -0.51432678774E+03  0.17310253558E+04  0.12699999809E+01 0.  1.
       -4    1    3    3    0  502 -0.34210912034E+02  0.16524965170E+04 -0.50004930054E+03  0.17268370047E+04  0.12699999809E+01 0. -1.
</event>
<event>
 5   0  0.2309822E-08  0.3301954E+04  0.7818609E-02  0.8162398E-01
       -1   -1    0    0    0  501  0.00000000000E+00  0.00000000000E+00  0.12088191652E+04  0.12088191652E+04  0.50400001928E-02 0. -1.
        1   -1    0    0  501    0  0.00000000000E+00  0.00000000000E+00 -0.22548654830E+04  0.22548654830E+04  0.50400001928E-02 0.  1.
    10030    2    1    2    0    0  0.00000000000E+00  0.00000000000E+00 -0.10460463178E+04  0.34636846482E+04  0.33019537313E+04 0.  0.
        4    1    3    3  502    0 -0.99380805388E+03  0.59071496099E+03 -0.17593631828E+04  0.21052218494E+04  0.12699999809E+01 0.  1.
       -4    1    3    3    0  502  0.99380805388E+03 -0.59071496099E+03  0.71331686504E+03  0.13584627989E+04  0.12699999809E+01 0. -1.
</event>
<event>
 5   0  0.2309822E-08  0.3301367E+04  0.7818609E-02  0.8162548E-01
        1   -1    0    0  501    0  0.00000000000E+00  0.00000000000E+00  0.25566215627E+04  0.25566215627E+04  0.50400001928E-02 0.  1.
       -1   -1    0    0    0  501  0.00000000000E+00  0.00000000000E+00 -0.10657646186E+04  0.10657646186E+04  0.50400001928E-02 0. -1.
    10030    2    1    2    0    0  0.00000000000E+00  0.00000000000E+00  0.14908569441E+04  0.36223861813E+04  0.33013674770E+04 0.  0.
        4    1    3    3  502    0 -0.62038389175E+03 -0.14680483246E+04  0.27385456174E+03  0.16171085277E+04  0.12699999809E+01 0.  1.
       -4    1    3    3    0  502  0.62038389175E+03  0.14680483246E+04  0.12170023823E+04  0.20052776536E+04  0.12699999809E+01 0. -1.
</event>
<event>
 5   0  0.2279938E-08  0.3292358E+04  0.7818609E-02  0.8164843E-01
        1   -1    0    0  501    0  0.00000000000E+00  0.00000000000E+00  0.18070635191E+04  0.18070635191E+04  0.50400001928E-02 0. -1.
       -1   -1    0    0    0  501  0.00000000000E+00  0.00000000000E+00 -0.14996179683E+04  0.14996179684E+04  0.50400001928E-02 0.  1.
    10030    2    1    2    0    0  0.00000000000E+00  0.00000000000E+00  0.30744555073E+03  0.33066814874E+04  0.32923577711E+04 0.  0.
        3    1    3    3  502    0  0.11037982225E+04  0.11801739590E+04 -0.16184767154E+03  0.16239999287E+04  0.10100000352E+00 0.  1.
       -3    1    3    3    0  502 -0.11037982225E+04 -0.11801739590E+04  0.46929322227E+03  0.16826815587E+04  0.10100000352E+00 0. -1.
</event>
<event>
 5   0  0.6821287E-08  0.3294415E+04  0.7818609E-02  0.8164318E-01
       -2   -1    0    0    0  501  0.00000000000E+00  0.00000000000E+00  0.11972856048E+04  0.11972856048E+04  0.25500000920E-02 0.  1.
        2   -1    0    0  501    0  0.00000000000E+00  0.00000000000E+00 -0.22662037687E+04  0.22662037687E+04  0.25500000920E-02 0. -1.
    10030    2    1    2    0    0  0.00000000000E+00  0.00000000000E+00 -0.10689181639E+04  0.34634893735E+04  0.32944153653E+04 0.  0.
        5    1    3    3  502    0  0.54584227868E+03 -0.50289933743E+03 -0.20804448140E+04  0.22088739780E+04  0.46999998093E+01 0. -1.
       -5    1    3    3    0  502 -0.54584227868E+03  0.50289933743E+03  0.10115266501E+04  0.12546153955E+04  0.46999998093E+01 0.  1.
</event>
<event>
 5   0  0.6765252E-08  0.3294353E+04  0.7818609E-02  0.8164334E-01
       -2   -1    0    0    0  501  0.00000000000E+00  0.00000000000E+00  0.15720576938E+04  0.15720576938E+04  0.25500000920E-02 0.  1.
        2   -1    0    0  501    0  0.00000000000E+00  0.00000000000E+00 -0.17258846366E+04  0.17258846366E+04  0.25500000920E-02 0. -1.
    10030    2    1    2    0    0  0.00000000000E+00  0.00000000000E+00 -0.15382694284E+03  0.32979423304E+04  0.32943528783E+04 0.  0.
        2    1    3    3  502    0  0.16879146900E+03 -0.75244290151E+02 -0.17154735640E+04  0.17253990298E+04  0.25500000920E-02 0. -1.
       -2    1    3    3    0  502 -0.16879146900E+03  0.75244290151E+02  0.15616466211E+04  0.15725433007E+04  0.25500000920E-02 0.  1.
</event>
<event>
 5   0  0.2291682E-08  0.3305570E+04  0.7818609E-02  0.8161480E-01
        1   -1    0    0  501    0  0.00000000000E+00  0.00000000000E+00  0.25881794296E+04  0.25881794296E+04  0.50400001928E-02 0.  1.
       -1   -1    0    0    0  501  0.00000000000E+00  0.00000000000E+00 -0.10554514390E+04  0.10554514390E+04  0.50400001928E-02 0. -1.
    10030    2    1    2    0    0  0.00000000000E+00  0.00000000000E+00  0.15327279906E+04  0.36436308686E+04  0.33055696655E+04 0.  0.
        2    1    3    3  502    0 -0.83147377480E+03  0.10484386672E+04  0.18356941446E+04  0.22716393353E+04  0.25500000920E-02 0.  1.
       -2    1    3    3    0  502  0.83147377480E+03 -0.10484386672E+04 -0.30296615398E+03  0.13719915333E+04  0.25500000920E-02 0. -1.
</event>
<event>
 5   0  0.2244093E-08  0.3300182E+04  0.7818609E-02  0.8162849E-01
        1   -1    0    0  501    0  0.00000000000E+00  0.00000000000E+00  0.27418559516E+04  0.27418559516E+04  0.50400001928E-02 0.  1.
       -1   -1    0    0    0  501  0.00000000000E+00  0.00000000000E+00 -0.99305036455E+03  0.99305036456E+03  0.50400001928E-02 0. -1.
    10030    2    1    2    0    0  0.00000000000E+00  0.00000000000E+00  0.17488055870E+04  0.37349063161E+04  0.33001824509E+04 0.  0.
        1    1    3    3  502    0  0.15783264844E+04 -0.44622181783E+03  0.67014985629E+03  0.17718152364E+04  0.50400001928E-02 0.  1.
       -1    1    3    3    0  502 -0.15783264844E+04  0.44622181783E+03  0.10786557307E+04  0.19630910798E+04  0.50400001928E-02 0. -1.
</event>
<event>
 5   0  0.2279938E-08  0.3299127E+04  0.7818609E-02  0.8163118E-01
        1   -1    0    0  501    0  0.00000000000E+00  0.00000000000E+00  0.21974075722E+04  0.21974075722E+04  0.50400001928E-02 0.  1.
       -1   -1    0    0    0  501  0.00000000000E+00  0.00000000000E+00 -0.12383044128E+04  0.12383044128E+04  0.50400001928E-02 0. -1.
    10030    2    1    2    0    0  0.00000000000E+00  0.00000000000E+00  0.95910315940E+03  0.34357119850E+04  0.32991268502E+04 0.  0.
        3    1    3    3  502    0  0.97891294548E+03  0.50311683280E+03 -0.79999957209E+03  0.13606602911E+04  0.10100000352E+00 0. -1.
       -3    1    3    3    0  502 -0.97891294548E+03 -0.50311683280E+03  0.17591027315E+04  0.20750516939E+04  0.10100000352E+00 0.  1.
</event>
<event>
 5   0  0.2244093E-08  0.3300880E+04  0.7818609E-02  0.8162671E-01
       -1   -1    0    0    0  501  0.00000000000E+00  0.00000000000E+00  0.10410638436E+04  0.10410638436E+04  0.50400001928E-02 0. -1.
        1   -1    0    0  501    0  0.00000000000E+00  0.00000000000E+00 -0.26165085037E+04  0.26165085037E+04  0.50400001928E-02 0.  1.
    10030    2    1    2    0    0  0.00000000000E+00  0.00000000000E+00 -0.15754446601E+04  0.36575723474E+04  0.33008801249E+04 0.  0.
        1    1    3    3  502    0 -0.26357889009E+03  0.30048773661E+03 -0.25620666825E+04  0.25930585024E+04  0.50400001928E-02 0.  1.
       -1    1    3    3    0  502  0.26357889009E+03 -0.30048773661E+03  0.98662202237E+03  0.10645138450E+04  0.50400001928E-02 0. -1.
</event>
<event>
 5   0  0.2309822E-08  0.3301623E+04  0.7818609E-02  0.8162482E-01
        1   -1    0    0  501    0  0.00000000000E+00  0.00000000000E+00  0.17048365220E+04  0.17048365220E+04  0.50400001928E-02 0. -1.
       -1   -1    0    0    0  501  0.00000000000E+00  0.00000000000E+00 -0.15984988213E+04  0.15984988213E+04  0.50400001928E-02 0.  1.
    10030    2    1    2    0    0  0.00000000000E+00  0.00000000000E+00  0.10633770077E+03  0.33033353433E+04  0.33016233407E+04 0.  0.
        4    1    3    3  502    0 -0.16151638298E+04  0.14490239535E+03 -0.25590338408E+03  0.16417183243E+04  0.12699999809E+01 0. -1.
       -4    1    3    3    0  502  0.16151638298E+04 -0.14490239535E+03  0.36224108485E+03  0.16616170190E+04  0.12699999809E+01 0.  1.
</event>
<event>
 5   0  0.2309822E-08  0.3300615E+04  0.7818609E-02  0.8162739E-01
        1   -1    0    0  501    0  0.00000000000E+00  0.00000000000E+00  0.14754322993E+04  0.14754322993E+04  0.50400001928E-02 0. -1.
       -1   -1    0    0    0  501  0.00000000000E+00  0.00000000000E+00 -0.18459099778E+04  0.18459099778E+04  0.50400001928E-02 0.  1.
    10030    2    1    2    0    0  0.00000000000E+00  0.00000000000E+00 -0.37047767858E+03  0.33213422771E+04  0.33006152171E+04 0.  0.
        4    1    3    3  502    0 -0.16172203388E+04 -0.31056955790E+03 -0.29389149899E+03  0.16727907522E+04  0.12699999809E+01 0.  1.
       -4    1    3    3    0  502  0.16172203388E+04  0.31056955790E+03 -0.76586179583E+02  0.16485515249E+04  0.12699999809E+01 0. -1.
</event>
<event>
 5   0  0.2279938E-08  0.3301649E+04  0.7818609E-02  0.8162476E-01
       -1   -1    0    0    0  501  0.00000000000E+00  0.00000000000E+00  0.10228865168E+04  0.10228865168E+04  0.50400001928E-02 0.  1.
        1   -1    0    0  501    0  0.00000000000E+00  0.00000000000E+00 -0.26642468895E+04  0.26642468895E+04  0.50400001928E-02 0. -1.
    10030    2    1    2    0    0  0.00000000000E+00  0.00000000000E+00 -0.16413603727E+04  0.36871334063E+04  0.33016494185E+04 0.  0.
        3    1    3    3  502    0  0.10279315297E+04 -0.47593801757E+03  0.52038490899E+03  0.12465795963E+04  0.10100000352E+00 0.  1.
       -3    1    3    3    0  502 -0.10279315297E+04  0.47593801757E+03 -0.21617452817E+04  0.24405538100E+04  0.10100000352E+00 0. -1.
</event>
<event>
 5   0  0.6765252E-08  0.3300732E+04  0.7818609E-02  0.8162709E-01
       -2   -1    0    0    0  501  0.00000000000E+00  0.00000000000E+00  0.13391174209E+04  0.13391174209E+04  0.25500000920E-02 0. -1.
        2   -1    0    0  501    0  0.00000000000E+00  0.00000000000E+00 -0.20339571545E+04  0.20339571545E+04  0.25500000920E-02 0.  1.
    10030    2    1    2    0    0  0.00000000000E+00  0.00000000000E+00 -0.69483973364E+03  0.33730745754E+04  0.33007317121E+04 0.  0.
        2    1    3    3  502    0 -0.25118686882E+03 -0.16311036257E+04 -0.33652898740E+03  0.16842938105E+04  0.25500000920E-02 0. -1.
       -2    1    3    3    0  502  0.25118686882E+03  0.16311036257E+04 -0.35831074624E+03  0.16887807648E+04  0.25500000920E-02 0.  1.
</event>
<event>
 5   0  0.2383270E-08  0.3299966E+04  0.7818609E-02  0.8162904E-01
        1   -1    0    0  501    0  0.00000000000E+00  0.00000000000E+00  0.13730450219E+04  0.13730450219E+04  0.50400001928E-02 0.  1.
       -1   -1    0    0    0  501  0.00000000000E+00  0.00000000000E+00 -0.19827780125E+04  0.19827780125E+04  0.50400001928E-02 0. -1.
    10030    2    1    2    0    0  0.00000000000E+00  0.00000000000E+00 -0.60973299062E+03  0.33558230345E+04  0.32999657451E+04 0.  0.
        5    1    3    3  502    0  0.12843757213E+04  0.94770206919E+03 -0.72986540838E+03  0.17551312799E+04  0.46999998093E+01 0. -1.
       -5    1    3    3    0  502 -0.12843757213E+04 -0.94770206919E+03  0.12013241776E+03  0.16006917546E+04  0.46999998093E+01 0.  1.
</event>
<event>
 5   0  0.6603516E-08  0.3299712E+04  0.7818609E-02  0.8162969E-01
       -2   -1    0    0    0  501  0.00000000000E+00  0.00000000000E+00  0.94760061697E+03  0.94760061697E+03  0.25500000920E-02 0. -1.
        2   -1    0    0  501    0  0.00000000000E+00  0.00000000000E+00 -0.28725440207E+04  0.28725440207E+04  0.25500000920E-02 0.  1.
    10030    2    1    2    0    0  0.00000000000E+00  0.00000000000E+00 -0.19249434037E+04  0.38201446377E+04  0.32997117973E+04 0.  0.
        1    1    3    3  502    0 -0.11015628734E+04 -0.71065113630E+03 -0.21222505497E+04  0.24944765377E+04  0.50400001928E-02 0.  1.
       -1    1    3    3    0  502  0.11015628734E+04  0.71065113630E+03  0.19730714593E+03  0.13256681000E+04  0.50400001928E-02 0. -1.
</event>
<event>
 5   0  0.2279938E-08  0.3301053E+04  0.7818609E-02  0.8162627E-01
       -1   -1    0    0    0  501  0.00000000000E+00  0.00000000000E+00  0.12443840409E+04  0.12443840409E+04  0.50400001928E-02 0.  1.
        1   -1    0    0  501    0  0.00000000000E+00  0.00000000000E+00 -0.21892259959E+04  0.21892259959E+04  0.50400001928E-02 0. -1.
    10030    2    1    2    0    0  0.00000000000E+00  0.00000000000E+00 -0.94484195507E+03  0.34336100368E+04  0.33010530994E+04 0.  0.
        3    1    3    3  502    0  0.11294062608E+04 -0.63838106813E+03  0.58891992296E+03  0.14247510575E+04  0.10100000352E+00 0.  1.
       -3    1    3    3    0  502 -0.11294062608E+04  0.63838106813E+03 -0.15337618780E+04  0.20088589793E+04  0.10100000352E+00 0. -1.
</event>
<event>
 5   0  0.6603516E-08  0.3300673E+04  0.7818609E-02  0.8162724E-01
       -2   -1    0    0    0  501  0.00000000000E+00  0.00000000000E+00  0.15183116542E+04  0.15183116543E+04  0.25500000920E-02 0.  1.
        2   -1    0    0  501    0  0.00000000000E+00  0.00000000000E+00 -0.17938416125E+04  0.17938416125E+04  0.25500000920E-02 0. -1.
    10030    2    1    2    0    0  0.00000000000E+00  0.00000000000E+00 -0.27552995826E+03  0.33121532668E+04  0.33006730381E+04 0.  0.
        1    1    3    3  502    0  0.14576649243E+04  0.45603836615E+03 -0.76512151083E+03  0.17082648943E+04  0.50400001928E-02 0.  1.
       -1    1    3    3    0  502 -0.14576649243E+04 -0.45603836615E+03  0.48959155257E+03  0.16038883724E+04  0.50400001928E-02 0. -1.
</event>
<event>
 5   0  0.2244093E-08  0.3299882E+04  0.7818609E-02  0.8162926E-01
        1   -1    0    0  501    0  0.00000000000E+00  0.00000000000E+00  0.23873781484E+04  0.23873781484E+04  0.50400001928E-02 0.  1.
       -1   -1    0    0    0  501  0.00000000000E+00  0.00000000000E+00 -0.11402904919E+04  0.11402904919E+04  0.50400001928E-02 0. -1.
    10030    2    1    2    0    0  0.00000000000E+00  0.00000000000E+00  0.12470876565E+04  0.35276686403E+04  0.32998815755E+04 0.  0.
        1    1    3    3  502    0 -0.10825603813E+04 -0.10471046964E+04  0.13438022738E+04  0.20184572761E+04  0.50400001928E-02 0.  1.
       -1    1    3    3    0  502  0.10825603813E+04  0.10471046964E+04 -0.96714617375E+02  0.15092113641E+04  0.50400001928E-02 0. -1.
</event>
<event>
 5   0  0.6821287E-08  0.3298484E+04  0.7818609E-02  0.8163281E-01
       -2   -1    0    0    0  501  0.00000000000E+00  0.00000000000E+00  0.11739647907E+04  0.11739647907E+04  0.25500000920E-02 0.  1.
        2   -1    0    0  501    0  0.00000000000E+00  0.00000000000E+00 -0.23169342179E+04  0.23169342179E+04  0.25500000920E-02 0. -1.
    10030    2    1    2    0    0  0.00000000000E+00  0.00000000000E+00 -0.11429694272E+04  0.34908990086E+04  0.32984840119E+04 0.  0.
        5    1    3    3  502    0  0.64927163461E+02 -0.11225204362E+04 -0.18483946026E+04  0.21635277589E+04  0.46999998093E+01 0. -1.
       -5    1    3    3    0  502 -0.64927163461E+02  0.11225204362E+04  0.70542517545E+03  0.13273712497E+04  0.46999998093E+01 0.  1.
</event>
<event>
 5   0  0.2291682E-08  0.3300702E+04  0.7818609E-02  0.8162717E-01
       -1   -1    0    0    0  501  0.00000000000E+00  0.00000000000E+00  0.95462145712E+03  0.95462145713E+03  0.50400001928E-02 0.  1.
        1   -1    0    0  501    0  0.00000000000E+00  0.00000000000E+00 -0.28531297750E+04  0.28531297750E+04  0.50400001928E-02 0. -1.
    10030    2    1    2    0    0  0.00000000000E+00  0.00000000000E+00 -0.18985083179E+04  0.38077512322E+04  0.33007022909E+04 0.  0.
        2    1    3    3  502    0  0.40306087110E+03  0.83694363189E+03  0.62437881948E+03  0.11192772753E+04  0.25500000920E-02 0.  1.
       -2    1    3    3    0  502 -0.40306087110E+03 -0.83694363189E+03 -0.25228871374E+04  0.26884739569E+04  0.25500000920E-02 0. -1.
</event>
<event>
 5   0  0.7084130E-08  0.3299212E+04  0.7818609E-02  0.8163096E-01
       -2   -1    0    0    0  501  0.00000000000E+00  0.00000000000E+00  0.10609958412E+04  0.10609958412E+04  0.25500000920E-02 0.  1.
        2   -1    0    0  501    0  0.00000000000E+00  0.00000000000E+00 -0.25647598091E+04  0.25647598091E+04  0.25500000920E-02 0. -1.
    10030    2    1    2    0    0  0.00000000000E+00  0.00000000000E+00 -0.15037639679E+04  0.36257556503E+04  0.32992117186E+04 0.  0.
        3    1    3    3  502    0 -0.32186715496E+03  0.19864178221E+03  0.10126998412E+04  0.10810263649E+04  0.10100000352E+00 0.  1.
       -3    1    3    3    0  502  0.32186715496E+03 -0.19864178221E+03 -0.25164638091E+04  0.25447292854E+04  0.10100000352E+00 0. -1.
</event>
<event>
 5   0  0.6765252E-08  0.3300326E+04  0.7818609E-02  0.8162813E-01
       -2   -1    0    0    0  501  0.00000000000E+00  0.00000000000E+00  0.18475695381E+04  0.18475695381E+04  0.25500000920E-02 0.  1.
        2   -1    0    0  501    0  0.00000000000E+00  0.00000000000E+00 -0.14738484049E+04  0.14738484049E+04  0.25500000920E-02 0. -1.
    10030    2    1    2    0    0  0.00000000000E+00  0.00000000000E+00  0.37372113324E+03  0.33214179430E+04  0.33003256910E+04 0.  0.
        2    1    3    3  502    0 -0.13455470651E+04 -0.48467367040E+03 -0.64158439917E+03  0.15674935446E+04  0.25500000920E-02 0. -1.
       -2    1    3    3    0  502  0.13455470651E+04  0.48467367040E+03  0.10153055324E+04  0.17539243984E+04  0.25500000920E-02 0.  1.
</event>
<event>
 5   0  0.2291682E-08  0.3301058E+04  0.7818609E-02  0.8162626E-01
       -1   -1    0    0    0  501  0.00000000000E+00  0.00000000000E+00  0.10970463514E+04  0.10970463514E+04  0.50400001928E-02 0. -1.
        1   -1    0    0  501    0  0.00000000000E+00  0.00000000000E+00 -0.24832553445E+04  0.24832553445E+04  0.50400001928E-02 0.  1.
    10030    2    1    2    0    0  0.00000000000E+00  0.00000000000E+00 -0.13862089931E+04  0.35803016959E+04  0.33010581427E+04 0.  0.
        2    1    3    3  502    0 -0.77599672247E+02 -0.15772564593E+04 -0.12138065146E+04  0.19917544784E+04  0.25500000920E-02 0.  1.
       -2    1    3    3    0  502  0.77599672247E+02  0.15772564593E+04 -0.17240247852E+03  0.15885472175E+04  0.25500000920E-02 0. -1.
</event>
<event>
 5   0  0.6821287E-08  0.3300420E+04  0.7818609E-02  0.8162789E-01
        2   -1    0    0  501    0  0.00000000000E+00  0.00000000000E+00  0.18693657452E+04  0.18693657452E+04  0.25500000920E-02 0. -1.
       -2   -1    0    0    0  501  0.00000000000E+00  0.00000000000E+00 -0.14567469937E+04  0.14567469937E+04  0.25500000920E-02 0.  1.
    10030    2    1    2    0    0  0.00000000000E+00  0.00000000000E+00  0.41261875153E+03  0.33261127389E+04  0.33004199305E+04 0.  0.
        5    1    3    3  502    0  0.92342111840E+03 -0.71367032081E+03 -0.96945147537E+03  0.15171981221E+04  0.46999998093E+01 0.  1.
       -5    1    3    3    0  502 -0.92342111840E+03  0.71367032081E+03  0.13820702269E+04  0.18089146168E+04  0.46999998093E+01 0. -1.
</event>
<event>
 5   0  0.6821287E-08  0.3298885E+04  0.7818609E-02  0.8163179E-01
       -2   -1    0    0    0  501  0.00000000000E+00  0.00000000000E+00  0.98558859606E+03  0.98558859607E+03  0.25500000920E-02 0. -1.
        2   -1    0    0  501    0  0.00000000000E+00  0.00000000000E+00 -0.27604431776E+04  0.27604431776E+04  0.25500000920E-02 0.  1.
    10030    2    1    2    0    0  0.00000000000E+00  0.00000000000E+00 -0.17748545816E+04  0.37460317737E+04  0.32988854578E+04 0.  0.
        5    1    3    3  502    0 -0.93608892434E+03 -0.82731562300E+03 -0.21104071060E+04  0.24524587371E+04  0.46999998093E+01 0.  1.
       -5    1    3    3    0  502  0.93608892434E+03  0.82731562300E+03  0.33555252440E+03  0.12935730366E+04  0.46999998093E+01 0. -1.
</event>
<event>
 5   0  0.7084130E-08  0.3299843E+04  0.7818609E-02  0.8162935E-01
       -2   -1    0    0    0  501  0.00000000000E+00  0.00000000000E+00  0.15159114209E+04  0.15159114209E+04  0.25500000920E-02 0. -1.
        2   -1    0    0  501    0  0.00000000000E+00  0.00000000000E+00 -0.17957786555E+04  0.17957786555E+04  0.25500000920E-02 0.  1.
    10030    2    1    2    0    0  0.00000000000E+00  0.00000000000E+00 -0.27986723461E+03  0.33116900764E+04  0.32998432528E+04 0.  0.
        3    1    3    3  502    0 -0.99824644029E+03 -0.80703525793E+03  0.90033946012E+03  0.15679327207E+04  0.10100000352E+00 0. -1.
       -3    1    3    3    0  502  0.99824644029E+03  0.80703525793E+03 -0.11802066947E+04  0.17437573557E+04  0.10100000352E+00 0.  1.
</event>
<event>
 5   0  0.6603516E-08  0.3299901E+04  0.7818609E-02  0.8162921E-01
        2   -1    0    0  501    0  0.00000000000E+00  0.00000000000E+00  0.28286764292E+04  0.28286764292E+04  0.25500000920E-02 0.  1.
       -2   -1    0    0    0  501  0.00000000000E+00  0.00000000000E+00 -0.96240640065E+03  0.96240640066E+03  0.25500000920E-02 0. -1.
    10030    2    1    2    0    0  0.00000000000E+00  0.00000000000E+00  0.18662700286E+04  0.37910828299E+04  0.32999007869E+04 0.  0.
        1    1    3    3  502    0  0.29457379121E+03  0.10536576956E+04  0.23520282301E+04  0.25940325852E+04  0.50400001928E-02 0.  1.
       -1    1    3    3    0  502 -0.29457379121E+03 -0.10536576956E+04 -0.48575820153E+03  0.11970502447E+04  0.50400001928E-02 0. -1.
</event>
<event>
 5   0  0.2383270E-08  0.3302797E+04  0.7818609E-02  0.8162184E-01
        1   -1    0    0  501    0  0.00000000000E+00  0.00000000000E+00  0.16881036394E+04  0.16881036394E+04  0.50400001928E-02 0.  1.
       -1   -1    0    0    0  501  0.00000000000E+00  0.00000000000E+00 -0.16154917357E+04  0.16154917358E+04  0.50400001928E-02 0. -1.
    10030    2    1    2    0    0  0.00000000000E+00  0.00000000000E+00  0.72611903638E+02  0.33035953751E+04  0.33027972863E+04 0.  0.
        5    1    3    3  502    0  0.84642496665E+03 -0.33393381307E+03  0.14147348783E+04  0.16820950869E+04  0.46999998093E+01 0.  1.
       -5    1    3    3    0  502 -0.84642496665E+03  0.33393381307E+03 -0.13421229746E+04  0.16215002882E+04  0.46999998093E+01 0. -1.
</event>
<event>
 5   0  0.2244093E-08  0.3300870E+04  0.7818609E-02  0.8162674E-01
        1   -1    0    0  501    0  0.00000000000E+00  0.00000000000E+00  0.84242459177E+03  0.84242459179E+03  0.50400001928E-02 0.  1.
       -1   -1    0    0    0  501  0.00000000000E+00  0.00000000000E+00 -0.32334471515E+04  0.32334471515E+04  0.50400001928E-02 0. -1.
    10030    2    1    2    0    0  0.00000000000E+00  0.00000000000E+00 -0.23910225597E+04  0.40758717433E+04  0.33008698227E+04 0.  0.
        1    1    3    3  502    0  0.70201766366E+03 -0.12205343483E+04 -0.13230107693E+03  0.14142264566E+04  0.50400001928E-02 0. -1.
       -1    1    3    3    0  502 -0.70201766366E+03  0.12205343483E+04 -0.22587214828E+04  0.26616452867E+04  0.50400001928E-02 0.  1.
</event>
<event>
 5   0  0.6765252E-08  0.3299785E+04  0.7818609E-02  0.8162950E-01
        2   -1    0    0  501    0  0.00000000000E+00  0.00000000000E+00  0.14396592940E+04  0.14396592940E+04  0.25500000920E-02 0.  1.
       -2   -1    0    0    0  501  0.00000000000E+00  0.00000000000E+00 -0.18908263921E+04  0.18908263921E+04  0.25500000920E-02 0. -1.
    10030    2    1    2    0    0  0.00000000000E+00  0.00000000000E+00 -0.45116709802E+03  0.33304856861E+04  0.32997853195E+04 0.  0.
        2    1    3    3  502    0 -0.69167371407E+03  0.14851509635E+04 -0.28679077072E+02  0.16385690100E+04  0.25500000920E-02 0.  1.
       -2    1    3    3    0  502  0.69167371407E+03 -0.14851509635E+04 -0.42248802095E+03  0.16919166761E+04  0.25500000920E-02 0. -1.
</event>
<event>
 5   0  0.2291682E-08  0.3300929E+04  0.7818609E-02  0.8162659E-01
        1   -1    0    0  501    0  0.00000000000E+00  0.00000000000E+00  0.18449454357E+04  0.18449454357E+04  0.50400001928E-02 0. -1.
       -1   -1    0    0    0  501  0.00000000000E+00  0.00000000000E+00 -0.14764845806E+04  0.14764845806E+04  0.50400001928E-02 0.  1.
    10030    2    1    2    0    0  0.00000000000E+00  0.00000000000E+00  0.36846085510E+03  0.33214300162E+04  0.33009292557E+04 0.  0.
        2    1    3    3  502    0 -0.68360806077E+02 -0.34102249606E+03  0.18076519816E+04  0.18408083086E+04  0.25500000920E-02 0. -1.
       -2    1    3    3    0  502  0.68360806077E+02  0.34102249606E+03 -0.14391911265E+04  0.14806217076E+04  0.25500000920E-02 0.  1.
</event>
<event>
 5   0  0.6603516E-08  0.3283980E+04  0.7818609E-02  0.8166984E-01
       -2   -1    0    0    0  501  0.00000000000E+00  0.00000000000E+00  0.13359285416E+04  0.13359285416E+04  0.25500000920E-02 0.  1.
        2   -1    0    0  501    0  0.00000000000E+00  0.00000000000E+00 -0.20181695919E+04  0.20181695919E+04  0.25500000920E-02 0. -1.
    10030    2    1    2    0    0  0.00000000000E+00  0.00000000000E+00 -0.68224105032E+03  0.33540981334E+04  0.32839795124E+04 0.  0.
        1    1    3    3  502    0 -0.13234114812E+04 -0.43117457205E+02 -0.13328595149E+04  0.18787739487E+04  0.50400001928E-02 0. -1.
       -1    1    3    3    0  502  0.13234114812E+04  0.43117457205E+02  0.65061846457E+03  0.14753241848E+04  0.50400001928E-02 0.  1.
</event>
<event>
 5   0  0.6821287E-08  0.3299541E+04  0.7818609E-02  0.8163012E-01
       -2   -1    0    0    0  501  0.00000000000E+00  0.00000000000E+00  0.18251231942E+04  0.18251231942E+04  0.25500000920E-02 0. -1.
        2   -1    0    0  501    0  0.00000000000E+00  0.00000000000E+00 -0.14912655829E+04  0.14912655829E+04  0.25500000920E-02 0.  1.
    10030    2    1    2    0    0  0.00000000000E+00  0.00000000000E+00  0.33385761126E+03  0.33163887771E+04  0.32995414252E+04 0.  0.
        5    1    3    3  502    0  0.53371948994E+03 -0.24499051381E+03 -0.13826448832E+04  0.15022003224E+04  0.46999998093E+01 0.  1.
       -5    1    3    3    0  502 -0.53371948994E+03  0.24499051381E+03  0.17165024944E+04  0.18141884547E+04  0.46999998093E+01 0. -1.
</event>
<event>
 5   0  0.2279938E-08  0.3304841E+04  0.7818609E-02  0.8161665E-01
        1   -1    0    0  501    0  0.00000000000E+00  0.00000000000E+00  0.13275423361E+04  0.13275423361E+04  0.50400001928E-02 0.  1.
       -1   -1    0    0    0  501  0.00000000000E+00  0.00000000000E+00 -0.20568037049E+04  0.20568037049E+04  0.50400001928E-02 0. -1.
    10030    2    1    2    0    0  0.00000000000E+00  0.00000000000E+00 -0.72926136881E+03  0.33843460410E+04  0.33048412944E+04 0.  0.
        3    1    3    3  502    0 -0.91648079821E+03  0.11874546138E+04  0.34523254104E+03  0.15392111717E+04  0.10100000352E+00 0.  1.
       -3    1    3    3    0  502  0.91648079821E+03 -0.11874546138E+04 -0.10744939099E+04  0.18451348693E+04  0.10100000352E+00 0. -1.
</event>
<event>
 5   0  0.2383270E-08  0.3300102E+04  0.7818609E-02  0.8162869E-01
        1   -1    0    0  501    0  0.00000000000E+00  0.00000000000E+00  0.20678222120E+04  0.20678222120E+04  0.50400001928E-02 0. -1.
       -1   -1    0    0    0  501  0.00000000000E+00  0.00000000000E+00 -0.13166837529E+04  0.13166837529E+04  0.50400001928E-02 0.  1.
    10030    2    1    2    0    0  0.00000000000E+00  0.00000000000E+00  0.75113845908E+03  0.33845059649E+04  0.33001017623E+04 0.  0.
        5    1    3    3  502    0 -0.97809985654E+03  0.11399203699E+04 -0.32494367010E+03  0.15367850396E+04  0.46999998093E+01 0.  1.
       -5    1    3    3    0  502  0.97809985654E+03 -0.11399203699E+04  0.10760821292E+04  0.18477209253E+04  0.46999998093E+01 0. -1.
</event>
<event>
 5   0  0.6603516E-08  0.3302840E+04  0.7818609E-02  0.8162173E-01
       -2   -1    0    0    0  501  0.00000000000E+00  0.00000000000E+00  0.18337730729E+04  0.18337730730E+04  0.25500000920E-02 0. -1.
        2   -1    0    0  501    0  0.00000000000E+00  0.00000000000E+00 -0.14871999954E+04  0.14871999954E+04  0.25500000920E-02 0.  1.
    10030    2    1    2    0    0  0.00000000000E+00  0.00000000000E+00  0.34657307757E+03  0.33209730683E+04  0.33028395696E+04 0.  0.
        1    1    3    3  502    0  0.58686818986E+03 -0.37046315091E+03  0.16800230557E+04  0.18177278911E+04  0.50400001928E-02 0. -1.
       -1    1    3    3    0  502 -0.58686818986E+03  0.37046315091E+03 -0.13334499782E+04  0.15032451772E+04  0.50400001928E-02 0.  1.
</event>
<event>
 5   0  0.6706080E-08  0.3299884E+04  0.7818609E-02  0.8162925E-01
       -2   -1    0    0    0  501  0.00000000000E+00  0.00000000000E+00  0.10780820851E+04  0.10780820852E+04  0.25500000920E-02 0.  1.
        2   -1    0    0  501    0  0.00000000000E+00  0.00000000000E+00 -0.25251398383E+04  0.25251398383E+04  0.25500000920E-02 0. -1.
    10030    2    1    2    0    0  0.00000000000E+00  0.00000000000E+00 -0.14470577531E+04  0.36032219234E+04  0.32998836477E+04 0.  0.
        4    1    3    3  502    0 -0.11111002663E+04  0.11793372950E+04 -0.10634771735E+04  0.19381345590E+04  0.12699999809E+01 0. -1.
       -4    1    3    3    0  502  0.11111002663E+04 -0.11793372950E+04 -0.38358057967E+03  0.16650873645E+04  0.12699999809E+01 0.  1.
</event>
<event>
 5   0  0.2291682E-08  0.3299985E+04  0.7818609E-02  0.8162899E-01
       -1   -1    0    0    0  501  0.00000000000E+00  0.00000000000E+00  0.26087055108E+04  0.26087055108E+04  0.50400001928E-02 0.  1.
        1   -1    0    0  501    0  0.00000000000E+00  0.00000000000E+00 -0.10436113975E+04  0.10436113975E+04  0.50400001928E-02 0. -1.
    10030    2    1    2    0    0  0.00000000000E+00  0.00000000000E+00  0.15650941134E+04  0.36523169083E+04  0.32999847295E+04 0.  0.
        2    1    3    3  502    0 -0.10369113005E+04  0.69595656398E+03  0.19760791423E+04  0.23376118927E+04  0.25500000920E-02 0.  1.
       -2    1    3    3    0  502  0.10369113005E+04 -0.69595656398E+03 -0.41098502892E+03  0.13147050156E+04  0.25500000920E-02 0. -1.
</event>
<event>
 5   0  0.2309822E-08  0.3301288E+04  0.7818609E-02  0.8162568E-01
        1   -1    0    0  501    0  0.00000000000E+00  0.00000000000E+00  0.20410191979E+04  0.20410191980E+04  0.50400001928E-02 0. -1.
       -1   -1    0    0    0  501  0.00000000000E+00  0.00000000000E+00 -0.13349334718E+04  0.13349334718E+04  0.50400001928E-02 0.  1.
    10030    2    1    2    0    0  0.00000000000E+00  0.00000000000E+00  0.70608572611E+03  0.33759526698E+04  0.33012875331E+04 0.  0.
        4    1    3    3  502    0  0.63288252375E+03  0.30830607024E+03 -0.11737178792E+04  0.13686519626E+04  0.12699999809E+01 0.  1.
       -4    1    3    3    0  502 -0.63288252375E+03 -0.30830607024E+03  0.18798036053E+04  0.20073007072E+04  0.12699999809E+01 0. -1.
</event>
<event>
 5   0  0.7084130E-08  0.3299413E+04  0.7818609E-02  0.8163045E-01
        2   -1    0    0  501    0  0.00000000000E+00  0.00000000000E+00  0.19073834952E+04  0.19073834952E+04  0.25500000920E-02 0. -1.
       -2   -1    0    0    0  501  0.00000000000E+00  0.00000000000E+00 -0.14268405298E+04  0.14268405298E+04  0.25500000920E-02 0.  1.
    10030    2    1    2    0    0  0.00000000000E+00  0.00000000000E+00  0.48054296534E+03  0.33342240250E+04  0.32994133277E+04 0.  0.
        3    1    3    3  502    0  0.12459053628E+04 -0.10571356653E+04  0.47008250041E+03  0.17002333826E+04  0.10100000352E+00 0.  1.
       -3    1    3    3    0  502 -0.12459053628E+04  0.10571356653E+04  0.10460464929E+02  0.16339906424E+04  0.10100000352E+00 0. -1.
</event>
<event>
 5   0  0.2244093E-08  0.3299201E+04  0.7818609E-02  0.8163099E-01
        1   -1    0    0  501    0  0.00000000000E+00  0.00000000000E+00  0.22184417270E+04  0.22184417270E+04  0.50400001928E-02 0.  1.
       -1   -1    0    0    0  501  0.00000000000E+00  0.00000000000E+00 -0.12266183309E+04  0.12266183309E+04  0.50400001928E-02 0. -1.
    10030    2    1    2    0    0  0.00000000000E+00  0.00000000000E+00  0.99182339606E+03  0.34450600579E+04  0.32992006841E+04 0.  0.
        1    1    3    3  502    0 -0.16237363631E+04  0.24651329929E+03  0.65731808741E+03  0.17689984883E+04  0.50400001928E-02 0. -1.
       -1    1    3    3    0  502  0.16237363631E+04 -0.24651329929E+03  0.33450530865E+03  0.16760615696E+04  0.50400001928E-02 0.  1.
</event>
<event>
 5   0  0.7084130E-08  0.3297874E+04  0.7818609E-02  0.8163437E-01
        2   -1    0    0  501    0  0.00000000000E+00  0.00000000000E+00  0.23847654888E+04  0.23847654888E+04  0.25500000920E-02 0. -1.
       -2   -1    0    0    0  501  0.00000000000E+00  0.00000000000E+00 -0.11401508858E+04  0.11401508858E+04  0.25500000920E-02 0.  1.
    10030    2    1    2    0    0  0.00000000000E+00  0.00000000000E+00  0.12446146030E+04  0.35249163746E+04  0.32978735480E+04 0.  0.
        3    1    3    3  502    0 -0.10183479989E+04  0.12798550706E+04  0.84633385728E+03  0.18415598434E+04  0.10100000352E+00 0.  1.
       -3    1    3    3    0  502  0.10183479989E+04 -0.12798550706E+04  0.39828074569E+03  0.16833565312E+04  0.10100000352E+00 0. -1.
</event>
<event>
 5   0  0.2291682E-08  0.3301001E+04  0.7818609E-02  0.8162641E-01
       -1   -1    0    0    0  501  0.00000000000E+00  0.00000000000E+00  0.27454242324E+04  0.27454242324E+04  0.50400001928E-02 0.  1.
        1   -1    0    0  501    0  0.00000000000E+00  0.00000000000E+00 -0.99225153932E+03  0.99225153933E+03  0.50400001928E-02 0. -1.
    10030    2    1    2    0    0  0.00000000000E+00  0.00000000000E+00  0.17531726931E+04  0.37376757717E+04  0.33010007093E+04 0.  0.
        2    1    3    3  502    0 -0.67028206828E+03  0.70735634351E+03  0.23849168104E+04  0.25763266952E+04  0.25500000920E-02 0.  1.
       -2    1    3    3    0  502  0.67028206828E+03 -0.70735634351E+03 -0.63174411734E+03  0.11613490765E+04  0.25500000920E-02 0. -1.
</event>
<event>
 5   0  0.6603516E-08  0.3300169E+04  0.7818609E-02  0.8162852E-01
        2   -1    0    0  501    0  0.00000000000E+00  0.00000000000E+00  0.10706912115E+04  0.10706912115E+04  0.25500000920E-02 0. -1.
       -2   -1    0    0    0  501  0.00000000000E+00  0.00000000000E+00 -0.25430098866E+04  0.25430098866E+04  0.25500000920E-02 0.  1.
    10030    2    1    2    0    0  0.00000000000E+00  0.00000000000E+00 -0.14723186751E+04  0.36137010981E+04  0.33001686843E+04 0.  0.
        1    1    3    3  502    0 -0.39153235913E+03  0.10561493429E+04 -0.20565506852E+04  0.23448133708E+04  0.50400001928E-02 0.  1.
       -1    1    3    3    0  502  0.39153235913E+03 -0.10561493429E+04  0.58423201010E+03  0.12688877273E+04  0.50400001928E-02 0. -1.
</event>
<event>
 5   0  0.6765252E-08  0.3298484E+04  0.7818609E-02  0.8163281E-01
        2   -1    0    0  501    0  0.00000000000E+00  0.00000000000E+00  0.15455364579E+04  0.15455364579E+04  0.25500000920E-02 0.  1.
       -2   -1    0    0    0  501  0.00000000000E+00  0.00000000000E+00 -0.17599063162E+04  0.17599063162E+04  0.25500000920E-02 0. -1.
    10030    2    1    2    0    0  0.00000000000E+00  0.00000000000E+00 -0.21436985829E+03  0.33054427741E+04  0.32984841210E+04 0.  0.
        2    1    3    3  502    0 -0.86461423933E+03 -0.52062608027E+02 -0.15136168458E+04  0.17439335578E+04  0.25500000920E-02 0. -1.
       -2    1    3    3    0  502  0.86461423933E+03  0.52062608027E+02  0.12992469875E+04  0.15615092163E+04  0.25500000920E-02 0.  1.
</event>
<event>
 5   0  0.2200750E-08  0.3298720E+04  0.7818609E-02  0.8163221E-01
       -3   -1    0    0    0  501  0.00000000000E+00  0.00000000000E+00  0.16161383100E+04  0.16161383132E+04  0.10100000352E+00 0.  1.
        3   -1    0    0  501    0  0.00000000000E+00  0.00000000000E+00 -0.16832649520E+04  0.16832649551E+04  0.10100000352E+00 0. -1.
    10030    2    1    2    0    0  0.00000000000E+00  0.00000000000E+00 -0.67126642012E+02  0.32994032682E+04  0.32987203489E+04 0.  0.
        3    1    3    3  502    0 -0.73564070861E+03  0.78499544945E+03  0.12168970332E+04  0.16242609111E+04  0.10100000352E+00 0.  1.
       -3    1    3    3    0  502  0.73564070861E+03 -0.78499544945E+03 -0.12840236752E+04  0.16751423571E+04  0.10100000352E+00 0. -1.
</event>
<event>
 5   0  0.2309822E-08  0.3303531E+04  0.7818609E-02  0.8161998E-01
       -1   -1    0    0    0  501  0.00000000000E+00  0.00000000000E+00  0.15497831825E+04  0.15497831825E+04  0.50400001928E-02 0.  1.
        1   -1    0    0  501    0  0.00000000000E+00  0.00000000000E+00 -0.17604582106E+04  0.17604582106E+04  0.50400001928E-02 0. -1.
    10030    2    1    2    0    0  0.00000000000E+00  0.00000000000E+00 -0.21067502807E+03  0.33102413931E+04  0.33035305528E+04 0.  0.
        4    1    3    3  502    0 -0.12382564258E+03 -0.16346313795E+04  0.97494977665E+02  0.16422117465E+04  0.12699999809E+01 0. -1.
       -4    1    3    3    0  502  0.12382564258E+03  0.16346313795E+04 -0.30817000573E+03  0.16680296466E+04  0.12699999809E+01 0.  1.
</event>
<event>
 5   0  0.6706080E-08  0.3300281E+04  0.7818609E-02  0.8162824E-01
        2   -1    0    0  501    0  0.00000000000E+00  0.00000000000E+00  0.17471110143E+04  0.17471110143E+04  0.25500000920E-02 0.  1.
       -2   -1    0    0    0  501  0.00000000000E+00  0.00000000000E+00 -0.15585526192E+04  0.15585526192E+04  0.25500000920E-02 0. -1.
    10030    2    1    2    0    0  0.00000000000E+00  0.00000000000E+00  0.18855839506E+03  0.33056636335E+04  0.33002814712E+04 0.  0.
        4    1    3    3  502    0 -0.10276308867E+04 -0.41332700118E+03  0.13194249423E+04  0.17227153684E+04  0.12699999809E+01 0.  1.
       -4    1    3    3    0  502  0.10276308867E+04  0.41332700118E+03 -0.11308665473E+04  0.15829482651E+04  0.12699999809E+01 0. -1.
</event>
<event>
 5   0  0.6821287E-08  0.3300128E+04  0.7818609E-02  0.8162863E-01
       -2   -1    0    0    0  501  0.00000000000E+00  0.00000000000E+00  0.13772789665E+04  0.13772789665E+04  0.25500000920E-02 0.  1.
        2   -1    0    0  501    0  0.00000000000E+00  0.00000000000E+00 -0.19768776284E+04  0.19768776284E+04  0.25500000920E-02 0. -1.
    10030    2    1    2    0    0  0.00000000000E+00  0.00000000000E+00 -0.59959866188E+03  0.33541565949E+04  0.33001284684E+04 0.  0.
        5    1    3    3  502    0  0.28489132960E+03 -0.15276849092E+04 -0.86359302382E+03  0.17778636765E+04  0.46999998093E+01 0. -1.
       -5    1    3    3    0  502 -0.28489132960E+03  0.15276849092E+04  0.26399436194E+03  0.15762929184E+04  0.46999998093E+01 0.  1.
</event>
<event>
 5   0  0.2244093E-08  0.3299448E+04  0.7818609E-02  0.8163036E-01
       -1   -1    0    0    0  501  0.00000000000E+00  0.00000000000E+00  0.93986328082E+03  0.93986328083E+03  0.50400001928E-02 0.  1.
        1   -1    0    0  501    0  0.00000000000E+00  0.00000000000E+00 -0.28957294891E+04  0.28957294891E+04  0.50400001928E-02 0. -1.
    10030    2    1    2    0    0  0.00000000000E+00  0.00000000000E+00 -0.19558662083E+04  0.38355927699E+04  0.32994483284E+04 0.  0.
        1    1    3    3  502    0  0.39224080959E+03  0.13281270849E+04 -0.20201769136E+04  0.24492629848E+04  0.50400001928E-02 0. -1.
       -1    1    3    3    0  502 -0.39224080959E+03 -0.13281270849E+04  0.64310705293E+02  0.13863297852E+04  0.50400001928E-02 0.  1.
</event>
<event>
 5   0  0.6706080E-08  0.3299686E+04  0.7818609E-02  0.8162975E-01
       -2   -1    0    0    0  501  0.00000000000E+00  0.00000000000E+00  0.15024814923E+04  0.15024814923E+04  0.25500000920E-02 0. -1.
        2   -1    0    0  501    0  0.00000000000E+00  0.00000000000E+00 -0.18116576158E+04  0.18116576158E+04  0.25500000920E-02 0.  1.
    10030    2    1    2    0    0  0.00000000000E+00  0.00000000000E+00 -0.30917612351E+03  0.33141391080E+04  0.32996860687E+04 0.  0.
        4    1    3    3  502    0  0.14403985133E+04 -0.64644302758E+03 -0.63558439329E+03  0.17019417143E+04  0.12699999809E+01 0.  1.
       -4    1    3    3    0  502 -0.14403985133E+04  0.64644302758E+03  0.32640826977E+03  0.16121973937E+04  0.12699999809E+01 0. -1.
</event>
<event>
 5   0  0.2279938E-08  0.3300461E+04  0.7818609E-02  0.8162778E-01
       -1   -1    0    0    0  501  0.00000000000E+00  0.00000000000E+00  0.21041729737E+04  0.21041729737E+04  0.50400001928E-02 0. -1.
        1   -1    0    0  501    0  0.00000000000E+00  0.00000000000E+00 -0.12942191050E+04  0.12942191050E+04  0.50400001928E-02 0.  1.
    10030    2    1    2    0    0  0.00000000000E+00  0.00000000000E+00  0.80995386874E+03  0.33983920787E+04  0.33004610967E+04 0.  0.
        3    1    3    3  502    0  0.50034763069E+03  0.18073175430E+03 -0.12035041146E+04  0.13158396113E+04  0.10100000352E+00 0.  1.
       -3    1    3    3    0  502 -0.50034763069E+03 -0.18073175430E+03  0.20134579833E+04  0.20825524674E+04  0.10100000352E+00 0. -1.
</event>
<event>
 5   0  0.2291682E-08  0.3297498E+04  0.7818609E-02  0.8163532E-01
       -1   -1    0    0    0  501  0.00000000000E+00  0.00000000000E+00  0.20894786550E+04  0.20894786550E+04  0.50400001928E-02 0.  1.
        1   -1    0    0  501    0  0.00000000000E+00  0.00000000000E+00 -0.13009819789E+04  0.13009819789E+04  0.50400001928E-02 0. -1.
    10030    2    1    2    0    0  0.00000000000E+00  0.00000000000E+00  0.78849667608E+03  0.33904606339E+04  0.32974984916E+04 0.  0.
        2    1    3    3  502    0 -0.76772721774E+03  0.12080095924E+04  0.12356596668E+04  0.18909117029E+04  0.25500000920E-02 0.  1.
       -2    1    3    3    0  502  0.76772721774E+03 -0.12080095924E+04 -0.44716299073E+03  0.14995489310E+04  0.25500000920E-02 0. -1.
</event>
<event>
 5   0  0.2291682E-08  0.3298921E+04  0.7818609E-02  0.8163170E-01
        1   -1    0    0  501    0  0.00000000000E+00  0.00000000000E+00  0.22700922957E+04  0.22700922957E+04  0.50400001928E-02 0. -1.
       -1   -1    0    0    0  501  0.00000000000E+00  0.00000000000E+00 -0.11985064231E+04  0.11985064231E+04  0.50400001928E-02 0.  1.
    10030    2    1    2    0    0  0.00000000000E+00  0.00000000000E+00  0.10715858726E+04  0.34685987188E+04  0.32989211554E+04 0.  0.
        2    1    3    3  502    0  0.41001980126E+03 -0.96932676540E+03 -0.79957393265E+03  0.13217522799E+04  0.25500000920E-02 0.  1.
       -2    1    3    3    0  502 -0.41001980126E+03  0.96932676540E+03  0.18711598052E+04  0.21468464389E+04  0.25500000920E-02 0. -1.
</event>
<event>
 5   0  0.2244093E-08  0.3300529E+04  0.7818609E-02  0.8162761E-01
        1   -1    0    0  501    0  0.00000000000E+00  0.00000000000E+00  0.25845221516E+04  0.25845221516E+04  0.50400001928E-02 0. -1.
       -1   -1    0    0    0  501  0.00000000000E+00  0.00000000000E+00 -0.10537242430E+04  0.10537242430E+04  0.50400001928E-02 0.  1.
    10030    2    1    2    0    0  0.00000000000E+00  0.00000000000E+00  0.15307979086E+04  0.36382463946E+04  0.33005294410E+04 0.  0.
        1    1    3    3  502    0  0.81095320123E+03  0.16343955398E+03  0.23394500296E+04  0.24814076698E+04  0.50400001928E-02 0. -1.
       -1    1    3    3    0  502 -0.81095320123E+03 -0.16343955398E+03 -0.80865212107E+03  0.11568387249E+04  0.50400001928E-02 0.  1.
</event>
<event>
 5   0  0.2383270E-08  0.3298672E+04  0.7818609E-02  0.8163233E-01
       -1   -1    0    0    0  501  0.00000000000E+00  0.00000000000E+00  0.14604692400E+04  0.14604692400E+04  0.50400001928E-02 0. -1.
        1   -1    0    0  501    0  0.00000000000E+00  0.00000000000E+00 -0.18626270722E+04  0.18626270722E+04  0.50400001928E-02 0.  1.
    10030    2    1    2    0    0  0.00000000000E+00  0.00000000000E+00 -0.40215783215E+03  0.33230963122E+04  0.32986721841E+04 0.  0.
        5    1    3    3  502    0 -0.78248555641E+03  0.14273758117E+04 -0.46875685677E+03  0.16939422760E+04  0.46999998093E+01 0.  1.
       -5    1    3    3    0  502  0.78248555641E+03 -0.14273758117E+04  0.66599024618E+02  0.16291540362E+04  0.46999998093E+01 0. -1.
</event>
<event>
 5   0  0.2291682E-08  0.3298160E+04  0.7818609E-02  0.8163364E-01
       -1   -1    0    0    0  501  0.00000000000E+00  0.00000000000E+00  0.14439043962E+04  0.14439043962E+04  0.50400001928E-02 0.  1.
        1   -1    0    0  501    0  0.00000000000E+00  0.00000000000E+00 -0.18834106381E+04  0.18834106381E+04  0.50400001928E-02 0. -1.
    10030    2    1    2    0    0  0.00000000000E+00  0.00000000000E+00 -0.43950624183E+03  0.33273150343E+04  0.32981600327E+04 0.  0.
        2    1    3    3  502    0 -0.73459104813E+03 -0.11396252509E+04  0.72721118734E+03  0.15385726605E+04  0.25500000920E-02 0.  1.
       -2    1    3    3    0  502  0.73459104813E+03  0.11396252509E+04 -0.11667174292E+04  0.17887423739E+04  0.25500000920E-02 0. -1.
</event>
<event>
 5   0  0.6706080E-08  0.3322256E+04  0.7818609E-02  0.8157255E-01
        2   -1    0    0  501    0  0.00000000000E+00  0.00000000000E+00  0.30748579675E+04  0.30748579675E+04  0.25500000920E-02 0. -1.
       -2   -1    0    0    0  501  0.00000000000E+00  0.00000000000E+00 -0.89738985738E+03  0.89738985738E+03  0.25500000920E-02 0.  1.
    10030    2    1    2    0    0  0.00000000000E+00  0.00000000000E+00  0.21774681102E+04  0.39722478249E+04  0.33222560726E+04 0.  0.
        4    1    3    3  502    0 -0.79547172222E+03 -0.44943080007E+03  0.27474475503E+04  0.28953813151E+04  0.12699999809E+01 0. -1.
       -4    1    3    3    0  502  0.79547172222E+03  0.44943080007E+03 -0.56997944018E+03  0.10768665099E+04  0.12699999809E+01 0.  1.
</event>
<event>
 5   0  0.6706080E-08  0.3300602E+04  0.7818609E-02  0.8162742E-01
       -2   -1    0    0    0  501  0.00000000000E+00  0.00000000000E+00  0.11972316405E+04  0.11972316405E+04  0.25500000920E-02 0.  1.
        2   -1    0    0  501    0  0.00000000000E+00  0.00000000000E+00 -0.22748261393E+04  0.22748261393E+04  0.25500000920E-02 0. -1.
    10030    2    1    2    0    0  0.00000000000E+00  0.00000000000E+00 -0.10775944987E+04  0.34720577798E+04  0.33006022667E+04 0.  0.
        4    1    3    3  502    0 -0.69464341792E+03 -0.11732120670E+04  0.43930743320E+03  0.14324624484E+04  0.12699999809E+01 0.  1.
       -4    1    3    3    0  502  0.69464341792E+03  0.11732120670E+04 -0.15169019319E+04  0.20395953315E+04  0.12699999809E+01 0. -1.
</event>
<event>
 5   0  0.6603516E-08  0.3299858E+04  0.7818609E-02  0.8162931E-01
        2   -1    0    0  501    0  0.00000000000E+00  0.00000000000E+00  0.13772556848E+04  0.13772556848E+04  0.25500000920E-02 0.  1.
       -2   -1    0    0    0  501  0.00000000000E+00  0.00000000000E+00 -0.19765873428E+04  0.19765873428E+04  0.25500000920E-02 0. -1.
    10030    2    1    2    0    0  0.00000000000E+00  0.00000000000E+00 -0.59933165803E+03  0.33538430276E+04  0.32998582723E+04 0.  0.
        1    1    3    3  502    0 -0.59235552500E+03 -0.39936193193E+03  0.12119078415E+04  0.14068033399E+04  0.50400001928E-02 0.  1.
       -1    1    3    3    0  502  0.59235552500E+03  0.39936193193E+03 -0.18112394996E+04  0.19470396877E+04  0.50400001928E-02 0. -1.
</event>
<event>
 5   0  0.2309822E-08  0.3299642E+04  0.7818609E-02  0.8162986E-01
       -1   -1    0    0    0  501  0.00000000000E+00  0.00000000000E+00  0.11422667159E+04  0.11422667160E+04  0.50400001928E-02 0. -1.
        1   -1    0    0  501    0  0.00000000000E+00  0.00000000000E+00 -0.23829024129E+04  0.23829024129E+04  0.50400001928E-02 0.  1.
    10030    2    1    2    0    0  0.00000000000E+00  0.00000000000E+00 -0.12406356970E+04  0.35251691289E+04  0.32996424737E+04 0.  0.
        4    1    3    3  502    0  0.10782832461E+04  0.94808199837E+03  0.24784573941E+03  0.14570461070E+04  0.12699999809E+01 0.  1.
       -4    1    3    3    0  502 -0.10782832461E+04 -0.94808199837E+03 -0.14884814364E+04  0.20681230219E+04  0.12699999809E+01 0. -1.
</event>
<event>
 5   0  0.2309822E-08  0.3301336E+04  0.7818609E-02  0.8162555E-01
       -1   -1    0    0    0  501  0.00000000000E+00  0.00000000000E+00  0.10932850316E+04  0.10932850316E+04  0.50400001928E-02 0. -1.
        1   -1    0    0  501    0  0.00000000000E+00  0.00000000000E+00 -0.24922184741E+04  0.24922184741E+04  0.50400001928E-02 0.  1.
    10030    2    1    2    0    0  0.00000000000E+00  0.00000000000E+00 -0.13989334425E+04  0.35855035057E+04  0.33013361860E+04 0.  0.
        4    1    3    3  502    0  0.10141567137E+04 -0.78239649867E+03 -0.18302623957E+04  0.22339472176E+04  0.12699999809E+01 0.  1.
       -4    1    3    3    0  502 -0.10141567137E+04  0.78239649867E+03  0.43132895320E+03  0.13515562881E+04  0.12699999809E+01 0. -1.
</event>
<event>
 5   0  0.6821287E-08  0.3300428E+04  0.7818609E-02  0.8162787E-01
       -2   -1    0    0    0  501  0.00000000000E+00  0.00000000000E+00  0.16117580079E+04  0.16117580079E+04  0.25500000920E-02 0. -1.
        2   -1    0    0  501    0  0.00000000000E+00  0.00000000000E+00 -0.16895873095E+04  0.16895873095E+04  0.25500000920E-02 0.  1.
    10030    2    1    2    0    0  0.00000000000E+00  0.00000000000E+00 -0.77829301554E+02  0.33013453174E+04  0.33004277760E+04 0.  0.
        5    1    3    3  502    0 -0.12157623762E+03 -0.14280757142E+04 -0.85706792821E+03  0.16699606434E+04  0.46999998093E+01 0.  1.
       -5    1    3    3    0  502  0.12157623762E+03  0.14280757142E+04  0.77923862666E+03  0.16313846739E+04  0.46999998093E+01 0. -1.
</event>
<event>
 5   0  0.2383270E-08  0.3299534E+04  0.7818609E-02  0.8163014E-01
        1   -1    0    0  501    0  0.00000000000E+00  0.00000000000E+00  0.12038301194E+04  0.12038301194E+04  0.50400001928E-02 0. -1.
       -1   -1    0    0    0  501  0.00000000000E+00  0.00000000000E+00 -0.22608937230E+04  0.22608937230E+04  0.50400001928E-02 0.  1.
    10030    2    1    2    0    0  0.00000000000E+00  0.00000000000E+00 -0.10570636036E+04  0.34647238424E+04  0.32995344886E+04 0.  0.
        5    1    3    3  502    0  0.15158446257E+04 -0.62643683013E+03 -0.34215841101E+03  0.16755006713E+04  0.46999998093E+01 0. -1.
       -5    1    3    3    0  502 -0.15158446257E+04  0.62643683013E+03 -0.71490519263E+03  0.17892231710E+04  0.46999998093E+01 0.  1.
</event>
<event>
 5   0  0.2383270E-08  0.3298021E+04  0.7818609E-02  0.8163399E-01
       -1   -1    0    0    0  501  0.00000000000E+00  0.00000000000E+00  0.19891626399E+04  0.19891626399E+04  0.50400001928E-02 0. -1.
        1   -1    0    0  501    0  0.00000000000E+00  0.00000000000E+00 -0.13670256185E+04  0.13670256185E+04  0.50400001928E-02 0.  1.
    10030    2    1    2    0    0  0.00000000000E+00  0.00000000000E+00  0.62213702138E+03  0.33561882584E+04  0.32980213996E+04 0.  0.
        5    1    3    3  502    0  0.38451352689E+03  0.15934626164E+04  0.49379154372E+03  0.17119655198E+04  0.46999998093E+01 0.  1.
       -5    1    3    3    0  502 -0.38451352689E+03 -0.15934626164E+04  0.12834547766E+03  0.16442227386E+04  0.46999998093E+01 0. -1.
</event>
<event>
 5   0  0.6765252E-08  0.3299736E+04  0.7818609E-02  0.8162963E-01
       -2   -1    0    0    0  501  0.00000000000E+00  0.00000000000E+00  0.17905960815E+04  0.17905960815E+04  0.25500000920E-02 0. -1.
        2   -1    0    0  501    0  0.00000000000E+00  0.00000000000E+00 -0.15202001952E+04  0.15202001952E+04  0.25500000920E-02 0.  1.
    10030    2    1    2    0    0  0.00000000000E+00  0.00000000000E+00  0.27039588625E+03  0.33107962767E+04  0.32997360577E+04 0.  0.
        2    1    3    3  502    0  0.13398281772E+03  0.10093763122E+04 -0.11673338499E+04  0.15490191258E+04  0.25500000920E-02 0.  1.
       -2    1    3    3    0  502 -0.13398281772E+03 -0.10093763122E+04  0.14377297361E+04  0.17617771509E+04  0.25500000920E-02 0. -1.
</event>
<event>
 5   0  0.2279938E-08  0.3299245E+04  0.7818609E-02  0.8163087E-01
       -1   -1    0    0    0  501  0.00000000000E+00  0.00000000000E+00  0.16531119614E+04  0.16531119615E+04  0.50400001928E-02 0. -1.
        1   -1    0    0  501    0  0.00000000000E+00  0.00000000000E+00 -0.16461406384E+04  0.16461406384E+04  0.50400001928E-02 0.  1.
    10030    2    1    2    0    0  0.00000000000E+00  0.00000000000E+00  0.69713230125E+01  0.32992525999E+04  0.32992452347E+04 0.  0.
        3    1    3    3  502    0  0.16897281706E+03  0.11876214786E+04  0.11358565836E+04  0.16520190005E+04  0.10100000352E+00 0. -1.
       -3    1    3    3    0  502 -0.16897281706E+03 -0.11876214786E+04 -0.11288852605E+04  0.16472335994E+04  0.10100000352E+00 0.  1.
</event>
<event>
 5   0  0.7084130E-08  0.3301796E+04  0.7818609E-02  0.8162438E-01
        2   -1    0    0  501    0  0.00000000000E+00  0.00000000000E+00  0.13724693174E+04  0.13724693174E+04  0.25500000920E-02 0.  1.
       -2   -1    0    0    0  501  0.00000000000E+00  0.00000000000E+00 -0.19858111298E+04  0.19858111298E+04  0.25500000920E-02 0. -1.
    10030    2    1    2    0    0  0.00000000000E+00  0.00000000000E+00 -0.61334181235E+03  0.33582804472E+04  0.33017963873E+04 0.  0.
        3    1    3    3  502    0  0.94250426562E+03 -0.61555780839E+03 -0.15349047119E+04  0.19034595323E+04  0.10100000352E+00 0. -1.
       -3    1    3    3    0  502 -0.94250426562E+03  0.61555780839E+03  0.92156289960E+03  0.14548209149E+04  0.10100000352E+00 0.  1.
</event>
<event>
 5   0  0.6706080E-08  0.3302094E+04  0.7818609E-02  0.8162363E-01
        2   -1    0    0  501    0  0.00000000000E+00  0.00000000000E+00  0.14451383955E+04  0.14451383955E+04  0.25500000920E-02 0. -1.
       -2   -1    0    0    0  501  0.00000000000E+00  0.00000000000E+00 -0.18862945092E+04  0.18862945092E+04  0.25500000920E-02 0.  1.
    10030    2    1    2    0    0  0.00000000000E+00  0.00000000000E+00 -0.44115611370E+03  0.33314329047E+04  0.33020942569E+04 0.  0.
        4    1    3    3  502    0 -0.32461894030E+03 -0.30334719484E+03 -0.18248502934E+04  0.18781579229E+04  0.12699999809E+01 0.  1.
       -4    1    3    3    0  502  0.32461894030E+03  0.30334719484E+03  0.13836941797E+04  0.14532749818E+04  0.12699999809E+01 0. -1.
</event>
<event>
 5   0  0.6706080E-08  0.3296981E+04  0.7818609E-02  0.8163664E-01
        2   -1    0    0  501    0  0.00000000000E+00  0.00000000000E+00  0.20291835311E+04  0.20291835311E+04  0.25500000920E-02 0. -1.
       -2   -1    0    0    0  501  0.00000000000E+00  0.00000000000E+00 -0.13392187382E+04  0.13392187382E+04  0.25500000920E-02 0.  1.
    10030    2    1    2    0    0  0.00000000000E+00  0.00000000000E+00  0.68996479294E+03  0.33684022693E+04  0.32969808056E+04 0.  0.
        4    1    3    3  502    0 -0.64593503501E+03 -0.65410458636E+03 -0.10530293008E+04  0.13978401914E+04  0.12699999809E+01 0.  1.
       -4    1    3    3    0  502  0.64593503501E+03  0.65410458636E+03  0.17429940937E+04  0.19705620779E+04  0.12699999809E+01 0. -1.
</event>
<event>
 5   0  0.2291682E-08  0.3299208E+04  0.7818609E-02  0.8163097E-01
       -1   -1    0    0    0  501  0.00000000000E+00  0.00000000000E+00  0.10617172058E+04  0.10617172059E+04  0.50400001928E-02 0.  1.
        1   -1    0    0  501    0  0.00000000000E+00  0.00000000000E+00 -0.25630117768E+04  0.25630117768E+04  0.50400001928E-02 0. -1.
    10030    2    1    2    0    0  0.00000000000E+00  0.00000000000E+00 -0.15012945709E+04  0.36247289827E+04  0.32992082094E+04 0.  0.
        2    1    3    3  502    0 -0.94356753959E+03  0.13496497054E+04 -0.85671083533E+03  0.18562940188E+04  0.25500000920E-02 0.  1.
       -2    1    3    3    0  502  0.94356753959E+03 -0.13496497054E+04 -0.64458373562E+03  0.17684349638E+04  0.25500000920E-02 0. -1.
</event>
<event>
 5   0  0.6603516E-08  0.3300164E+04  0.7818609E-02  0.8162854E-01
        2   -1    0    0  501    0  0.00000000000E+00  0.00000000000E+00  0.14705563043E+04  0.14705563043E+04  0.25500000920E-02 0. -1.
       -2   -1    0    0    0  501  0.00000000000E+00  0.00000000000E+00 -0.18515242001E+04  0.18515242001E+04  0.25500000920E-02 0.  1.
    10030    2    1    2    0    0  0.00000000000E+00  0.00000000000E+00 -0.38096789587E+03  0.33220805044E+04  0.33001639868E+04 0.  0.
        1    1    3    3  502    0 -0.13517300181E+04 -0.16370601387E+03  0.74779886061E+03  0.15534403229E+04  0.50400001928E-02 0. -1.
       -1    1    3    3    0  502  0.13517300181E+04  0.16370601387E+03 -0.11287667565E+04  0.17686401815E+04  0.50400001928E-02 0.  1.
</event>
<event>
 5   0  0.2244093E-08  0.3304061E+04  0.7818609E-02  0.8161863E-01
       -1   -1    0    0    0  501  0.00000000000E+00  0.00000000000E+00  0.16628847706E+04  0.16628847706E+04  0.50400001928E-02 0. -1.
        1   -1    0    0  501    0  0.00000000000E+00  0.00000000000E+00 -0.16412471602E+04  0.16412471602E+04  0.50400001928E-02 0.  1.
    10030    2    1    2    0    0  0.00000000000E+00  0.00000000000E+00  0.21637610399E+02  0.33041319307E+04  0.33040610814E+04 0.  0.
        1    1    3    3  502    0 -0.15666912858E+03 -0.13629344742E+04  0.93120222447E+03  0.16580932362E+04  0.50400001928E-02 0. -1.
       -1    1    3    3    0  502  0.15666912858E+03  0.13629344742E+04 -0.90956461408E+03  0.16460386946E+04  0.50400001928E-02 0.  1.
</event>
<event>
 5   0  0.2383270E-08  0.3296001E+04  0.7818609E-02  0.8163914E-01
       -1   -1    0    0    0  501  0.00000000000E+00  0.00000000000E+00  0.19182041573E+04  0.19182041573E+04  0.50400001928E-02 0. -1.
        1   -1    0    0  501    0  0.00000000000E+00  0.00000000000E+00 -0.14158585656E+04  0.14158585656E+04  0.50400001928E-02 0.  1.
    10030    2    1    2    0    0  0.00000000000E+00  0.00000000000E+00  0.50234559168E+03  0.33340627229E+04  0.32960010841E+04 0.  0.
        5    1    3    3  502    0 -0.15476413163E+03  0.40581327391E+03 -0.13569169944E+04  0.14247393339E+04  0.46999998093E+01 0.  1.
       -5    1    3    3    0  502  0.15476413163E+03 -0.40581327391E+03  0.18592625861E+04  0.19093233890E+04  0.46999998093E+01 0. -1.
</event>
<event>
 5   0  0.6603516E-08  0.3300855E+04  0.7818609E-02  0.8162678E-01
        2   -1    0    0  501    0  0.00000000000E+00  0.00000000000E+00  0.23536050268E+04  0.23536050268E+04  0.25500000920E-02 0.  1.
       -2   -1    0    0    0  501  0.00000000000E+00  0.00000000000E+00 -0.11573353784E+04  0.11573353784E+04  0.25500000920E-02 0. -1.
    10030    2    1    2    0    0  0.00000000000E+00  0.00000000000E+00  0.11962696484E+04  0.35109404052E+04  0.33008546556E+04 0.  0.
        1    1    3    3  502    0 -0.62979950061E+03 -0.15067780286E+04  0.85181586965E+03  0.18419060004E+04  0.50400001928E-02 0.  1.
       -1    1    3    3    0  502  0.62979950061E+03  0.15067780286E+04  0.34445377877E+03  0.16690344048E+04  0.50400001928E-02 0. -1.
</event>
<event>
 5   0  0.2383270E-08  0.3300598E+04  0.7818609E-02  0.8162743E-01
        1   -1    0    0  501    0  0.00000000000E+00  0.00000000000E+00  0.10258579519E+04  0.10258579519E+04  0.50400001928E-02 0. -1.
       -1   -1    0    0    0  501  0.00000000000E+00  0.00000000000E+00 -0.26548382054E+04  0.26548382054E+04  0.50400001928E-02 0.  1.
    10030    2    1    2    0    0  0.00000000000E+00  0.00000000000E+00 -0.16289802535E+04  0.36806961573E+04  0.33005980573E+04 0.  0.
        5    1    3    3  502    0 -0.32042620866E+02 -0.16270904741E+04 -0.50906104802E+03  0.17051731235E+04  0.46999998093E+01 0.  1.
       -5    1    3    3    0  502  0.32042620866E+02  0.16270904741E+04 -0.11199192055E+04  0.19755230338E+04  0.46999998093E+01 0. -1.
</event>
<event>
 5   0  0.2279938E-08  0.3304888E+04  0.7818609E-02  0.8161653E-01
        1   -1    0    0  501    0  0.00000000000E+00  0.00000000000E+00  0.27205955045E+04  0.27205955045E+04  0.50400001928E-02 0. -1.
       -1   -1    0    0    0  501  0.00000000000E+00  0.00000000000E+00 -0.10036667141E+04  0.10036667142E+04  0.50400001928E-02 0.  1.
    10030    2    1    2    0    0  0.00000000000E+00  0.00000000000E+00  0.17169287904E+04  0.37242622187E+04  0.33048879864E+04 0.  0.
        3    1    3    3  502    0 -0.95783203254E+03 -0.19087048846E+02  0.23757041563E+04  0.25615965269E+04  0.10100000352E+00 0. -1.
       -3    1    3    3    0  502  0.95783203254E+03  0.19087048846E+02 -0.65877536592E+03  0.11626656918E+04  0.10100000352E+00 0.  1.
</event>
<event>
 5   0  0.2309822E-08  0.3298522E+04  0.7818609E-02  0.8163271E-01
        1   -1    0    0  501    0  0.00000000000E+00  0.00000000000E+00  0.18740414529E+04  0.18740414529E+04  0.50400001928E-02 0.  1.
       -1   -1    0    0    0  501  0.00000000000E+00  0.00000000000E+00 -0.14514420775E+04  0.14514420775E+04  0.50400001928E-02 0. -1.
    10030    2    1    2    0    0  0.00000000000E+00  0.00000000000E+00  0.42259937544E+03  0.33254835304E+04  0.32985224691E+04 0.  0.
        4    1    3    3  502    0  0.84865851554E+02 -0.10064464136E+04 -0.11031687414E+04  0.14957003313E+04  0.12699999809E+01 0. -1.
       -4    1    3    3    0  502 -0.84865851554E+02  0.10064464136E+04  0.15257681169E+04  0.18297831991E+04  0.12699999809E+01 0.  1.
</event>
<event>
 5   0  0.6821287E-08  0.3303776E+04  0.7818609E-02  0.8161935E-01
       -2   -1    0    0    0  501  0.00000000000E+00  0.00000000000E+00  0.18706090750E+04  0.18706090750E+04  0.25500000920E-02 0.  1.
        2   -1    0    0  501    0  0.00000000000E+00  0.00000000000E+00 -0.14587405456E+04  0.14587405456E+04  0.25500000920E-02 0. -1.
    10030    2    1    2    0    0  0.00000000000E+00  0.00000000000E+00  0.41186852939E+03  0.33293496206E+04  0.33037755993E+04 0.  0.
        5    1    3    3  502    0 -0.52451336007E+03  0.25886235860E+03 -0.13508825665E+04  0.14720834841E+04  0.46999998093E+01 0. -1.
       -5    1    3    3    0  502  0.52451336007E+03 -0.25886235860E+03  0.17627510959E+04  0.18572661365E+04  0.46999998093E+01 0.  1.
</event>
<event>
 5   0  0.6603516E-08  0.3300263E+04  0.7818609E-02  0.8162828E-01
       -2   -1    0    0    0  501  0.00000000000E+00  0.00000000000E+00  0.12646402766E+04  0.12646402766E+04  0.25500000920E-02 0.  1.
        2   -1    0    0  501    0  0.00000000000E+00  0.00000000000E+00 -0.21531295959E+04  0.21531295959E+04  0.25500000920E-02 0. -1.
    10030    2    1    2    0    0  0.00000000000E+00  0.00000000000E+00 -0.88848931929E+03  0.34177698724E+04  0.33002632668E+04 0.  0.
        1    1    3    3  502    0 -0.53382295920E+03 -0.11840201105E+04 -0.14983584343E+04  0.19829141614E+04  0.50400001928E-02 0. -1.
       -1    1    3    3    0  502  0.53382295920E+03  0.11840201105E+04  0.60986911506E+03  0.14348557110E+04  0.50400001928E-02 0.  1.
</event>
<event>
 5   0  0.2291682E-08  0.3300159E+04  0.7818609E-02  0.8162855E-01
       -1   -1    0    0    0  501  0.00000000000E+00  0.00000000000E+00  0.12679239957E+04  0.12679239957E+04  0.50400001928E-02 0.  1.
        1   -1    0    0  501    0  0.00000000000E+00  0.00000000000E+00 -0.21474171179E+04  0.21474171179E+04  0.50400001928E-02 0. -1.
    10030    2    1    2    0    0  0.00000000000E+00  0.00000000000E+00 -0.87949312220E+03  0.34153411136E+04  0.33001585977E+04 0.  0.
        2    1    3    3  502    0 -0.10655227094E+04  0.12262296165E+04 -0.14018936482E+03  0.16305308261E+04  0.25500000920E-02 0.  1.
       -2    1    3    3    0  502  0.10655227094E+04 -0.12262296165E+04 -0.73930375738E+03  0.17848102875E+04  0.25500000920E-02 0. -1.
</event>
<event>
 5   0  0.2383270E-08  0.3298213E+04  0.7818609E-02  0.8163350E-01
        1   -1    0    0  501    0  0.00000000000E+00  0.00000000000E+00  0.21779752305E+04  0.21779752305E+04  0.50400001928E-02 0. -1.
       -1   -1    0    0    0  501  0.00000000000E+00  0.00000000000E+00 -0.12486611370E+04  0.12486611370E+04  0.50400001928E-02 0.  1.
    10030    2    1    2    0    0  0.00000000000E+00  0.00000000000E+00  0.92931409347E+03  0.34266363675E+04  0.32982134725E+04 0.  0.
        5    1    3    3  502    0  0.46833772103E+03 -0.19855561466E+03 -0.11651059430E+04  0.12713215570E+04  0.46999998093E+01 0.  1.
       -5    1    3    3    0  502 -0.46833772103E+03  0.19855561466E+03  0.20944200364E+04  0.21553148104E+04  0.46999998093E+01 0. -1.
</event>
<event>
 5   0  0.7084130E-08  0.3299501E+04  0.7818609E-02  0.8163022E-01
        2   -1    0    0  501    0  0.00000000000E+00  0.00000000000E+00  0.17764543659E+04  0.17764543659E+04  0.25500000920E-02 0.  1.
       -2   -1    0    0    0  501  0.00000000000E+00  0.00000000000E+00 -0.15320836813E+04  0.15320836813E+04  0.25500000920E-02 0. -1.
    10030    2    1    2    0    0  0.00000000000E+00  0.00000000000E+00  0.24437068464E+03  0.33085380472E+04  0.32995010195E+04 0.  0.
        3    1    3    3  502    0 -0.59501845396E+02  0.13463398152E+04 -0.83200140568E+03  0.15837921950E+04  0.10100000352E+00 0. -1.
       -3    1    3    3    0  502  0.59501845396E+02 -0.13463398152E+04  0.10763720903E+04  0.17247458522E+04  0.10100000352E+00 0.  1.
</event>
<event>
 5   0  0.6603516E-08  0.3312695E+04  0.7818609E-02  0.8159673E-01
       -2   -1    0    0    0  501  0.00000000000E+00  0.00000000000E+00  0.12805486702E+04  0.12805486702E+04  0.25500000920E-02 0.  1.
        2   -1    0    0  501    0  0.00000000000E+00  0.00000000000E+00 -0.21424302818E+04  0.21424302818E+04  0.25500000920E-02 0. -1.
    10030    2    1    2    0    0  0.00000000000E+00  0.00000000000E+00 -0.86188161158E+03  0.34229789520E+04  0.33126945216E+04 0.  0.
        1    1    3    3  502    0 -0.29107310092E+03 -0.14860519933E+04  0.26252954575E+03  0.15368786027E+04  0.50400001928E-02 0.  1.
       -1    1    3    3    0  502  0.29107310092E+03  0.14860519933E+04 -0.11244111573E+04  0.18861003493E+04  0.50400001928E-02 0. -1.
</event>
<event>
 5   0  0.2200750E-08  0.3300961E+04  0.7818609E-02  0.8162651E-01
       -3   -1    0    0    0  501  0.00000000000E+00  0.00000000000E+00  0.10793112115E+04  0.10793112162E+04  0.10100000352E+00 0. -1.
        3   -1    0    0  501    0  0.00000000000E+00  0.00000000000E+00 -0.25239116469E+04  0.25239116489E+04  0.10100000352E+00 0.  1.
    10030    2    1    2    0    0  0.00000000000E+00  0.00000000000E+00 -0.14446004354E+04  0.36032228651E+04  0.33009611627E+04 0.  0.
        4    1    3    3  502    0  0.11992095683E+04  0.15252078850E+03  0.50430259750E+03  0.13098430831E+04  0.12699999809E+01 0. -1.
       -4    1    3    3    0  502 -0.11992095683E+04 -0.15252078850E+03 -0.19489030329E+04  0.22933797820E+04  0.12699999809E+01 0.  1.
</event>
<event>
 5   0  0.2291682E-08  0.3300479E+04  0.7818609E-02  0.8162773E-01
        1   -1    0    0  501    0  0.00000000000E+00  0.00000000000E+00  0.17170095058E+04  0.17170095058E+04  0.50400001928E-02 0.  1.
       -1   -1    0    0    0  501  0.00000000000E+00  0.00000000000E+00 -0.15860660693E+04  0.15860660693E+04  0.50400001928E-02 0. -1.
    10030    2    1    2    0    0  0.00000000000E+00  0.00000000000E+00  0.13094343645E+03  0.33030755751E+04  0.33004790670E+04 0.  0.
        2    1    3    3  502    0  0.15678485261E+04 -0.13911051657E+03  0.56163364969E+03  0.16712070766E+04  0.25500000920E-02 0. -1.
       -2    1    3    3    0  502 -0.15678485261E+04  0.13911051657E+03 -0.43069021324E+03  0.16318684985E+04  0.25500000920E-02 0.  1.
</event>
<event>
 5   0  0.2383270E-08  0.3296625E+04  0.7818609E-02  0.8163755E-01
       -1   -1    0    0    0  501  0.00000000000E+00  0.00000000000E+00  0.12312604321E+04  0.12312604321E+04  0.50400001928E-02 0.  1.
        1   -1    0    0  501    0  0.00000000000E+00  0.00000000000E+00 -0.22066283814E+04  0.22066283814E+04  0.50400001928E-02 0. -1.
    10030    2    1    2    0    0  0.00000000000E+00  0.00000000000E+00 -0.97536794936E+03  0.34378888135E+04  0.32966250708E+04 0.  0.
        5    1    3    3  502    0  0.66684876939E+02  0.46951371823E+03 -0.21339431792E+04  0.21860067673E+04  0.46999998093E+01 0. -1.
       -5    1    3    3    0  502 -0.66684876939E+02 -0.46951371823E+03  0.11585752299E+04  0.12518820462E+04  0.46999998093E+01 0.  1.
</event>
<event>
 5   0  0.2291682E-08  0.3299352E+04  0.7818609E-02  0.8163060E-01
        1   -1    0    0  501    0  0.00000000000E+00  0.00000000000E+00  0.23284080893E+04  0.23284080893E+04  0.50400001928E-02 0.  1.
       -1   -1    0    0    0  501  0.00000000000E+00  0.00000000000E+00 -0.11687943979E+04  0.11687943980E+04  0.50400001928E-02 0. -1.
    10030    2    1    2    0    0  0.00000000000E+00  0.00000000000E+00  0.11596136913E+04  0.34972024872E+04  0.32993516520E+04 0.  0.
        2    1    3    3  502    0  0.11345956597E+04  0.70515870227E+03 -0.44615879799E+03  0.14084082432E+04  0.25500000920E-02 0. -1.
       -2    1    3    3    0  502 -0.11345956597E+04 -0.70515870227E+03  0.16057724893E+04  0.20887942440E+04  0.25500000920E-02 0.  1.
</event>
<event>
 5   0  0.2383270E-08  0.3301284E+04  0.7818609E-02  0.8162569E-01
       -1   -1    0    0    0  501  0.00000000000E+00  0.00000000000E+00  0.11142176283E+04  0.11142176283E+04  0.50400001928E-02 0. -1.
        1   -1    0    0  501    0  0.00000000000E+00  0.00000000000E+00 -0.24453207597E+04  0.24453207597E+04  0.50400001928E-02 0.  1.
    10030    2    1    2    0    0  0.00000000000E+00  0.00000000000E+00 -0.13311031314E+04  0.35595383880E+04  0.33012842939E+04 0.  0.
        5    1    3    3  502    0 -0.15829285872E+03  0.14809148545E+04 -0.14328623692E+04  0.20667080333E+04  0.46999998093E+01 0.  1.
       -5    1    3    3    0  502  0.15829285872E+03 -0.14809148545E+04  0.10175923782E+03  0.14928303547E+04  0.46999998093E+01 0. -1.
</event>
<event>
 5   0  0.2291682E-08  0.3300562E+04  0.7818609E-02  0.8162753E-01
        1   -1    0    0  501    0  0.00000000000E+00  0.00000000000E+00  0.21435962722E+04  0.21435962722E+04  0.50400001928E-02 0.  1.
       -1   -1    0    0    0  501  0.00000000000E+00  0.00000000000E+00 -0.12704942359E+04  0.12704942359E+04  0.50400001928E-02 0. -1.
    10030    2    1    2    0    0  0.00000000000E+00  0.00000000000E+00  0.87310203626E+03  0.34140905081E+04  0.33005615934E+04 0.  0.
        2    1    3    3  502    0  0.92764735758E+03 -0.57769551957E+03  0.17156800598E+04  0.20341631697E+04  0.25500000920E-02 0.  1.
       -2    1    3    3    0  502 -0.92764735758E+03  0.57769551957E+03 -0.84257802358E+03  0.13799273384E+04  0.25500000920E-02 0. -1.
</event>
<event>
 5   0  0.7084130E-08  0.3311523E+04  0.7818609E-02  0.8159970E-01
       -2   -1    0    0    0  501  0.00000000000E+00  0.00000000000E+00  0.14328759352E+04  0.14328759353E+04  0.25500000920E-02 0. -1.
        2   -1    0    0  501    0  0.00000000000E+00  0.00000000000E+00 -0.19133166191E+04  0.19133166191E+04  0.25500000920E-02 0.  1.
    10030    2    1    2    0    0  0.00000000000E+00  0.00000000000E+00 -0.48044068385E+03  0.33461925544E+04  0.33115225139E+04 0.  0.
        3    1    3    3  502    0 -0.68247675725E+03 -0.48826444803E+03 -0.16825283819E+04  0.18801804332E+04  0.10100000352E+00 0.  1.
       -3    1    3    3    0  502  0.68247675725E+03  0.48826444803E+03  0.12020876980E+04  0.14660121211E+04  0.10100000352E+00 0. -1.
</event>
<event>
 5   0  0.6765252E-08  0.3300540E+04  0.7818609E-02  0.8162758E-01
        2   -1    0    0  501    0  0.00000000000E+00  0.00000000000E+00  0.15950524975E+04  0.15950524975E+04  0.25500000920E-02 0.  1.
       -2   -1    0    0    0  501  0.00000000000E+00  0.00000000000E+00 -0.17073986739E+04  0.17073986739E+04  0.25500000920E-02 0. -1.
    10030    2    1    2    0    0  0.00000000000E+00  0.00000000000E+00 -0.11234617643E+03  0.33024511714E+04  0.33005396644E+04 0.  0.
        2    1    3    3  502    0  0.13026607468E+04  0.94684127486E+03 -0.41687749749E+03  0.16634963988E+04  0.25500000920E-02 0. -1.
       -2    1    3    3    0  502 -0.13026607468E+04 -0.94684127486E+03  0.30453132106E+03  0.16389547726E+04  0.25500000920E-02 0.  1.
</event>
<event>
 5   0  0.6603516E-08  0.3300042E+04  0.7818609E-02  0.8162885E-01
        2   -1    0    0  501    0  0.00000000000E+00  0.00000000000E+00  0.22093562711E+04  0.22093562711E+04  0.25500000920E-02 0. -1.
       -2   -1    0    0    0  501  0.00000000000E+00  0.00000000000E+00 -0.12322910184E+04  0.12322910184E+04  0.25500000920E-02 0.  1.
    10030    2    1    2    0    0  0.00000000000E+00  0.00000000000E+00  0.97706525263E+03  0.34416472895E+04  0.33000423569E+04 0.  0.
        1    1    3    3  502    0 -0.53725588268E+02  0.15568144605E+04  0.10559487094E+04  0.18819100350E+04  0.50400001928E-02 0. -1.
       -1    1    3    3    0  502  0.53725588268E+02 -0.15568144605E+04 -0.78883456756E+02  0.15597372545E+04  0.50400001928E-02 0.  1.
</event>
<event>
 5   0  0.2291682E-08  0.3300244E+04  0.7818609E-02  0.8162833E-01
        1   -1    0    0  501    0  0.00000000000E+00  0.00000000000E+00  0.23188170470E+04  0.23188170470E+04  0.50400001928E-02 0.  1.
       -1   -1    0    0    0  501  0.00000000000E+00  0.00000000000E+00 -0.11742636067E+04  0.11742636067E+04  0.50400001928E-02 0. -1.
    10030    2    1    2    0    0  0.00000000000E+00  0.00000000000E+00  0.11445534403E+04  0.34930806538E+04  0.33002439116E+04 0.  0.
        2    1    3    3  502    0 -0.13425774725E+04  0.94463625405E+03  0.74954590227E+03  0.18046248867E+04  0.25500000920E-02 0. -1.
       -2    1    3    3    0  502  0.13425774725E+04 -0.94463625405E+03  0.39500753805E+03  0.16884557671E+04  0.25500000920E-02 0.  1.
</event>
<event>
 5   0  0.6706080E-08  0.3300085E+04  0.7818609E-02  0.8162874E-01
       -2   -1    0    0    0  501  0.00000000000E+00  0.00000000000E+00  0.14310012055E+04  0.14310012055E+04  0.25500000920E-02 0. -1.
        2   -1    0    0  501    0  0.00000000000E+00  0.00000000000E+00 -0.19026126041E+04  0.19026126041E+04  0.25500000920E-02 0.  1.
    10030    2    1    2    0    0  0.00000000000E+00  0.00000000000E+00 -0.47161139864E+03  0.33336138096E+04  0.33000854111E+04 0.  0.
        4    1    3    3  502    0 -0.10570223989E+03 -0.24210692282E+03 -0.18811110192E+04  0.18995707423E+04  0.12699999809E+01 0.  1.
       -4    1    3    3    0  502  0.10570223989E+03  0.24210692282E+03  0.14094996206E+04  0.14340430673E+04  0.12699999809E+01 0. -1.
</event>
<event>
 5   0  0.2244093E-08  0.3306277E+04  0.7818609E-02  0.8161300E-01
       -1   -1    0    0    0  501  0.00000000000E+00  0.00000000000E+00  0.11424371350E+04  0.11424371351E+04  0.50400001928E-02 0.  1.
        1   -1    0    0  501    0  0.00000000000E+00  0.00000000000E+00 -0.23921369735E+04  0.23921369735E+04  0.50400001928E-02 0. -1.
    10030    2    1    2    0    0  0.00000000000E+00  0.00000000000E+00 -0.12496998385E+04  0.35345741086E+04  0.33062765224E+04 0.  0.
        1    1    3    3  502    0 -0.67685416833E+02 -0.16434523994E+04 -0.44805544326E+03  0.17047788082E+04  0.50400001928E-02 0. -1.
       -1    1    3    3    0  502  0.67685416833E+02  0.16434523994E+04 -0.80164439521E+03  0.18297953003E+04  0.50400001928E-02 0.  1.
</event>
<event>
 5   0  0.2309822E-08  0.3299402E+04  0.7818609E-02  0.8163048E-01
       -1   -1    0    0    0  501  0.00000000000E+00  0.00000000000E+00  0.14540982551E+04  0.14540982551E+04  0.50400001928E-02 0. -1.
        1   -1    0    0  501    0  0.00000000000E+00  0.00000000000E+00 -0.18716153982E+04  0.18716153982E+04  0.50400001928E-02 0.  1.
    10030    2    1    2    0    0  0.00000000000E+00  0.00000000000E+00 -0.41751714308E+03  0.33257136532E+04  0.32994015728E+04 0.  0.
        4    1    3    3  502    0  0.54176289029E+03  0.83832593355E+03  0.11151900197E+04  0.14966455135E+04  0.12699999809E+01 0. -1.
       -4    1    3    3    0  502 -0.54176289029E+03 -0.83832593355E+03 -0.15327071628E+04  0.18290681398E+04  0.12699999809E+01 0.  1.
</event>
<event>
 5   0  0.7084130E-08  0.3299830E+04  0.7818609E-02  0.8162939E-01
       -2   -1    0    0    0  501  0.00000000000E+00  0.00000000000E+00  0.18005221414E+04  0.18005221414E+04  0.25500000920E-02 0. -1.
        2   -1    0    0  501    0  0.00000000000E+00  0.00000000000E+00 -0.15119055206E+04  0.15119055206E+04  0.25500000920E-02 0.  1.
    10030    2    1    2    0    0  0.00000000000E+00  0.00000000000E+00  0.28861662082E+03  0.33124276621E+04  0.32998299142E+04 0.  0.
        3    1    3    3  502    0 -0.12416694638E+04 -0.45152624114E+02  0.12340112731E+04  0.17511612288E+04  0.10100000352E+00 0. -1.
       -3    1    3    3    0  502  0.12416694638E+04  0.45152624114E+02 -0.94539465230E+03  0.15612664333E+04  0.10100000352E+00 0.  1.
</event>
<event>
 5   0  0.2383270E-08  0.3294344E+04  0.7818609E-02  0.8164336E-01
       -1   -1    0    0    0  501  0.00000000000E+00  0.00000000000E+00  0.94427204152E+03  0.94427204153E+03  0.50400001928E-02 0.  1.
        1   -1    0    0  501    0  0.00000000000E+00  0.00000000000E+00 -0.28732984347E+04  0.28732984347E+04  0.50400001928E-02 0. -1.
    10030    2    1    2    0    0  0.00000000000E+00  0.00000000000E+00 -0.19290263932E+04  0.38175704762E+04  0.32943438672E+04 0.  0.
        5    1    3    3  502    0 -0.84204760966E+03  0.10279745274E+04 -0.20924367432E+04  0.24787273792E+04  0.46999998093E+01 0. -1.
       -5    1    3    3    0  502  0.84204760966E+03 -0.10279745274E+04  0.16341035004E+03  0.13388430970E+04  0.46999998093E+01 0.  1.
</event>
<event>
 5   0  0.7084130E-08  0.3300222E+04  0.7818609E-02  0.8162839E-01
        2   -1    0    0  501    0  0.00000000000E+00  0.00000000000E+00  0.26921394539E+04  0.26921394539E+04  0.25500000920E-02 0. -1.
       -2   -1    0    0    0  501  0.00000000000E+00  0.00000000000E+00 -0.10114135095E+04  0.10114135095E+04  0.25500000920E-02 0.  1.
    10030    2    1    2    0    0  0.00000000000E+00  0.00000000000E+00  0.16807259444E+04  0.37035529634E+04  0.33002219398E+04 0.  0.
        3    1    3    3  502    0  0.30311407803E+03 -0.59193218597E+03 -0.85436651655E+03  0.10826837081E+04  0.10100000352E+00 0.  1.
       -3    1    3    3    0  502 -0.30311407803E+03  0.59193218597E+03  0.25350924610E+04  0.26208692552E+04  0.10100000352E+00 0. -1.
</event>
<event>
 5   0  0.2309822E-08  0.3300635E+04  0.7818609E-02  0.8162734E-01
        1   -1    0    0  501    0  0.00000000000E+00  0.00000000000E+00  0.19311588043E+04  0.19311588043E+04  0.50400001928E-02 0.  1.
       -1   -1    0    0    0  501  0.00000000000E+00  0.00000000000E+00 -0.14103181343E+04  0.14103181343E+04  0.50400001928E-02 0. -1.
    10030    2    1    2    0    0  0.00000000000E+00  0.00000000000E+00  0.52084066996E+03  0.33414769386E+04  0.33006352612E+04 0.  0.
        4    1    3    3  502    0 -0.43837969427E+03 -0.12069745418E+04  0.13098680066E+04  0.18343173413E+04  0.12699999809E+01 0.  1.
       -4    1    3    3    0  502  0.43837969427E+03  0.12069745418E+04 -0.78902733666E+03  0.15071595973E+04  0.12699999809E+01 0. -1.
</event>
<event>
 5   0  0.2383270E-08  0.3298262E+04  0.7818609E-02  0.8163338E-01
        1   -1    0    0  501    0  0.00000000000E+00  0.00000000000E+00  0.20391876949E+04  0.20391876949E+04  0.50400001928E-02 0.  1.
       -1   -1    0    0    0  501  0.00000000000E+00  0.00000000000E+00 -0.13336844673E+04  0.13336844673E+04  0.50400001928E-02 0. -1.
    10030    2    1    2    0    0  0.00000000000E+00  0.00000000000E+00  0.70550322758E+03  0.33728721621E+04  0.32982619390E+04 0.  0.
        5    1    3    3  502    0  0.11312145701E+04 -0.10081682598E+03  0.15755432210E+04  0.19422072411E+04  0.46999998093E+01 0.  1.
       -5    1    3    3    0  502 -0.11312145701E+04  0.10081682598E+03 -0.87003999345E+03  0.14306649210E+04  0.46999998093E+01 0. -1.
</event>
<event>
 5   0  0.6821287E-08  0.3299386E+04  0.7818609E-02  0.8163052E-01
        2   -1    0    0  501    0  0.00000000000E+00  0.00000000000E+00  0.20473181391E+04  0.20473181391E+04  0.25500000920E-02 0.  1.
       -2   -1    0    0    0  501  0.00000000000E+00  0.00000000000E+00 -0.13292936249E+04  0.13292936249E+04  0.25500000920E-02 0. -1.
    10030    2    1    2    0    0  0.00000000000E+00  0.00000000000E+00  0.71802451412E+03  0.33766117640E+04  0.32993859735E+04 0.  0.
        5    1    3    3  502    0  0.12386906648E+04  0.78717278519E+03 -0.41192528074E+03  0.15243687493E+04  0.46999998093E+01 0. -1.
       -5    1    3    3    0  502 -0.12386906648E+04 -0.78717278519E+03  0.11299497949E+04  0.18522430147E+04  0.46999998093E+01 0.  1.
</event>
<event>
 5   0  0.2244093E-08  0.3297852E+04  0.7818609E-02  0.8163442E-01
        1   -1    0    0  501    0  0.00000000000E+00  0.00000000000E+00  0.21899211427E+04  0.21899211427E+04  0.50400001928E-02 0. -1.
       -1   -1    0    0    0  501  0.00000000000E+00  0.00000000000E+00 -0.12415776319E+04  0.12415776319E+04  0.50400001928E-02 0.  1.
    10030    2    1    2    0    0  0.00000000000E+00  0.00000000000E+00  0.94834351080E+03  0.34314987746E+04  0.32978520927E+04 0.  0.
        1    1    3    3  502    0  0.11177881458E+04 -0.14518877305E+03 -0.77810690038E+03  0.13696643629E+04  0.50400001928E-02 0.  1.
       -1    1    3    3    0  502 -0.11177881458E+04  0.14518877305E+03  0.17264504112E+04  0.20618344116E+04  0.50400001928E-02 0. -1.
</event>
<event>
 5   0  0.6821287E-08  0.3294381E+04  0.7818609E-02  0.8164327E-01
        2   -1    0    0  501    0  0.00000000000E+00  0.00000000000E+00  0.10423140268E+04  0.10423140268E+04  0.25500000920E-02 0.  1.
       -2   -1    0    0    0  501  0.00000000000E+00  0.00000000000E+00 -0.26030889133E+04  0.26030889133E+04  0.25500000920E-02 0. -1.
    10030    2    1    2    0    0  0.00000000000E+00  0.00000000000E+00 -0.15607748865E+04  0.36454029400E+04  0.32943807231E+04 0.  0.
        5    1    3    3  502    0 -0.71087584512E+03  0.14494960796E+04 -0.11420634321E+04  0.19775526098E+04  0.46999998093E+01 0. -1.
       -5    1    3    3    0  502  0.71087584512E+03 -0.14494960796E+04 -0.41871145445E+03  0.16678503302E+04  0.46999998093E+01 0.  1.
</event>
<event>
 5   0  0.2291682E-08  0.3299470E+04  0.7818609E-02  0.8163030E-01
       -1   -1    0    0    0  501  0.00000000000E+00  0.00000000000E+00  0.15053783372E+04  0.15053783372E+04  0.50400001928E-02 0. -1.
        1   -1    0    0  501    0  0.00000000000E+00  0.00000000000E+00 -0.18079348641E+04  0.18079348641E+04  0.50400001928E-02 0.  1.
    10030    2    1    2    0    0  0.00000000000E+00  0.00000000000E+00 -0.30255652687E+03  0.33133132013E+04  0.32994702480E+04 0.  0.
        2    1    3    3  502    0  0.64824084839E+03  0.57138765044E+03  0.12599383509E+04  0.15277907882E+04  0.25500000920E-02 0. -1.
       -2    1    3    3    0  502 -0.64824084839E+03 -0.57138765044E+03 -0.15624948777E+04  0.17855224131E+04  0.25500000920E-02 0.  1.
</event>
<event>
 5   0  0.2279938E-08  0.3297248E+04  0.7818609E-02  0.8163596E-01
        1   -1    0    0  501    0  0.00000000000E+00  0.00000000000E+00  0.12440246165E+04  0.12440246165E+04  0.50400001928E-02 0. -1.
       -1   -1    0    0    0  501  0.00000000000E+00  0.00000000000E+00 -0.21848122986E+04  0.21848122986E+04  0.50400001928E-02 0.  1.
    10030    2    1    2    0    0  0.00000000000E+00  0.00000000000E+00 -0.94078768209E+03  0.34288369152E+04  0.32972475078E+04 0.  0.
        3    1    3    3  502    0  0.81991193756E+03 -0.39219113652E+03 -0.19007471112E+04  0.21068718670E+04  0.10100000352E+00 0.  1.
       -3    1    3    3    0  502 -0.81991193756E+03  0.39219113652E+03  0.95995942910E+03  0.13219650482E+04  0.10100000352E+00 0. -1.
</event>
<event>
 5   0  0.2383270E-08  0.3295728E+04  0.7818609E-02  0.8163983E-01
       -1   -1    0    0    0  501  0.00000000000E+00  0.00000000000E+00  0.12505061910E+04  0.12505061910E+04  0.50400001928E-02 0. -1.
        1   -1    0    0  501    0  0.00000000000E+00  0.00000000000E+00 -0.21714856133E+04  0.21714856133E+04  0.50400001928E-02 0.  1.
    10030    2    1    2    0    0  0.00000000000E+00  0.00000000000E+00 -0.92097942229E+03  0.34219918043E+04  0.32957282674E+04 0.  0.
        5    1    3    3  502    0 -0.14104139603E+04  0.42636303546E+03 -0.12265784912E+04  0.19171775772E+04  0.46999998093E+01 0.  1.
       -5    1    3    3    0  502  0.14104139603E+04 -0.42636303546E+03  0.30559906895E+03  0.15048142271E+04  0.46999998093E+01 0. -1.
</event>
<event>
 5   0  0.6765252E-08  0.3300195E+04  0.7818609E-02  0.8162846E-01
       -2   -1    0    0    0  501  0.00000000000E+00  0.00000000000E+00  0.20868745154E+04  0.20868745154E+04  0.25500000920E-02 0.  1.
        2   -1    0    0  501    0  0.00000000000E+00  0.00000000000E+00 -0.13047370304E+04  0.13047370304E+04  0.25500000920E-02 0. -1.
    10030    2    1    2    0    0  0.00000000000E+00  0.00000000000E+00  0.78213748491E+03  0.33916115458E+04  0.33001954233E+04 0.  0.
        2    1    3    3  502    0  0.45529780811E+03 -0.11635446553E+04 -0.71660436030E+03  0.14403659494E+04  0.25500000920E-02 0. -1.
       -2    1    3    3    0  502 -0.45529780811E+03  0.11635446553E+04  0.14987418452E+04  0.19512455964E+04  0.25500000920E-02 0.  1.
</event>
<event>
 5   0  0.6603516E-08  0.3298746E+04  0.7818609E-02  0.8163215E-01
        2   -1    0    0  501    0  0.00000000000E+00  0.00000000000E+00  0.25066489472E+04  0.25066489472E+04  0.25500000920E-02 0. -1.
       -2   -1    0    0    0  501  0.00000000000E+00  0.00000000000E+00 -0.10852858341E+04  0.10852858341E+04  0.25500000920E-02 0.  1.
    10030    2    1    2    0    0  0.00000000000E+00  0.00000000000E+00  0.14213631131E+04  0.35919347813E+04  0.32987455757E+04 0.  0.
        1    1    3    3  502    0 -0.13611271245E+04 -0.72525061683E+03  0.13472569147E+04  0.20478663776E+04  0.50400001928E-02 0. -1.
       -1    1    3    3    0  502  0.13611271245E+04  0.72525061683E+03  0.74106198381E+02  0.15440684036E+04  0.50400001928E-02 0.  1.
</event>
<event>
 5   0  0.2244093E-08  0.3299143E+04  0.7818609E-02  0.8163114E-01
       -1   -1    0    0    0  501  0.00000000000E+00  0.00000000000E+00  0.12188869886E+04  0.12188869886E+04  0.50400001928E-02 0. -1.
        1   -1    0    0  501    0  0.00000000000E+00  0.00000000000E+00 -0.22324347878E+04  0.22324347878E+04  0.50400001928E-02 0.  1.
    10030    2    1    2    0    0  0.00000000000E+00  0.00000000000E+00 -0.10135477993E+04  0.34513217764E+04  0.32991427467E+04 0.  0.
        1    1    3    3  502    0 -0.91320801934E+02 -0.59851830610E+03 -0.21119982053E+04  0.21970662418E+04  0.50400001928E-02 0.  1.
       -1    1    3    3    0  502  0.91320801934E+02  0.59851830610E+03  0.10984504060E+04  0.12542555346E+04  0.50400001928E-02 0. -1.
</event>
<event>
 5   0  0.2279938E-08  0.3300183E+04  0.7818609E-02  0.8162849E-01
       -1   -1    0    0    0  501  0.00000000000E+00  0.00000000000E+00  0.12593289595E+04  0.12593289595E+04  0.50400001928E-02 0. -1.
        1   -1    0    0  501    0  0.00000000000E+00  0.00000000000E+00 -0.21621060236E+04  0.21621060236E+04  0.50400001928E-02 0.  1.
    10030    2    1    2    0    0  0.00000000000E+00  0.00000000000E+00 -0.90277706406E+03  0.34214349831E+04  0.33001834671E+04 0.  0.
        3    1    3    3  502    0 -0.53260759337E+03 -0.97479521099E+03 -0.17164274070E+04  0.20445096247E+04  0.10100000352E+00 0.  1.
       -3    1    3    3    0  502  0.53260759337E+03  0.97479521099E+03  0.81365034294E+03  0.13769253584E+04  0.10100000352E+00 0. -1.
</event>
<event>
 5   0  0.2279938E-08  0.3300207E+04  0.7818609E-02  0.8162843E-01
        1   -1    0    0  501    0  0.00000000000E+00  0.00000000000E+00  0.18807640492E+04  0.18807640492E+04  0.50400001928E-02 0. -1.
       -1   -1    0    0    0  501  0.00000000000E+00  0.00000000000E+00 -0.14477319688E+04  0.14477319688E+04  0.50400001928E-02 0.  1.
    10030    2    1    2    0    0  0.00000000000E+00  0.00000000000E+00  0.43303208038E+03  0.33284960180E+04  0.33002074115E+04 0.  0.
        3    1    3    3  502    0 -0.59386784633E+03  0.83243816022E+02  0.17669745176E+04  0.18659602106E+04  0.10100000352E+00 0. -1.
       -3    1    3    3    0  502  0.59386784633E+03 -0.83243816022E+02 -0.13339424372E+04  0.14625358073E+04  0.10100000352E+00 0.  1.
</event>
<event>
 5   0  0.2291682E-08  0.3299516E+04  0.7818609E-02  0.8163019E-01
       -1   -1    0    0    0  501  0.00000000000E+00  0.00000000000E+00  0.94867209737E+03  0.94867209739E+03  0.50400001928E-02 0. -1.
        1   -1    0    0  501    0  0.00000000000E+00  0.00000000000E+00 -0.28689585543E+04  0.28689585543E+04  0.50400001928E-02 0.  1.
    10030    2    1    2    0    0  0.00000000000E+00  0.00000000000E+00 -0.19202864569E+04  0.38176306517E+04  0.32995156790E+04 0.  0.
        2    1    3    3  502    0 -0.10308948272E+04 -0.12200954407E+04 -0.48263428628E+03  0.16686260466E+04  0.25500000920E-02 0.  1.
       -2    1    3    3    0  502  0.10308948272E+04  0.12200954407E+04 -0.14376521707E+04  0.21490046051E+04  0.25500000920E-02 0. -1.
</event>
<event>
 5   0  0.6603516E-08  0.3300877E+04  0.7818609E-02  0.8162672E-01
        2   -1    0    0  501    0  0.00000000000E+00  0.00000000000E+00  0.19537397517E+04  0.19537397517E+04  0.25500000920E-02 0.  1.
       -2   -1    0    0    0  501  0.00000000000E+00  0.00000000000E+00 -0.13942222084E+04  0.13942222084E+04  0.25500000920E-02 0. -1.
    10030    2    1    2    0    0  0.00000000000E+00  0.00000000000E+00  0.55951754327E+03  0.33479619601E+04  0.33008770660E+04 0.  0.
        1    1    3    3  502    0  0.50793709455E+03  0.63609773974E+03 -0.11764532183E+04  0.14306161614E+04  0.50400001928E-02 0. -1.
       -1    1    3    3    0  502 -0.50793709455E+03 -0.63609773974E+03  0.17359707616E+04  0.19173457986E+04  0.50400001928E-02 0.  1.
</event>
<event>
 5   0  0.7084130E-08  0.3300963E+04  0.7818609E-02  0.8162650E-01
       -2   -1    0    0    0  501  0.00000000000E+00  0.00000000000E+00  0.27041552748E+04  0.27041552748E+04  0.25500000920E-02 0. -1.
        2   -1    0    0  501    0  0.00000000000E+00  0.00000000000E+00 -0.10073715701E+04  0.10073715701E+04  0.25500000920E-02 0.  1.
    10030    2    1    2    0    0  0.00000000000E+00  0.00000000000E+00  0.16967837046E+04  0.37115268449E+04  0.33009629777E+04 0.  0.
        3    1    3    3  502    0  0.71629735640E+03  0.11641347056E+04 -0.19176177897E+03  0.13802405970E+04  0.10100000352E+00 0.  1.
       -3    1    3    3    0  502 -0.71629735640E+03 -0.11641347056E+04  0.18885454836E+04  0.23312862479E+04  0.10100000352E+00 0. -1.
</event>
<event>
 5   0  0.2279938E-08  0.3299507E+04  0.7818609E-02  0.8163021E-01
       -1   -1    0    0    0  501  0.00000000000E+00  0.00000000000E+00  0.23050273243E+04  0.23050273243E+04  0.50400001928E-02 0. -1.
        1   -1    0    0  501    0  0.00000000000E+00  0.00000000000E+00 -0.11807608234E+04  0.11807608234E+04  0.50400001928E-02 0.  1.
    10030    2    1    2    0    0  0.00000000000E+00  0.00000000000E+00  0.11242665009E+04  0.34857881477E+04  0.32995066064E+04 0.  0.
        3    1    3    3  502    0  0.18637186069E+03  0.17625541427E+03  0.22838300072E+04  0.22981905825E+04  0.10100000352E+00 0. -1.
       -3    1    3    3    0  502 -0.18637186069E+03 -0.17625541427E+03 -0.11595635063E+04  0.11875975652E+04  0.10100000352E+00 0.  1.
</event>
<event>
 5   0  0.6706080E-08  0.3303726E+04  0.7818609E-02  0.8161948E-01
       -2   -1    0    0    0  501  0.00000000000E+00  0.00000000000E+00  0.12430283135E+04  0.12430283135E+04  0.25500000920E-02 0.  1.
        2   -1    0    0  501    0  0.00000000000E+00  0.00000000000E+00 -0.21951640311E+04  0.21951640311E+04  0.25500000920E-02 0. -1.
    10030    2    1    2    0    0  0.00000000000E+00  0.00000000000E+00 -0.95213571764E+03  0.34381923446E+04  0.33037258018E+04 0.  0.
        4    1    3    3  502    0  0.15352872410E+04 -0.60930712065E+03 -0.49370922874E+03  0.17239815820E+04  0.12699999809E+01 0. -1.
       -4    1    3    3    0  502 -0.15352872410E+04  0.60930712065E+03 -0.45842648891E+03  0.17142107625E+04  0.12699999809E+01 0.  1.
</event>
<event>
 5   0  0.2279938E-08  0.3300168E+04  0.7818609E-02  0.8162853E-01
       -1   -1    0    0    0  501  0.00000000000E+00  0.00000000000E+00  0.12149879403E+04  0.12149879403E+04  0.50400001928E-02 0. -1.
        1   -1    0    0  501    0  0.00000000000E+00  0.00000000000E+00 -0.22409906279E+04  0.22409906279E+04  0.50400001928E-02 0.  1.
    10030    2    1    2    0    0  0.00000000000E+00  0.00000000000E+00 -0.10260026875E+04  0.34559785682E+04  0.33001676244E+04 0.  0.
        3    1    3    3  502    0  0.13989585660E+04  0.59045063131E+03  0.16329039339E+03  0.15272134036E+04  0.10100000352E+00 0. -1.
       -3    1    3    3    0  502 -0.13989585660E+04 -0.59045063131E+03 -0.11892930809E+04  0.19287651646E+04  0.10100000352E+00 0.  1.
</event>
<event>
 5   0  0.2279938E-08  0.3300426E+04  0.7818609E-02  0.8162787E-01
        1   -1    0    0  501    0  0.00000000000E+00  0.00000000000E+00  0.79985796942E+03  0.79985796944E+03  0.50400001928E-02 0.  1.
       -1   -1    0    0    0  501  0.00000000000E+00  0.00000000000E+00 -0.34046089871E+04  0.34046089872E+04  0.50400001928E-02 0. -1.
    10030    2    1    2    0    0  0.00000000000E+00  0.00000000000E+00 -0.26047510177E+04  0.42044669566E+04  0.33004264156E+04 0.  0.
        3    1    3    3  502    0  0.43552727396E+03  0.48626182952E+03 -0.32331338254E+04  0.32983767092E+04  0.10100000352E+00 0. -1.
       -3    1    3    3    0  502 -0.43552727396E+03 -0.48626182952E+03  0.62838280763E+03  0.90609024735E+03  0.10100000352E+00 0.  1.
</event>
<event>
 5   0  0.7084130E-08  0.3300723E+04  0.7818609E-02  0.8162712E-01
        2   -1    0    0  501    0  0.00000000000E+00  0.00000000000E+00  0.19318360893E+04  0.19318360893E+04  0.25500000920E-02 0.  1.
       -2   -1    0    0    0  501  0.00000000000E+00  0.00000000000E+00 -0.14098983765E+04  0.14098983765E+04  0.25500000920E-02 0. -1.
    10030    2    1    2    0    0  0.00000000000E+00  0.00000000000E+00  0.52193771284E+03  0.33417344658E+04  0.33007226881E+04 0.  0.
        3    1    3    3  502    0  0.51436040273E+02 -0.49330730516E+03  0.18545963126E+04  0.19197721887E+04  0.10100000352E+00 0.  1.
       -3    1    3    3    0  502 -0.51436040273E+02  0.49330730516E+03 -0.13326585998E+04  0.14219622771E+04  0.10100000352E+00 0. -1.
</event>
<event>
 5   0  0.2309822E-08  0.3300094E+04  0.7818609E-02  0.8162872E-01
        1   -1    0    0  501    0  0.00000000000E+00  0.00000000000E+00  0.10594734630E+04  0.10594734630E+04  0.50400001928E-02 0. -1.
       -1   -1    0    0    0  501  0.00000000000E+00  0.00000000000E+00 -0.25698188574E+04  0.25698188574E+04  0.50400001928E-02 0.  1.
    10030    2    1    2    0    0  0.00000000000E+00  0.00000000000E+00 -0.15103453944E+04  0.36292923205E+04  0.33000938679E+04 0.  0.
        4    1    3    3  502    0  0.85906501003E+03  0.12748287421E+04 -0.14145414262E+04  0.20890452538E+04  0.12699999809E+01 0. -1.
       -4    1    3    3    0  502 -0.85906501003E+03 -0.12748287421E+04 -0.95803968229E+02  0.15402470667E+04  0.12699999809E+01 0.  1.
</event>
<event>
 5   0  0.2279938E-08  0.3300779E+04  0.7818609E-02  0.8162697E-01
       -1   -1    0    0    0  501  0.00000000000E+00  0.00000000000E+00  0.11183124081E+04  0.11183124081E+04  0.50400001928E-02 0. -1.
        1   -1    0    0  501    0  0.00000000000E+00  0.00000000000E+00 -0.24356207832E+04  0.24356207832E+04  0.50400001928E-02 0.  1.
    10030    2    1    2    0    0  0.00000000000E+00  0.00000000000E+00 -0.13173083751E+04  0.35539331913E+04  0.33007786616E+04 0.  0.
        3    1    3    3  502    0  0.10865862185E+04 -0.79184456415E+03 -0.16891914684E+04  0.21589477185E+04  0.10100000352E+00 0.  1.
       -3    1    3    3    0  502 -0.10865862185E+04  0.79184456415E+03  0.37188309338E+03  0.13949854728E+04  0.10100000352E+00 0. -1.
</event>
<event>
 5   0  0.6765252E-08  0.3302696E+04  0.7818609E-02  0.8162210E-01
        2   -1    0    0  501    0  0.00000000000E+00  0.00000000000E+00  0.21998884230E+04  0.21998884230E+04  0.25500000920E-02 0. -1.
       -2   -1    0    0    0  501  0.00000000000E+00  0.00000000000E+00 -0.12395854557E+04  0.12395854557E+04  0.25500000920E-02 0.  1.
    10030    2    1    2    0    0  0.00000000000E+00  0.00000000000E+00  0.96030296732E+03  0.34394738788E+04  0.33026956829E+04 0.  0.
        2    1    3    3  502    0 -0.22342375748E+03  0.15358443015E+04 -0.10731482041E+03  0.15557160295E+04  0.25500000920E-02 0.  1.
       -2    1    3    3    0  502  0.22342375748E+03 -0.15358443015E+04  0.10676177877E+04  0.18837578492E+04  0.25500000920E-02 0. -1.
</event>
<event>
 5   0  0.2309822E-08  0.3298968E+04  0.7818609E-02  0.8163158E-01
       -1   -1    0    0    0  501  0.00000000000E+00  0.00000000000E+00  0.93481830747E+03  0.93481830748E+03  0.50400001928E-02 0.  1.
        1   -1    0    0  501    0  0.00000000000E+00  0.00000000000E+00 -0.29105098989E+04  0.29105098989E+04  0.50400001928E-02 0. -1.
    10030    2    1    2    0    0  0.00000000000E+00  0.00000000000E+00 -0.19756915914E+04  0.38453282064E+04  0.32989682857E+04 0.  0.
        4    1    3    3  502    0  0.65720440702E+03  0.97209714155E+03 -0.23391081997E+04  0.26169293586E+04  0.12699999809E+01 0. -1.
       -4    1    3    3    0  502 -0.65720440702E+03 -0.97209714155E+03  0.36341660823E+03  0.12283988478E+04  0.12699999809E+01 0.  1.
</event>
<event>
 5   0  0.6603516E-08  0.3299548E+04  0.7818609E-02  0.8163011E-01
        2   -1    0    0  501    0  0.00000000000E+00  0.00000000000E+00  0.16820892630E+04  0.16820892630E+04  0.25500000920E-02 0. -1.
       -2   -1    0    0    0  501  0.00000000000E+00  0.00000000000E+00 -0.16180791008E+04  0.16180791008E+04  0.25500000920E-02 0.  1.
    10030    2    1    2    0    0  0.00000000000E+00  0.00000000000E+00  0.64010162248E+02  0.33001683638E+04  0.32995475339E+04 0.  0.
        1    1    3    3  502    0 -0.74258459513E+03 -0.47965294465E+02  0.15047022194E+04  0.16786486587E+04  0.50400001928E-02 0. -1.
       -1    1    3    3    0  502  0.74258459513E+03  0.47965294465E+02 -0.14406920571E+04  0.16215197051E+04  0.50400001928E-02 0.  1.
</event>
<event>
 5   0  0.2291682E-08  0.3300468E+04  0.7818609E-02  0.8162776E-01
        1   -1    0    0  501    0  0.00000000000E+00  0.00000000000E+00  0.12258121666E+04  0.12258121667E+04  0.50400001928E-02 0. -1.
       -1   -1    0    0    0  501  0.00000000000E+00  0.00000000000E+00 -0.22216059971E+04  0.22216059971E+04  0.50400001928E-02 0.  1.
    10030    2    1    2    0    0  0.00000000000E+00  0.00000000000E+00 -0.99579383043E+03  0.34474181637E+04  0.33004676400E+04 0.  0.
        2    1    3    3  502    0 -0.15418367840E+04  0.88401659973E+02 -0.11053361068E+04  0.18991691423E+04  0.25500000920E-02 0.  1.
       -2    1    3    3    0  502  0.15418367840E+04 -0.88401659973E+02  0.10954227640E+03  0.15482490214E+04  0.25500000920E-02 0. -1.
</event>
<event>
 5   0  0.2309822E-08  0.3300188E+04  0.7818609E-02  0.8162848E-01
       -1   -1    0    0    0  501  0.00000000000E+00  0.00000000000E+00  0.21208204175E+04  0.21208204175E+04  0.50400001928E-02 0.  1.
        1   -1    0    0  501    0  0.00000000000E+00  0.00000000000E+00 -0.12838475069E+04  0.12838475069E+04  0.50400001928E-02 0. -1.
    10030    2    1    2    0    0  0.00000000000E+00  0.00000000000E+00  0.83697291057E+03  0.34046679244E+04  0.33001878769E+04 0.  0.
        4    1    3    3  502    0  0.63921124383E+03 -0.23656100940E+02 -0.11507401194E+04  0.13165694287E+04  0.12699999809E+01 0. -1.
       -4    1    3    3    0  502 -0.63921124383E+03  0.23656100940E+02  0.19877130300E+04  0.20880984957E+04  0.12699999809E+01 0.  1.
</event>
<event>
 5   0  0.7084130E-08  0.3297731E+04  0.7818609E-02  0.8163473E-01
        2   -1    0    0  501    0  0.00000000000E+00  0.00000000000E+00  0.19885136119E+04  0.19885136119E+04  0.25500000920E-02 0. -1.
       -2   -1    0    0    0  501  0.00000000000E+00  0.00000000000E+00 -0.13672312265E+04  0.13672312265E+04  0.25500000920E-02 0.  1.
    10030    2    1    2    0    0  0.00000000000E+00  0.00000000000E+00  0.62128238534E+03  0.33557448384E+04  0.32977312835E+04 0.  0.
        3    1    3    3  502    0  0.61716485354E+03 -0.12318898249E+04  0.12322856944E+04  0.18485056235E+04  0.10100000352E+00 0. -1.
       -3    1    3    3    0  502 -0.61716485354E+03  0.12318898249E+04 -0.61100330907E+03  0.15072392149E+04  0.10100000352E+00 0.  1.
</event>
<event>
 5   0  0.2279938E-08  0.3291589E+04  0.7818609E-02  0.8165039E-01
       -1   -1    0    0    0  501  0.00000000000E+00  0.00000000000E+00  0.17692509822E+04  0.17692509822E+04  0.50400001928E-02 0. -1.
        1   -1    0    0  501    0  0.00000000000E+00  0.00000000000E+00 -0.15309526661E+04  0.15309526661E+04  0.50400001928E-02 0.  1.
    10030    2    1    2    0    0  0.00000000000E+00  0.00000000000E+00  0.23829831611E+03  0.33002036483E+04  0.32915889829E+04 0.  0.
        3    1    3    3  502    0  0.21901028336E+03 -0.12935066190E+04 -0.87718932967E+03  0.15781590566E+04  0.10100000352E+00 0.  1.
       -3    1    3    3    0  502 -0.21901028336E+03  0.12935066190E+04  0.11154876458E+04  0.17220445917E+04  0.10100000352E+00 0. -1.
</event>
<event>
 5   0  0.6765252E-08  0.3300452E+04  0.7818609E-02  0.8162780E-01
        2   -1    0    0  501    0  0.00000000000E+00  0.00000000000E+00  0.16500806297E+04  0.16500806297E+04  0.25500000920E-02 0.  1.
       -2   -1    0    0    0  501  0.00000000000E+00  0.00000000000E+00 -0.16503709720E+04  0.16503709720E+04  0.25500000920E-02 0. -1.
    10030    2    1    2    0    0  0.00000000000E+00  0.00000000000E+00 -0.29034233480E+00  0.33004516017E+04  0.33004515889E+04 0.  0.
        2    1    3    3  502    0 -0.14872207012E+03 -0.56161019599E+03  0.15444327404E+04  0.16500899236E+04  0.25500000920E-02 0.  1.
       -2    1    3    3    0  502  0.14872207012E+03  0.56161019599E+03 -0.15447230827E+04  0.16503616781E+04  0.25500000920E-02 0. -1.
</event>
<event>
 5   0  0.7084130E-08  0.3299266E+04  0.7818609E-02  0.8163082E-01
       -2   -1    0    0    0  501  0.00000000000E+00  0.00000000000E+00  0.12973363780E+04  0.12973363780E+04  0.25500000920E-02 0.  1.
        2   -1    0    0  501    0  0.00000000000E+00  0.00000000000E+00 -0.20975969517E+04  0.20975969517E+04  0.25500000920E-02 0. -1.
    10030    2    1    2    0    0  0.00000000000E+00  0.00000000000E+00 -0.80026057375E+03  0.33949333297E+04  0.32992658770E+04 0.  0.
        3    1    3    3  502    0 -0.12877265107E+04 -0.58165991804E+03 -0.12761207056E+04  0.19039569040E+04  0.10100000352E+00 0. -1.
       -3    1    3    3    0  502  0.12877265107E+04  0.58165991804E+03  0.47586013185E+03  0.14909764257E+04  0.10100000352E+00 0.  1.
</event>
<event>
 5   0  0.6765252E-08  0.3299717E+04  0.7818609E-02  0.8162967E-01
        2   -1    0    0  501    0  0.00000000000E+00  0.00000000000E+00  0.19045889867E+04  0.19045889867E+04  0.25500000920E-02 0. -1.
       -2   -1    0    0    0  501  0.00000000000E+00  0.00000000000E+00 -0.14291972942E+04  0.14291972942E+04  0.25500000920E-02 0.  1.
    10030    2    1    2    0    0  0.00000000000E+00  0.00000000000E+00  0.47539169243E+03  0.33337862809E+04  0.32997172160E+04 0.  0.
        2    1    3    3  502    0  0.68197127179E+03  0.50819562391E+03  0.16660414351E+04  0.18705725517E+04  0.25500000920E-02 0. -1.
       -2    1    3    3    0  502 -0.68197127179E+03 -0.50819562391E+03 -0.11906497426E+04  0.14632137292E+04  0.25500000920E-02 0.  1.
</event>
<event>
 5   0  0.6765252E-08  0.3300920E+04  0.7818609E-02  0.8162661E-01
        2   -1    0    0  501    0  0.00000000000E+00  0.00000000000E+00  0.16173524506E+04  0.16173524506E+04  0.25500000920E-02 0.  1.
       -2   -1    0    0    0  501  0.00000000000E+00  0.00000000000E+00 -0.16842448141E+04  0.16842448141E+04  0.25500000920E-02 0. -1.
    10030    2    1    2    0    0  0.00000000000E+00  0.00000000000E+00 -0.66892363481E+02  0.33015972647E+04  0.33009195552E+04 0.  0.
        2    1    3    3  502    0 -0.15712254676E+04 -0.30805150033E+03  0.36710111774E+03  0.16426833011E+04  0.25500000920E-02 0. -1.
       -2    1    3    3    0  502  0.15712254676E+04  0.30805150033E+03 -0.43399348122E+03  0.16589139636E+04  0.25500000920E-02 0.  1.
</event>
<event>
 5   0  0.2383270E-08  0.3297866E+04  0.7818609E-02  0.8163438E-01
       -1   -1    0    0    0  501  0.00000000000E+00  0.00000000000E+00  0.12567850060E+04  0.12567850060E+04  0.50400001928E-02 0.  1.
        1   -1    0    0  501    0  0.00000000000E+00  0.00000000000E+00 -0.21634414001E+04  0.21634414001E+04  0.50400001928E-02 0. -1.
    10030    2    1    2    0    0  0.00000000000E+00  0.00000000000E+00 -0.90665639409E+03  0.34202264061E+04  0.32978664091E+04 0.  0.
        5    1    3    3  502    0  0.29477062831E+03 -0.47111868730E+02  0.12285217029E+04  0.12642772306E+04  0.46999998093E+01 0.  1.
       -5    1    3    3    0  502 -0.29477062831E+03  0.47111868730E+02 -0.21351780970E+04  0.21559491755E+04  0.46999998093E+01 0. -1.
</event>
<event>
 5   0  0.2309822E-08  0.3299042E+04  0.7818609E-02  0.8163139E-01
        1   -1    0    0  501    0  0.00000000000E+00  0.00000000000E+00  0.26132766900E+04  0.26132766900E+04  0.50400001928E-02 0. -1.
       -1   -1    0    0    0  501  0.00000000000E+00  0.00000000000E+00 -0.10411908333E+04  0.10411908333E+04  0.50400001928E-02 0.  1.
    10030    2    1    2    0    0  0.00000000000E+00  0.00000000000E+00  0.15720858567E+04  0.36544675234E+04  0.32990421244E+04 0.  0.
        4    1    3    3  502    0  0.41205239535E+03 -0.14826874272E+04  0.14439755419E+04  0.21102644768E+04  0.12699999809E+01 0. -1.
       -4    1    3    3    0  502 -0.41205239535E+03  0.14826874272E+04  0.12811031478E+03  0.15442030466E+04  0.12699999809E+01 0.  1.
</event>
<event>
 5   0  0.6765252E-08  0.3300078E+04  0.7818609E-02  0.8162876E-01
       -2   -1    0    0    0  501  0.00000000000E+00  0.00000000000E+00  0.20380436484E+04  0.20380436484E+04  0.25500000920E-02 0.  1.
        2   -1    0    0  501    0  0.00000000000E+00  0.00000000000E+00 -0.13359027767E+04  0.13359027767E+04  0.25500000920E-02 0. -1.
    10030    2    1    2    0    0  0.00000000000E+00  0.00000000000E+00  0.70214087167E+03  0.33739464251E+04  0.33000776772E+04 0.  0.
        2    1    3    3  502    0  0.15842013999E+04  0.32834550127E+03  0.68255519466E+03  0.17559574133E+04  0.25500000920E-02 0.  1.
       -2    1    3    3    0  502 -0.15842013999E+04 -0.32834550127E+03  0.19585677010E+02  0.16179890118E+04  0.25500000920E-02 0. -1.
</event>
<event>
 5   0  0.6765252E-08  0.3301428E+04  0.7818609E-02  0.8162532E-01
        2   -1    0    0  501    0  0.00000000000E+00  0.00000000000E+00  0.19297654068E+04  0.19297654068E+04  0.25500000920E-02 0. -1.
       -2   -1    0    0    0  501  0.00000000000E+00  0.00000000000E+00 -0.14120145817E+04  0.14120145817E+04  0.25500000920E-02 0.  1.
    10030    2    1    2    0    0  0.00000000000E+00  0.00000000000E+00  0.51775082507E+03  0.33417799884E+04  0.33014281113E+04 0.  0.
        2    1    3    3  502    0  0.15892512708E+04 -0.25769747121E+03 -0.10989784476E+03  0.16137549767E+04  0.25500000920E-02 0.  1.
       -2    1    3    3    0  502 -0.15892512708E+04  0.25769747121E+03  0.62764866983E+03  0.17280250118E+04  0.25500000920E-02 0. -1.
</event>
<event>
 5   0  0.7084130E-08  0.3300294E+04  0.7818609E-02  0.8162821E-01
       -2   -1    0    0    0  501  0.00000000000E+00  0.00000000000E+00  0.17698784639E+04  0.17698784639E+04  0.25500000920E-02 0. -1.
        2   -1    0    0  501    0  0.00000000000E+00  0.00000000000E+00 -0.15385151810E+04  0.15385151810E+04  0.25500000920E-02 0.  1.
    10030    2    1    2    0    0  0.00000000000E+00  0.00000000000E+00  0.23136328288E+03  0.33083936449E+04  0.33002938567E+04 0.  0.
        3    1    3    3  502    0 -0.53451726247E+02  0.11122787505E+04 -0.11050770845E+04  0.15688264655E+04  0.10100000352E+00 0.  1.
       -3    1    3    3    0  502  0.53451726247E+02 -0.11122787505E+04  0.13364403674E+04  0.17395671794E+04  0.10100000352E+00 0. -1.
</event>
<event>
 5   0  0.2291682E-08  0.3300311E+04  0.7818609E-02  0.8162816E-01
        1   -1    0    0  501    0  0.00000000000E+00  0.00000000000E+00  0.11081483585E+04  0.11081483585E+04  0.50400001928E-02 0.  1.
       -1   -1    0    0    0  501  0.00000000000E+00  0.00000000000E+00 -0.24572637589E+04  0.24572637589E+04  0.50400001928E-02 0. -1.
    10030    2    1    2    0    0  0.00000000000E+00  0.00000000000E+00 -0.13491154004E+04  0.35654121174E+04  0.33003107737E+04 0.  0.
        2    1    3    3  502    0  0.87888174049E+03  0.13891958363E+04 -0.51907096747E+03  0.17238714727E+04  0.25500000920E-02 0.  1.
       -2    1    3    3    0  502 -0.87888174049E+03 -0.13891958363E+04 -0.83004443295E+03  0.18415406446E+04  0.25500000920E-02 0. -1.
</event>
<event>
 5   0  0.2244093E-08  0.3300234E+04  0.7818609E-02  0.8162836E-01
        1   -1    0    0  501    0  0.00000000000E+00  0.00000000000E+00  0.24456635060E+04  0.24456635060E+04  0.50400001928E-02 0. -1.
       -1   -1    0    0    0  501  0.00000000000E+00  0.00000000000E+00 -0.11133525934E+04  0.11133525934E+04  0.50400001928E-02 0.  1.
    10030    2    1    2    0    0  0.00000000000E+00  0.00000000000E+00  0.13323109126E+04  0.35590160994E+04  0.33002338141E+04 0.  0.
        1    1    3    3  502    0  0.15415289098E+04  0.32331953745E+03  0.11967073043E+04  0.19781191256E+04  0.50400001928E-02 0. -1.
       -1    1    3    3    0  502 -0.15415289098E+04 -0.32331953745E+03  0.13560360834E+03  0.15808969737E+04  0.50400001928E-02 0.  1.
</event>
<event>
 5   0  0.6765252E-08  0.3300352E+04  0.7818609E-02  0.8162806E-01
        2   -1    0    0  501    0  0.00000000000E+00  0.00000000000E+00  0.20604931057E+04  0.20604931057E+04  0.25500000920E-02 0.  1.
       -2   -1    0    0    0  501  0.00000000000E+00  0.00000000000E+00 -0.13215676366E+04  0.13215676366E+04  0.25500000920E-02 0. -1.
    10030    2    1    2    0    0  0.00000000000E+00  0.00000000000E+00  0.73892546912E+03  0.33820607424E+04  0.33003521049E+04 0.  0.
        2    1    3    3  502    0  0.10327445393E+04 -0.10677330536E+04  0.11059104702E+04  0.18519322680E+04  0.25500000920E-02 0. -1.
       -2    1    3    3    0  502 -0.10327445393E+04  0.10677330536E+04 -0.36698500110E+03  0.15301284744E+04  0.25500000920E-02 0.  1.
</event>
<event>
 5   0  0.6821287E-08  0.3298605E+04  0.7818609E-02  0.8163251E-01
       -2   -1    0    0    0  501  0.00000000000E+00  0.00000000000E+00  0.16382381750E+04  0.16382381750E+04  0.25500000920E-02 0. -1.
        2   -1    0    0  501    0  0.00000000000E+00  0.00000000000E+00 -0.16604410907E+04  0.16604410907E+04  0.25500000920E-02 0.  1.
    10030    2    1    2    0    0  0.00000000000E+00  0.00000000000E+00 -0.22202915698E+02  0.32986792657E+04  0.32986045426E+04 0.  0.
        5    1    3    3  502    0  0.37565210381E+03 -0.16052346266E+04  0.36682284232E+02  0.16490180077E+04  0.46999998093E+01 0. -1.
       -5    1    3    3    0  502 -0.37565210381E+03  0.16052346266E+04 -0.58885199930E+02  0.16496612581E+04  0.46999998093E+01 0.  1.
</event>
<event>
 5   0  0.2291682E-08  0.3300776E+04  0.7818609E-02  0.8162698E-01
        1   -1    0    0  501    0  0.00000000000E+00  0.00000000000E+00  0.20379903094E+04  0.20379903094E+04  0.50400001928E-02 0.  1.
       -1   -1    0    0    0  501  0.00000000000E+00  0.00000000000E+00 -0.13365031657E+04  0.13365031657E+04  0.50400001928E-02 0. -1.
    10030    2    1    2    0    0  0.00000000000E+00  0.00000000000E+00  0.70148714372E+03  0.33744934751E+04  0.33007759695E+04 0.  0.
        2    1    3    3  502    0 -0.88428773550E+03 -0.79978149173E+02 -0.10715199324E+04  0.13915876792E+04  0.25500000920E-02 0. -1.
       -2    1    3    3    0  502  0.88428773550E+03  0.79978149173E+02  0.17730070761E+04  0.19829057959E+04  0.25500000920E-02 0.  1.
</event>
<event>
 5   0  0.2383270E-08  0.3299499E+04  0.7818609E-02  0.8163023E-01
        1   -1    0    0  501    0  0.00000000000E+00  0.00000000000E+00  0.20927871240E+04  0.20927871241E+04  0.50400001928E-02 0.  1.
       -1   -1    0    0    0  501  0.00000000000E+00  0.00000000000E+00 -0.13005020794E+04  0.13005020794E+04  0.50400001928E-02 0. -1.
    10030    2    1    2    0    0  0.00000000000E+00  0.00000000000E+00  0.79228504463E+03  0.33932892035E+04  0.32994993600E+04 0.  0.
        5    1    3    3  502    0  0.47929041749E+03 -0.44444521800E+03  0.19539274381E+04  0.20603653510E+04  0.46999998093E+01 0.  1.
       -5    1    3    3    0  502 -0.47929041749E+03  0.44444521800E+03 -0.11616423935E+04  0.13329238525E+04  0.46999998093E+01 0. -1.
</event>
<event>
 5   0  0.6706080E-08  0.3294380E+04  0.7818609E-02  0.8164327E-01
        2   -1    0    0  501    0  0.00000000000E+00  0.00000000000E+00  0.16367178821E+04  0.16367178821E+04  0.25500000920E-02 0. -1.
       -2   -1    0    0    0  501  0.00000000000E+00  0.00000000000E+00 -0.16577290703E+04  0.16577290703E+04  0.25500000920E-02 0.  1.
    10030    2    1    2    0    0  0.00000000000E+00  0.00000000000E+00 -0.21011188171E+02  0.32944469524E+04  0.32943799495E+04 0.  0.
        4    1    3    3  502    0  0.50213734555E+03  0.14959834252E+04 -0.48287616242E+03  0.16502361418E+04  0.12699999809E+01 0.  1.
       -4    1    3    3    0  502 -0.50213734555E+03 -0.14959834252E+04  0.46186497425E+03  0.16442108106E+04  0.12699999809E+01 0. -1.
</event>
<event>
 5   0  0.2279938E-08  0.3302037E+04  0.7818609E-02  0.8162377E-01
        1   -1    0    0  501    0  0.00000000000E+00  0.00000000000E+00  0.19560602417E+04  0.19560602417E+04  0.50400001928E-02 0.  1.
       -1   -1    0    0    0  501  0.00000000000E+00  0.00000000000E+00 -0.13935469011E+04  0.13935469011E+04  0.50400001928E-02 0. -1.
    10030    2    1    2    0    0  0.00000000000E+00  0.00000000000E+00  0.56251334054E+03  0.33496071428E+04  0.33020367582E+04 0.  0.
        3    1    3    3  502    0  0.30554743665E+03  0.13248997403E+04 -0.66879494597E+03  0.15152574857E+04  0.10100000352E+00 0. -1.
       -3    1    3    3    0  502 -0.30554743665E+03 -0.13248997403E+04  0.12313082865E+04  0.18343496571E+04  0.10100000352E+00 0.  1.
</event>
<event>
 5   0  0.2291682E-08  0.3298638E+04  0.7818609E-02  0.8163242E-01
        1   -1    0    0  501    0  0.00000000000E+00  0.00000000000E+00  0.15384483344E+04  0.15384483344E+04  0.50400001928E-02 0. -1.
       -1   -1    0    0    0  501  0.00000000000E+00  0.00000000000E+00 -0.17681794483E+04  0.17681794483E+04  0.50400001928E-02 0.  1.
    10030    2    1    2    0    0  0.00000000000E+00  0.00000000000E+00 -0.22973111392E+03  0.33066277828E+04  0.32986377354E+04 0.  0.
        2    1    3    3  502    0 -0.38587032946E+03  0.26157039523E+03  0.14710341225E+04  0.15431320010E+04  0.25500000920E-02 0. -1.
       -2    1    3    3    0  502  0.38587032946E+03 -0.26157039523E+03 -0.17007652365E+04  0.17634957818E+04  0.25500000920E-02 0.  1.
</event>
<event>
 5   0  0.6765252E-08  0.3299038E+04  0.7818609E-02  0.8163140E-01
       -2   -1    0    0    0  501  0.00000000000E+00  0.00000000000E+00  0.13974887312E+04  0.13974887312E+04  0.25500000920E-02 0. -1.
        2   -1    0    0  501    0  0.00000000000E+00  0.00000000000E+00 -0.19470017748E+04  0.19470017748E+04  0.25500000920E-02 0.  1.
    10030    2    1    2    0    0  0.00000000000E+00  0.00000000000E+00 -0.54951304365E+03  0.33444905060E+04  0.32990380658E+04 0.  0.
        2    1    3    3  502    0  0.33543858745E+03 -0.41736669139E+03  0.13069309843E+04  0.14123677279E+04  0.25500000920E-02 0. -1.
       -2    1    3    3    0  502 -0.33543858745E+03  0.41736669139E+03 -0.18564440279E+04  0.19321227782E+04  0.25500000920E-02 0.  1.
</event>
<event>
 5   0  0.7084130E-08  0.3299817E+04  0.7818609E-02  0.8162942E-01
       -2   -1    0    0    0  501  0.00000000000E+00  0.00000000000E+00  0.11606846683E+04  0.11606846683E+04  0.25500000920E-02 0. -1.
        2   -1    0    0  501    0  0.00000000000E+00  0.00000000000E+00 -0.23453376338E+04  0.23453376338E+04  0.25500000920E-02 0.  1.
    10030    2    1    2    0    0  0.00000000000E+00  0.00000000000E+00 -0.11846529654E+04  0.35060223021E+04  0.32998166213E+04 0.  0.
        3    1    3    3  502    0 -0.56691425270E+03 -0.20719264374E+03  0.10391673218E+04  0.12017442716E+04  0.10100000352E+00 0. -1.
       -3    1    3    3    0  502  0.56691425270E+03  0.20719264374E+03 -0.22238202872E+04  0.23042780305E+04  0.10100000352E+00 0.  1.
</event>
<event>
 5   0  0.2309822E-08  0.3301569E+04  0.7818609E-02  0.8162496E-01
       -1   -1    0    0    0  501  0.00000000000E+00  0.00000000000E+00  0.14313049256E+04  0.14313049256E+04  0.50400001928E-02 0. -1.
        1   -1    0    0  501    0  0.00000000000E+00  0.00000000000E+00 -0.19039196449E+04  0.19039196449E+04  0.50400001928E-02 0.  1.
    10030    2    1    2    0    0  0.00000000000E+00  0.00000000000E+00 -0.47261471934E+03  0.33352245705E+04  0.33015690607E+04 0.  0.
        4    1    3    3  502    0  0.16204090594E+04  0.17873293064E+03  0.25987221331E+02  0.16304440895E+04  0.12699999809E+01 0. -1.
       -4    1    3    3    0  502 -0.16204090594E+04 -0.17873293064E+03 -0.49860194067E+03  0.17047804810E+04  0.12699999809E+01 0.  1.
</event>
<event>
 5   0  0.7084130E-08  0.3298215E+04  0.7818609E-02  0.8163350E-01
        2   -1    0    0  501    0  0.00000000000E+00  0.00000000000E+00  0.16419177300E+04  0.16419177300E+04  0.25500000920E-02 0. -1.
       -2   -1    0    0    0  501  0.00000000000E+00  0.00000000000E+00 -0.16563283081E+04  0.16563283081E+04  0.25500000920E-02 0.  1.
    10030    2    1    2    0    0  0.00000000000E+00  0.00000000000E+00 -0.14410578046E+02  0.32982460381E+04  0.32982145569E+04 0.  0.
        3    1    3    3  502    0 -0.33081830641E+03  0.24015959121E+03 -0.16048554855E+04  0.16561034149E+04  0.10100000352E+00 0.  1.
       -3    1    3    3    0  502  0.33081830641E+03 -0.24015959121E+03  0.15904449075E+04  0.16421426232E+04  0.10100000352E+00 0. -1.
</event>
<event>
 5   0  0.2279938E-08  0.3300326E+04  0.7818609E-02  0.8162812E-01
        1   -1    0    0  501    0  0.00000000000E+00  0.00000000000E+00  0.16268357511E+04  0.16268357511E+04  0.50400001928E-02 0. -1.
       -1   -1    0    0    0  501  0.00000000000E+00  0.00000000000E+00 -0.16738245761E+04  0.16738245762E+04  0.50400001928E-02 0.  1.
    10030    2    1    2    0    0  0.00000000000E+00  0.00000000000E+00 -0.46988825088E+02  0.33006603272E+04  0.33003258394E+04 0.  0.
        3    1    3    3  502    0 -0.10433086206E+04  0.61413104147E+03 -0.11449411223E+04  0.16662952912E+04  0.10100000352E+00 0.  1.
       -3    1    3    3    0  502  0.10433086206E+04 -0.61413104147E+03  0.10979522972E+04  0.16343650360E+04  0.10100000352E+00 0. -1.
</event>
<event>
 5   0  0.6765252E-08  0.3299291E+04  0.7818609E-02  0.8163076E-01
       -2   -1    0    0    0  501  0.00000000000E+00  0.00000000000E+00  0.15219909342E+04  0.15219909342E+04  0.25500000920E-02 0.  1.
        2   -1    0    0  501    0  0.00000000000E+00  0.00000000000E+00 -0.17880065504E+04  0.17880065504E+04  0.25500000920E-02 0. -1.
    10030    2    1    2    0    0  0.00000000000E+00  0.00000000000E+00 -0.26601561618E+03  0.33099974845E+04  0.32992906874E+04 0.  0.
        2    1    3    3  502    0  0.49182663299E+03 -0.70669015427E+03 -0.15447079477E+04  0.17684532945E+04  0.25500000920E-02 0. -1.
       -2    1    3    3    0  502 -0.49182663299E+03  0.70669015427E+03  0.12786923316E+04  0.15415441900E+04  0.25500000920E-02 0.  1.
</event>
<event>
 5   0  0.7084130E-08  0.3302502E+04  0.7818609E-02  0.8162259E-01
        2   -1    0    0  501    0  0.00000000000E+00  0.00000000000E+00  0.22054429138E+04  0.22054429138E+04  0.25500000920E-02 0. -1.
       -2   -1    0    0    0  501  0.00000000000E+00  0.00000000000E+00 -0.12363183991E+04  0.12363183991E+04  0.25500000920E-02 0.  1.
    10030    2    1    2    0    0  0.00000000000E+00  0.00000000000E+00  0.96912451468E+03  0.34417613129E+04  0.33025018714E+04 0.  0.
        3    1    3    3  502    0 -0.72262296722E+03 -0.13042471003E+04  0.12239766394E+04  0.19290835326E+04  0.10100000352E+00 0. -1.
       -3    1    3    3    0  502  0.72262296722E+03  0.13042471003E+04 -0.25485212477E+03  0.15126777804E+04  0.10100000352E+00 0.  1.
</event>
<event>
 5   0  0.6603516E-08  0.3297754E+04  0.7818609E-02  0.8163467E-01
        2   -1    0    0  501    0  0.00000000000E+00  0.00000000000E+00  0.32490295145E+04  0.32490295145E+04  0.25500000920E-02 0. -1.
       -2   -1    0    0    0  501  0.00000000000E+00  0.00000000000E+00 -0.83680252645E+03  0.83680252646E+03  0.25500000920E-02 0.  1.
    10030    2    1    2    0    0  0.00000000000E+00  0.00000000000E+00  0.24122269880E+04  0.40858320409E+04  0.32977544519E+04 0.  0.
        1    1    3    3  502    0 -0.13184121079E+04 -0.63147014194E+03  0.26105072862E+03  0.14849621239E+04  0.50400001928E-02 0.  1.
       -1    1    3    3    0  502  0.13184121079E+04  0.63147014194E+03  0.21511762594E+04  0.26008699170E+04  0.50400001928E-02 0. -1.
</event>
<event>
 5   0  0.2244093E-08  0.3299736E+04  0.7818609E-02  0.8162963E-01
       -1   -1    0    0    0  501  0.00000000000E+00  0.00000000000E+00  0.15753094163E+04  0.15753094163E+04  0.50400001928E-02 0.  1.
        1   -1    0    0  501    0  0.00000000000E+00  0.00000000000E+00 -0.17279549855E+04  0.17279549855E+04  0.50400001928E-02 0. -1.
    10030    2    1    2    0    0  0.00000000000E+00  0.00000000000E+00 -0.15264556923E+03  0.33032644018E+04  0.32997356012E+04 0.  0.
        1    1    3    3  502    0  0.30393130566E+03  0.17281165533E+02 -0.16995965543E+04  0.17266445276E+04  0.50400001928E-02 0. -1.
       -1    1    3    3    0  502 -0.30393130566E+03 -0.17281165533E+02  0.15469509851E+04  0.15766198741E+04  0.50400001928E-02 0.  1.
</event>
<event>
 5   0  0.7084130E-08  0.3298210E+04  0.7818609E-02  0.8163351E-01
        2   -1    0    0  501    0  0.00000000000E+00  0.00000000000E+00  0.24404054762E+04  0.24404054762E+04  0.25500000920E-02 0.  1.
       -2   -1    0    0    0  501  0.00000000000E+00  0.00000000000E+00 -0.11143832328E+04  0.11143832328E+04  0.25500000920E-02 0. -1.
    10030    2    1    2    0    0  0.00000000000E+00  0.00000000000E+00  0.13260222435E+04  0.35547887090E+04  0.32982097834E+04 0.  0.
        3    1    3    3  502    0  0.44999152998E+03  0.63204908386E+03 -0.90537955401E+03  0.11923466646E+04  0.10100000352E+00 0. -1.
       -3    1    3    3    0  502 -0.44999152998E+03 -0.63204908386E+03  0.22314017975E+04  0.23624420445E+04  0.10100000352E+00 0.  1.
</event>
<event>
 5   0  0.2309822E-08  0.3300318E+04  0.7818609E-02  0.8162815E-01
        1   -1    0    0  501    0  0.00000000000E+00  0.00000000000E+00  0.17145018409E+04  0.17145018410E+04  0.50400001928E-02 0. -1.
       -1   -1    0    0    0  501  0.00000000000E+00  0.00000000000E+00 -0.15882305735E+04  0.15882305735E+04  0.50400001928E-02 0.  1.
    10030    2    1    2    0    0  0.00000000000E+00  0.00000000000E+00  0.12627126747E+03  0.33027324144E+04  0.33003177072E+04 0.  0.
        4    1    3    3  502    0  0.72935318421E+03  0.14687172861E+04  0.24748794042E+03  0.16584144317E+04  0.12699999809E+01 0.  1.
       -4    1    3    3    0  502 -0.72935318421E+03 -0.14687172861E+04 -0.12121667295E+03  0.16443179827E+04  0.12699999809E+01 0. -1.
</event>
<event>
 5   0  0.6821287E-08  0.3299507E+04  0.7818609E-02  0.8163021E-01
        2   -1    0    0  501    0  0.00000000000E+00  0.00000000000E+00  0.24742040371E+04  0.24742040371E+04  0.25500000920E-02 0. -1.
       -2   -1    0    0    0  501  0.00000000000E+00  0.00000000000E+00 -0.11000250531E+04  0.11000250531E+04  0.25500000920E-02 0.  1.
    10030    2    1    2    0    0  0.00000000000E+00  0.00000000000E+00  0.13741789839E+04  0.35742290902E+04  0.32995068888E+04 0.  0.
        5    1    3    3  502    0 -0.13262818261E+04 -0.73046214072E+03 -0.22480685230E+02  0.15143070668E+04  0.46999998093E+01 0.  1.
       -5    1    3    3    0  502  0.13262818261E+04  0.73046214072E+03  0.13966596692E+04  0.20599220235E+04  0.46999998093E+01 0. -1.
</event>
<event>
 5   0  0.2309822E-08  0.3299916E+04  0.7818609E-02  0.8162917E-01
        1   -1    0    0  501    0  0.00000000000E+00  0.00000000000E+00  0.20938140100E+04  0.20938140100E+04  0.50400001928E-02 0. -1.
       -1   -1    0    0    0  501  0.00000000000E+00  0.00000000000E+00 -0.13001928939E+04  0.13001928939E+04  0.50400001928E-02 0.  1.
    10030    2    1    2    0    0  0.00000000000E+00  0.00000000000E+00  0.79362111617E+03  0.33940069039E+04  0.32999164213E+04 0.  0.
        4    1    3    3  502    0 -0.70058208636E+03  0.12166010101E+04  0.12883760252E+04  0.19054783317E+04  0.12699999809E+01 0.  1.
       -4    1    3    3    0  502  0.70058208636E+03 -0.12166010101E+04 -0.49475490900E+03  0.14885285722E+04  0.12699999809E+01 0. -1.
</event>
<event>
 5   0  0.2279938E-08  0.3298631E+04  0.7818609E-02  0.8163244E-01
       -1   -1    0    0    0  501  0.00000000000E+00  0.00000000000E+00  0.12239333199E+04  0.12239333200E+04  0.50400001928E-02 0.  1.
        1   -1    0    0  501    0  0.00000000000E+00  0.00000000000E+00 -0.22225404668E+04  0.22225404668E+04  0.50400001928E-02 0. -1.
    10030    2    1    2    0    0  0.00000000000E+00  0.00000000000E+00 -0.99860714683E+03  0.34464737867E+04  0.32986308264E+04 0.  0.
        3    1    3    3  502    0  0.79715043913E+03  0.15460291331E+03 -0.19992257235E+04  0.21578355793E+04  0.10100000352E+00 0. -1.
       -3    1    3    3    0  502 -0.79715043913E+03 -0.15460291331E+03  0.10006185767E+04  0.12886382074E+04  0.10100000352E+00 0.  1.
</event>
<event>
 5   0  0.6603516E-08  0.3298936E+04  0.7818609E-02  0.8163166E-01
       -2   -1    0    0    0  501  0.00000000000E+00  0.00000000000E+00  0.15514356897E+04  0.15514356897E+04  0.25500000920E-02 0. -1.
        2   -1    0    0  501    0  0.00000000000E+00  0.00000000000E+00 -0.17536946203E+04  0.17536946203E+04  0.25500000920E-02 0.  1.
    10030    2    1    2    0    0  0.00000000000E+00  0.00000000000E+00 -0.20225893063E+03  0.33051303100E+04  0.32989358422E+04 0.  0.
        1    1    3    3  502    0 -0.90053375701E+03  0.13791216852E+04 -0.12607727644E+02  0.16471480276E+04  0.50400001928E-02 0.  1.
       -1    1    3    3    0  502  0.90053375701E+03 -0.13791216852E+04 -0.18965120298E+03  0.16579822824E+04  0.50400001928E-02 0. -1.
</event>
<event>
 5   0  0.6706080E-08  0.3305302E+04  0.7818609E-02  0.8161548E-01
        2   -1    0    0  501    0  0.00000000000E+00  0.00000000000E+00  0.11305615207E+04  0.11305615207E+04  0.25500000920E-02 0.  1.
       -2   -1    0    0    0  501  0.00000000000E+00  0.00000000000E+00 -0.24158391758E+04  0.24158391758E+04  0.25500000920E-02 0. -1.
    10030    2    1    2    0    0  0.00000000000E+00  0.00000000000E+00 -0.12852776551E+04  0.35464006965E+04  0.33053016881E+04 0.  0.
        4    1    3    3  502    0 -0.91963473716E+03 -0.11679262087E+04  0.13216691085E+03  0.14923971938E+04  0.12699999809E+01 0.  1.
       -4    1    3    3    0  502  0.91963473716E+03  0.11679262087E+04 -0.14174445660E+04  0.20540035028E+04  0.12699999809E+01 0. -1.
</event>
<event>
 5   0  0.7084130E-08  0.3299476E+04  0.7818609E-02  0.8163029E-01
       -2   -1    0    0    0  501  0.00000000000E+00  0.00000000000E+00  0.14196282236E+04  0.14196282236E+04  0.25500000920E-02 0. -1.
        2   -1    0    0  501    0  0.00000000000E+00  0.00000000000E+00 -0.19171471777E+04  0.19171471777E+04  0.25500000920E-02 0.  1.
    10030    2    1    2    0    0  0.00000000000E+00  0.00000000000E+00 -0.49751895414E+03  0.33367754013E+04  0.32994764689E+04 0.  0.
        3    1    3    3  502    0  0.11930730473E+04  0.94466140038E+03  0.39548814311E+03  0.15723292719E+04  0.10100000352E+00 0. -1.
       -3    1    3    3    0  502 -0.11930730473E+04 -0.94466140038E+03 -0.89300709725E+03  0.17644461294E+04  0.10100000352E+00 0.  1.
</event>
<event>
 5   0  0.2309822E-08  0.3298842E+04  0.7818609E-02  0.8163190E-01
       -1   -1    0    0    0  501  0.00000000000E+00  0.00000000000E+00  0.15125740959E+04  0.15125740959E+04  0.50400001928E-02 0. -1.
        1   -1    0    0  501    0  0.00000000000E+00  0.00000000000E+00 -0.17986487087E+04  0.17986487087E+04  0.50400001928E-02 0.  1.
    10030    2    1    2    0    0  0.00000000000E+00  0.00000000000E+00 -0.28607461272E+03  0.33112228046E+04  0.32988418843E+04 0.  0.
        4    1    3    3  502    0  0.14786477537E+04  0.75432723854E+02 -0.87274480136E+03  0.17186548160E+04  0.12699999809E+01 0. -1.
       -4    1    3    3    0  502 -0.14786477537E+04 -0.75432723854E+02  0.58667018864E+03  0.15925679886E+04  0.12699999809E+01 0.  1.
</event>
<event>
 5   0  0.2291682E-08  0.3298130E+04  0.7818609E-02  0.8163371E-01
        1   -1    0    0  501    0  0.00000000000E+00  0.00000000000E+00  0.20995859340E+04  0.20995859340E+04  0.50400001928E-02 0.  1.
       -1   -1    0    0    0  501  0.00000000000E+00  0.00000000000E+00 -0.12952146988E+04  0.12952146988E+04  0.50400001928E-02 0. -1.
    10030    2    1    2    0    0  0.00000000000E+00  0.00000000000E+00  0.80437123522E+03  0.33948006328E+04  0.32981295081E+04 0.  0.
        2    1    3    3  502    0 -0.21081954760E+03 -0.11307726090E+04 -0.81411104006E+03  0.14092084163E+04  0.25500000920E-02 0. -1.
       -2    1    3    3    0  502  0.21081954760E+03  0.11307726090E+04  0.16184822753E+04  0.19855922165E+04  0.25500000920E-02 0.  1.
</event>
<event>
 5   0  0.6821287E-08  0.3300244E+04  0.7818609E-02  0.8162833E-01
        2   -1    0    0  501    0  0.00000000000E+00  0.00000000000E+00  0.19576563597E+04  0.19576563597E+04  0.25500000920E-02 0. -1.
       -2   -1    0    0    0  501  0.00000000000E+00  0.00000000000E+00 -0.13908993740E+04  0.13908993740E+04  0.25500000920E-02 0.  1.
    10030    2    1    2    0    0  0.00000000000E+00  0.00000000000E+00  0.56675698565E+03  0.33485557337E+04  0.33002442366E+04 0.  0.
        5    1    3    3  502    0 -0.10135622215E+04  0.12050907577E+04  0.78388325200E+03  0.17589903791E+04  0.46999998093E+01 0.  1.
       -5    1    3    3    0  502  0.10135622215E+04 -0.12050907577E+04 -0.21712626635E+03  0.15895653546E+04  0.46999998093E+01 0. -1.
</event>
<event>
 5   0  0.2244093E-08  0.3300854E+04  0.7818609E-02  0.8162678E-01
        1   -1    0    0  501    0  0.00000000000E+00  0.00000000000E+00  0.29350403195E+04  0.29350403195E+04  0.50400001928E-02 0.  1.
       -1   -1    0    0    0  501  0.00000000000E+00  0.00000000000E+00 -0.92806554022E+03  0.92806554024E+03  0.50400001928E-02 0. -1.
    10030    2    1    2    0    0  0.00000000000E+00  0.00000000000E+00  0.20069747793E+04  0.38631058598E+04  0.33008543014E+04 0.  0.
        1    1    3    3  502    0 -0.45136026373E+03 -0.13954613301E+04  0.18892937872E+04  0.23917502850E+04  0.50400001928E-02 0.  1.
       -1    1    3    3    0  502  0.45136026373E+03  0.13954613301E+04  0.11768099213E+03  0.14713555748E+04  0.50400001928E-02 0. -1.
</event>
<event>
 5   0  0.6603516E-08  0.3304125E+04  0.7818609E-02  0.8161847E-01
       -2   -1    0    0    0  501  0.00000000000E+00  0.00000000000E+00  0.15945853910E+04  0.15945853910E+04  0.25500000920E-02 0. -1.
        2   -1    0    0  501    0  0.00000000000E+00  0.00000000000E+00 -0.17116109172E+04  0.17116109172E+04  0.25500000920E-02 0.  1.
    10030    2    1    2    0    0  0.00000000000E+00  0.00000000000E+00 -0.11702552621E+03  0.33061963083E+04  0.33041245520E+04 0.  0.
        1    1    3    3  502    0  0.10683780542E+04 -0.13966794616E+03  0.11946186675E+04  0.16087425408E+04  0.50400001928E-02 0. -1.
       -1    1    3    3    0  502 -0.10683780542E+04  0.13966794616E+03 -0.13116441937E+04  0.16974537675E+04  0.50400001928E-02 0.  1.
</event>
<event>
 5   0  0.2291682E-08  0.3300664E+04  0.7818609E-02  0.8162726E-01
        1   -1    0    0  501    0  0.00000000000E+00  0.00000000000E+00  0.98510872323E+03  0.98510872325E+03  0.50400001928E-02 0.  1.
       -1   -1    0    0    0  501  0.00000000000E+00  0.00000000000E+00 -0.27647664910E+04  0.27647664910E+04  0.50400001928E-02 0. -1.
    10030    2    1    2    0    0  0.00000000000E+00  0.00000000000E+00 -0.17796577678E+04  0.37498752143E+04  0.33006639260E+04 0.  0.
        2    1    3    3  502    0  0.15795167806E+04  0.16344369298E+03 -0.14004518183E+04  0.21172747570E+04  0.25500000920E-02 0. -1.
       -2    1    3    3    0  502 -0.15795167806E+04 -0.16344369298E+03 -0.37920594948E+03  0.16326004573E+04  0.25500000920E-02 0.  1.
</event>
<event>
 5   0  0.2309822E-08  0.3299630E+04  0.7818609E-02  0.8162990E-01
        1   -1    0    0  501    0  0.00000000000E+00  0.00000000000E+00  0.29807596605E+04  0.29807596605E+04  0.50400001928E-02 0. -1.
       -1   -1    0    0    0  501  0.00000000000E+00  0.00000000000E+00 -0.91315292559E+03  0.91315292560E+03  0.50400001928E-02 0.  1.
    10030    2    1    2    0    0  0.00000000000E+00  0.00000000000E+00  0.20676067349E+04  0.38939125861E+04  0.32996299214E+04 0.  0.
        4    1    3    3  502    0  0.82368196354E+03 -0.12685307551E+04  0.18114792808E+04  0.23598900507E+04  0.12699999809E+01 0. -1.
       -4    1    3    3    0  502 -0.82368196354E+03  0.12685307551E+04  0.25612745418E+03  0.15340225355E+04  0.12699999809E+01 0.  1.
</event>
<event>
 5   0  0.2200750E-08  0.3299981E+04  0.7818609E-02  0.8162900E-01
        3   -1    0    0  501    0  0.00000000000E+00  0.00000000000E+00  0.90798307744E+03  0.90798308305E+03  0.10100000352E+00 0.  1.
       -3   -1    0    0    0  501  0.00000000000E+00  0.00000000000E+00 -0.29983688573E+04  0.29983688590E+04  0.10100000352E+00 0. -1.
    10030    2    1    2    0    0  0.00000000000E+00  0.00000000000E+00 -0.20903857798E+04  0.39063519420E+04  0.32999807252E+04 0.  0.
        4    1    3    3  502    0 -0.15342628115E+04  0.32203098123E+03 -0.16543357604E+04  0.22791434244E+04  0.12699999809E+01 0. -1.
       -4    1    3    3    0  502  0.15342628115E+04 -0.32203098123E+03 -0.43605001941E+03  0.16272085177E+04  0.12699999809E+01 0.  1.
</event>
<event>
 5   0  0.6706080E-08  0.3299879E+04  0.7818609E-02  0.8162926E-01
        2   -1    0    0  501    0  0.00000000000E+00  0.00000000000E+00  0.19742087285E+04  0.19742087285E+04  0.25500000920E-02 0.  1.
       -2   -1    0    0    0  501  0.00000000000E+00  0.00000000000E+00 -0.13789322279E+04  0.13789322279E+04  0.25500000920E-02 0. -1.
    10030    2    1    2    0    0  0.00000000000E+00  0.00000000000E+00  0.59527650056E+03  0.33531409564E+04  0.32998788101E+04 0.  0.
        4    1    3    3  502    0  0.38072316928E+02 -0.15191489954E+04  0.95068967561E+03  0.17925054097E+04  0.12699999809E+01 0.  1.
       -4    1    3    3    0  502 -0.38072316928E+02  0.15191489954E+04 -0.35541317505E+03  0.15606355467E+04  0.12699999809E+01 0. -1.
</event>
<event>
 5   0  0.2383270E-08  0.3299782E+04  0.7818609E-02  0.8162951E-01
       -1   -1    0    0    0  501  0.00000000000E+00  0.00000000000E+00  0.20538234826E+04  0.20538234826E+04  0.50400001928E-02 0.  1.
        1   -1    0    0  501    0  0.00000000000E+00  0.00000000000E+00 -0.13254011755E+04  0.13254011755E+04  0.50400001928E-02 0. -1.
    10030    2    1    2    0    0  0.00000000000E+00  0.00000000000E+00  0.72842230714E+03  0.33792246581E+04  0.32997818462E+04 0.  0.
        5    1    3    3  502    0 -0.64290510139E+02  0.13494429058E+04 -0.60568510597E+03  0.14805424558E+04  0.46999998093E+01 0. -1.
       -5    1    3    3    0  502  0.64290510139E+02 -0.13494429058E+04  0.13341074131E+04  0.18986822023E+04  0.46999998093E+01 0.  1.
</event>
<event>
 5   0  0.6765252E-08  0.3302864E+04  0.7818609E-02  0.8162167E-01
       -2   -1    0    0    0  501  0.00000000000E+00  0.00000000000E+00  0.13506156040E+04  0.13506156040E+04  0.25500000920E-02 0. -1.
        2   -1    0    0  501    0  0.00000000000E+00  0.00000000000E+00 -0.20192482798E+04  0.20192482798E+04  0.25500000920E-02 0.  1.
    10030    2    1    2    0    0  0.00000000000E+00  0.00000000000E+00 -0.66863267574E+03  0.33698638838E+04  0.33028643539E+04 0.  0.
        2    1    3    3  502    0  0.67016167173E+03 -0.26662118102E+03 -0.18500581100E+04  0.19856783553E+04  0.25500000920E-02 0.  1.
       -2    1    3    3    0  502 -0.67016167173E+03  0.26662118102E+03  0.11814254343E+04  0.13841855284E+04  0.25500000920E-02 0. -1.
</event>
<event>
 5   0  0.2309822E-08  0.3299117E+04  0.7818609E-02  0.8163120E-01
        1   -1    0    0  501    0  0.00000000000E+00  0.00000000000E+00  0.17059027250E+04  0.17059027250E+04  0.50400001928E-02 0.  1.
       -1   -1    0    0    0  501  0.00000000000E+00  0.00000000000E+00 -0.15950748353E+04  0.15950748354E+04  0.50400001928E-02 0. -1.
    10030    2    1    2    0    0  0.00000000000E+00  0.00000000000E+00  0.11082788962E+03  0.33009775603E+04  0.32991165534E+04 0.  0.
        4    1    3    3  502    0  0.42411884543E+03  0.89616925753E+03 -0.12636789826E+04  0.16062012070E+04  0.12699999809E+01 0. -1.
       -4    1    3    3    0  502 -0.42411884543E+03 -0.89616925753E+03  0.13745068723E+04  0.16947763534E+04  0.12699999809E+01 0.  1.
</event>
<event>
 5   0  0.2244093E-08  0.3298512E+04  0.7818609E-02  0.8163274E-01
       -1   -1    0    0    0  501  0.00000000000E+00  0.00000000000E+00  0.13414196165E+04  0.13414196165E+04  0.50400001928E-02 0. -1.
        1   -1    0    0  501    0  0.00000000000E+00  0.00000000000E+00 -0.20277366886E+04  0.20277366886E+04  0.50400001928E-02 0.  1.
    10030    2    1    2    0    0  0.00000000000E+00  0.00000000000E+00 -0.68631707208E+03  0.33691563051E+04  0.32985122533E+04 0.  0.
        1    1    3    3  502    0 -0.13315920787E+04 -0.94161782977E+03 -0.59390374678E+03  0.17356564355E+04  0.50400001928E-02 0.  1.
       -1    1    3    3    0  502  0.13315920787E+04  0.94161782977E+03 -0.92413325306E+02  0.16334998697E+04  0.50400001928E-02 0. -1.
</event>
<event>
 5   0  0.6765252E-08  0.3300332E+04  0.7818609E-02  0.8162811E-01
        2   -1    0    0  501    0  0.00000000000E+00  0.00000000000E+00  0.14488450151E+04  0.14488450151E+04  0.25500000920E-02 0. -1.
       -2   -1    0    0    0  501  0.00000000000E+00  0.00000000000E+00 -0.18794606399E+04  0.18794606399E+04  0.25500000920E-02 0.  1.
    10030    2    1    2    0    0  0.00000000000E+00  0.00000000000E+00 -0.43061562483E+03  0.33283056550E+04  0.33003316071E+04 0.  0.
        2    1    3    3  502    0  0.28737764740E+03 -0.13068855963E+04  0.75854355196E+03  0.15381561021E+04  0.25500000920E-02 0. -1.
       -2    1    3    3    0  502 -0.28737764740E+03  0.13068855963E+04 -0.11891591768E+04  0.17901495529E+04  0.25500000920E-02 0.  1.
</event>
<event>
 5   0  0.6706080E-08  0.3282929E+04  0.7818609E-02  0.8167253E-01
        2   -1    0    0  501    0  0.00000000000E+00  0.00000000000E+00  0.24095132257E+04  0.24095132257E+04  0.25500000920E-02 0. -1.
       -2   -1    0    0    0  501  0.00000000000E+00  0.00000000000E+00 -0.11182364362E+04  0.11182364362E+04  0.25500000920E-02 0.  1.
    10030    2    1    2    0    0  0.00000000000E+00  0.00000000000E+00  0.12912767895E+04  0.35277496619E+04  0.32829288646E+04 0.  0.
        4    1    3    3  502    0  0.13997868879E+04  0.85065465388E+03  0.53096973872E+03  0.17219021889E+04  0.12699999809E+01 0. -1.
       -4    1    3    3    0  502 -0.13997868879E+04 -0.85065465388E+03  0.76030705079E+03  0.18058474731E+04  0.12699999809E+01 0.  1.
</event>
<event>
 5   0  0.2291682E-08  0.3299790E+04  0.7818609E-02  0.8162949E-01
        1   -1    0    0  501    0  0.00000000000E+00  0.00000000000E+00  0.27602428780E+04  0.27602428780E+04  0.50400001928E-02 0.  1.
       -1   -1    0    0    0  501  0.00000000000E+00  0.00000000000E+00 -0.98620068979E+03  0.98620068980E+03  0.50400001928E-02 0. -1.
    10030    2    1    2    0    0  0.00000000000E+00  0.00000000000E+00  0.17740421882E+04  0.37464435678E+04  0.32997899511E+04 0.  0.
        2    1    3    3  502    0 -0.10875363577E+04 -0.17065512923E+02 -0.52152190566E+03  0.12062386410E+04  0.25500000920E-02 0. -1.
       -2    1    3    3    0  502  0.10875363577E+04  0.17065512923E+02  0.22955640939E+04  0.25402049268E+04  0.25500000920E-02 0.  1.
</event>
<event>
 5   0  0.2244093E-08  0.3298853E+04  0.7818609E-02  0.8163187E-01
        1   -1    0    0  501    0  0.00000000000E+00  0.00000000000E+00  0.12829766078E+04  0.12829766079E+04  0.50400001928E-02 0.  1.
       -1   -1    0    0    0  501  0.00000000000E+00  0.00000000000E+00 -0.21205439774E+04  0.21205439774E+04  0.50400001928E-02 0. -1.
    10030    2    1    2    0    0  0.00000000000E+00  0.00000000000E+00 -0.83756736959E+03  0.34035205853E+04  0.32988533274E+04 0.  0.
        1    1    3    3  502    0 -0.48363750552E+03  0.86861489727E+03  0.93911010346E+03  0.13675982096E+04  0.50400001928E-02 0.  1.
       -1    1    3    3    0  502  0.48363750552E+03 -0.86861489727E+03 -0.17766774731E+04  0.20359223757E+04  0.50400001928E-02 0. -1.
</event>
<event>
 5   0  0.2309822E-08  0.3301090E+04  0.7818609E-02  0.8162618E-01
        1   -1    0    0  501    0  0.00000000000E+00  0.00000000000E+00  0.20528726645E+04  0.20528726645E+04  0.50400001928E-02 0.  1.
       -1   -1    0    0    0  501  0.00000000000E+00  0.00000000000E+00 -0.13270664939E+04  0.13270664940E+04  0.50400001928E-02 0. -1.
    10030    2    1    2    0    0  0.00000000000E+00  0.00000000000E+00  0.72580617054E+03  0.33799391584E+04  0.33010898378E+04 0.  0.
        4    1    3    3  502    0  0.34040364827E+03 -0.61459566966E+03  0.18921287603E+04  0.20183546119E+04  0.12699999809E+01 0.  1.
       -4    1    3    3    0  502 -0.34040364827E+03  0.61459566966E+03 -0.11663225898E+04  0.13615845465E+04  0.12699999809E+01 0. -1.
</event>
<event>
 5   0  0.6706080E-08  0.3299540E+04  0.7818609E-02  0.8163012E-01
        2   -1    0    0  501    0  0.00000000000E+00  0.00000000000E+00  0.20511863430E+04  0.20511863430E+04  0.25500000920E-02 0. -1.
       -2   -1    0    0    0  501  0.00000000000E+00  0.00000000000E+00 -0.13269105092E+04  0.13269105092E+04  0.25500000920E-02 0.  1.
    10030    2    1    2    0    0  0.00000000000E+00  0.00000000000E+00  0.72427583375E+03  0.33780968522E+04  0.32995397951E+04 0.  0.
        4    1    3    3  502    0  0.10877893791E+04 -0.12382593977E+04  0.28854443906E+03  0.16732697259E+04  0.12699999809E+01 0. -1.
       -4    1    3    3    0  502 -0.10877893791E+04  0.12382593977E+04  0.43573139468E+03  0.17048271263E+04  0.12699999809E+01 0.  1.
</event>
<event>
 5   0  0.2279938E-08  0.3301294E+04  0.7818609E-02  0.8162566E-01
        1   -1    0    0  501    0  0.00000000000E+00  0.00000000000E+00  0.31697420125E+04  0.31697420125E+04  0.50400001928E-02 0.  1.
       -1   -1    0    0    0  501  0.00000000000E+00  0.00000000000E+00 -0.85957632941E+03  0.85957632943E+03  0.50400001928E-02 0. -1.
    10030    2    1    2    0    0  0.00000000000E+00  0.00000000000E+00  0.23101656831E+04  0.40293183419E+04  0.33012938096E+04 0.  0.
        3    1    3    3  502    0  0.21536430964E+02  0.13193240158E+04 -0.55367124981E+02  0.13206608972E+04  0.10100000352E+00 0. -1.
       -3    1    3    3    0  502 -0.21536430964E+02 -0.13193240158E+04  0.23655328081E+04  0.27086574447E+04  0.10100000352E+00 0.  1.
</event>
<event>
 5   0  0.2244093E-08  0.3299312E+04  0.7818609E-02  0.8163070E-01
        1   -1    0    0  501    0  0.00000000000E+00  0.00000000000E+00  0.13584081168E+04  0.13584081168E+04  0.50400001928E-02 0.  1.
       -1   -1    0    0    0  501  0.00000000000E+00  0.00000000000E+00 -0.20033487905E+04  0.20033487905E+04  0.50400001928E-02 0. -1.
    10030    2    1    2    0    0  0.00000000000E+00  0.00000000000E+00 -0.64494067367E+03  0.33617569073E+04  0.32993122058E+04 0.  0.
        1    1    3    3  502    0  0.12800118567E+04 -0.10070999671E+04 -0.58950796088E+03  0.17321086377E+04  0.50400001928E-02 0.  1.
       -1    1    3    3    0  502 -0.12800118567E+04  0.10070999671E+04 -0.55432712793E+02  0.16296482696E+04  0.50400001928E-02 0. -1.
</event>
<event>
 5   0  0.2244093E-08  0.3297133E+04  0.7818609E-02  0.8163625E-01
       -1   -1    0    0    0  501  0.00000000000E+00  0.00000000000E+00  0.15489336454E+04  0.15489336454E+04  0.50400001928E-02 0.  1.
        1   -1    0    0  501    0  0.00000000000E+00  0.00000000000E+00 -0.17546079334E+04  0.17546079334E+04  0.50400001928E-02 0. -1.
    10030    2    1    2    0    0  0.00000000000E+00  0.00000000000E+00 -0.20567428797E+03  0.33035415788E+04  0.32971328530E+04 0.  0.
        1    1    3    3  502    0 -0.53981597378E+03  0.15403409781E+04 -0.33506264583E+03  0.16662288531E+04  0.50400001928E-02 0. -1.
       -1    1    3    3    0  502  0.53981597378E+03 -0.15403409781E+04  0.12938835786E+03  0.16373127256E+04  0.50400001928E-02 0.  1.
</event>
<event>
 5   0  0.6706080E-08  0.3299542E+04  0.7818609E-02  0.8163012E-01
       -2   -1    0    0    0  501  0.00000000000E+00  0.00000000000E+00  0.17271343690E+04  0.17271343690E+04  0.25500000920E-02 0.  1.
        2   -1    0    0  501    0  0.00000000000E+00  0.00000000000E+00 -0.15758732619E+04  0.15758732619E+04  0.25500000920E-02 0. -1.
    10030    2    1    2    0    0  0.00000000000E+00  0.00000000000E+00  0.15126110705E+03  0.33030076309E+04  0.32995423148E+04 0.  0.
        4    1    3    3  502    0  0.14906488354E+04  0.22877686159E+03 -0.59392948358E+03  0.16208413394E+04  0.12699999809E+01 0. -1.
       -4    1    3    3    0  502 -0.14906488354E+04 -0.22877686159E+03  0.74519059063E+03  0.16821662915E+04  0.12699999809E+01 0.  1.
</event>
<event>
 5   0  0.7084130E-08  0.3299683E+04  0.7818609E-02  0.8162976E-01
        2   -1    0    0  501    0  0.00000000000E+00  0.00000000000E+00  0.20825126965E+04  0.20825126965E+04  0.25500000920E-02 0. -1.
       -2   -1    0    0    0  501  0.00000000000E+00  0.00000000000E+00 -0.13070639338E+04  0.13070639338E+04  0.25500000920E-02 0.  1.
    10030    2    1    2    0    0  0.00000000000E+00  0.00000000000E+00  0.77544876265E+03  0.33895766303E+04  0.32996831589E+04 0.  0.
        3    1    3    3  502    0 -0.10871919993E+04 -0.38067743406E+03  0.16010351957E+04  0.19723629129E+04  0.10100000352E+00 0. -1.
       -3    1    3    3    0  502  0.10871919993E+04  0.38067743406E+03 -0.82558643307E+03  0.14172137174E+04  0.10100000352E+00 0.  1.
</event>
<event>
 5   0  0.6821287E-08  0.3299972E+04  0.7818609E-02  0.8162902E-01
        2   -1    0    0  501    0  0.00000000000E+00  0.00000000000E+00  0.25892671935E+04  0.25892671935E+04  0.25500000920E-02 0.  1.
       -2   -1    0    0    0  501  0.00000000000E+00  0.00000000000E+00 -0.10514382140E+04  0.10514382140E+04  0.25500000920E-02 0. -1.
    10030    2    1    2    0    0  0.00000000000E+00  0.00000000000E+00  0.15378289796E+04  0.36407054075E+04  0.32999724080E+04 0.  0.
        5    1    3    3  502    0  0.67712653572E+03 -0.89006463872E+03  0.21073189649E+04  0.23856929216E+04  0.46999998093E+01 0.  1.
       -5    1    3    3    0  502 -0.67712653572E+03  0.89006463872E+03 -0.56948998527E+03  0.12550124859E+04  0.46999998093E+01 0. -1.
</event>
<event>
 5   0  0.7084130E-08  0.3298884E+04  0.7818609E-02  0.8163179E-01
       -2   -1    0    0    0  501  0.00000000000E+00  0.00000000000E+00  0.12378821585E+04  0.12378821585E+04  0.25500000920E-02 0.  1.
        2   -1    0    0  501    0  0.00000000000E+00  0.00000000000E+00 -0.21978333759E+04  0.21978333759E+04  0.25500000920E-02 0. -1.
    10030    2    1    2    0    0  0.00000000000E+00  0.00000000000E+00 -0.95995121740E+03  0.34357155345E+04  0.32988838861E+04 0.  0.
        3    1    3    3  502    0 -0.74652297695E+03 -0.49860949052E+02  0.10509888067E+04  0.12901008300E+04  0.10100000352E+00 0.  1.
       -3    1    3    3    0  502  0.74652297695E+03  0.49860949052E+02 -0.20109400241E+04  0.21456147045E+04  0.10100000352E+00 0. -1.
</event>
<event>
 5   0  0.2383270E-08  0.3300973E+04  0.7818609E-02  0.8162648E-01
        1   -1    0    0  501    0  0.00000000000E+00  0.00000000000E+00  0.17901698187E+04  0.17901698187E+04  0.50400001928E-02 0. -1.
       -1   -1    0    0    0  501  0.00000000000E+00  0.00000000000E+00 -0.15217023278E+04  0.15217023278E+04  0.50400001928E-02 0.  1.
    10030    2    1    2    0    0  0.00000000000E+00  0.00000000000E+00  0.26846749084E+03  0.33118721465E+04  0.33009729355E+04 0.  0.
        5    1    3    3  502    0  0.96002055835E+03  0.13144783042E+04 -0.13978119816E+03  0.16337238316E+04  0.46999998093E+01 0.  1.
       -5    1    3    3    0  502 -0.96002055835E+03 -0.13144783042E+04  0.40824868899E+03  0.16781483149E+04  0.46999998093E+01 0. -1.
</event>
<event>
 5   0  0.6821287E-08  0.3298959E+04  0.7818609E-02  0.8163160E-01
       -2   -1    0    0    0  501  0.00000000000E+00  0.00000000000E+00  0.77138098361E+03  0.77138098362E+03  0.25500000920E-02 0. -1.
        2   -1    0    0  501    0  0.00000000000E+00  0.00000000000E+00 -0.35271571016E+04  0.35271571016E+04  0.25500000920E-02 0.  1.
    10030    2    1    2    0    0  0.00000000000E+00  0.00000000000E+00 -0.27557761180E+04  0.42985380852E+04  0.32989585717E+04 0.  0.
        5    1    3    3  502    0  0.90819898565E+03  0.12964996174E+04 -0.77367995450E+03  0.17619135669E+04  0.46999998093E+01 0. -1.
       -5    1    3    3    0  502 -0.90819898565E+03 -0.12964996174E+04 -0.19820961635E+04  0.25366245182E+04  0.46999998093E+01 0.  1.
</event>
<event>
 5   0  0.6765252E-08  0.3283703E+04  0.7818609E-02  0.8167055E-01
        2   -1    0    0  501    0  0.00000000000E+00  0.00000000000E+00  0.21782483603E+04  0.21782483603E+04  0.25500000920E-02 0. -1.
       -2   -1    0    0    0  501  0.00000000000E+00  0.00000000000E+00 -0.12375431567E+04  0.12375431567E+04  0.25500000920E-02 0.  1.
    10030    2    1    2    0    0  0.00000000000E+00  0.00000000000E+00  0.94070520353E+03  0.34157915170E+04  0.32837030023E+04 0.  0.
        2    1    3    3  502    0  0.22176638518E+03 -0.15534611106E+04  0.97274446190E+03  0.18462539208E+04  0.25500000920E-02 0.  1.
       -2    1    3    3    0  502 -0.22176638518E+03  0.15534611106E+04 -0.32039258366E+02  0.15695375962E+04  0.25500000920E-02 0. -1.
</event>
<event>
 5   0  0.6821287E-08  0.3298873E+04  0.7818609E-02  0.8163182E-01
       -2   -1    0    0    0  501  0.00000000000E+00  0.00000000000E+00  0.95734096131E+03  0.95734096131E+03  0.25500000920E-02 0.  1.
        2   -1    0    0  501    0  0.00000000000E+00  0.00000000000E+00 -0.28418724578E+04  0.28418724578E+04  0.25500000920E-02 0. -1.
    10030    2    1    2    0    0  0.00000000000E+00  0.00000000000E+00 -0.18845314965E+04  0.37992134191E+04  0.32988730868E+04 0.  0.
        5    1    3    3  502    0 -0.12973653264E+04  0.64819029051E+03 -0.18471233172E+04  0.23484450349E+04  0.46999998093E+01 0. -1.
       -5    1    3    3    0  502  0.12973653264E+04 -0.64819029051E+03 -0.37408179253E+02  0.14507683842E+04  0.46999998093E+01 0.  1.
</event>
<event>
 5   0  0.2244093E-08  0.3300868E+04  0.7818609E-02  0.8162674E-01
        1   -1    0    0  501    0  0.00000000000E+00  0.00000000000E+00  0.16561584695E+04  0.16561584695E+04  0.50400001928E-02 0.  1.
       -1   -1    0    0    0  501  0.00000000000E+00  0.00000000000E+00 -0.16447297397E+04  0.16447297397E+04  0.50400001928E-02 0. -1.
    10030    2    1    2    0    0  0.00000000000E+00  0.00000000000E+00  0.11428729816E+02  0.33008882092E+04  0.33008684242E+04 0.  0.
        1    1    3    3  502    0 -0.11802589475E+04  0.94017117715E+03  0.67429900536E+03  0.16527589583E+04  0.50400001928E-02 0.  1.
       -1    1    3    3    0  502  0.11802589475E+04 -0.94017117715E+03 -0.66287027555E+03  0.16481292509E+04  0.50400001928E-02 0. -1.
</event>
<event>
 5   0  0.6765252E-08  0.3298892E+04  0.7818609E-02  0.8163177E-01
       -2   -1    0    0    0  501  0.00000000000E+00  0.00000000000E+00  0.12541466791E+04  0.12541466791E+04  0.25500000920E-02 0.  1.
        2   -1    0    0  501    0  0.00000000000E+00  0.00000000000E+00 -0.21693408963E+04  0.21693408963E+04  0.25500000920E-02 0. -1.
    10030    2    1    2    0    0  0.00000000000E+00  0.00000000000E+00 -0.91519421721E+03  0.34234875754E+04  0.32988917418E+04 0.  0.
        2    1    3    3  502    0  0.54993482625E+03 -0.84313079611E+03  0.89841947973E+03  0.13492425334E+04  0.25500000920E-02 0.  1.
       -2    1    3    3    0  502 -0.54993482625E+03  0.84313079611E+03 -0.18136136969E+04  0.20742450420E+04  0.25500000920E-02 0. -1.
</event>
<event>
 5   0  0.2383270E-08  0.3298637E+04  0.7818609E-02  0.8163242E-01
       -1   -1    0    0    0  501  0.00000000000E+00  0.00000000000E+00  0.20081520247E+04  0.20081520247E+04  0.50400001928E-02 0. -1.
        1   -1    0    0  501    0  0.00000000000E+00  0.00000000000E+00 -0.13546041256E+04  0.13546041256E+04  0.50400001928E-02 0.  1.
    10030    2    1    2    0    0  0.00000000000E+00  0.00000000000E+00  0.65354789907E+03  0.33627561503E+04  0.32986366987E+04 0.  0.
        5    1    3    3  502    0  0.11944751913E+04  0.90035609995E+03 -0.38158289245E+03  0.15437097147E+04  0.46999998093E+01 0. -1.
       -5    1    3    3    0  502 -0.11944751913E+04 -0.90035609995E+03  0.10351307915E+04  0.18190464356E+04  0.46999998093E+01 0.  1.
</event>
<event>
 5   0  0.2279938E-08  0.3310603E+04  0.7818609E-02  0.8160203E-01
        1   -1    0    0  501    0  0.00000000000E+00  0.00000000000E+00  0.22487334415E+04  0.22487334415E+04  0.50400001928E-02 0.  1.
       -1   -1    0    0    0  501  0.00000000000E+00  0.00000000000E+00 -0.12184736084E+04  0.12184736084E+04  0.50400001928E-02 0. -1.
    10030    2    1    2    0    0  0.00000000000E+00  0.00000000000E+00  0.10302598331E+04  0.34672070499E+04  0.33106025741E+04 0.  0.
        3    1    3    3  502    0  0.13846145277E+03 -0.14615588082E+04  0.13159556482E+04  0.19715641004E+04  0.10100000352E+00 0.  1.
       -3    1    3    3    0  502 -0.13846145277E+03  0.14615588082E+04 -0.28569581511E+03  0.14956429496E+04  0.10100000352E+00 0. -1.
</event>
<event>
 5   0  0.6706080E-08  0.3297740E+04  0.7818609E-02  0.8163471E-01
        2   -1    0    0  501    0  0.00000000000E+00  0.00000000000E+00  0.28507566074E+04  0.28507566074E+04  0.25500000920E-02 0.  1.
       -2   -1    0    0    0  501  0.00000000000E+00  0.00000000000E+00 -0.95370201576E+03  0.95370201576E+03  0.25500000920E-02 0. -1.
    10030    2    1    2    0    0  0.00000000000E+00  0.00000000000E+00  0.18970545916E+04  0.38044586232E+04  0.32977400279E+04 0.  0.
        4    1    3    3  502    0 -0.29572572831E+03  0.14598448147E+04  0.17644242679E+04  0.23090680370E+04  0.12699999809E+01 0. -1.
       -4    1    3    3    0  502  0.29572572831E+03 -0.14598448147E+04  0.13263032376E+03  0.14953905862E+04  0.12699999809E+01 0.  1.
</event>
<event>
 5   0  0.2383270E-08  0.3298189E+04  0.7818609E-02  0.8163356E-01
       -1   -1    0    0    0  501  0.00000000000E+00  0.00000000000E+00  0.16597868287E+04  0.16597868287E+04  0.50400001928E-02 0.  1.
        1   -1    0    0  501    0  0.00000000000E+00  0.00000000000E+00 -0.16384713278E+04  0.16384713278E+04  0.50400001928E-02 0. -1.
    10030    2    1    2    0    0  0.00000000000E+00  0.00000000000E+00  0.21315500867E+02  0.32982581565E+04  0.32981892784E+04 0.  0.
        5    1    3    3  502    0  0.16045639160E+04  0.35009336498E+03  0.15999376671E+03  0.16500941852E+04  0.46999998093E+01 0.  1.
       -5    1    3    3    0  502 -0.16045639160E+04 -0.35009336498E+03 -0.13867826585E+03  0.16481639713E+04  0.46999998093E+01 0. -1.
</event>
<event>
 5   0  0.2244093E-08  0.3300317E+04  0.7818609E-02  0.8162815E-01
        1   -1    0    0  501    0  0.00000000000E+00  0.00000000000E+00  0.14387954556E+04  0.14387954556E+04  0.50400001928E-02 0. -1.
       -1   -1    0    0    0  501  0.00000000000E+00  0.00000000000E+00 -0.18925714224E+04  0.18925714224E+04  0.50400001928E-02 0.  1.
    10030    2    1    2    0    0  0.00000000000E+00  0.00000000000E+00 -0.45377596681E+03  0.33313668781E+04  0.33003170527E+04 0.  0.
        1    1    3    3  502    0  0.61290466775E+03  0.28083863102E+03  0.12934363908E+04  0.14585952713E+04  0.50400001928E-02 0. -1.
       -1    1    3    3    0  502 -0.61290466775E+03 -0.28083863102E+03 -0.17472123576E+04  0.18727716067E+04  0.50400001928E-02 0.  1.
</event>
<event>
 5   0  0.2279938E-08  0.3299827E+04  0.7818609E-02  0.8162939E-01
       -1   -1    0    0    0  501  0.00000000000E+00  0.00000000000E+00  0.17539186323E+04  0.17539186323E+04  0.50400001928E-02 0. -1.
        1   -1    0    0  501    0  0.00000000000E+00  0.00000000000E+00 -0.15520761229E+04  0.15520761229E+04  0.50400001928E-02 0.  1.
    10030    2    1    2    0    0  0.00000000000E+00  0.00000000000E+00  0.20184250942E+03  0.33059947552E+04  0.32998274081E+04 0.  0.
        3    1    3    3  502    0 -0.15102146506E+04 -0.14267124270E+03  0.75106541215E+03  0.16926909458E+04  0.10100000352E+00 0.  1.
       -3    1    3    3    0  502  0.15102146506E+04  0.14267124270E+03 -0.54922290274E+03  0.16133038094E+04  0.10100000352E+00 0. -1.
</event>
<event>
 5   0  0.6821287E-08  0.3301552E+04  0.7818609E-02  0.8162501E-01
       -2   -1    0    0    0  501  0.00000000000E+00  0.00000000000E+00  0.13383995210E+04  0.13383995210E+04  0.25500000920E-02 0.  1.
        2   -1    0    0  501    0  0.00000000000E+00  0.00000000000E+00 -0.20360596698E+04  0.20360596698E+04  0.25500000920E-02 0. -1.
    10030    2    1    2    0    0  0.00000000000E+00  0.00000000000E+00 -0.69766014880E+03  0.33744591907E+04  0.33015519300E+04 0.  0.
        5    1    3    3  502    0 -0.90348580805E+03 -0.13567043241E+04 -0.61556423151E+03  0.17423761481E+04  0.46999998093E+01 0. -1.
       -5    1    3    3    0  502  0.90348580805E+03  0.13567043241E+04 -0.82095917288E+02  0.16320830426E+04  0.46999998093E+01 0.  1.
</event>
<event>
 5   0  0.2309822E-08  0.3300294E+04  0.7818609E-02  0.8162821E-01
        1   -1    0    0  501    0  0.00000000000E+00  0.00000000000E+00  0.29260045233E+04  0.29260045233E+04  0.50400001928E-02 0.  1.
       -1   -1    0    0    0  501  0.00000000000E+00  0.00000000000E+00 -0.93061545310E+03  0.93061545312E+03  0.50400001928E-02 0. -1.
    10030    2    1    2    0    0  0.00000000000E+00  0.00000000000E+00  0.19953890702E+04  0.38566199764E+04  0.33002939416E+04 0.  0.
        4    1    3    3  502    0 -0.99780499125E+03  0.11320454034E+04  0.17779640225E+04  0.23320161393E+04  0.12699999809E+01 0. -1.
       -4    1    3    3    0  502  0.99780499125E+03 -0.11320454034E+04  0.21742504773E+03  0.15246038371E+04  0.12699999809E+01 0.  1.
</event>
<event>
 5   0  0.2200750E-08  0.3300782E+04  0.7818609E-02  0.8162696E-01
        3   -1    0    0  501    0  0.00000000000E+00  0.00000000000E+00  0.11137765084E+04  0.11137765129E+04  0.10100000352E+00 0. -1.
       -3   -1    0    0    0  501  0.00000000000E+00  0.00000000000E+00 -0.24455454155E+04  0.24455454176E+04  0.10100000352E+00 0.  1.
    10030    2    1    2    0    0  0.00000000000E+00  0.00000000000E+00 -0.13317689072E+04  0.35593219306E+04  0.33007823593E+04 0.  0.
        2    1    3    3  502    0 -0.18939844644E+03 -0.11396146242E+03 -0.24295115342E+04  0.24395461219E+04  0.25500000920E-02 0.  1.
       -2    1    3    3    0  502  0.18939844644E+03  0.11396146242E+03  0.10977426270E+04  0.11197758086E+04  0.25500000920E-02 0. -1.
</event>
<event>
 5   0  0.6821287E-08  0.3300411E+04  0.7818609E-02  0.8162791E-01
        2   -1    0    0  501    0  0.00000000000E+00  0.00000000000E+00  0.19258724926E+04  0.19258724926E+04  0.25500000920E-02 0. -1.
       -2   -1    0    0    0  501  0.00000000000E+00  0.00000000000E+00 -0.14139971414E+04  0.14139971414E+04  0.25500000920E-02 0.  1.
    10030    2    1    2    0    0  0.00000000000E+00  0.00000000000E+00  0.51187535121E+03  0.33398696340E+04  0.33004110042E+04 0.  0.
        5    1    3    3  502    0  0.18909287613E+03 -0.31471421457E+03 -0.13721335680E+04  0.14204132395E+04  0.46999998093E+01 0.  1.
       -5    1    3    3    0  502 -0.18909287613E+03  0.31471421457E+03  0.18840089192E+04  0.19194563945E+04  0.46999998093E+01 0. -1.
</event>
<event>
 5   0  0.2383270E-08  0.3314358E+04  0.7818609E-02  0.8159252E-01
        1   -1    0    0  501    0  0.00000000000E+00  0.00000000000E+00  0.18353153637E+04  0.18353153637E+04  0.50400001928E-02 0.  1.
       -1   -1    0    0    0  501  0.00000000000E+00  0.00000000000E+00 -0.14963325894E+04  0.14963325894E+04  0.50400001928E-02 0. -1.
    10030    2    1    2    0    0  0.00000000000E+00  0.00000000000E+00  0.33898277435E+03  0.33316479531E+04  0.33143579714E+04 0.  0.
        5    1    3    3  502    0 -0.31599750329E+02  0.10702960630E+04 -0.11018943068E+04  0.15364652160E+04  0.46999998093E+01 0. -1.
       -5    1    3    3    0  502  0.31599750329E+02 -0.10702960630E+04  0.14408770811E+04  0.17951827371E+04  0.46999998093E+01 0.  1.
</event>
<event>
 5   0  0.6706080E-08  0.3304657E+04  0.7818609E-02  0.8161711E-01
       -2   -1    0    0    0  501  0.00000000000E+00  0.00000000000E+00  0.16463910258E+04  0.16463910258E+04  0.25500000920E-02 0.  1.
        2   -1    0    0  501    0  0.00000000000E+00  0.00000000000E+00 -0.16582871750E+04  0.16582871750E+04  0.25500000920E-02 0. -1.
    10030    2    1    2    0    0  0.00000000000E+00  0.00000000000E+00 -0.11896149252E+02  0.33046782008E+04  0.33046567889E+04 0.  0.
        4    1    3    3  502    0  0.29167613159E+03  0.35585052739E+02  0.16200533120E+04  0.16464858360E+04  0.12699999809E+01 0.  1.
       -4    1    3    3    0  502 -0.29167613159E+03 -0.35585052739E+02 -0.16319494612E+04  0.16581923648E+04  0.12699999809E+01 0. -1.
</event>
<event>
 5   0  0.2309822E-08  0.3283002E+04  0.7818609E-02  0.8167234E-01
       -1   -1    0    0    0  501  0.00000000000E+00  0.00000000000E+00  0.18300217876E+04  0.18300217876E+04  0.50400001928E-02 0.  1.
        1   -1    0    0  501    0  0.00000000000E+00  0.00000000000E+00 -0.14724008061E+04  0.14724008061E+04  0.50400001928E-02 0. -1.
    10030    2    1    2    0    0  0.00000000000E+00  0.00000000000E+00  0.35762098151E+03  0.33024225937E+04  0.32830020136E+04 0.  0.
        4    1    3    3  502    0 -0.42349063573E+03 -0.15855534363E+04  0.21365532974E+03  0.16549846618E+04  0.12699999809E+01 0.  1.
       -4    1    3    3    0  502  0.42349063573E+03  0.15855534363E+04  0.14396565177E+03  0.16474379320E+04  0.12699999809E+01 0. -1.
</event>
<event>
 5   0  0.2291682E-08  0.3298867E+04  0.7818609E-02  0.8163184E-01
        1   -1    0    0  501    0  0.00000000000E+00  0.00000000000E+00  0.21620889860E+04  0.21620889860E+04  0.50400001928E-02 0. -1.
       -1   -1    0    0    0  501  0.00000000000E+00  0.00000000000E+00 -0.12583340901E+04  0.12583340901E+04  0.50400001928E-02 0.  1.
    10030    2    1    2    0    0  0.00000000000E+00  0.00000000000E+00  0.90375489587E+03  0.34204230761E+04  0.32988666399E+04 0.  0.
        2    1    3    3  502    0  0.69094902254E+03  0.47336909081E+01 -0.11010415647E+04  0.12998944137E+04  0.25500000920E-02 0.  1.
       -2    1    3    3    0  502 -0.69094902254E+03 -0.47336909081E+01  0.20047964606E+04  0.21205286624E+04  0.25500000920E-02 0. -1.
</event>
<event>
 5   0  0.2279938E-08  0.3301007E+04  0.7818609E-02  0.8162639E-01
        1   -1    0    0  501    0  0.00000000000E+00  0.00000000000E+00  0.19967364870E+04  0.19967364870E+04  0.50400001928E-02 0. -1.
       -1   -1    0    0    0  501  0.00000000000E+00  0.00000000000E+00 -0.13643071335E+04  0.13643071335E+04  0.50400001928E-02 0.  1.
    10030    2    1    2    0    0  0.00000000000E+00  0.00000000000E+00  0.63242935344E+03  0.33610436205E+04  0.33010070179E+04 0.  0.
        3    1    3    3  502    0 -0.68824920019E+03 -0.30255167830E+03 -0.11798408762E+04  0.13990171489E+04  0.10100000352E+00 0.  1.
       -3    1    3    3    0  502  0.68824920019E+03  0.30255167830E+03  0.18122702297E+04  0.19620264716E+04  0.10100000352E+00 0. -1.
</event>
<event>
 5   0  0.7084130E-08  0.3299170E+04  0.7818609E-02  0.8163107E-01
        2   -1    0    0  501    0  0.00000000000E+00  0.00000000000E+00  0.11915164083E+04  0.11915164083E+04  0.25500000920E-02 0.  1.
       -2   -1    0    0    0  501  0.00000000000E+00  0.00000000000E+00 -0.22837538587E+04  0.22837538587E+04  0.25500000920E-02 0. -1.
    10030    2    1    2    0    0  0.00000000000E+00  0.00000000000E+00 -0.10922374504E+04  0.34752702671E+04  0.32991697109E+04 0.  0.
        3    1    3    3  502    0 -0.15856206428E+04 -0.10743779767E+03 -0.80489666636E+02  0.15912932790E+04  0.10100000352E+00 0.  1.
       -3    1    3    3    0  502  0.15856206428E+04  0.10743779767E+03 -0.10117477838E+04  0.18839769880E+04  0.10100000352E+00 0. -1.
</event>
<event>
 5   0  0.2291682E-08  0.3300299E+04  0.7818609E-02  0.8162819E-01
       -1   -1    0    0    0  501  0.00000000000E+00  0.00000000000E+00  0.16524690964E+04  0.16524690964E+04  0.50400001928E-02 0.  1.
        1   -1    0    0  501    0  0.00000000000E+00  0.00000000000E+00 -0.16478327321E+04  0.16478327321E+04  0.50400001928E-02 0. -1.
    10030    2    1    2    0    0  0.00000000000E+00  0.00000000000E+00  0.46363642627E+01  0.33003018285E+04  0.33002985719E+04 0.  0.
        2    1    3    3  502    0 -0.11299934690E+03  0.32199589704E+03  0.16167987797E+04  0.16524189857E+04  0.25500000920E-02 0.  1.
       -2    1    3    3    0  502  0.11299934690E+03 -0.32199589704E+03 -0.16121624154E+04  0.16478828429E+04  0.25500000920E-02 0. -1.
</event>
<event>
 5   0  0.2291682E-08  0.3299228E+04  0.7818609E-02  0.8163092E-01
        1   -1    0    0  501    0  0.00000000000E+00  0.00000000000E+00  0.25174389135E+04  0.25174389135E+04  0.50400001928E-02 0. -1.
       -1   -1    0    0    0  501  0.00000000000E+00  0.00000000000E+00 -0.10809505111E+04  0.10809505111E+04  0.50400001928E-02 0.  1.
    10030    2    1    2    0    0  0.00000000000E+00  0.00000000000E+00  0.14364884024E+04  0.35983894247E+04  0.32992283221E+04 0.  0.
        2    1    3    3  502    0  0.51262419134E+03  0.34079758203E+03  0.23874776528E+04  0.24655579686E+04  0.25500000920E-02 0. -1.
       -2    1    3    3    0  502 -0.51262419134E+03 -0.34079758203E+03 -0.95098925044E+03  0.11328314561E+04  0.25500000920E-02 0.  1.
</event>
<event>
 5   0  0.6821287E-08  0.3300050E+04  0.7818609E-02  0.8162883E-01
       -2   -1    0    0    0  501  0.00000000000E+00  0.00000000000E+00  0.11437990452E+04  0.11437990452E+04  0.25500000920E-02 0. -1.
        2   -1    0    0  501    0  0.00000000000E+00  0.00000000000E+00 -0.23802982640E+04  0.23802982640E+04  0.25500000920E-02 0.  1.
    10030    2    1    2    0    0  0.00000000000E+00  0.00000000000E+00 -0.12364992188E+04  0.35240973092E+04  0.33000502309E+04 0.  0.
        5    1    3    3  502    0 -0.15243258513E+04  0.23499525676E+03 -0.12443738530E+04  0.19817367251E+04  0.46999998093E+01 0. -1.
       -5    1    3    3    0  502  0.15243258513E+04 -0.23499525676E+03  0.78746341926E+01  0.15423605841E+04  0.46999998093E+01 0.  1.
</event>
<event>
 5   0  0.6706080E-08  0.3300188E+04  0.7818609E-02  0.8162848E-01
       -2   -1    0    0    0  501  0.00000000000E+00  0.00000000000E+00  0.17933060735E+04  0.17933060735E+04  0.25500000920E-02 0.  1.
        2   -1    0    0  501    0  0.00000000000E+00  0.00000000000E+00 -0.15183186430E+04  0.15183186430E+04  0.25500000920E-02 0. -1.
    10030    2    1    2    0    0  0.00000000000E+00  0.00000000000E+00  0.27498743052E+03  0.33116247165E+04  0.33001879001E+04 0.  0.
        4    1    3    3  502    0 -0.61565301659E+03 -0.53750583173E+03 -0.13009548440E+04  0.15363678840E+04  0.12699999809E+01 0. -1.
       -4    1    3    3    0  502  0.61565301659E+03  0.53750583173E+03  0.15759422745E+04  0.17752568325E+04  0.12699999809E+01 0.  1.
</event>
<event>
 5   0  0.2291682E-08  0.3298966E+04  0.7818609E-02  0.8163158E-01
        1   -1    0    0  501    0  0.00000000000E+00  0.00000000000E+00  0.20297029076E+04  0.20297029076E+04  0.50400001928E-02 0.  1.
       -1   -1    0    0    0  501  0.00000000000E+00  0.00000000000E+00 -0.13404892117E+04  0.13404892117E+04  0.50400001928E-02 0. -1.
    10030    2    1    2    0    0  0.00000000000E+00  0.00000000000E+00  0.68921369584E+03  0.33701921193E+04  0.32989664143E+04 0.  0.
        2    1    3    3  502    0  0.77522004125E+03 -0.13395269912E+04  0.92744733361E+03  0.18042885659E+04  0.25500000920E-02 0.  1.
       -2    1    3    3    0  502 -0.77522004125E+03  0.13395269912E+04 -0.23823363777E+03  0.15659035534E+04  0.25500000920E-02 0. -1.
</event>
<event>
 5   0  0.2279938E-08  0.3298968E+04  0.7818609E-02  0.8163158E-01
       -1   -1    0    0    0  501  0.00000000000E+00  0.00000000000E+00  0.15076651518E+04  0.15076651518E+04  0.50400001928E-02 0. -1.
        1   -1    0    0  501    0  0.00000000000E+00  0.00000000000E+00 -0.18046430485E+04  0.18046430485E+04  0.50400001928E-02 0.  1.
    10030    2    1    2    0    0  0.00000000000E+00  0.00000000000E+00 -0.29697789668E+03  0.33123082003E+04  0.32989679815E+04 0.  0.
        3    1    3    3  502    0  0.74113764738E+03 -0.12996422293E+03  0.13253097053E+04  0.15240149398E+04  0.10100000352E+00 0. -1.
       -3    1    3    3    0  502 -0.74113764738E+03  0.12996422293E+03 -0.16222876020E+04  0.17882932605E+04  0.10100000352E+00 0.  1.
</event>
<event>
 5   0  0.2279938E-08  0.3304611E+04  0.7818609E-02  0.8161723E-01
        1   -1    0    0  501    0  0.00000000000E+00  0.00000000000E+00  0.21758930159E+04  0.21758930159E+04  0.50400001928E-02 0. -1.
       -1   -1    0    0    0  501  0.00000000000E+00  0.00000000000E+00 -0.12547096527E+04  0.12547096528E+04  0.50400001928E-02 0.  1.
    10030    2    1    2    0    0  0.00000000000E+00  0.00000000000E+00  0.92118336316E+03  0.34306026687E+04  0.33046113057E+04 0.  0.
        3    1    3    3  502    0 -0.80729393982E+02  0.34247480514E+03 -0.12153653622E+04  0.12652743580E+04  0.10100000352E+00 0.  1.
       -3    1    3    3    0  502  0.80729393982E+02 -0.34247480514E+03  0.21365487253E+04  0.21653283107E+04  0.10100000352E+00 0. -1.
</event>
<event>
 5   0  0.6765252E-08  0.3296033E+04  0.7818609E-02  0.8163906E-01
       -2   -1    0    0    0  501  0.00000000000E+00  0.00000000000E+00  0.16481394245E+04  0.16481394245E+04  0.25500000920E-02 0. -1.
        2   -1    0    0  501    0  0.00000000000E+00  0.00000000000E+00 -0.16478931220E+04  0.16478931221E+04  0.25500000920E-02 0.  1.
    10030    2    1    2    0    0  0.00000000000E+00  0.00000000000E+00  0.24630249965E+00  0.32960325466E+04  0.32960325374E+04 0.  0.
        2    1    3    3  502    0  0.10878803854E+04 -0.23778378387E+03 -0.12147565833E+04  0.16479254890E+04  0.25500000920E-02 0.  1.
       -2    1    3    3    0  502 -0.10878803854E+04  0.23778378387E+03  0.12150028858E+04  0.16481070576E+04  0.25500000920E-02 0. -1.
</event>
<event>
 5   0  0.2244093E-08  0.3299146E+04  0.7818609E-02  0.8163113E-01
        1   -1    0    0  501    0  0.00000000000E+00  0.00000000000E+00  0.14906830221E+04  0.14906830221E+04  0.50400001928E-02 0.  1.
       -1   -1    0    0    0  501  0.00000000000E+00  0.00000000000E+00 -0.18253984192E+04  0.18253984192E+04  0.50400001928E-02 0. -1.
    10030    2    1    2    0    0  0.00000000000E+00  0.00000000000E+00 -0.33471539713E+03  0.33160814414E+04  0.32991456059E+04 0.  0.
        1    1    3    3  502    0  0.61205258309E+03  0.12773265194E+04 -0.10172269834E+04  0.17438239984E+04  0.50400001928E-02 0. -1.
       -1    1    3    3    0  502 -0.61205258309E+03 -0.12773265194E+04  0.68251158625E+03  0.15722574430E+04  0.50400001928E-02 0.  1.
</event>
<event>
 5   0  0.6821287E-08  0.3297707E+04  0.7818609E-02  0.8163479E-01
        2   -1    0    0  501    0  0.00000000000E+00  0.00000000000E+00  0.22525359088E+04  0.22525359088E+04  0.25500000920E-02 0.  1.
       -2   -1    0    0    0  501  0.00000000000E+00  0.00000000000E+00 -0.12069588165E+04  0.12069588165E+04  0.25500000920E-02 0. -1.
    10030    2    1    2    0    0  0.00000000000E+00  0.00000000000E+00  0.10455770923E+04  0.34594947253E+04  0.32977071274E+04 0.  0.
        5    1    3    3  502    0  0.39454318362E+03  0.87543498148E+03 -0.88336179684E+03  0.13047608534E+04  0.46999998093E+01 0. -1.
       -5    1    3    3    0  502 -0.39454318362E+03 -0.87543498148E+03  0.19289388891E+04  0.21547338719E+04  0.46999998093E+01 0.  1.
</event>
<event>
 5   0  0.2279938E-08  0.3302987E+04  0.7818609E-02  0.8162136E-01
        1   -1    0    0  501    0  0.00000000000E+00  0.00000000000E+00  0.23066530080E+04  0.23066530080E+04  0.50400001928E-02 0. -1.
       -1   -1    0    0    0  501  0.00000000000E+00  0.00000000000E+00 -0.11824188720E+04  0.11824188721E+04  0.50400001928E-02 0.  1.
    10030    2    1    2    0    0  0.00000000000E+00  0.00000000000E+00  0.11242341360E+04  0.34890718801E+04  0.33029865564E+04 0.  0.
        3    1    3    3  502    0 -0.50985059220E+03  0.86557154288E+03 -0.82256032438E+03  0.12983709869E+04  0.10100000352E+00 0.  1.
       -3    1    3    3    0  502  0.50985059220E+03 -0.86557154288E+03  0.19467944604E+04  0.21907008932E+04  0.10100000352E+00 0. -1.
</event>
<event>
 5   0  0.6765252E-08  0.3301892E+04  0.7818609E-02  0.8162414E-01
       -2   -1    0    0    0  501  0.00000000000E+00  0.00000000000E+00  0.14775058810E+04  0.14775058810E+04  0.25500000920E-02 0. -1.
        2   -1    0    0  501    0  0.00000000000E+00  0.00000000000E+00 -0.18447457821E+04  0.18447457821E+04  0.25500000920E-02 0.  1.
    10030    2    1    2    0    0  0.00000000000E+00  0.00000000000E+00 -0.36723990111E+03  0.33222516630E+04  0.33018920285E+04 0.  0.
        2    1    3    3  502    0  0.11147605035E+04  0.10162673225E+04 -0.85867601117E+03  0.17357461632E+04  0.25500000920E-02 0.  1.
       -2    1    3    3    0  502 -0.11147605035E+04 -0.10162673225E+04  0.49143611007E+03  0.15865054999E+04  0.25500000920E-02 0. -1.
</event>
<event>
 5   0  0.6821287E-08  0.3301587E+04  0.7818609E-02  0.8162492E-01
        2   -1    0    0  501    0  0.00000000000E+00  0.00000000000E+00  0.15848142807E+04  0.15848142807E+04  0.25500000920E-02 0.  1.
       -2   -1    0    0    0  501  0.00000000000E+00  0.00000000000E+00 -0.17195200826E+04  0.17195200826E+04  0.25500000920E-02 0. -1.
    10030    2    1    2    0    0  0.00000000000E+00  0.00000000000E+00 -0.13470580186E+03  0.33043343633E+04  0.33015874866E+04 0.  0.
        5    1    3    3  502    0 -0.10025186347E+04 -0.12925662093E+04  0.15492842347E+03  0.16431055733E+04  0.46999998093E+01 0. -1.
       -5    1    3    3    0  502  0.10025186347E+04  0.12925662093E+04 -0.28963422534E+03  0.16612287901E+04  0.46999998093E+01 0.  1.
</event>
<event>
 5   0  0.2244093E-08  0.3299740E+04  0.7818609E-02  0.8162961E-01
        1   -1    0    0  501    0  0.00000000000E+00  0.00000000000E+00  0.18932901752E+04  0.18932901752E+04  0.50400001928E-02 0.  1.
       -1   -1    0    0    0  501  0.00000000000E+00  0.00000000000E+00 -0.14377467390E+04  0.14377467390E+04  0.50400001928E-02 0. -1.
    10030    2    1    2    0    0  0.00000000000E+00  0.00000000000E+00  0.45554343621E+03  0.33310369142E+04  0.32997404597E+04 0.  0.
        1    1    3    3  502    0 -0.75582451258E+02 -0.37689847938E+03 -0.13919104434E+04  0.14440151846E+04  0.50400001928E-02 0. -1.
       -1    1    3    3    0  502  0.75582451258E+02  0.37689847938E+03  0.18474538796E+04  0.18870217296E+04  0.50400001928E-02 0.  1.
</event>
<event>
 5   0  0.2309822E-08  0.3301054E+04  0.7818609E-02  0.8162627E-01
        1   -1    0    0  501    0  0.00000000000E+00  0.00000000000E+00  0.15095852733E+04  0.15095852733E+04  0.50400001928E-02 0.  1.
       -1   -1    0    0    0  501  0.00000000000E+00  0.00000000000E+00 -0.18046279947E+04  0.18046279947E+04  0.50400001928E-02 0. -1.
    10030    2    1    2    0    0  0.00000000000E+00  0.00000000000E+00 -0.29504272138E+03  0.33142132680E+04  0.33010542829E+04 0.  0.
        4    1    3    3  502    0  0.74236655705E+03  0.36761774360E+03 -0.15807930566E+04  0.17847014348E+04  0.12699999809E+01 0. -1.
       -4    1    3    3    0  502 -0.74236655705E+03 -0.36761774360E+03  0.12857503353E+04  0.15295118332E+04  0.12699999809E+01 0.  1.
</event>
<event>
 5   0  0.7084130E-08  0.3300355E+04  0.7818609E-02  0.8162805E-01
       -2   -1    0    0    0  501  0.00000000000E+00  0.00000000000E+00  0.16310089792E+04  0.16310089792E+04  0.25500000920E-02 0.  1.
        2   -1    0    0  501    0  0.00000000000E+00  0.00000000000E+00 -0.16695708024E+04  0.16695708024E+04  0.25500000920E-02 0. -1.
    10030    2    1    2    0    0  0.00000000000E+00  0.00000000000E+00 -0.38561823184E+02  0.33005797816E+04  0.33003545083E+04 0.  0.
        3    1    3    3  502    0 -0.63427339860E+03 -0.28545591836E+03 -0.15158111791E+04  0.16677743751E+04  0.10100000352E+00 0. -1.
       -3    1    3    3    0  502  0.63427339860E+03  0.28545591836E+03  0.14772493559E+04  0.16328054064E+04  0.10100000352E+00 0.  1.
</event>
<event>
 5   0  0.2383270E-08  0.3300691E+04  0.7818609E-02  0.8162720E-01
        1   -1    0    0  501    0  0.00000000000E+00  0.00000000000E+00  0.23893458907E+04  0.23893458907E+04  0.50400001928E-02 0. -1.
       -1   -1    0    0    0  501  0.00000000000E+00  0.00000000000E+00 -0.11399101793E+04  0.11399101793E+04  0.50400001928E-02 0.  1.
    10030    2    1    2    0    0  0.00000000000E+00  0.00000000000E+00  0.12494357114E+04  0.35292560701E+04  0.33006906567E+04 0.  0.
        5    1    3    3  502    0 -0.30521723037E+03  0.15491944650E+04  0.11380197755E+04  0.19463484137E+04  0.46999998093E+01 0. -1.
       -5    1    3    3    0  502  0.30521723037E+03 -0.15491944650E+04  0.11141593593E+03  0.15829076564E+04  0.46999998093E+01 0.  1.
</event>
<event>
 5   0  0.6603516E-08  0.3298955E+04  0.7818609E-02  0.8163161E-01
        2   -1    0    0  501    0  0.00000000000E+00  0.00000000000E+00  0.14578894595E+04  0.14578894595E+04  0.25500000920E-02 0. -1.
       -2   -1    0    0    0  501  0.00000000000E+00  0.00000000000E+00 -0.18662435589E+04  0.18662435589E+04  0.25500000920E-02 0.  1.
    10030    2    1    2    0    0  0.00000000000E+00  0.00000000000E+00 -0.40835409947E+03  0.33241330184E+04  0.32989554791E+04 0.  0.
        1    1    3    3  502    0 -0.13525895980E+04  0.88021570796E+03 -0.54810075151E+03  0.17043159176E+04  0.50400001928E-02 0.  1.
       -1    1    3    3    0  502  0.13525895980E+04 -0.88021570796E+03  0.13974665204E+03  0.16198171008E+04  0.50400001928E-02 0. -1.
</event>
<event>
 5   0  0.2244093E-08  0.3299600E+04  0.7818609E-02  0.8162997E-01
       -1   -1    0    0    0  501  0.00000000000E+00  0.00000000000E+00  0.15528555611E+04  0.15528555611E+04  0.50400001928E-02 0.  1.
        1   -1    0    0  501    0  0.00000000000E+00  0.00000000000E+00 -0.17527961623E+04  0.17527961623E+04  0.50400001928E-02 0. -1.
    10030    2    1    2    0    0  0.00000000000E+00  0.00000000000E+00 -0.19994060118E+03  0.33056517234E+04  0.32995995321E+04 0.  0.
        1    1    3    3  502    0 -0.34679687532E+03  0.10933765290E+04 -0.12879357384E+04  0.17246793247E+04  0.50400001928E-02 0. -1.
       -1    1    3    3    0  502  0.34679687532E+03 -0.10933765290E+04  0.10879951372E+04  0.15809723987E+04  0.50400001928E-02 0.  1.
</event>
<event>
 5   0  0.6765252E-08  0.3300505E+04  0.7818609E-02  0.8162767E-01
       -2   -1    0    0    0  501  0.00000000000E+00  0.00000000000E+00  0.11078722312E+04  0.11078722312E+04  0.25500000920E-02 0. -1.
        2   -1    0    0  501    0  0.00000000000E+00  0.00000000000E+00 -0.24581661234E+04  0.24581661234E+04  0.25500000920E-02 0.  1.
    10030    2    1    2    0    0  0.00000000000E+00  0.00000000000E+00 -0.13502938922E+04  0.35660383546E+04  0.33005054085E+04 0.  0.
        2    1    3    3  502    0  0.15888468314E+04  0.20368773785E+03 -0.24647688308E+03  0.16207016388E+04  0.25500000920E-02 0. -1.
       -2    1    3    3    0  502 -0.15888468314E+04 -0.20368773785E+03 -0.11038170091E+04  0.19453367158E+04  0.25500000920E-02 0.  1.
</event>
<event>
 5   0  0.2279938E-08  0.3299740E+04  0.7818609E-02  0.8162962E-01
       -1   -1    0    0    0  501  0.00000000000E+00  0.00000000000E+00  0.13850605968E+04  0.13850605968E+04  0.50400001928E-02 0. -1.
        1   -1    0    0  501    0  0.00000000000E+00  0.00000000000E+00 -0.19653080314E+04  0.19653080314E+04  0.50400001928E-02 0.  1.
    10030    2    1    2    0    0  0.00000000000E+00  0.00000000000E+00 -0.58024743459E+03  0.33503686282E+04  0.32997398170E+04 0.  0.
        3    1    3    3  502    0 -0.10358895902E+04  0.96451268880E+03  0.57065670142E+03  0.15261065006E+04  0.10100000352E+00 0.  1.
       -3    1    3    3    0  502  0.10358895902E+04 -0.96451268880E+03 -0.11509041360E+04  0.18242621277E+04  0.10100000352E+00 0. -1.
</event>
<event>
 5   0  0.6706080E-08  0.3299484E+04  0.7818609E-02  0.8163027E-01
        2   -1    0    0  501    0  0.00000000000E+00  0.00000000000E+00  0.20997770415E+04  0.20997770415E+04  0.25500000920E-02 0.  1.
       -2   -1    0    0    0  501  0.00000000000E+00  0.00000000000E+00 -0.12961607622E+04  0.12961607622E+04  0.25500000920E-02 0. -1.
    10030    2    1    2    0    0  0.00000000000E+00  0.00000000000E+00  0.80361627930E+03  0.33959378037E+04  0.32994839660E+04 0.  0.
        4    1    3    3  502    0  0.48218930826E+03 -0.10061448729E+04  0.16525752517E+04  0.19939510049E+04  0.12699999809E+01 0.  1.
       -4    1    3    3    0  502 -0.48218930826E+03  0.10061448729E+04 -0.84895897244E+03  0.14019867988E+04  0.12699999809E+01 0. -1.
</event>
<event>
 5   0  0.6603516E-08  0.3300004E+04  0.7818609E-02  0.8162894E-01
        2   -1    0    0  501    0  0.00000000000E+00  0.00000000000E+00  0.19767516092E+04  0.19767516092E+04  0.25500000920E-02 0.  1.
       -2   -1    0    0    0  501  0.00000000000E+00  0.00000000000E+00 -0.13772626338E+04  0.13772626338E+04  0.25500000920E-02 0. -1.
    10030    2    1    2    0    0  0.00000000000E+00  0.00000000000E+00  0.59948897536E+03  0.33540142430E+04  0.33000037138E+04 0.  0.
        1    1    3    3  502    0  0.12960820558E+04  0.40615329190E+03 -0.65245449481E+03  0.15068132133E+04  0.50400001928E-02 0. -1.
       -1    1    3    3    0  502 -0.12960820558E+04 -0.40615329190E+03  0.12519434702E+04  0.18472010298E+04  0.50400001928E-02 0.  1.
</event>
<event>
 5   0  0.2279938E-08  0.3297891E+04  0.7818609E-02  0.8163432E-01
        1   -1    0    0  501    0  0.00000000000E+00  0.00000000000E+00  0.16113707332E+04  0.16113707332E+04  0.50400001928E-02 0. -1.
       -1   -1    0    0    0  501  0.00000000000E+00  0.00000000000E+00 -0.16873960838E+04  0.16873960838E+04  0.50400001928E-02 0.  1.
    10030    2    1    2    0    0  0.00000000000E+00  0.00000000000E+00 -0.76025350568E+02  0.32987668170E+04  0.32978906378E+04 0.  0.
        3    1    3    3  502    0 -0.71554655340E+02 -0.74217453742E+03 -0.15091438936E+04  0.16832879773E+04  0.10100000352E+00 0.  1.
       -3    1    3    3    0  502  0.71554655340E+02  0.74217453742E+03  0.14331185431E+04  0.16154788397E+04  0.10100000352E+00 0. -1.
</event>
<event>
 5   0  0.2383270E-08  0.3298953E+04  0.7818609E-02  0.8163162E-01
        1   -1    0    0  501    0  0.00000000000E+00  0.00000000000E+00  0.12567497231E+04  0.12567497231E+04  0.50400001928E-02 0. -1.
       -1   -1    0    0    0  501  0.00000000000E+00  0.00000000000E+00 -0.21649285135E+04  0.21649285135E+04  0.50400001928E-02 0.  1.
    10030    2    1    2    0    0  0.00000000000E+00  0.00000000000E+00 -0.90817879044E+03  0.34216782366E+04  0.32989533552E+04 0.  0.
        5    1    3    3  502    0 -0.51838134332E+03 -0.92535741895E+03 -0.17643112134E+04  0.20585970265E+04  0.46999998093E+01 0.  1.
       -5    1    3    3    0  502  0.51838134332E+03  0.92535741895E+03  0.85613242291E+03  0.13630812101E+04  0.46999998093E+01 0. -1.
</event>
<event>
 5   0  0.2279938E-08  0.3300480E+04  0.7818609E-02  0.8162773E-01
        1   -1    0    0  501    0  0.00000000000E+00  0.00000000000E+00  0.19630196911E+04  0.19630196911E+04  0.50400001928E-02 0. -1.
       -1   -1    0    0    0  501  0.00000000000E+00  0.00000000000E+00 -0.13872975699E+04  0.13872975699E+04  0.50400001928E-02 0.  1.
    10030    2    1    2    0    0  0.00000000000E+00  0.00000000000E+00  0.57572212120E+03  0.33503172610E+04  0.33004802360E+04 0.  0.
        3    1    3    3  502    0  0.12472529223E+04  0.44590063182E+03 -0.71129082943E+03  0.15034632952E+04  0.10100000352E+00 0.  1.
       -3    1    3    3    0  502 -0.12472529223E+04 -0.44590063182E+03  0.12870129506E+04  0.18468539658E+04  0.10100000352E+00 0. -1.
</event>
<event>
 5   0  0.2383270E-08  0.3298853E+04  0.7818609E-02  0.8163187E-01
       -1   -1    0    0    0  501  0.00000000000E+00  0.00000000000E+00  0.20549566395E+04  0.20549566395E+04  0.50400001928E-02 0. -1.
        1   -1    0    0  501    0  0.00000000000E+00  0.00000000000E+00 -0.13239249787E+04  0.13239249787E+04  0.50400001928E-02 0.  1.
    10030    2    1    2    0    0  0.00000000000E+00  0.00000000000E+00  0.73103166083E+03  0.33788816183E+04  0.32988533919E+04 0.  0.
        5    1    3    3  502    0 -0.29709823473E+03 -0.11713844156E+04  0.15153251545E+04  0.19382056712E+04  0.46999998093E+01 0. -1.
       -5    1    3    3    0  502  0.29709823473E+03  0.11713844156E+04 -0.78429349364E+03  0.14406759470E+04  0.46999998093E+01 0.  1.
</event>
<event>
 5   0  0.6765252E-08  0.3298966E+04  0.7818609E-02  0.8163158E-01
       -2   -1    0    0    0  501  0.00000000000E+00  0.00000000000E+00  0.13237542769E+04  0.13237542769E+04  0.25500000920E-02 0. -1.
        2   -1    0    0  501    0  0.00000000000E+00  0.00000000000E+00 -0.20553622779E+04  0.20553622779E+04  0.25500000920E-02 0.  1.
    10030    2    1    2    0    0  0.00000000000E+00  0.00000000000E+00 -0.73160800097E+03  0.33791165547E+04  0.32989662659E+04 0.  0.
        2    1    3    3  502    0 -0.14544303173E+04 -0.13874830090E+03 -0.11500265063E+04  0.18593492421E+04  0.25500000920E-02 0.  1.
       -2    1    3    3    0  502  0.14544303173E+04  0.13874830090E+03  0.41841850534E+03  0.15197673126E+04  0.25500000920E-02 0. -1.
</event>
<event>
 5   0  0.2279938E-08  0.3296114E+04  0.7818609E-02  0.8163885E-01
       -1   -1    0    0    0  501  0.00000000000E+00  0.00000000000E+00  0.13725230107E+04  0.13725230107E+04  0.50400001928E-02 0.  1.
        1   -1    0    0  501    0  0.00000000000E+00  0.00000000000E+00 -0.19789049280E+04  0.19789049280E+04  0.50400001928E-02 0. -1.
    10030    2    1    2    0    0  0.00000000000E+00  0.00000000000E+00 -0.60638191725E+03  0.33514279387E+04  0.32961144093E+04 0.  0.
        3    1    3    3  502    0  0.10944539889E+04  0.14198941841E+03 -0.15477007030E+04  0.19008861105E+04  0.10100000352E+00 0. -1.
       -3    1    3    3    0  502 -0.10944539889E+04 -0.14198941841E+03  0.94131878578E+03  0.14505418282E+04  0.10100000352E+00 0.  1.
</event>
<event>
 5   0  0.6603516E-08  0.3300752E+04  0.7818609E-02  0.8162704E-01
       -2   -1    0    0    0  501  0.00000000000E+00  0.00000000000E+00  0.13059417414E+04  0.13059417414E+04  0.25500000920E-02 0. -1.
        2   -1    0    0  501    0  0.00000000000E+00  0.00000000000E+00 -0.20856526249E+04  0.20856526249E+04  0.25500000920E-02 0.  1.
    10030    2    1    2    0    0  0.00000000000E+00  0.00000000000E+00 -0.77971088350E+03  0.33915943663E+04  0.33007519270E+04 0.  0.
        1    1    3    3  502    0  0.49334578188E+03  0.11275233292E+04  0.73997090003E+03  0.14360556575E+04  0.50400001928E-02 0. -1.
       -1    1    3    3    0  502 -0.49334578188E+03 -0.11275233292E+04 -0.15196817835E+04  0.19555387088E+04  0.50400001928E-02 0.  1.
</event>
<event>
 5   0  0.6706080E-08  0.3300556E+04  0.7818609E-02  0.8162754E-01
        2   -1    0    0  501    0  0.00000000000E+00  0.00000000000E+00  0.23281097348E+04  0.23281097348E+04  0.25500000920E-02 0. -1.
       -2   -1    0    0    0  501  0.00000000000E+00  0.00000000000E+00 -0.11697976232E+04  0.11697976232E+04  0.25500000920E-02 0.  1.
    10030    2    1    2    0    0  0.00000000000E+00  0.00000000000E+00  0.11583121116E+04  0.34979073580E+04  0.33005558527E+04 0.  0.
        4    1    3    3  502    0  0.42444348085E+03 -0.62150343792E+03 -0.97733263681E+03  0.12335313079E+04  0.12699999809E+01 0.  1.
       -4    1    3    3    0  502 -0.42444348085E+03  0.62150343792E+03  0.21356447484E+04  0.22643760500E+04  0.12699999809E+01 0. -1.
</event>
<event>
 5   0  0.2279938E-08  0.3300228E+04  0.7818609E-02  0.8162837E-01
       -1   -1    0    0    0  501  0.00000000000E+00  0.00000000000E+00  0.98169218314E+03  0.98169218316E+03  0.50400001928E-02 0.  1.
        1   -1    0    0  501    0  0.00000000000E+00  0.00000000000E+00 -0.27736557215E+04  0.27736557215E+04  0.50400001928E-02 0. -1.
    10030    2    1    2    0    0  0.00000000000E+00  0.00000000000E+00 -0.17919635384E+04  0.37553479047E+04  0.33002279561E+04 0.  0.
        3    1    3    3  502    0 -0.66927232330E+02 -0.12535313352E+04  0.32272314324E+03  0.12961366827E+04  0.10100000352E+00 0.  1.
       -3    1    3    3    0  502  0.66927232330E+02  0.12535313352E+04 -0.21146866816E+04  0.24592112220E+04  0.10100000352E+00 0. -1.
</event>
<event>
 5   0  0.7084130E-08  0.3288283E+04  0.7818609E-02  0.8165883E-01
        2   -1    0    0  501    0  0.00000000000E+00  0.00000000000E+00  0.14582049880E+04  0.14582049880E+04  0.25500000920E-02 0.  1.
       -2   -1    0    0    0  501  0.00000000000E+00  0.00000000000E+00 -0.18537874075E+04  0.18537874075E+04  0.25500000920E-02 0. -1.
    10030    2    1    2    0    0  0.00000000000E+00  0.00000000000E+00 -0.39558241944E+03  0.33119923955E+04  0.32882834697E+04 0.  0.
        3    1    3    3  502    0  0.15383132407E+04  0.53905936838E+03 -0.41430485387E+03  0.16818564598E+04  0.10100000352E+00 0.  1.
       -3    1    3    3    0  502 -0.15383132407E+04 -0.53905936838E+03  0.18722434425E+02  0.16301359357E+04  0.10100000352E+00 0. -1.
</event>
<event>
 5   0  0.6603516E-08  0.3304209E+04  0.7818609E-02  0.8161825E-01
        2   -1    0    0  501    0  0.00000000000E+00  0.00000000000E+00  0.19147153128E+04  0.19147153128E+04  0.25500000920E-02 0. -1.
       -2   -1    0    0    0  501  0.00000000000E+00  0.00000000000E+00 -0.14255121476E+04  0.14255121476E+04  0.25500000920E-02 0.  1.
    10030    2    1    2    0    0  0.00000000000E+00  0.00000000000E+00  0.48920316524E+03  0.33402274604E+04  0.33042093986E+04 0.  0.
        1    1    3    3  502    0 -0.41499060471E+03  0.13891672954E+04  0.10453516612E+04  0.17873900168E+04  0.50400001928E-02 0.  1.
       -1    1    3    3    0  502  0.41499060471E+03 -0.13891672954E+04 -0.55614849599E+03  0.15528374436E+04  0.50400001928E-02 0. -1.
</event>
<event>
 5   0  0.2291682E-08  0.3311618E+04  0.7818609E-02  0.8159945E-01
       -1   -1    0    0    0  501  0.00000000000E+00  0.00000000000E+00  0.18427489345E+04  0.18427489345E+04  0.50400001928E-02 0. -1.
        1   -1    0    0  501    0  0.00000000000E+00  0.00000000000E+00 -0.14878334755E+04  0.14878334755E+04  0.50400001928E-02 0.  1.
    10030    2    1    2    0    0  0.00000000000E+00  0.00000000000E+00  0.35491545900E+03  0.33305824100E+04  0.33116180648E+04 0.  0.
        2    1    3    3  502    0  0.19991209115E+03  0.15255654065E+04 -0.43791949967E+03  0.15997150190E+04  0.25500000920E-02 0.  1.
       -2    1    3    3    0  502 -0.19991209115E+03 -0.15255654065E+04  0.79283495867E+03  0.17308673910E+04  0.25500000920E-02 0. -1.
</event>
<event>
 5   0  0.2383270E-08  0.3299044E+04  0.7818609E-02  0.8163139E-01
        1   -1    0    0  501    0  0.00000000000E+00  0.00000000000E+00  0.14631366337E+04  0.14631366337E+04  0.50400001928E-02 0.  1.
       -1   -1    0    0    0  501  0.00000000000E+00  0.00000000000E+00 -0.18596510728E+04  0.18596510728E+04  0.50400001928E-02 0. -1.
    10030    2    1    2    0    0  0.00000000000E+00  0.00000000000E+00 -0.39651443909E+03  0.33227877065E+04  0.32990444741E+04 0.  0.
        5    1    3    3  502    0 -0.34889130797E+02 -0.31046194228E+03  0.14330592094E+04  0.14667258287E+04  0.46999998093E+01 0.  1.
       -5    1    3    3    0  502  0.34889130797E+02  0.31046194228E+03 -0.18295736485E+04  0.18560618778E+04  0.46999998093E+01 0. -1.
</event>
<event>
 5   0  0.2244093E-08  0.3299278E+04  0.7818609E-02  0.8163079E-01
       -1   -1    0    0    0  501  0.00000000000E+00  0.00000000000E+00  0.12285874607E+04  0.12285874608E+04  0.50400001928E-02 0.  1.
        1   -1    0    0  501    0  0.00000000000E+00  0.00000000000E+00 -0.22149903991E+04  0.22149903991E+04  0.50400001928E-02 0. -1.
    10030    2    1    2    0    0  0.00000000000E+00  0.00000000000E+00 -0.98640293839E+03  0.34435778599E+04  0.32992783636E+04 0.  0.
        1    1    3    3  502    0 -0.54323006299E+03 -0.99420130213E+02  0.11292388349E+04  0.12570455879E+04  0.50400001928E-02 0.  1.
       -1    1    3    3    0  502  0.54323006299E+03  0.99420130213E+02 -0.21156417733E+04  0.21865322720E+04  0.50400001928E-02 0. -1.
</event>
<event>
 5   0  0.6821287E-08  0.3299063E+04  0.7818609E-02  0.8163134E-01
       -2   -1    0    0    0  501  0.00000000000E+00  0.00000000000E+00  0.28277563864E+04  0.28277563864E+04  0.25500000920E-02 0.  1.
        2   -1    0    0  501    0  0.00000000000E+00  0.00000000000E+00 -0.96223062837E+03  0.96223062837E+03  0.25500000920E-02 0. -1.
    10030    2    1    2    0    0  0.00000000000E+00  0.00000000000E+00  0.18655257580E+04  0.37899870148E+04  0.32990627788E+04 0.  0.
        5    1    3    3  502    0  0.12351279773E+04  0.94265443969E+03  0.15690747242E+04  0.22082020046E+04  0.46999998093E+01 0.  1.
       -5    1    3    3    0  502 -0.12351279773E+04 -0.94265443969E+03  0.29645103380E+03  0.15817850102E+04  0.46999998093E+01 0. -1.
</event>
<event>
 5   0  0.7084130E-08  0.3299660E+04  0.7818609E-02  0.8162982E-01
       -2   -1    0    0    0  501  0.00000000000E+00  0.00000000000E+00  0.11390794609E+04  0.11390794609E+04  0.25500000920E-02 0.  1.
        2   -1    0    0  501    0  0.00000000000E+00  0.00000000000E+00 -0.23895948007E+04  0.23895948007E+04  0.25500000920E-02 0. -1.
    10030    2    1    2    0    0  0.00000000000E+00  0.00000000000E+00 -0.12505153398E+04  0.35286742616E+04  0.32996595930E+04 0.  0.
        3    1    3    3  502    0  0.36265973739E+03 -0.12818095391E+04  0.41563192545E+03  0.13954596688E+04  0.10100000352E+00 0.  1.
       -3    1    3    3    0  502 -0.36265973739E+03  0.12818095391E+04 -0.16661472652E+04  0.21332145928E+04  0.10100000352E+00 0. -1.
</event>
<event>
 5   0  0.6706080E-08  0.3299814E+04  0.7818609E-02  0.8162943E-01
       -2   -1    0    0    0  501  0.00000000000E+00  0.00000000000E+00  0.17266816365E+04  0.17266816365E+04  0.25500000920E-02 0. -1.
        2   -1    0    0  501    0  0.00000000000E+00  0.00000000000E+00 -0.15765463767E+04  0.15765463767E+04  0.25500000920E-02 0.  1.
    10030    2    1    2    0    0  0.00000000000E+00  0.00000000000E+00  0.15013525976E+03  0.33032280132E+04  0.32998143449E+04 0.  0.
        4    1    3    3  502    0 -0.11489957358E+04 -0.70072938072E+03  0.10305073169E+04  0.16950397662E+04  0.12699999809E+01 0. -1.
       -4    1    3    3    0  502  0.11489957358E+04  0.70072938072E+03 -0.88037205711E+03  0.16081882470E+04  0.12699999809E+01 0.  1.
</event>
<event>
 5   0  0.7084130E-08  0.3301761E+04  0.7818609E-02  0.8162447E-01
        2   -1    0    0  501    0  0.00000000000E+00  0.00000000000E+00  0.15658157630E+04  0.15658157630E+04  0.25500000920E-02 0.  1.
       -2   -1    0    0    0  501  0.00000000000E+00  0.00000000000E+00 -0.17405666128E+04  0.17405666128E+04  0.25500000920E-02 0. -1.
    10030    2    1    2    0    0  0.00000000000E+00  0.00000000000E+00 -0.17475084974E+03  0.33063823758E+04  0.33017611294E+04 0.  0.
        3    1    3    3  502    0 -0.11191544196E+04 -0.30247465437E+03 -0.12643540689E+04  0.17153975496E+04  0.10100000352E+00 0. -1.
       -3    1    3    3    0  502  0.11191544196E+04  0.30247465437E+03  0.10896032192E+04  0.15909848261E+04  0.10100000352E+00 0.  1.
</event>
<event>
 5   0  0.2383270E-08  0.3299823E+04  0.7818609E-02  0.8162940E-01
       -1   -1    0    0    0  501  0.00000000000E+00  0.00000000000E+00  0.17579060980E+04  0.17579060980E+04  0.50400001928E-02 0. -1.
        1   -1    0    0  501    0  0.00000000000E+00  0.00000000000E+00 -0.15485511619E+04  0.15485511619E+04  0.50400001928E-02 0.  1.
    10030    2    1    2    0    0  0.00000000000E+00  0.00000000000E+00  0.20935493608E+03  0.33064572599E+04  0.32998227411E+04 0.  0.
        5    1    3    3  502    0  0.15018656239E+04 -0.66206336923E+03 -0.63759237590E+02  0.16425637240E+04  0.46999998093E+01 0.  1.
       -5    1    3    3    0  502 -0.15018656239E+04  0.66206336923E+03  0.27311417367E+03  0.16638935359E+04  0.46999998093E+01 0. -1.
</event>
<event>
 5   0  0.2309822E-08  0.3299808E+04  0.7818609E-02  0.8162944E-01
        1   -1    0    0  501    0  0.00000000000E+00  0.00000000000E+00  0.25427919305E+04  0.25427919305E+04  0.50400001928E-02 0. -1.
       -1   -1    0    0    0  501  0.00000000000E+00  0.00000000000E+00 -0.10705489005E+04  0.10705489005E+04  0.50400001928E-02 0.  1.
    10030    2    1    2    0    0  0.00000000000E+00  0.00000000000E+00  0.14722430300E+04  0.36133408310E+04  0.32998079371E+04 0.  0.
        4    1    3    3  502    0 -0.73801135681E+03  0.10660589148E+04 -0.38113730200E+03  0.13514472348E+04  0.12699999809E+01 0.  1.
       -4    1    3    3    0  502  0.73801135681E+03 -0.10660589148E+04  0.18533803320E+04  0.22618935962E+04  0.12699999809E+01 0. -1.
</event>
<event>
 5   0  0.2383270E-08  0.3303853E+04  0.7818609E-02  0.8161916E-01
       -1   -1    0    0    0  501  0.00000000000E+00  0.00000000000E+00  0.16915885441E+04  0.16915885441E+04  0.50400001928E-02 0. -1.
        1   -1    0    0  501    0  0.00000000000E+00  0.00000000000E+00 -0.16131942175E+04  0.16131942175E+04  0.50400001928E-02 0.  1.
    10030    2    1    2    0    0  0.00000000000E+00  0.00000000000E+00  0.78394326625E+02  0.33047827616E+04  0.33038528162E+04 0.  0.
        5    1    3    3  502    0 -0.13436060077E+04 -0.92283635213E+03  0.30747916425E+03  0.16587554260E+04  0.46999998093E+01 0.  1.
       -5    1    3    3    0  502  0.13436060077E+04  0.92283635213E+03 -0.22908483762E+03  0.16460273356E+04  0.46999998093E+01 0. -1.
</event>
<event>
 5   0  0.2309822E-08  0.3300294E+04  0.7818609E-02  0.8162821E-01
       -1   -1    0    0    0  501  0.00000000000E+00  0.00000000000E+00  0.21576918717E+04  0.21576918717E+04  0.50400001928E-02 0.  1.
        1   -1    0    0  501    0  0.00000000000E+00  0.00000000000E+00 -0.12619900330E+04  0.12619900330E+04  0.50400001928E-02 0. -1.
    10030    2    1    2    0    0  0.00000000000E+00  0.00000000000E+00  0.89570183871E+03  0.34196819047E+04  0.33002943119E+04 0.  0.
        4    1    3    3  502    0  0.15348789181E+02  0.15944280157E+04  0.88813103166E+03  0.18251615339E+04  0.12699999809E+01 0.  1.
       -4    1    3    3    0  502 -0.15348789181E+02 -0.15944280157E+04  0.75708070524E+01  0.15945203707E+04  0.12699999809E+01 0. -1.
</event>
<event>
 5   0  0.7084130E-08  0.3300358E+04  0.7818609E-02  0.8162804E-01
       -2   -1    0    0    0  501  0.00000000000E+00  0.00000000000E+00  0.21687325560E+04  0.21687325560E+04  0.25500000920E-02 0. -1.
        2   -1    0    0  501    0  0.00000000000E+00  0.00000000000E+00 -0.12556136153E+04  0.12556136153E+04  0.25500000920E-02 0.  1.
    10030    2    1    2    0    0  0.00000000000E+00  0.00000000000E+00  0.91311894070E+03  0.34243461714E+04  0.33003576324E+04 0.  0.
        3    1    3    3  502    0 -0.38800959646E+03  0.15091415065E+04 -0.10701352627E+03  0.15618935427E+04  0.10100000352E+00 0. -1.
       -3    1    3    3    0  502  0.38800959646E+03 -0.15091415065E+04  0.10201324670E+04  0.18624526287E+04  0.10100000352E+00 0.  1.
</event>
<event>
 5   0  0.2279938E-08  0.3299269E+04  0.7818609E-02  0.8163081E-01
       -1   -1    0    0    0  501  0.00000000000E+00  0.00000000000E+00  0.14993522831E+04  0.14993522831E+04  0.50400001928E-02 0.  1.
        1   -1    0    0  501    0  0.00000000000E+00  0.00000000000E+00 -0.18149798408E+04  0.18149798408E+04  0.50400001928E-02 0. -1.
    10030    2    1    2    0    0  0.00000000000E+00  0.00000000000E+00 -0.31562755762E+03  0.33143321239E+04  0.32992691119E+04 0.  0.
        3    1    3    3  502    0  0.13720290566E+04  0.71254860856E+03  0.42023048139E+03  0.16021182601E+04  0.10100000352E+00 0.  1.
       -3    1    3    3    0  502 -0.13720290566E+04 -0.71254860856E+03 -0.73585803901E+03  0.17122138638E+04  0.10100000352E+00 0. -1.
</event>
<event>
 5   0  0.6821287E-08  0.3299652E+04  0.7818609E-02  0.8162984E-01
        2   -1    0    0  501    0  0.00000000000E+00  0.00000000000E+00  0.24556150718E+04  0.24556150718E+04  0.25500000920E-02 0. -1.
       -2   -1    0    0    0  501  0.00000000000E+00  0.00000000000E+00 -0.11084499562E+04  0.11084499562E+04  0.25500000920E-02 0.  1.
    10030    2    1    2    0    0  0.00000000000E+00  0.00000000000E+00  0.13471651156E+04  0.35640650279E+04  0.32996523567E+04 0.  0.
        5    1    3    3  502    0 -0.61357328949E+03 -0.11063295975E+04 -0.47027165644E+03  0.13496721382E+04  0.46999998093E+01 0.  1.
       -5    1    3    3    0  502  0.61357328949E+03  0.11063295975E+04  0.18174367720E+04  0.22143928897E+04  0.46999998093E+01 0. -1.
</event>
<event>
 5   0  0.7084130E-08  0.3300414E+04  0.7818609E-02  0.8162790E-01
       -2   -1    0    0    0  501  0.00000000000E+00  0.00000000000E+00  0.12309705164E+04  0.12309705164E+04  0.25500000920E-02 0. -1.
        2   -1    0    0  501    0  0.00000000000E+00  0.00000000000E+00 -0.22122245112E+04  0.22122245112E+04  0.25500000920E-02 0.  1.
    10030    2    1    2    0    0  0.00000000000E+00  0.00000000000E+00 -0.98125399481E+03  0.34431950275E+04  0.33004140036E+04 0.  0.
        3    1    3    3  502    0  0.15161542480E+04 -0.36309812351E+03 -0.10549718932E+04  0.18824265342E+04  0.10100000352E+00 0.  1.
       -3    1    3    3    0  502 -0.15161542480E+04  0.36309812351E+03  0.73717898386E+02  0.15607684933E+04  0.10100000352E+00 0. -1.
</event>
<event>
 5   0  0.2279938E-08  0.3294523E+04  0.7818609E-02  0.8164290E-01
        1   -1    0    0  501    0  0.00000000000E+00  0.00000000000E+00  0.22359937634E+04  0.22359937635E+04  0.50400001928E-02 0.  1.
       -1   -1    0    0    0  501  0.00000000000E+00  0.00000000000E+00 -0.12135411578E+04  0.12135411578E+04  0.50400001928E-02 0. -1.
    10030    2    1    2    0    0  0.00000000000E+00  0.00000000000E+00  0.10224526057E+04  0.34495349213E+04  0.32945230068E+04 0.  0.
        3    1    3    3  502    0  0.91087579492E+02  0.73567615757E+02 -0.12091786560E+04  0.12148342165E+04  0.10100000352E+00 0. -1.
       -3    1    3    3    0  502 -0.91087579492E+02 -0.73567615757E+02  0.22316312617E+04  0.22347007047E+04  0.10100000352E+00 0.  1.
</event>
<event>
 5   0  0.6706080E-08  0.3299399E+04  0.7818609E-02  0.8163048E-01
        2   -1    0    0  501    0  0.00000000000E+00  0.00000000000E+00  0.17308417844E+04  0.17308417844E+04  0.25500000920E-02 0.  1.
       -2   -1    0    0    0  501  0.00000000000E+00  0.00000000000E+00 -0.15723610248E+04  0.15723610248E+04  0.25500000920E-02 0. -1.
    10030    2    1    2    0    0  0.00000000000E+00  0.00000000000E+00  0.15848075962E+03  0.33032028092E+04  0.32993988312E+04 0.  0.
        4    1    3    3  502    0 -0.84832986152E+02 -0.97430073181E+03 -0.12508424369E+04  0.15877868139E+04  0.12699999809E+01 0. -1.
       -4    1    3    3    0  502  0.84832986152E+02  0.97430073181E+03  0.14093231966E+04  0.17154159953E+04  0.12699999809E+01 0.  1.
</event>
<event>
 5   0  0.6821287E-08  0.3296329E+04  0.7818609E-02  0.8163830E-01
        2   -1    0    0  501    0  0.00000000000E+00  0.00000000000E+00  0.20031247400E+04  0.20031247400E+04  0.25500000920E-02 0. -1.
       -2   -1    0    0    0  501  0.00000000000E+00  0.00000000000E+00 -0.13561041540E+04  0.13561041540E+04  0.25500000920E-02 0.  1.
    10030    2    1    2    0    0  0.00000000000E+00  0.00000000000E+00  0.64702058593E+03  0.33592288940E+04  0.32963287342E+04 0.  0.
        5    1    3    3  502    0  0.94535458786E+03  0.13497048196E+04  0.29087907542E+03  0.16733293530E+04  0.46999998093E+01 0.  1.
       -5    1    3    3    0  502 -0.94535458786E+03 -0.13497048196E+04  0.35614151050E+03  0.16858995410E+04  0.46999998093E+01 0. -1.
</event>
<event>
 5   0  0.2291682E-08  0.3301602E+04  0.7818609E-02  0.8162488E-01
       -1   -1    0    0    0  501  0.00000000000E+00  0.00000000000E+00  0.19206772444E+04  0.19206772445E+04  0.50400001928E-02 0.  1.
        1   -1    0    0  501    0  0.00000000000E+00  0.00000000000E+00 -0.14188450710E+04  0.14188450710E+04  0.50400001928E-02 0. -1.
    10030    2    1    2    0    0  0.00000000000E+00  0.00000000000E+00  0.50183217343E+03  0.33395223155E+04  0.33016016970E+04 0.  0.
        2    1    3    3  502    0  0.11918679830E+04  0.45276279731E+02 -0.90348282135E+03  0.14962888889E+04  0.25500000920E-02 0. -1.
       -2    1    3    3    0  502 -0.11918679830E+04 -0.45276279731E+02  0.14053149948E+04  0.18432334266E+04  0.25500000920E-02 0.  1.
</event>
<event>
 5   0  0.2309822E-08  0.3300194E+04  0.7818609E-02  0.8162846E-01
       -1   -1    0    0    0  501  0.00000000000E+00  0.00000000000E+00  0.95702804014E+03  0.95702804016E+03  0.50400001928E-02 0. -1.
        1   -1    0    0  501    0  0.00000000000E+00  0.00000000000E+00 -0.28450793876E+04  0.28450793876E+04  0.50400001928E-02 0.  1.
    10030    2    1    2    0    0  0.00000000000E+00  0.00000000000E+00 -0.18880513475E+04  0.38021074278E+04  0.33001943885E+04 0.  0.
        4    1    3    3  502    0 -0.12067189061E+04 -0.91822443824E+03 -0.19427307682E+03  0.15287414035E+04  0.12699999809E+01 0.  1.
       -4    1    3    3    0  502  0.12067189061E+04  0.91822443824E+03 -0.16937782706E+04  0.22733660243E+04  0.12699999809E+01 0. -1.
</event>
<event>
 5   0  0.2279938E-08  0.3299767E+04  0.7818609E-02  0.8162955E-01
        1   -1    0    0  501    0  0.00000000000E+00  0.00000000000E+00  0.18764629563E+04  0.18764629563E+04  0.50400001928E-02 0. -1.
       -1   -1    0    0    0  501  0.00000000000E+00  0.00000000000E+00 -0.14506631832E+04  0.14506631832E+04  0.50400001928E-02 0.  1.
    10030    2    1    2    0    0  0.00000000000E+00  0.00000000000E+00  0.42579977316E+03  0.33271261395E+04  0.32997670980E+04 0.  0.
        3    1    3    3  502    0  0.76627200100E+03  0.12101269558E+04 -0.61275190314E+03  0.15578976005E+04  0.10100000352E+00 0.  1.
       -3    1    3    3    0  502 -0.76627200100E+03 -0.12101269558E+04  0.10385516763E+04  0.17692285390E+04  0.10100000352E+00 0. -1.
</event>
<event>
 5   0  0.2383270E-08  0.3302500E+04  0.7818609E-02  0.8162260E-01
       -1   -1    0    0    0  501  0.00000000000E+00  0.00000000000E+00  0.12300678569E+04  0.12300678569E+04  0.50400001928E-02 0. -1.
        1   -1    0    0  501    0  0.00000000000E+00  0.00000000000E+00 -0.22166474862E+04  0.22166474862E+04  0.50400001928E-02 0.  1.
    10030    2    1    2    0    0  0.00000000000E+00  0.00000000000E+00 -0.98657962938E+03  0.34467153431E+04  0.33025001577E+04 0.  0.
        5    1    3    3  502    0 -0.66029443960E+03  0.14604744972E+04 -0.78925521890E+02  0.16047510186E+04  0.46999998093E+01 0.  1.
       -5    1    3    3    0  502  0.66029443960E+03 -0.14604744972E+04 -0.90765410749E+03  0.18419643245E+04  0.46999998093E+01 0. -1.
</event>
<event>
 5   0  0.6603516E-08  0.3299942E+04  0.7818609E-02  0.8162910E-01
        2   -1    0    0  501    0  0.00000000000E+00  0.00000000000E+00  0.19028506937E+04  0.19028506937E+04  0.25500000920E-02 0.  1.
       -2   -1    0    0    0  501  0.00000000000E+00  0.00000000000E+00 -0.14306975493E+04  0.14306975493E+04  0.25500000920E-02 0. -1.
    10030    2    1    2    0    0  0.00000000000E+00  0.00000000000E+00  0.47215314441E+03  0.33335482430E+04  0.32999417111E+04 0.  0.
        1    1    3    3  502    0  0.88229963771E+03  0.13933251813E+04  0.18460561489E+03  0.16594839392E+04  0.50400001928E-02 0.  1.
       -1    1    3    3    0  502 -0.88229963771E+03 -0.13933251813E+04  0.28754752952E+03  0.16740643038E+04  0.50400001928E-02 0. -1.
</event>
<event>
 5   0  0.2244093E-08  0.3298554E+04  0.7818609E-02  0.8163263E-01
       -1   -1    0    0    0  501  0.00000000000E+00  0.00000000000E+00  0.15640069741E+04  0.15640069741E+04  0.50400001928E-02 0. -1.
        1   -1    0    0  501    0  0.00000000000E+00  0.00000000000E+00 -0.17391962955E+04  0.17391962955E+04  0.50400001928E-02 0.  1.
    10030    2    1    2    0    0  0.00000000000E+00  0.00000000000E+00 -0.17518932137E+03  0.33032032697E+04  0.32985543110E+04 0.  0.
        1    1    3    3  502    0  0.91179091089E+03  0.61546534542E+03 -0.13181287388E+04  0.17168644759E+04  0.50400001928E-02 0.  1.
       -1    1    3    3    0  502 -0.91179091089E+03 -0.61546534542E+03  0.11429394174E+04  0.15863387937E+04  0.50400001928E-02 0. -1.
</event>
<event>
 5   0  0.6603516E-08  0.3300071E+04  0.7818609E-02  0.8162877E-01
       -2   -1    0    0    0  501  0.00000000000E+00  0.00000000000E+00  0.18485751410E+04  0.18485751410E+04  0.25500000920E-02 0. -1.
        2   -1    0    0  501    0  0.00000000000E+00  0.00000000000E+00 -0.14728194003E+04  0.14728194003E+04  0.25500000920E-02 0.  1.
    10030    2    1    2    0    0  0.00000000000E+00  0.00000000000E+00  0.37575574067E+03  0.33213945413E+04  0.33000711087E+04 0.  0.
        1    1    3    3  502    0 -0.48619287995E+03  0.11364656290E+04 -0.91219868598E+03  0.15362434980E+04  0.50400001928E-02 0.  1.
       -1    1    3    3    0  502  0.48619287995E+03 -0.11364656290E+04  0.12879544266E+04  0.17851510433E+04  0.50400001928E-02 0. -1.
</event>
<event>
 5   0  0.2279938E-08  0.3299141E+04  0.7818609E-02  0.8163114E-01
        1   -1    0    0  501    0  0.00000000000E+00  0.00000000000E+00  0.97692038499E+03  0.97692038500E+03  0.50400001928E-02 0. -1.
       -1   -1    0    0    0  501  0.00000000000E+00  0.00000000000E+00 -0.27853679597E+04  0.27853679597E+04  0.50400001928E-02 0.  1.
    10030    2    1    2    0    0  0.00000000000E+00  0.00000000000E+00 -0.18084475747E+04  0.37622883447E+04  0.32991409425E+04 0.  0.
        3    1    3    3  502    0 -0.15182962643E+04 -0.44597379218E+03 -0.14354109970E+04  0.21364739432E+04  0.10100000352E+00 0.  1.
       -3    1    3    3    0  502  0.15182962643E+04  0.44597379218E+03 -0.37303657774E+03  0.16258144015E+04  0.10100000352E+00 0. -1.
</event>
<event>
 5   0  0.2291682E-08  0.3300948E+04  0.7818609E-02  0.8162654E-01
       -1   -1    0    0    0  501  0.00000000000E+00  0.00000000000E+00  0.13077918871E+04  0.13077918872E+04  0.50400001928E-02 0.  1.
        1   -1    0    0  501    0  0.00000000000E+00  0.00000000000E+00 -0.20829496371E+04  0.20829496371E+04  0.50400001928E-02 0. -1.
    10030    2    1    2    0    0  0.00000000000E+00  0.00000000000E+00 -0.77515774991E+03  0.33907415242E+04  0.33009481285E+04 0.  0.
        2    1    3    3  502    0 -0.10808895301E+04  0.45843860933E+03  0.80396539406E+03  0.14229717108E+04  0.25500000920E-02 0.  1.
       -2    1    3    3    0  502  0.10808895301E+04 -0.45843860933E+03 -0.15791231440E+04  0.19677698134E+04  0.25500000920E-02 0. -1.
</event>
<event>
 5   0  0.2383270E-08  0.3310143E+04  0.7818609E-02  0.8160319E-01
        1   -1    0    0  501    0  0.00000000000E+00  0.00000000000E+00  0.25534204568E+04  0.25534204568E+04  0.50400001928E-02 0. -1.
       -1   -1    0    0    0  501  0.00000000000E+00  0.00000000000E+00 -0.10727815084E+04  0.10727815084E+04  0.50400001928E-02 0.  1.
    10030    2    1    2    0    0  0.00000000000E+00  0.00000000000E+00  0.14806389484E+04  0.36262019652E+04  0.33101433499E+04 0.  0.
        5    1    3    3  502    0  0.10144297501E+04  0.10607242425E+04 -0.97589181253E+02  0.14709688558E+04  0.46999998093E+01 0.  1.
       -5    1    3    3    0  502 -0.10144297501E+04 -0.10607242425E+04  0.15782281297E+04  0.21552331094E+04  0.46999998093E+01 0. -1.
</event>
<event>
 5   0  0.6821287E-08  0.3301236E+04  0.7818609E-02  0.8162581E-01
       -2   -1    0    0    0  501  0.00000000000E+00  0.00000000000E+00  0.14279205001E+04  0.14279205001E+04  0.25500000920E-02 0.  1.
        2   -1    0    0  501    0  0.00000000000E+00  0.00000000000E+00 -0.19080476236E+04  0.19080476236E+04  0.25500000920E-02 0. -1.
    10030    2    1    2    0    0  0.00000000000E+00  0.00000000000E+00 -0.48012712341E+03  0.33359681237E+04  0.33012363241E+04 0.  0.
        5    1    3    3  502    0 -0.70966127110E+02  0.10718287888E+04  0.10263835903E+04  0.14857114485E+04  0.46999998093E+01 0.  1.
       -5    1    3    3    0  502  0.70966127110E+02 -0.10718287888E+04 -0.15065107137E+04  0.18502566752E+04  0.46999998093E+01 0. -1.
</event>
<event>
 5   0  0.6821287E-08  0.3299539E+04  0.7818609E-02  0.8163013E-01
        2   -1    0    0  501    0  0.00000000000E+00  0.00000000000E+00  0.19084018723E+04  0.19084018724E+04  0.25500000920E-02 0.  1.
       -2   -1    0    0    0  501  0.00000000000E+00  0.00000000000E+00 -0.14261874145E+04  0.14261874145E+04  0.25500000920E-02 0. -1.
    10030    2    1    2    0    0  0.00000000000E+00  0.00000000000E+00  0.48221445783E+03  0.33345892869E+04  0.32995385933E+04 0.  0.
        5    1    3    3  502    0  0.54740922438E+03  0.16148152054E+02 -0.13316373166E+04  0.14398602900E+04  0.46999998093E+01 0. -1.
       -5    1    3    3    0  502 -0.54740922438E+03 -0.16148152054E+02  0.18138517745E+04  0.18947289968E+04  0.46999998093E+01 0.  1.
</event>
<event>
 5   0  0.6821287E-08  0.3300005E+04  0.7818609E-02  0.8162894E-01
       -2   -1    0    0    0  501  0.00000000000E+00  0.00000000000E+00  0.11023697140E+04  0.11023697140E+04  0.25500000920E-02 0. -1.
        2   -1    0    0  501    0  0.00000000000E+00  0.00000000000E+00 -0.24696866997E+04  0.24696866997E+04  0.25500000920E-02 0.  1.
    10030    2    1    2    0    0  0.00000000000E+00  0.00000000000E+00 -0.13673169857E+04  0.35720564137E+04  0.33000047399E+04 0.  0.
        5    1    3    3  502    0 -0.15153281762E+04  0.59024411489E+03 -0.38158576758E+03  0.16704003667E+04  0.46999998093E+01 0. -1.
       -5    1    3    3    0  502  0.15153281762E+04 -0.59024411489E+03 -0.98573121809E+03  0.19016560470E+04  0.46999998093E+01 0.  1.
</event>
<event>
 5   0  0.2309822E-08  0.3304269E+04  0.7818609E-02  0.8161810E-01
       -1   -1    0    0    0  501  0.00000000000E+00  0.00000000000E+00  0.28440831926E+04  0.28440831926E+04  0.50400001928E-02 0.  1.
        1   -1    0    0  501    0  0.00000000000E+00  0.00000000000E+00 -0.95972880620E+03  0.95972880621E+03  0.50400001928E-02 0. -1.
    10030    2    1    2    0    0  0.00000000000E+00  0.00000000000E+00  0.18843543864E+04  0.38038119989E+04  0.33042690975E+04 0.  0.
        4    1    3    3  502    0  0.15966951204E+04  0.41047479177E+03  0.10662811969E+04  0.19633853585E+04  0.12699999809E+01 0. -1.
       -4    1    3    3    0  502 -0.15966951204E+04 -0.41047479177E+03  0.81807318952E+03  0.18404266403E+04  0.12699999809E+01 0.  1.
</event>
<event>
 5   0  0.6765252E-08  0.3310235E+04  0.7818609E-02  0.8160296E-01
        2   -1    0    0  501    0  0.00000000000E+00  0.00000000000E+00  0.14581022817E+04  0.14581022817E+04  0.25500000920E-02 0. -1.
       -2   -1    0    0    0  501  0.00000000000E+00  0.00000000000E+00 -0.18787534479E+04  0.18787534479E+04  0.25500000920E-02 0.  1.
    10030    2    1    2    0    0  0.00000000000E+00  0.00000000000E+00 -0.42065116613E+03  0.33368557296E+04  0.33102354534E+04 0.  0.
        2    1    3    3  502    0  0.10378501603E+04 -0.13316205592E+03 -0.15030383344E+04  0.18313899975E+04  0.25500000920E-02 0.  1.
       -2    1    3    3    0  502 -0.10378501603E+04  0.13316205592E+03  0.10823871683E+04  0.15054657321E+04  0.25500000920E-02 0. -1.
</event>
<event>
 5   0  0.7084130E-08  0.3289646E+04  0.7818609E-02  0.8165535E-01
       -2   -1    0    0    0  501  0.00000000000E+00  0.00000000000E+00  0.12996978057E+04  0.12996978057E+04  0.25500000920E-02 0.  1.
        2   -1    0    0  501    0  0.00000000000E+00  0.00000000000E+00 -0.20815931815E+04  0.20815931815E+04  0.25500000920E-02 0. -1.
    10030    2    1    2    0    0  0.00000000000E+00  0.00000000000E+00 -0.78189537577E+03  0.33812909873E+04  0.32896456286E+04 0.  0.
        3    1    3    3  502    0  0.14756429842E+04 -0.13171610046E+03 -0.11253962553E+04  0.18604806071E+04  0.10100000352E+00 0. -1.
       -3    1    3    3    0  502 -0.14756429842E+04  0.13171610046E+03  0.34350087949E+03  0.15208103801E+04  0.10100000352E+00 0.  1.
</event>
<event>
 5   0  0.2244093E-08  0.3299251E+04  0.7818609E-02  0.8163086E-01
       -1   -1    0    0    0  501  0.00000000000E+00  0.00000000000E+00  0.14196522087E+04  0.14196522087E+04  0.50400001928E-02 0.  1.
        1   -1    0    0  501    0  0.00000000000E+00  0.00000000000E+00 -0.19168525908E+04  0.19168525908E+04  0.50400001928E-02 0. -1.
    10030    2    1    2    0    0  0.00000000000E+00  0.00000000000E+00 -0.49720038212E+03  0.33365047996E+04  0.32992508328E+04 0.  0.
        1    1    3    3  502    0 -0.58220587169E+03 -0.14627553238E+04 -0.74675469467E+03  0.17424865533E+04  0.50400001928E-02 0. -1.
       -1    1    3    3    0  502  0.58220587169E+03  0.14627553238E+04  0.24955431255E+03  0.15940182462E+04  0.50400001928E-02 0.  1.
</event>
<event>
 5   0  0.7084130E-08  0.3299598E+04  0.7818609E-02  0.8162998E-01
       -2   -1    0    0    0  501  0.00000000000E+00  0.00000000000E+00  0.94533506129E+03  0.94533506130E+03  0.25500000920E-02 0.  1.
        2   -1    0    0  501    0  0.00000000000E+00  0.00000000000E+00 -0.28792291227E+04  0.28792291227E+04  0.25500000920E-02 0. -1.
    10030    2    1    2    0    0  0.00000000000E+00  0.00000000000E+00 -0.19338940614E+04  0.38245641840E+04  0.32995976962E+04 0.  0.
        3    1    3    3  502    0 -0.15982706278E+04 -0.36248910059E+03 -0.74711831299E+03  0.18011255180E+04  0.10100000352E+00 0. -1.
       -3    1    3    3    0  502  0.15982706278E+04  0.36248910059E+03 -0.11867757484E+04  0.20234386660E+04  0.10100000352E+00 0.  1.
</event>
<event>
 5   0  0.2309822E-08  0.3300463E+04  0.7818609E-02  0.8162777E-01
        1   -1    0    0  501    0  0.00000000000E+00  0.00000000000E+00  0.21081686413E+04  0.21081686413E+04  0.50400001928E-02 0.  1.
       -1   -1    0    0    0  501  0.00000000000E+00  0.00000000000E+00 -0.12917678901E+04  0.12917678901E+04  0.50400001928E-02 0. -1.
    10030    2    1    2    0    0  0.00000000000E+00  0.00000000000E+00  0.81640075117E+03  0.33999365314E+04  0.33004633359E+04 0.  0.
        4    1    3    3  502    0  0.36294742669E+03 -0.22430750777E+03  0.20503657107E+04  0.20942888658E+04  0.12699999809E+01 0.  1.
       -4    1    3    3    0  502 -0.36294742669E+03  0.22430750777E+03 -0.12339649596E+04  0.13056476657E+04  0.12699999809E+01 0. -1.
</event>
<event>
 5   0  0.6821287E-08  0.3300788E+04  0.7818609E-02  0.8162695E-01
       -2   -1    0    0    0  501  0.00000000000E+00  0.00000000000E+00  0.12768178231E+04  0.12768178231E+04  0.25500000920E-02 0. -1.
        2   -1    0    0  501    0  0.00000000000E+00  0.00000000000E+00 -0.21332727904E+04  0.21332727904E+04  0.25500000920E-02 0.  1.
    10030    2    1    2    0    0  0.00000000000E+00  0.00000000000E+00 -0.85645496736E+03  0.34100906135E+04  0.33007882212E+04 0.  0.
        5    1    3    3  502    0  0.36103234980E+03  0.41237042860E+03 -0.20364993224E+04  0.21089678300E+04  0.46999998093E+01 0.  1.
       -5    1    3    3    0  502 -0.36103234980E+03 -0.41237042860E+03  0.11800443550E+04  0.13011227835E+04  0.46999998093E+01 0. -1.
</event>
<event>
 5   0  0.2279938E-08  0.3300248E+04  0.7818609E-02  0.8162832E-01
        1   -1    0    0  501    0  0.00000000000E+00  0.00000000000E+00  0.20319679681E+04  0.20319679681E+04  0.50400001928E-02 0. -1.
       -1   -1    0    0    0  501  0.00000000000E+00  0.00000000000E+00 -0.13400351575E+04  0.13400351575E+04  0.50400001928E-02 0.  1.
    10030    2    1    2    0    0  0.00000000000E+00  0.00000000000E+00  0.69193281061E+03  0.33720031256E+04  0.33002475762E+04 0.  0.
        3    1    3    3  502    0  0.68019296820E+03 -0.89665369155E+03  0.15789594821E+04  0.19390109265E+04  0.10100000352E+00 0. -1.
       -3    1    3    3    0  502 -0.68019296820E+03  0.89665369155E+03 -0.88702667151E+03  0.14329921991E+04  0.10100000352E+00 0.  1.
</event>
<event>
 5   0  0.6765252E-08  0.3302425E+04  0.7818609E-02  0.8162279E-01
        2   -1    0    0  501    0  0.00000000000E+00  0.00000000000E+00  0.16247515335E+04  0.16247515335E+04  0.25500000920E-02 0.  1.
       -2   -1    0    0    0  501  0.00000000000E+00  0.00000000000E+00 -0.16781044863E+04  0.16781044863E+04  0.25500000920E-02 0. -1.
    10030    2    1    2    0    0  0.00000000000E+00  0.00000000000E+00 -0.53352952788E+02  0.33028560198E+04  0.33024250711E+04 0.  0.
        2    1    3    3  502    0 -0.12114672708E+04  0.97049472375E+03 -0.58976849090E+03  0.16605239625E+04  0.25500000920E-02 0. -1.
       -2    1    3    3    0  502  0.12114672708E+04 -0.97049472375E+03  0.53641553811E+03  0.16423320574E+04  0.25500000920E-02 0.  1.
</event>
<event>
 5   0  0.2383270E-08  0.3298764E+04  0.7818609E-02  0.8163210E-01
        1   -1    0    0  501    0  0.00000000000E+00  0.00000000000E+00  0.15899810979E+04  0.15899810979E+04  0.50400001928E-02 0. -1.
       -1   -1    0    0    0  501  0.00000000000E+00  0.00000000000E+00 -0.17110018350E+04  0.17110018350E+04  0.50400001928E-02 0.  1.
    10030    2    1    2    0    0  0.00000000000E+00  0.00000000000E+00 -0.12102073708E+03  0.33009829329E+04  0.32987637539E+04 0.  0.
        5    1    3    3  502    0  0.91444202726E+03 -0.27154439394E+03  0.12859422599E+04  0.16011277791E+04  0.46999998093E+01 0. -1.
       -5    1    3    3    0  502 -0.91444202726E+03  0.27154439394E+03 -0.14069629970E+04  0.16998551538E+04  0.46999998093E+01 0.  1.
</event>
<event>
 5   0  0.2291682E-08  0.3298634E+04  0.7818609E-02  0.8163243E-01
       -1   -1    0    0    0  501  0.00000000000E+00  0.00000000000E+00  0.21897358110E+04  0.21897358110E+04  0.50400001928E-02 0.  1.
        1   -1    0    0  501    0  0.00000000000E+00  0.00000000000E+00 -0.12422719152E+04  0.12422719152E+04  0.50400001928E-02 0. -1.
    10030    2    1    2    0    0  0.00000000000E+00  0.00000000000E+00  0.94746389588E+03  0.34320077262E+04  0.32986344446E+04 0.  0.
        2    1    3    3  502    0  0.15695656168E+04  0.18232909532E+03 -0.18104757672E+02  0.15802240053E+04  0.25500000920E-02 0. -1.
       -2    1    3    3    0  502 -0.15695656168E+04 -0.18232909532E+03  0.96556865356E+03  0.18517837210E+04  0.25500000920E-02 0.  1.
</event>
<event>
 5   0  0.2383270E-08  0.3299158E+04  0.7818609E-02  0.8163110E-01
        1   -1    0    0  501    0  0.00000000000E+00  0.00000000000E+00  0.21145474079E+04  0.21145474079E+04  0.50400001928E-02 0. -1.
       -1   -1    0    0    0  501  0.00000000000E+00  0.00000000000E+00 -0.12868523300E+04  0.12868523300E+04  0.50400001928E-02 0.  1.
    10030    2    1    2    0    0  0.00000000000E+00  0.00000000000E+00  0.82769507786E+03  0.34013997379E+04  0.32991576251E+04 0.  0.
        5    1    3    3  502    0  0.10664342104E+04  0.12176806845E+04  0.86096374457E+02  0.16209450484E+04  0.46999998093E+01 0.  1.
       -5    1    3    3    0  502 -0.10664342104E+04 -0.12176806845E+04  0.74159870340E+03  0.17804546895E+04  0.46999998093E+01 0. -1.
</event>
<event>
 5   0  0.6821287E-08  0.3300176E+04  0.7818609E-02  0.8162851E-01
       -2   -1    0    0    0  501  0.00000000000E+00  0.00000000000E+00  0.15924434717E+04  0.15924434717E+04  0.25500000920E-02 0. -1.
        2   -1    0    0  501    0  0.00000000000E+00  0.00000000000E+00 -0.17098191354E+04  0.17098191354E+04  0.25500000920E-02 0.  1.
    10030    2    1    2    0    0  0.00000000000E+00  0.00000000000E+00 -0.11737566377E+03  0.33022626071E+04  0.33001759468E+04 0.  0.
        5    1    3    3  502    0  0.48348526205E+03  0.45683226758E+03 -0.15697136594E+04  0.17048392246E+04  0.46999998093E+01 0.  1.
       -5    1    3    3    0  502 -0.48348526205E+03 -0.45683226758E+03  0.14523379956E+04  0.15974233825E+04  0.46999998093E+01 0. -1.
</event>
<event>
 5   0  0.2383270E-08  0.3300212E+04  0.7818609E-02  0.8162841E-01
       -1   -1    0    0    0  501  0.00000000000E+00  0.00000000000E+00  0.13245477986E+04  0.13245477986E+04  0.50400001928E-02 0. -1.
        1   -1    0    0  501    0  0.00000000000E+00  0.00000000000E+00 -0.20556829348E+04  0.20556829348E+04  0.50400001928E-02 0.  1.
    10030    2    1    2    0    0  0.00000000000E+00  0.00000000000E+00 -0.73113513626E+03  0.33802307334E+04  0.33002122998E+04 0.  0.
        5    1    3    3  502    0  0.14336074611E+04  0.78018008584E+03 -0.11695424424E+03  0.16363409499E+04  0.46999998093E+01 0.  1.
       -5    1    3    3    0  502 -0.14336074611E+04 -0.78018008584E+03 -0.61418089202E+03  0.17438897835E+04  0.46999998093E+01 0. -1.
</event>
<event>
 5   0  0.6603516E-08  0.3299702E+04  0.7818609E-02  0.8162971E-01
       -2   -1    0    0    0  501  0.00000000000E+00  0.00000000000E+00  0.10232484606E+04  0.10232484606E+04  0.25500000920E-02 0.  1.
        2   -1    0    0  501    0  0.00000000000E+00  0.00000000000E+00 -0.26601643607E+04  0.26601643607E+04  0.25500000920E-02 0. -1.
    10030    2    1    2    0    0  0.00000000000E+00  0.00000000000E+00 -0.16369159001E+04  0.36834128213E+04  0.32997024636E+04 0.  0.
        1    1    3    3  502    0 -0.81598255096E+03  0.33907767125E+03 -0.23737488792E+04  0.25328807576E+04  0.50400001928E-02 0. -1.
       -1    1    3    3    0  502  0.81598255096E+03 -0.33907767125E+03  0.73683297911E+03  0.11505320638E+04  0.50400001928E-02 0.  1.
</event>
<event>
 5   0  0.6821287E-08  0.3300537E+04  0.7818609E-02  0.8162759E-01
        2   -1    0    0  501    0  0.00000000000E+00  0.00000000000E+00  0.22350469479E+04  0.22350469479E+04  0.25500000920E-02 0.  1.
       -2   -1    0    0    0  501  0.00000000000E+00  0.00000000000E+00 -0.12184913302E+04  0.12184913302E+04  0.25500000920E-02 0. -1.
    10030    2    1    2    0    0  0.00000000000E+00  0.00000000000E+00  0.10165556177E+04  0.34535382782E+04  0.33005365192E+04 0.  0.
        5    1    3    3  502    0 -0.87043734851E+03  0.11193570161E+04 -0.37509878190E+03  0.14667455448E+04  0.46999998093E+01 0. -1.
       -5    1    3    3    0  502  0.87043734851E+03 -0.11193570161E+04  0.13916543996E+04  0.19867927333E+04  0.46999998093E+01 0.  1.
</event>
<event>
 5   0  0.6821287E-08  0.3299678E+04  0.7818609E-02  0.8162977E-01
       -2   -1    0    0    0  501  0.00000000000E+00  0.00000000000E+00  0.16423613519E+04  0.16423613519E+04  0.25500000920E-02 0. -1.
        2   -1    0    0  501    0  0.00000000000E+00  0.00000000000E+00 -0.16573504654E+04  0.16573504654E+04  0.25500000920E-02 0.  1.
    10030    2    1    2    0    0  0.00000000000E+00  0.00000000000E+00 -0.14989113548E+02  0.32997118173E+04  0.32996777727E+04 0.  0.
        5    1    3    3  502    0 -0.11650801956E+04 -0.10470347424E+04 -0.52543102236E+03  0.16522086621E+04  0.46999998093E+01 0. -1.
       -5    1    3    3    0  502  0.11650801956E+04  0.10470347424E+04  0.51044190881E+03  0.16475031552E+04  0.46999998093E+01 0.  1.
</event>
<event>
 5   0  0.2383270E-08  0.3299713E+04  0.7818609E-02  0.8162968E-01
        1   -1    0    0  501    0  0.00000000000E+00  0.00000000000E+00  0.15711612047E+04  0.15711612047E+04  0.50400001928E-02 0.  1.
       -1   -1    0    0    0  501  0.00000000000E+00  0.00000000000E+00 -0.17324931813E+04  0.17324931813E+04  0.50400001928E-02 0. -1.
    10030    2    1    2    0    0  0.00000000000E+00  0.00000000000E+00 -0.16133197661E+03  0.33036543861E+04  0.32997127596E+04 0.  0.
        5    1    3    3  502    0  0.52269292459E+03 -0.32649108204E+03  0.14515868272E+04  0.15770005476E+04  0.46999998093E+01 0.  1.
       -5    1    3    3    0  502 -0.52269292459E+03  0.32649108204E+03 -0.16129188039E+04  0.17266538385E+04  0.46999998093E+01 0. -1.
</event>
<event>
 5   0  0.2383270E-08  0.3302398E+04  0.7818609E-02  0.8162285E-01
        1   -1    0    0  501    0  0.00000000000E+00  0.00000000000E+00  0.16203472617E+04  0.16203472617E+04  0.50400001928E-02 0.  1.
       -1   -1    0    0    0  501  0.00000000000E+00  0.00000000000E+00 -0.16826382714E+04  0.16826382714E+04  0.50400001928E-02 0. -1.
    10030    2    1    2    0    0  0.00000000000E+00  0.00000000000E+00 -0.62291009635E+02  0.33029855331E+04  0.33023981077E+04 0.  0.
        5    1    3    3  502    0  0.68958928295E+03 -0.14212143609E+04 -0.51191030434E+03  0.16605595107E+04  0.46999998093E+01 0. -1.
       -5    1    3    3    0  502 -0.68958928295E+03  0.14212143609E+04  0.44961929470E+03  0.16424260224E+04  0.46999998093E+01 0.  1.
</event>
<event>
 5   0  0.6821287E-08  0.3299586E+04  0.7818609E-02  0.8163001E-01
       -2   -1    0    0    0  501  0.00000000000E+00  0.00000000000E+00  0.10202183475E+04  0.10202183475E+04  0.25500000920E-02 0.  1.
        2   -1    0    0  501    0  0.00000000000E+00  0.00000000000E+00 -0.26678764636E+04  0.26678764636E+04  0.25500000920E-02 0. -1.
    10030    2    1    2    0    0  0.00000000000E+00  0.00000000000E+00 -0.16476581161E+04  0.36880948112E+04  0.32995857420E+04 0.  0.
        5    1    3    3  502    0  0.81634402413E+03 -0.14320333834E+04 -0.74754962703E+03  0.18099695334E+04  0.46999998093E+01 0.  1.
       -5    1    3    3    0  502 -0.81634402413E+03  0.14320333834E+04 -0.90010848902E+03  0.18781252778E+04  0.46999998093E+01 0. -1.
</event>
<event>
 5   0  0.2309822E-08  0.3302788E+04  0.7818609E-02  0.8162186E-01
        1   -1    0    0  501    0  0.00000000000E+00  0.00000000000E+00  0.12528152102E+04  0.12528152103E+04  0.50400001928E-02 0.  1.
       -1   -1    0    0    0  501  0.00000000000E+00  0.00000000000E+00 -0.21767788680E+04  0.21767788680E+04  0.50400001928E-02 0. -1.
    10030    2    1    2    0    0  0.00000000000E+00  0.00000000000E+00 -0.92396365777E+03  0.34295940783E+04  0.33027877166E+04 0.  0.
        4    1    3    3  502    0 -0.78819174900E+03 -0.14495905158E+04 -0.39200637277E+03  0.16959450185E+04  0.12699999809E+01 0.  1.
       -4    1    3    3    0  502  0.78819174900E+03  0.14495905158E+04 -0.53195728500E+03  0.17336490598E+04  0.12699999809E+01 0. -1.
</event>
<event>
 5   0  0.6603516E-08  0.3298700E+04  0.7818609E-02  0.8163226E-01
        2   -1    0    0  501    0  0.00000000000E+00  0.00000000000E+00  0.17213660436E+04  0.17213660436E+04  0.25500000920E-02 0. -1.
       -2   -1    0    0    0  501  0.00000000000E+00  0.00000000000E+00 -0.15803464000E+04  0.15803464000E+04  0.25500000920E-02 0.  1.
    10030    2    1    2    0    0  0.00000000000E+00  0.00000000000E+00  0.14101964361E+03  0.33017124436E+04  0.32986995195E+04 0.  0.
        1    1    3    3  502    0  0.13676067582E+03 -0.15921576394E+04  0.47915371022E+03  0.16683098361E+04  0.50400001928E-02 0.  1.
       -1    1    3    3    0  502 -0.13676067582E+03  0.15921576394E+04 -0.33813406661E+03  0.16334026075E+04  0.50400001928E-02 0. -1.
</event>
<event>
 5   0  0.2383270E-08  0.3310347E+04  0.7818609E-02  0.8160267E-01
       -1   -1    0    0    0  501  0.00000000000E+00  0.00000000000E+00  0.15656582186E+04  0.15656582186E+04  0.50400001928E-02 0. -1.
        1   -1    0    0  501    0  0.00000000000E+00  0.00000000000E+00 -0.17498071518E+04  0.17498071518E+04  0.50400001928E-02 0.  1.
    10030    2    1    2    0    0  0.00000000000E+00  0.00000000000E+00 -0.18414893318E+03  0.33154653703E+04  0.33103473824E+04 0.  0.
        5    1    3    3  502    0  0.11083868275E+04  0.91834325695E+01 -0.13231909822E+04  0.17261118620E+04  0.46999998093E+01 0.  1.
       -5    1    3    3    0  502 -0.11083868275E+04 -0.91834325695E+01  0.11390420490E+04  0.15893535083E+04  0.46999998093E+01 0. -1.
</event>
<event>
 5   0  0.2244093E-08  0.3300969E+04  0.7818609E-02  0.8162649E-01
       -1   -1    0    0    0  501  0.00000000000E+00  0.00000000000E+00  0.16000177347E+04  0.16000177347E+04  0.50400001928E-02 0.  1.
        1   -1    0    0  501    0  0.00000000000E+00  0.00000000000E+00 -0.17025432916E+04  0.17025432916E+04  0.50400001928E-02 0. -1.
    10030    2    1    2    0    0  0.00000000000E+00  0.00000000000E+00 -0.10252555686E+03  0.33025610263E+04  0.33009692278E+04 0.  0.
        1    1    3    3  502    0  0.11389259862E+03  0.52471813104E+03  0.15101944177E+04  0.16028062330E+04  0.50400001928E-02 0.  1.
       -1    1    3    3    0  502 -0.11389259862E+03 -0.52471813104E+03 -0.16127199746E+04  0.16997547933E+04  0.50400001928E-02 0. -1.
</event>
<event>
 5   0  0.2244093E-08  0.3298831E+04  0.7818609E-02  0.8163193E-01
       -1   -1    0    0    0  501  0.00000000000E+00  0.00000000000E+00  0.16654737366E+04  0.16654737366E+04  0.50400001928E-02 0. -1.
        1   -1    0    0  501    0  0.00000000000E+00  0.00000000000E+00 -0.16335124365E+04  0.16335124366E+04  0.50400001928E-02 0.  1.
    10030    2    1    2    0    0  0.00000000000E+00  0.00000000000E+00  0.31961300052E+02  0.32989861732E+04  0.32988313455E+04 0.  0.
        1    1    3    3  502    0 -0.61316855272E+03  0.14205196577E+04  0.58760199228E+03  0.16550310792E+04  0.50400001928E-02 0. -1.
       -1    1    3    3    0  502  0.61316855272E+03 -0.14205196577E+04 -0.55564069222E+03  0.16439550939E+04  0.50400001928E-02 0.  1.
</event>
<event>
 5   0  0.2309822E-08  0.3299374E+04  0.7818609E-02  0.8163055E-01
        1   -1    0    0  501    0  0.00000000000E+00  0.00000000000E+00  0.14573587670E+04  0.14573587670E+04  0.50400001928E-02 0.  1.
       -1   -1    0    0    0  501  0.00000000000E+00  0.00000000000E+00 -0.18673969426E+04  0.18673969426E+04  0.50400001928E-02 0. -1.
    10030    2    1    2    0    0  0.00000000000E+00  0.00000000000E+00 -0.41003817559E+03  0.33247557097E+04  0.32993740654E+04 0.  0.
        4    1    3    3  502    0 -0.16830240480E+03  0.12712669648E+04 -0.12507985974E+04  0.17913526005E+04  0.12699999809E+01 0. -1.
       -4    1    3    3    0  502  0.16830240480E+03 -0.12712669648E+04  0.84076042178E+03  0.15334031091E+04  0.12699999809E+01 0.  1.
</event>
<event>
 5   0  0.6706080E-08  0.3299154E+04  0.7818609E-02  0.8163111E-01
       -2   -1    0    0    0  501  0.00000000000E+00  0.00000000000E+00  0.97152546003E+03  0.97152546003E+03  0.25500000920E-02 0. -1.
        2   -1    0    0  501    0  0.00000000000E+00  0.00000000000E+00 -0.28008571876E+04  0.28008571876E+04  0.25500000920E-02 0.  1.
    10030    2    1    2    0    0  0.00000000000E+00  0.00000000000E+00 -0.18293317275E+04  0.37723826476E+04  0.32991538719E+04 0.  0.
        4    1    3    3  502    0  0.43152055974E+03  0.15590382803E+04 -0.54540024215E+03  0.17071243042E+04  0.12699999809E+01 0.  1.
       -4    1    3    3    0  502 -0.43152055974E+03 -0.15590382803E+04 -0.12839314854E+04  0.20652583434E+04  0.12699999809E+01 0. -1.
</event>
<event>
 5   0  0.6603516E-08  0.3300229E+04  0.7818609E-02  0.8162837E-01
        2   -1    0    0  501    0  0.00000000000E+00  0.00000000000E+00  0.26059241752E+04  0.26059241752E+04  0.25500000920E-02 0. -1.
       -2   -1    0    0    0  501  0.00000000000E+00  0.00000000000E+00 -0.10448801692E+04  0.10448801692E+04  0.25500000920E-02 0.  1.
    10030    2    1    2    0    0  0.00000000000E+00  0.00000000000E+00  0.15610440060E+04  0.36508043443E+04  0.33002293817E+04 0.  0.
        1    1    3    3  502    0  0.19433691072E+03  0.14271121723E+04 -0.11029165538E+03  0.14444999954E+04  0.50400001928E-02 0.  1.
       -1    1    3    3    0  502 -0.19433691072E+03 -0.14271121723E+04  0.16713356614E+04  0.22063043490E+04  0.50400001928E-02 0. -1.
</event>
<event>
 5   0  0.2309822E-08  0.3300272E+04  0.7818609E-02  0.8162826E-01
        1   -1    0    0  501    0  0.00000000000E+00  0.00000000000E+00  0.18687484207E+04  0.18687484207E+04  0.50400001928E-02 0.  1.
       -1   -1    0    0    0  501  0.00000000000E+00  0.00000000000E+00 -0.14570972166E+04  0.14570972166E+04  0.50400001928E-02 0. -1.
    10030    2    1    2    0    0  0.00000000000E+00  0.00000000000E+00  0.41165120412E+03  0.33258456373E+04  0.33002715782E+04 0.  0.
        4    1    3    3  502    0 -0.13719643664E+04  0.35411732649E+03  0.10581104045E+04  0.17684130018E+04  0.12699999809E+01 0.  1.
       -4    1    3    3    0  502  0.13719643664E+04 -0.35411732649E+03 -0.64645920043E+03  0.15574326356E+04  0.12699999809E+01 0. -1.
</event>
<event>
 5   0  0.6821287E-08  0.3300370E+04  0.7818609E-02  0.8162801E-01
        2   -1    0    0  501    0  0.00000000000E+00  0.00000000000E+00  0.10955462185E+04  0.10955462185E+04  0.25500000920E-02 0.  1.
       -2   -1    0    0    0  501  0.00000000000E+00  0.00000000000E+00 -0.24856185026E+04  0.24856185026E+04  0.25500000920E-02 0. -1.
    10030    2    1    2    0    0  0.00000000000E+00  0.00000000000E+00 -0.13900722841E+04  0.35811647210E+04  0.33003696466E+04 0.  0.
        5    1    3    3  502    0 -0.94660439826E+03  0.45732836986E+02 -0.21608728384E+04  0.23595645558E+04  0.46999998093E+01 0. -1.
       -5    1    3    3    0  502  0.94660439826E+03 -0.45732836986E+02  0.77080055431E+03  0.12216001652E+04  0.46999998093E+01 0.  1.
</event>
<event>
 5   0  0.7084130E-08  0.3301205E+04  0.7818609E-02  0.8162589E-01
       -2   -1    0    0    0  501  0.00000000000E+00  0.00000000000E+00  0.22682365064E+04  0.22682365064E+04  0.25500000920E-02 0. -1.
        2   -1    0    0  501    0  0.00000000000E+00  0.00000000000E+00 -0.12011482361E+04  0.12011482361E+04  0.25500000920E-02 0.  1.
    10030    2    1    2    0    0  0.00000000000E+00  0.00000000000E+00  0.10670882703E+04  0.34693847426E+04  0.33012047975E+04 0.  0.
        3    1    3    3  502    0 -0.85402420198E+03 -0.14092683176E+04  0.63376341246E+03  0.17655170919E+04  0.10100000352E+00 0.  1.
       -3    1    3    3    0  502  0.85402420198E+03  0.14092683176E+04  0.43332485786E+03  0.17038676507E+04  0.10100000352E+00 0. -1.
</event>
<event>
 5   0  0.6706080E-08  0.3297358E+04  0.7818609E-02  0.8163568E-01
       -2   -1    0    0    0  501  0.00000000000E+00  0.00000000000E+00  0.88556952055E+03  0.88556952056E+03  0.25500000920E-02 0.  1.
        2   -1    0    0  501    0  0.00000000000E+00  0.00000000000E+00 -0.30693718992E+04  0.30693718992E+04  0.25500000920E-02 0. -1.
    10030    2    1    2    0    0  0.00000000000E+00  0.00000000000E+00 -0.21838023787E+04  0.39549414198E+04  0.32973578521E+04 0.  0.
        4    1    3    3  502    0 -0.45817632326E+03 -0.15689743437E+04 -0.13506401028E+04  0.21203387311E+04  0.12699999809E+01 0. -1.
       -4    1    3    3    0  502  0.45817632326E+03  0.15689743437E+04 -0.83316227588E+03  0.18346026887E+04  0.12699999809E+01 0.  1.
</event>
<event>
 5   0  0.6765252E-08  0.3300426E+04  0.7818609E-02  0.8162787E-01
       -2   -1    0    0    0  501  0.00000000000E+00  0.00000000000E+00  0.12424113811E+04  0.12424113811E+04  0.25500000920E-02 0.  1.
        2   -1    0    0  501    0  0.00000000000E+00  0.00000000000E+00 -0.21918683503E+04  0.21918683503E+04  0.25500000920E-02 0. -1.
    10030    2    1    2    0    0  0.00000000000E+00  0.00000000000E+00 -0.94945696915E+03  0.34342797314E+04  0.33004255388E+04 0.  0.
        2    1    3    3  502    0  0.36910370827E+03  0.15750628598E+04 -0.81373542787E+03  0.18108633041E+04  0.25500000920E-02 0. -1.
       -2    1    3    3    0  502 -0.36910370827E+03 -0.15750628598E+04 -0.13572154128E+03  0.16234164273E+04  0.25500000920E-02 0.  1.
</event>
<event>
 5   0  0.6765252E-08  0.3298517E+04  0.7818609E-02  0.8163273E-01
       -2   -1    0    0    0  501  0.00000000000E+00  0.00000000000E+00  0.13508341237E+04  0.13508341237E+04  0.25500000920E-02 0.  1.
        2   -1    0    0  501    0  0.00000000000E+00  0.00000000000E+00 -0.20136100007E+04  0.20136100007E+04  0.25500000920E-02 0. -1.
    10030    2    1    2    0    0  0.00000000000E+00  0.00000000000E+00 -0.66277587699E+03  0.33644441244E+04  0.32985166974E+04 0.  0.
        2    1    3    3  502    0 -0.12841074909E+01 -0.37359385174E+03  0.13071058714E+04  0.13594483344E+04  0.25500000920E-02 0.  1.
       -2    1    3    3    0  502  0.12841074909E+01  0.37359385174E+03 -0.19698817484E+04  0.20049957899E+04  0.25500000920E-02 0. -1.
</event>
<event>
 5   0  0.6765252E-08  0.3305953E+04  0.7818609E-02  0.8161382E-01
       -2   -1    0    0    0  501  0.00000000000E+00  0.00000000000E+00  0.12189734559E+04  0.12189734559E+04  0.25500000920E-02 0. -1.
        2   -1    0    0  501    0  0.00000000000E+00  0.00000000000E+00 -0.22415022469E+04  0.22415022469E+04  0.25500000920E-02 0.  1.
    10030    2    1    2    0    0  0.00000000000E+00  0.00000000000E+00 -0.10225287909E+04  0.34604757028E+04  0.33059532606E+04 0.  0.
        2    1    3    3  502    0  0.20784539878E+03  0.12108251345E+04  0.64633543174E+03  0.13881810784E+04  0.25500000920E-02 0. -1.
       -2    1    3    3    0  502 -0.20784539878E+03 -0.12108251345E+04 -0.16688642227E+04  0.20722946243E+04  0.25500000920E-02 0.  1.
</event>
<event>
 5   0  0.7084130E-08  0.3318382E+04  0.7818609E-02  0.8158234E-01
       -2   -1    0    0    0  501  0.00000000000E+00  0.00000000000E+00  0.14166994981E+04  0.14166994981E+04  0.25500000920E-02 0.  1.
        2   -1    0    0  501    0  0.00000000000E+00  0.00000000000E+00 -0.19431884171E+04  0.19431884171E+04  0.25500000920E-02 0. -1.
    10030    2    1    2    0    0  0.00000000000E+00  0.00000000000E+00 -0.52648891901E+03  0.33598879152E+04  0.33183815665E+04 0.  0.
        3    1    3    3  502    0  0.13974133414E+02 -0.81086006763E+03 -0.17288387758E+04  0.19096001803E+04  0.10100000352E+00 0. -1.
       -3    1    3    3    0  502 -0.13974133414E+02  0.81086006763E+03  0.12023498568E+04  0.14502877349E+04  0.10100000352E+00 0.  1.
</event>
<event>
 5   0  0.6706080E-08  0.3305561E+04  0.7818609E-02  0.8161482E-01
        2   -1    0    0  501    0  0.00000000000E+00  0.00000000000E+00  0.18691412357E+04  0.18691412357E+04  0.25500000920E-02 0. -1.
       -2   -1    0    0    0  501  0.00000000000E+00  0.00000000000E+00 -0.14614640966E+04  0.14614640966E+04  0.25500000920E-02 0.  1.
    10030    2    1    2    0    0  0.00000000000E+00  0.00000000000E+00  0.40767713915E+03  0.33306053323E+04  0.33055606529E+04 0.  0.
        4    1    3    3  502    0  0.11945505354E+04 -0.59083428578E+03 -0.78113902623E+03  0.15447381416E+04  0.12699999809E+01 0.  1.
       -4    1    3    3    0  502 -0.11945505354E+04  0.59083428578E+03  0.11888161654E+04  0.17858671907E+04  0.12699999809E+01 0. -1.
</event>
<event>
 5   0  0.6603516E-08  0.3299731E+04  0.7818609E-02  0.8162964E-01
        2   -1    0    0  501    0  0.00000000000E+00  0.00000000000E+00  0.19714240221E+04  0.19714240221E+04  0.25500000920E-02 0. -1.
       -2   -1    0    0    0  501  0.00000000000E+00  0.00000000000E+00 -0.13807561102E+04  0.13807561102E+04  0.25500000920E-02 0.  1.
    10030    2    1    2    0    0  0.00000000000E+00  0.00000000000E+00  0.59066791186E+03  0.33521801323E+04  0.32997307552E+04 0.  0.
        1    1    3    3  502    0  0.82504966256E+03 -0.86918809431E+03  0.14473163302E+04  0.18790740934E+04  0.50400001928E-02 0. -1.
       -1    1    3    3    0  502 -0.82504966256E+03  0.86918809431E+03 -0.85664841833E+03  0.14731060388E+04  0.50400001928E-02 0.  1.
</event>
<event>
 5   0  0.2244093E-08  0.3300304E+04  0.7818609E-02  0.8162818E-01
        1   -1    0    0  501    0  0.00000000000E+00  0.00000000000E+00  0.20817361687E+04  0.20817361687E+04  0.50400001928E-02 0.  1.
       -1   -1    0    0    0  501  0.00000000000E+00  0.00000000000E+00 -0.13080436489E+04  0.13080436490E+04  0.50400001928E-02 0. -1.
    10030    2    1    2    0    0  0.00000000000E+00  0.00000000000E+00  0.77369251978E+03  0.33897798177E+04  0.33003040916E+04 0.  0.
        1    1    3    3  502    0 -0.42018223663E+03 -0.26914394199E+03 -0.12286958209E+04  0.13261542120E+04  0.50400001928E-02 0. -1.
       -1    1    3    3    0  502  0.42018223663E+03  0.26914394199E+03  0.20023883407E+04  0.20636256057E+04  0.50400001928E-02 0.  1.
</event>
<event>
 5   0  0.2279938E-08  0.3299728E+04  0.7818609E-02  0.8162964E-01
        1   -1    0    0  501    0  0.00000000000E+00  0.00000000000E+00  0.22032048183E+04  0.22032048183E+04  0.50400001928E-02 0.  1.
       -1   -1    0    0    0  501  0.00000000000E+00  0.00000000000E+00 -0.12354965417E+04  0.12354965417E+04  0.50400001928E-02 0. -1.
    10030    2    1    2    0    0  0.00000000000E+00  0.00000000000E+00  0.96770827658E+03  0.34387013600E+04  0.32997284334E+04 0.  0.
        3    1    3    3  502    0  0.11845857632E+04  0.11395992611E+04  0.33602773187E+03  0.16777498481E+04  0.10100000352E+00 0. -1.
       -3    1    3    3    0  502 -0.11845857632E+04 -0.11395992611E+04  0.63168054471E+03  0.17609515118E+04  0.10100000352E+00 0.  1.
</event>
<event>
 5   0  0.2244093E-08  0.3296259E+04  0.7818609E-02  0.8163848E-01
        1   -1    0    0  501    0  0.00000000000E+00  0.00000000000E+00  0.24118870613E+04  0.24118870613E+04  0.50400001928E-02 0.  1.
       -1   -1    0    0    0  501  0.00000000000E+00  0.00000000000E+00 -0.11262263717E+04  0.11262263717E+04  0.50400001928E-02 0. -1.
    10030    2    1    2    0    0  0.00000000000E+00  0.00000000000E+00  0.12856606896E+04  0.35381134331E+04  0.32962589790E+04 0.  0.
        1    1    3    3  502    0 -0.14589094716E+04 -0.60191344298E+03  0.11526700070E+04  0.19543195194E+04  0.50400001928E-02 0.  1.
       -1    1    3    3    0  502  0.14589094716E+04  0.60191344298E+03  0.13299068268E+03  0.15837939136E+04  0.50400001928E-02 0. -1.
</event>
<event>
 5   0  0.6706080E-08  0.3300609E+04  0.7818609E-02  0.8162740E-01
       -2   -1    0    0    0  501  0.00000000000E+00  0.00000000000E+00  0.13730972160E+04  0.13730972160E+04  0.25500000920E-02 0. -1.
        2   -1    0    0  501    0  0.00000000000E+00  0.00000000000E+00 -0.19834754886E+04  0.19834754886E+04  0.25500000920E-02 0.  1.
    10030    2    1    2    0    0  0.00000000000E+00  0.00000000000E+00 -0.61037827256E+03  0.33565727046E+04  0.33006088356E+04 0.  0.
        4    1    3    3  502    0 -0.14319731642E+04  0.78904136123E+03 -0.53342634579E+03  0.17197903047E+04  0.12699999809E+01 0. -1.
       -4    1    3    3    0  502  0.14319731642E+04 -0.78904136123E+03 -0.76951926773E+02  0.16367823999E+04  0.12699999809E+01 0.  1.
</event>
<event>
 5   0  0.6765252E-08  0.3300293E+04  0.7818609E-02  0.8162821E-01
       -2   -1    0    0    0  501  0.00000000000E+00  0.00000000000E+00  0.13903306061E+04  0.13903306061E+04  0.25500000920E-02 0. -1.
        2   -1    0    0  501    0  0.00000000000E+00  0.00000000000E+00 -0.19585152512E+04  0.19585152512E+04  0.25500000920E-02 0.  1.
    10030    2    1    2    0    0  0.00000000000E+00  0.00000000000E+00 -0.56818464509E+03  0.33488458574E+04  0.33002931363E+04 0.  0.
        2    1    3    3  502    0  0.11798106330E+04  0.60483035603E+03 -0.12809972206E+04  0.18435636057E+04  0.25500000920E-02 0.  1.
       -2    1    3    3    0  502 -0.11798106330E+04 -0.60483035603E+03  0.71281257550E+03  0.15052822516E+04  0.25500000920E-02 0. -1.
</event>
<event>
 5   0  0.6765252E-08  0.3299589E+04  0.7818609E-02  0.8163000E-01
        2   -1    0    0  501    0  0.00000000000E+00  0.00000000000E+00  0.15969711172E+04  0.15969711172E+04  0.25500000920E-02 0.  1.
       -2   -1    0    0    0  501  0.00000000000E+00  0.00000000000E+00 -0.17043654034E+04  0.17043654034E+04  0.25500000920E-02 0. -1.
    10030    2    1    2    0    0  0.00000000000E+00  0.00000000000E+00 -0.10739428623E+03  0.33013365206E+04  0.32995892607E+04 0.  0.
        2    1    3    3  502    0 -0.11992175317E+03  0.61946970299E+03  0.14714782599E+04  0.16010534686E+04  0.25500000920E-02 0.  1.
       -2    1    3    3    0  502  0.11992175317E+03 -0.61946970299E+03 -0.15788725462E+04  0.17002830520E+04  0.25500000920E-02 0. -1.
</event>
<event>
 5   0  0.6603516E-08  0.3300500E+04  0.7818609E-02  0.8162768E-01
       -2   -1    0    0    0  501  0.00000000000E+00  0.00000000000E+00  0.12732090488E+04  0.12732090488E+04  0.25500000920E-02 0.  1.
        2   -1    0    0  501    0  0.00000000000E+00  0.00000000000E+00 -0.21389460450E+04  0.21389460450E+04  0.25500000920E-02 0. -1.
    10030    2    1    2    0    0  0.00000000000E+00  0.00000000000E+00 -0.86573699625E+03  0.34121550938E+04  0.33005002405E+04 0.  0.
        1    1    3    3  502    0  0.15777360529E+04  0.51779643826E+02 -0.93017525618E+03  0.18322549471E+04  0.50400001928E-02 0. -1.
       -1    1    3    3    0  502 -0.15777360529E+04 -0.51779643826E+02  0.64438259929E+02  0.15799001466E+04  0.50400001928E-02 0.  1.
</event>
<event>
 5   0  0.6821287E-08  0.3300293E+04  0.7818609E-02  0.8162821E-01
       -2   -1    0    0    0  501  0.00000000000E+00  0.00000000000E+00  0.24985598854E+04  0.24985598854E+04  0.25500000920E-02 0.  1.
        2   -1    0    0  501    0  0.00000000000E+00  0.00000000000E+00 -0.10898214510E+04  0.10898214510E+04  0.25500000920E-02 0. -1.
    10030    2    1    2    0    0  0.00000000000E+00  0.00000000000E+00  0.14087384343E+04  0.35883813364E+04  0.33002934171E+04 0.  0.
        5    1    3    3  502    0  0.85676475539E+03 -0.70196430756E+03  0.20343194649E+04  0.23163068688E+04  0.46999998093E+01 0.  1.
       -5    1    3    3    0  502 -0.85676475539E+03  0.70196430756E+03 -0.62558103059E+03  0.12720744676E+04  0.46999998093E+01 0. -1.
</event>
<event>
 5   0  0.2291682E-08  0.3300785E+04  0.7818609E-02  0.8162696E-01
        1   -1    0    0  501    0  0.00000000000E+00  0.00000000000E+00  0.17154276385E+04  0.17154276385E+04  0.50400001928E-02 0. -1.
       -1   -1    0    0    0  501  0.00000000000E+00  0.00000000000E+00 -0.15878226497E+04  0.15878226497E+04  0.50400001928E-02 0.  1.
    10030    2    1    2    0    0  0.00000000000E+00  0.00000000000E+00  0.12760498878E+03  0.33032502882E+04  0.33007846694E+04 0.  0.
        2    1    3    3  502    0  0.11663448021E+04 -0.19024128147E+03 -0.10891183629E+04  0.16070876613E+04  0.25500000920E-02 0.  1.
       -2    1    3    3    0  502 -0.11663448021E+04  0.19024128147E+03  0.12167233517E+04  0.16961626270E+04  0.25500000920E-02 0. -1.
</event>
<event>
 5   0  0.2279938E-08  0.3300804E+04  0.7818609E-02  0.8162691E-01
       -1   -1    0    0    0  501  0.00000000000E+00  0.00000000000E+00  0.10014818378E+04  0.10014818378E+04  0.50400001928E-02 0.  1.
        1   -1    0    0  501    0  0.00000000000E+00  0.00000000000E+00 -0.27197961223E+04  0.27197961223E+04  0.50400001928E-02 0. -1.
    10030    2    1    2    0    0  0.00000000000E+00  0.00000000000E+00 -0.17183142846E+04  0.37212779601E+04  0.33008037924E+04 0.  0.
        3    1    3    3  502    0 -0.20192869426E+02  0.14058150177E+04  0.11529963659E+03  0.14106798475E+04  0.10100000352E+00 0.  1.
       -3    1    3    3    0  502  0.20192869426E+02 -0.14058150177E+04 -0.18336139212E+04  0.23105981126E+04  0.10100000352E+00 0. -1.
</event>
<event>
 5   0  0.2244093E-08  0.3300041E+04  0.7818609E-02  0.8162885E-01
       -1   -1    0    0    0  501  0.00000000000E+00  0.00000000000E+00  0.11810863992E+04  0.11810863993E+04  0.50400001928E-02 0.  1.
        1   -1    0    0  501    0  0.00000000000E+00  0.00000000000E+00 -0.23051380595E+04  0.23051380595E+04  0.50400001928E-02 0. -1.
    10030    2    1    2    0    0  0.00000000000E+00  0.00000000000E+00 -0.11240516603E+04  0.34862244588E+04  0.33000407334E+04 0.  0.
        1    1    3    3  502    0 -0.20449764993E+03 -0.14349617530E+03 -0.22850432200E+04  0.22986589478E+04  0.50400001928E-02 0. -1.
       -1    1    3    3    0  502  0.20449764993E+03  0.14349617530E+03  0.11609915597E+04  0.11875655110E+04  0.50400001928E-02 0.  1.
</event>
<event>
 5   0  0.2291682E-08  0.3300183E+04  0.7818609E-02  0.8162849E-01
       -1   -1    0    0    0  501  0.00000000000E+00  0.00000000000E+00  0.92917137988E+03  0.92917137989E+03  0.50400001928E-02 0. -1.
        1   -1    0    0  501    0  0.00000000000E+00  0.00000000000E+00 -0.29303555097E+04  0.29303555097E+04  0.50400001928E-02 0.  1.
    10030    2    1    2    0    0  0.00000000000E+00  0.00000000000E+00 -0.20011841298E+04  0.38595268896E+04  0.33001833116E+04 0.  0.
        2    1    3    3  502    0  0.60873088277E+03  0.13144933342E+04 -0.19246778969E+04  0.24089066026E+04  0.25500000920E-02 0.  1.
       -2    1    3    3    0  502 -0.60873088277E+03 -0.13144933342E+04 -0.76506232958E+02  0.14506202870E+04  0.25500000920E-02 0. -1.
</event>
<event>
 5   0  0.7084130E-08  0.3300127E+04  0.7818609E-02  0.8162863E-01
       -2   -1    0    0    0  501  0.00000000000E+00  0.00000000000E+00  0.28612373774E+04  0.28612373774E+04  0.25500000920E-02 0. -1.
        2   -1    0    0  501    0  0.00000000000E+00  0.00000000000E+00 -0.95158471108E+03  0.95158471108E+03  0.25500000920E-02 0.  1.
    10030    2    1    2    0    0  0.00000000000E+00  0.00000000000E+00  0.19096526664E+04  0.38128220885E+04  0.33001271146E+04 0.  0.
        3    1    3    3  502    0  0.16143067719E+04 -0.31702608953E+03  0.80769256815E+03  0.18327190701E+04  0.10100000352E+00 0. -1.
       -3    1    3    3    0  502 -0.16143067719E+04  0.31702608953E+03  0.11019600982E+04  0.19801030184E+04  0.10100000352E+00 0.  1.
</event>
<event>
 5   0  0.2291682E-08  0.3290899E+04  0.7818609E-02  0.8165215E-01
        1   -1    0    0  501    0  0.00000000000E+00  0.00000000000E+00  0.19350734254E+04  0.19350734254E+04  0.50400001928E-02 0. -1.
       -1   -1    0    0    0  501  0.00000000000E+00  0.00000000000E+00 -0.13991735464E+04  0.13991735464E+04  0.50400001928E-02 0.  1.
    10030    2    1    2    0    0  0.00000000000E+00  0.00000000000E+00  0.53589987902E+03  0.33342469718E+04  0.32908986901E+04 0.  0.
        2    1    3    3  502    0  0.12759642498E+04  0.50623134189E+03  0.11871761028E+04  0.18148669476E+04  0.25500000920E-02 0. -1.
       -2    1    3    3    0  502 -0.12759642498E+04 -0.50623134189E+03 -0.65127622373E+03  0.15193800242E+04  0.25500000920E-02 0.  1.
</event>
<event>
 5   0  0.6821287E-08  0.3300647E+04  0.7818609E-02  0.8162731E-01
       -2   -1    0    0    0  501  0.00000000000E+00  0.00000000000E+00  0.90580863698E+03  0.90580863698E+03  0.25500000920E-02 0.  1.
        2   -1    0    0  501    0  0.00000000000E+00  0.00000000000E+00 -0.30067801391E+04  0.30067801391E+04  0.25500000920E-02 0. -1.
    10030    2    1    2    0    0  0.00000000000E+00  0.00000000000E+00 -0.21009715022E+04  0.39125887761E+04  0.33006468575E+04 0.  0.
        5    1    3    3  502    0  0.99250519905E+03  0.10387794865E+04 -0.20130835488E+04  0.24731875902E+04  0.46999998093E+01 0. -1.
       -5    1    3    3    0  502 -0.99250519905E+03 -0.10387794865E+04 -0.87887953405E+02  0.14394011860E+04  0.46999998093E+01 0.  1.
</event>
<event>
 5   0  0.6706080E-08  0.3299451E+04  0.7818609E-02  0.8163035E-01
        2   -1    0    0  501    0  0.00000000000E+00  0.00000000000E+00  0.13381474798E+04  0.13381474798E+04  0.25500000920E-02 0.  1.
       -2   -1    0    0    0  501  0.00000000000E+00  0.00000000000E+00 -0.20338527824E+04  0.20338527824E+04  0.25500000920E-02 0. -1.
    10030    2    1    2    0    0  0.00000000000E+00  0.00000000000E+00 -0.69570530261E+03  0.33720002622E+04  0.32994514545E+04 0.  0.
        4    1    3    3  502    0 -0.56388700236E+03  0.40825396030E+03 -0.18763839520E+04  0.20013640838E+04  0.12699999809E+01 0. -1.
       -4    1    3    3    0  502  0.56388700236E+03 -0.40825396030E+03  0.11806786494E+04  0.13706361784E+04  0.12699999809E+01 0.  1.
</event>
<event>
 5   0  0.2383270E-08  0.3301566E+04  0.7818609E-02  0.8162497E-01
        1   -1    0    0  501    0  0.00000000000E+00  0.00000000000E+00  0.12536077867E+04  0.12536077867E+04  0.50400001928E-02 0.  1.
       -1   -1    0    0    0  501  0.00000000000E+00  0.00000000000E+00 -0.21737929232E+04  0.21737929232E+04  0.50400001928E-02 0. -1.
    10030    2    1    2    0    0  0.00000000000E+00  0.00000000000E+00 -0.92018513652E+03  0.34274007098E+04  0.33015655287E+04 0.  0.
        5    1    3    3  502    0 -0.12695806497E+03  0.66516364906E+03  0.11027775278E+04  0.12941025447E+04  0.46999998093E+01 0.  1.
       -5    1    3    3    0  502  0.12695806497E+03 -0.66516364906E+03 -0.20229626643E+04  0.21332981652E+04  0.46999998093E+01 0. -1.
</event>
<event>
 5   0  0.2279938E-08  0.3299075E+04  0.7818609E-02  0.8163131E-01
       -1   -1    0    0    0  501  0.00000000000E+00  0.00000000000E+00  0.14252937737E+04  0.14252937737E+04  0.50400001928E-02 0. -1.
        1   -1    0    0  501    0  0.00000000000E+00  0.00000000000E+00 -0.19090618062E+04  0.19090618062E+04  0.50400001928E-02 0.  1.
    10030    2    1    2    0    0  0.00000000000E+00  0.00000000000E+00 -0.48376803255E+03  0.33343555799E+04  0.32990749649E+04 0.  0.
        3    1    3    3  502    0  0.12663654631E+04 -0.46344042989E+03  0.71828355222E+03  0.15278709991E+04  0.10100000352E+00 0. -1.
       -3    1    3    3    0  502 -0.12663654631E+04  0.46344042989E+03 -0.12020515848E+04  0.18064845809E+04  0.10100000352E+00 0.  1.
</event>
<event>
 5   0  0.2244093E-08  0.3300145E+04  0.7818609E-02  0.8162858E-01
       -1   -1    0    0    0  501  0.00000000000E+00  0.00000000000E+00  0.15486173022E+04  0.15486173022E+04  0.50400001928E-02 0. -1.
        1   -1    0    0  501    0  0.00000000000E+00  0.00000000000E+00 -0.17581746663E+04  0.17581746663E+04  0.50400001928E-02 0.  1.
    10030    2    1    2    0    0  0.00000000000E+00  0.00000000000E+00 -0.20955736406E+03  0.33067919686E+04  0.33001452748E+04 0.  0.
        1    1    3    3  502    0  0.45101723858E+02 -0.13076656404E+04 -0.11121472857E+04  0.17172347474E+04  0.50400001928E-02 0.  1.
       -1    1    3    3    0  502 -0.45101723858E+02  0.13076656404E+04  0.90258992167E+03  0.15895572211E+04  0.50400001928E-02 0. -1.
</event>
<event>
 5   0  0.2383270E-08  0.3300474E+04  0.7818609E-02  0.8162775E-01
        1   -1    0    0  501    0  0.00000000000E+00  0.00000000000E+00  0.26729167860E+04  0.26729167860E+04  0.50400001928E-02 0.  1.
       -1   -1    0    0    0  501  0.00000000000E+00  0.00000000000E+00 -0.10188431309E+04  0.10188431310E+04  0.50400001928E-02 0. -1.
    10030    2    1    2    0    0  0.00000000000E+00  0.00000000000E+00  0.16540736551E+04  0.36917599170E+04  0.33004744550E+04 0.  0.
        5    1    3    3  502    0 -0.13517291563E+04 -0.15396010871E+03  0.18717841488E+04  0.23139735126E+04  0.46999998093E+01 0.  1.
       -5    1    3    3    0  502  0.13517291563E+04  0.15396010871E+03 -0.21771049376E+03  0.13777864044E+04  0.46999998093E+01 0. -1.
</event>
<event>
 5   0  0.6765252E-08  0.3288901E+04  0.7818609E-02  0.8165725E-01
       -2   -1    0    0    0  501  0.00000000000E+00  0.00000000000E+00  0.99121548037E+03  0.99121548037E+03  0.25500000920E-02 0. -1.
        2   -1    0    0  501    0  0.00000000000E+00  0.00000000000E+00 -0.27281835114E+04  0.27281835114E+04  0.25500000920E-02 0.  1.
    10030    2    1    2    0    0  0.00000000000E+00  0.00000000000E+00 -0.17369680310E+04  0.37193989917E+04  0.32889011720E+04 0.  0.
        2    1    3    3  502    0  0.60553355085E+03  0.10389157752E+04  0.40003486145E+03  0.12672982125E+04  0.25500000920E-02 0. -1.
       -2    1    3    3    0  502 -0.60553355085E+03 -0.10389157752E+04 -0.21370028925E+04  0.24521007792E+04  0.25500000920E-02 0.  1.
</event>
<event>
 5   0  0.2291682E-08  0.3301817E+04  0.7818609E-02  0.8162433E-01
       -1   -1    0    0    0  501  0.00000000000E+00  0.00000000000E+00  0.93372525267E+03  0.93372525268E+03  0.50400001928E-02 0.  1.
        1   -1    0    0  501    0  0.00000000000E+00  0.00000000000E+00 -0.29189522013E+04  0.29189522013E+04  0.50400001928E-02 0. -1.
    10030    2    1    2    0    0  0.00000000000E+00  0.00000000000E+00 -0.19852269486E+04  0.38526774539E+04  0.33018173067E+04 0.  0.
        2    1    3    3  502    0  0.13931676884E+04  0.16904194974E+03  0.21935007740E+02  0.14035571001E+04  0.25500000920E-02 0.  1.
       -2    1    3    3    0  502 -0.13931676884E+04 -0.16904194974E+03 -0.20071619563E+04  0.24491203538E+04  0.25500000920E-02 0. -1.
</event>
<event>
 5   0  0.6821287E-08  0.3302191E+04  0.7818609E-02  0.8162338E-01
       -2   -1    0    0    0  501  0.00000000000E+00  0.00000000000E+00  0.16917858773E+04  0.16917858773E+04  0.25500000920E-02 0.  1.
        2   -1    0    0  501    0  0.00000000000E+00  0.00000000000E+00 -0.16113833877E+04  0.16113833877E+04  0.25500000920E-02 0. -1.
    10030    2    1    2    0    0  0.00000000000E+00  0.00000000000E+00  0.80402489627E+02  0.33031692650E+04  0.33021905810E+04 0.  0.
        5    1    3    3  502    0  0.10946313127E+04  0.69890679145E+03  0.10600156158E+04  0.16764079485E+04  0.46999998093E+01 0.  1.
       -5    1    3    3    0  502 -0.10946313127E+04 -0.69890679145E+03 -0.97961312620E+03  0.16267613165E+04  0.46999998093E+01 0. -1.
</event>
<event>
 5   0  0.2244093E-08  0.3299520E+04  0.7818609E-02  0.8163018E-01
        1   -1    0    0  501    0  0.00000000000E+00  0.00000000000E+00  0.25396226438E+04  0.25396226438E+04  0.50400001928E-02 0.  1.
       -1   -1    0    0    0  501  0.00000000000E+00  0.00000000000E+00 -0.10716975849E+04  0.10716975849E+04  0.50400001928E-02 0. -1.
    10030    2    1    2    0    0  0.00000000000E+00  0.00000000000E+00  0.14679250589E+04  0.36113202288E+04  0.32995196341E+04 0.  0.
        1    1    3    3  502    0  0.19854172094E+03 -0.54086900034E+03 -0.95800280518E+03  0.11179121009E+04  0.50400001928E-02 0. -1.
       -1    1    3    3    0  502 -0.19854172094E+03  0.54086900034E+03  0.24259278641E+04  0.24934081279E+04  0.50400001928E-02 0.  1.
</event>
<event>
 5   0  0.7084130E-08  0.3298406E+04  0.7818609E-02  0.8163301E-01
        2   -1    0    0  501    0  0.00000000000E+00  0.00000000000E+00  0.19254684096E+04  0.19254684096E+04  0.25500000920E-02 0. -1.
       -2   -1    0    0    0  501  0.00000000000E+00  0.00000000000E+00 -0.14125761141E+04  0.14125761141E+04  0.25500000920E-02 0.  1.
    10030    2    1    2    0    0  0.00000000000E+00  0.00000000000E+00  0.51289229546E+03  0.33380445237E+04  0.32984060901E+04 0.  0.
        3    1    3    3  502    0 -0.98163873514E+03 -0.82694890547E+02 -0.10821043193E+04  0.14633532791E+04  0.10100000352E+00 0.  1.
       -3    1    3    3    0  502  0.98163873514E+03  0.82694890547E+02  0.15949966148E+04  0.18746912446E+04  0.10100000352E+00 0. -1.
</event>
<event>
 5   0  0.6821287E-08  0.3300571E+04  0.7818609E-02  0.8162750E-01
        2   -1    0    0  501    0  0.00000000000E+00  0.00000000000E+00  0.14050417275E+04  0.14050417276E+04  0.25500000920E-02 0.  1.
       -2   -1    0    0    0  501  0.00000000000E+00  0.00000000000E+00 -0.19383352542E+04  0.19383352542E+04  0.25500000920E-02 0. -1.
    10030    2    1    2    0    0  0.00000000000E+00  0.00000000000E+00 -0.53329352664E+03  0.33433769817E+04  0.33005708077E+04 0.  0.
        5    1    3    3  502    0  0.10823177353E+04 -0.10076869040E+04 -0.10086599291E+04  0.17900451166E+04  0.46999998093E+01 0. -1.
       -5    1    3    3    0  502 -0.10823177353E+04  0.10076869040E+04  0.47536640244E+03  0.15533318652E+04  0.46999998093E+01 0.  1.
</event>
<event>
 5   0  0.6821287E-08  0.3301402E+04  0.7818609E-02  0.8162539E-01
       -2   -1    0    0    0  501  0.00000000000E+00  0.00000000000E+00  0.12565569388E+04  0.12565569388E+04  0.25500000920E-02 0.  1.
        2   -1    0    0  501    0  0.00000000000E+00  0.00000000000E+00 -0.21684757222E+04  0.21684757222E+04  0.25500000920E-02 0. -1.
    10030    2    1    2    0    0  0.00000000000E+00  0.00000000000E+00 -0.91191878343E+03  0.34250326611E+04  0.33014016511E+04 0.  0.
        5    1    3    3  502    0 -0.14121639637E+03 -0.96519922174E+02 -0.21592497043E+04  0.21660192846E+04  0.46999998093E+01 0. -1.
       -5    1    3    3    0  502  0.14121639637E+03  0.96519922174E+02  0.12473309208E+04  0.12590133764E+04  0.46999998093E+01 0.  1.
</event>
<event>
 5   0  0.7084130E-08  0.3301570E+04  0.7818609E-02  0.8162496E-01
        2   -1    0    0  501    0  0.00000000000E+00  0.00000000000E+00  0.25379183277E+04  0.25379183277E+04  0.25500000920E-02 0.  1.
       -2   -1    0    0    0  501  0.00000000000E+00  0.00000000000E+00 -0.10737502187E+04  0.10737502187E+04  0.25500000920E-02 0. -1.
    10030    2    1    2    0    0  0.00000000000E+00  0.00000000000E+00  0.14641681090E+04  0.36116685464E+04  0.33015695416E+04 0.  0.
        3    1    3    3  502    0  0.24844009334E+02  0.59651698411E+03  0.24156767130E+04  0.24883616556E+04  0.10100000352E+00 0.  1.
       -3    1    3    3    0  502 -0.24844009334E+02 -0.59651698411E+03 -0.95150860406E+03  0.11233068908E+04  0.10100000352E+00 0. -1.
</event>
<event>
 5   0  0.2244093E-08  0.3300374E+04  0.7818609E-02  0.8162800E-01
       -1   -1    0    0    0  501  0.00000000000E+00  0.00000000000E+00  0.22670493136E+04  0.22670493136E+04  0.50400001928E-02 0. -1.
        1   -1    0    0  501    0  0.00000000000E+00  0.00000000000E+00 -0.12011720995E+04  0.12011720995E+04  0.50400001928E-02 0.  1.
    10030    2    1    2    0    0  0.00000000000E+00  0.00000000000E+00  0.10658772142E+04  0.34682214131E+04  0.33003735447E+04 0.  0.
        1    1    3    3  502    0 -0.55754939554E+03 -0.14760411819E+03 -0.10918063306E+04  0.12347831258E+04  0.50400001928E-02 0.  1.
       -1    1    3    3    0  502  0.55754939554E+03  0.14760411819E+03  0.21576835447E+04  0.22334382874E+04  0.50400001928E-02 0. -1.
</event>
<event>
 5   0  0.2309822E-08  0.3300974E+04  0.7818609E-02  0.8162648E-01
        1   -1    0    0  501    0  0.00000000000E+00  0.00000000000E+00  0.20078123995E+04  0.20078123995E+04  0.50400001928E-02 0.  1.
       -1   -1    0    0    0  501  0.00000000000E+00  0.00000000000E+00 -0.13567539801E+04  0.13567539801E+04  0.50400001928E-02 0. -1.
    10030    2    1    2    0    0  0.00000000000E+00  0.00000000000E+00  0.65105841937E+03  0.33645663796E+04  0.33009740770E+04 0.  0.
        4    1    3    3  502    0 -0.11668555103E+04 -0.10064428006E+04  0.92821290616E+03  0.17989051406E+04  0.12699999809E+01 0.  1.
       -4    1    3    3    0  502  0.11668555103E+04  0.10064428006E+04 -0.27715448679E+03  0.15656612390E+04  0.12699999809E+01 0. -1.
</event>
<event>
 5   0  0.2383270E-08  0.3297517E+04  0.7818609E-02  0.8163527E-01
        1   -1    0    0  501    0  0.00000000000E+00  0.00000000000E+00  0.10208145537E+04  0.10208145537E+04  0.50400001928E-02 0.  1.
       -1   -1    0    0    0  501  0.00000000000E+00  0.00000000000E+00 -0.26629758342E+04  0.26629758342E+04  0.50400001928E-02 0. -1.
    10030    2    1    2    0    0  0.00000000000E+00  0.00000000000E+00 -0.16421612805E+04  0.36837903878E+04  0.32975169371E+04 0.  0.
        5    1    3    3  502    0  0.48733556597E+03  0.45780043104E+03  0.86254535988E+03  0.10913678465E+04  0.46999998093E+01 0.  1.
       -5    1    3    3    0  502 -0.48733556597E+03 -0.45780043104E+03 -0.25047066404E+04  0.25924225413E+04  0.46999998093E+01 0. -1.
</event>
<event>
 5   0  0.6765252E-08  0.3297263E+04  0.7818609E-02  0.8163592E-01
       -2   -1    0    0    0  501  0.00000000000E+00  0.00000000000E+00  0.10287835634E+04  0.10287835634E+04  0.25500000920E-02 0. -1.
        2   -1    0    0  501    0  0.00000000000E+00  0.00000000000E+00 -0.26419412589E+04  0.26419412589E+04  0.25500000920E-02 0.  1.
    10030    2    1    2    0    0  0.00000000000E+00  0.00000000000E+00 -0.16131576955E+04  0.36707248223E+04  0.32972629514E+04 0.  0.
        2    1    3    3  502    0 -0.15354441543E+04  0.46929355792E+02 -0.14029730988E+03  0.15425545211E+04  0.25500000920E-02 0.  1.
       -2    1    3    3    0  502  0.15354441543E+04 -0.46929355792E+02 -0.14728603856E+04  0.21281703012E+04  0.25500000920E-02 0. -1.
</event>
<event>
 5   0  0.2279938E-08  0.3302790E+04  0.7818609E-02  0.8162186E-01
       -1   -1    0    0    0  501  0.00000000000E+00  0.00000000000E+00  0.10303328938E+04  0.10303328938E+04  0.50400001928E-02 0. -1.
        1   -1    0    0  501    0  0.00000000000E+00  0.00000000000E+00 -0.26468190618E+04  0.26468190618E+04  0.50400001928E-02 0.  1.
    10030    2    1    2    0    0  0.00000000000E+00  0.00000000000E+00 -0.16164861680E+04  0.36771519556E+04  0.33027895745E+04 0.  0.
        3    1    3    3  502    0 -0.10392083339E+04  0.35726628381E+03  0.56416313814E+03  0.12352624075E+04  0.10100000352E+00 0. -1.
       -3    1    3    3    0  502  0.10392083339E+04 -0.35726628381E+03 -0.21806493061E+04  0.24418895481E+04  0.10100000352E+00 0.  1.
</event>
<event>
 5   0  0.2309822E-08  0.3295355E+04  0.7818609E-02  0.8164078E-01
        1   -1    0    0  501    0  0.00000000000E+00  0.00000000000E+00  0.16580816431E+04  0.16580816431E+04  0.50400001928E-02 0.  1.
       -1   -1    0    0    0  501  0.00000000000E+00  0.00000000000E+00 -0.16373388550E+04  0.16373388550E+04  0.50400001928E-02 0. -1.
    10030    2    1    2    0    0  0.00000000000E+00  0.00000000000E+00  0.20742788098E+02  0.32954204981E+04  0.32953552154E+04 0.  0.
        4    1    3    3  502    0 -0.47362099651E+03 -0.15501082033E+04 -0.28575538649E+03  0.16458463003E+04  0.12699999809E+01 0.  1.
       -4    1    3    3    0  502  0.47362099651E+03  0.15501082033E+04  0.30649817459E+03  0.16495741978E+04  0.12699999809E+01 0. -1.
</event>
<event>
 5   0  0.6706080E-08  0.3299671E+04  0.7818609E-02  0.8162979E-01
       -2   -1    0    0    0  501  0.00000000000E+00  0.00000000000E+00  0.12826402738E+04  0.12826402738E+04  0.25500000920E-02 0. -1.
        2   -1    0    0  501    0  0.00000000000E+00  0.00000000000E+00 -0.21221518437E+04  0.21221518437E+04  0.25500000920E-02 0.  1.
    10030    2    1    2    0    0  0.00000000000E+00  0.00000000000E+00 -0.83951156986E+03  0.34047921176E+04  0.32996711484E+04 0.  0.
        4    1    3    3  502    0 -0.11037532697E+04  0.11432877789E+04  0.37739831510E+02  0.15895924426E+04  0.12699999809E+01 0. -1.
       -4    1    3    3    0  502  0.11037532697E+04 -0.11432877789E+04 -0.87725140137E+03  0.18151996749E+04  0.12699999809E+01 0.  1.
</event>
<event>
 5   0  0.2309822E-08  0.3302033E+04  0.7818609E-02  0.8162378E-01
       -1   -1    0    0    0  501  0.00000000000E+00  0.00000000000E+00  0.13520492983E+04  0.13520492983E+04  0.50400001928E-02 0.  1.
        1   -1    0    0  501    0  0.00000000000E+00  0.00000000000E+00 -0.20160913420E+04  0.20160913420E+04  0.50400001928E-02 0. -1.
    10030    2    1    2    0    0  0.00000000000E+00  0.00000000000E+00 -0.66404204365E+03  0.33681406403E+04  0.33020326372E+04 0.  0.
        4    1    3    3  502    0  0.14658121674E+04 -0.46148609982E+03 -0.94765935027E+03  0.18054458141E+04  0.12699999809E+01 0. -1.
       -4    1    3    3    0  502 -0.14658121674E+04  0.46148609982E+03  0.28361730662E+03  0.15626948263E+04  0.12699999809E+01 0.  1.
</event>
<event>
 5   0  0.2309822E-08  0.3301404E+04  0.7818609E-02  0.8162538E-01
        1   -1    0    0  501    0  0.00000000000E+00  0.00000000000E+00  0.17000717229E+04  0.17000717229E+04  0.50400001928E-02 0. -1.
       -1   -1    0    0    0  501  0.00000000000E+00  0.00000000000E+00 -0.16027658459E+04  0.16027658459E+04  0.50400001928E-02 0.  1.
    10030    2    1    2    0    0  0.00000000000E+00  0.00000000000E+00  0.97305876982E+02  0.33028375688E+04  0.33014038790E+04 0.  0.
        4    1    3    3  502    0  0.14040052416E+04 -0.86805055212E+03  0.57188982368E+02  0.16516702673E+04  0.12699999809E+01 0. -1.
       -4    1    3    3    0  502 -0.14040052416E+04  0.86805055212E+03  0.40116894614E+02  0.16511673015E+04  0.12699999809E+01 0.  1.
</event>
<event>
 5   0  0.2244093E-08  0.3291517E+04  0.7818609E-02  0.8165057E-01
        1   -1    0    0  501    0  0.00000000000E+00  0.00000000000E+00  0.18720328967E+04  0.18720328967E+04  0.50400001928E-02 0.  1.
       -1   -1    0    0    0  501  0.00000000000E+00  0.00000000000E+00 -0.14468339041E+04  0.14468339041E+04  0.50400001928E-02 0. -1.
    10030    2    1    2    0    0  0.00000000000E+00  0.00000000000E+00  0.42519899259E+03  0.33188668008E+04  0.32915167717E+04 0.  0.
        1    1    3    3  502    0  0.10018240198E+04  0.33035334775E+03 -0.10611213800E+04  0.14962497399E+04  0.50400001928E-02 0. -1.
       -1    1    3    3    0  502 -0.10018240198E+04 -0.33035334775E+03  0.14863203726E+04  0.18226170610E+04  0.50400001928E-02 0.  1.
</event>
<event>
 5   0  0.6603516E-08  0.3308726E+04  0.7818609E-02  0.8160679E-01
        2   -1    0    0  501    0  0.00000000000E+00  0.00000000000E+00  0.11033069562E+04  0.11033069562E+04  0.25500000920E-02 0.  1.
       -2   -1    0    0    0  501  0.00000000000E+00  0.00000000000E+00 -0.24806485958E+04  0.24806485958E+04  0.25500000920E-02 0. -1.
    10030    2    1    2    0    0  0.00000000000E+00  0.00000000000E+00 -0.13773416396E+04  0.35839555520E+04  0.33087259491E+04 0.  0.
        1    1    3    3  502    0  0.56478502999E+03  0.10483497249E+04  0.55529186343E+03  0.13139133645E+04  0.50400001928E-02 0.  1.
       -1    1    3    3    0  502 -0.56478502999E+03 -0.10483497249E+04 -0.19326335030E+04  0.22700421875E+04  0.50400001928E-02 0. -1.
</event>
<event>
 5   0  0.2279938E-08  0.3299884E+04  0.7818609E-02  0.8162925E-01
        1   -1    0    0  501    0  0.00000000000E+00  0.00000000000E+00  0.19235688287E+04  0.19235688287E+04  0.50400001928E-02 0.  1.
       -1   -1    0    0    0  501  0.00000000000E+00  0.00000000000E+00 -0.14152385185E+04  0.14152385185E+04  0.50400001928E-02 0. -1.
    10030    2    1    2    0    0  0.00000000000E+00  0.00000000000E+00  0.50833031029E+03  0.33388073472E+04  0.32998840582E+04 0.  0.
        3    1    3    3  502    0  0.27362536767E+03 -0.16074017076E+04  0.50952594076E+03  0.17082821155E+04  0.10100000352E+00 0.  1.
       -3    1    3    3    0  502 -0.27362536767E+03  0.16074017076E+04 -0.11956304682E+01  0.16305252317E+04  0.10100000352E+00 0. -1.
</event>
<event>
 5   0  0.6765252E-08  0.3303634E+04  0.7818609E-02  0.8161971E-01
       -2   -1    0    0    0  501  0.00000000000E+00  0.00000000000E+00  0.14274769453E+04  0.14274769453E+04  0.25500000920E-02 0.  1.
        2   -1    0    0  501    0  0.00000000000E+00  0.00000000000E+00 -0.19114134566E+04  0.19114134566E+04  0.25500000920E-02 0. -1.
    10030    2    1    2    0    0  0.00000000000E+00  0.00000000000E+00 -0.48393651122E+03  0.33388904019E+04  0.33036335404E+04 0.  0.
        2    1    3    3  502    0 -0.73504020753E+03 -0.13311586053E+04  0.41007689048E+03  0.15749382195E+04  0.25500000920E-02 0.  1.
       -2    1    3    3    0  502  0.73504020753E+03  0.13311586053E+04 -0.89401340170E+03  0.17639521824E+04  0.25500000920E-02 0. -1.
</event>
<event>
 5   0  0.7084130E-08  0.3299840E+04  0.7818609E-02  0.8162936E-01
       -2   -1    0    0    0  501  0.00000000000E+00  0.00000000000E+00  0.99642847903E+03  0.99642847903E+03  0.25500000920E-02 0. -1.
        2   -1    0    0  501    0  0.00000000000E+00  0.00000000000E+00 -0.27319931160E+04  0.27319931160E+04  0.25500000920E-02 0.  1.
    10030    2    1    2    0    0  0.00000000000E+00  0.00000000000E+00 -0.17355646369E+04  0.37284215950E+04  0.32998398417E+04 0.  0.
        3    1    3    3  502    0  0.16021288895E+04  0.26023116907E+03 -0.53318055632E+03  0.17084550786E+04  0.10100000352E+00 0. -1.
       -3    1    3    3    0  502 -0.16021288895E+04 -0.26023116907E+03 -0.12023840806E+04  0.20199665164E+04  0.10100000352E+00 0.  1.
</event>
<event>
 5   0  0.2383270E-08  0.3300380E+04  0.7818609E-02  0.8162799E-01
        1   -1    0    0  501    0  0.00000000000E+00  0.00000000000E+00  0.24735574551E+04  0.24735574551E+04  0.50400001928E-02 0. -1.
       -1   -1    0    0    0  501  0.00000000000E+00  0.00000000000E+00 -0.11008947047E+04  0.11008947048E+04  0.50400001928E-02 0.  1.
    10030    2    1    2    0    0  0.00000000000E+00  0.00000000000E+00  0.13726627504E+04  0.35744521599E+04  0.33003795565E+04 0.  0.
        5    1    3    3  502    0 -0.52131105030E+03  0.15617676236E+04  0.80605974557E+03  0.18332042234E+04  0.46999998093E+01 0. -1.
       -5    1    3    3    0  502  0.52131105030E+03 -0.15617676236E+04  0.56660300481E+03  0.17412479365E+04  0.46999998093E+01 0.  1.
</event>
<event>
 5   0  0.6706080E-08  0.3299363E+04  0.7818609E-02  0.8163057E-01
        2   -1    0    0  501    0  0.00000000000E+00  0.00000000000E+00  0.12663885295E+04  0.12663885295E+04  0.25500000920E-02 0.  1.
       -2   -1    0    0    0  501  0.00000000000E+00  0.00000000000E+00 -0.21489845481E+04  0.21489845481E+04  0.25500000920E-02 0. -1.
    10030    2    1    2    0    0  0.00000000000E+00  0.00000000000E+00 -0.88259601854E+03  0.34153730776E+04  0.32993632002E+04 0.  0.
        4    1    3    3  502    0 -0.56298097359E+03  0.14786426464E+04  0.42152367223E+02  0.15827539567E+04  0.12699999809E+01 0.  1.
       -4    1    3    3    0  502  0.56298097359E+03 -0.14786426464E+04 -0.92474838576E+03  0.18326191209E+04  0.12699999809E+01 0. -1.
</event>
<event>
 5   0  0.6706080E-08  0.3301277E+04  0.7818609E-02  0.8162570E-01
       -2   -1    0    0    0  501  0.00000000000E+00  0.00000000000E+00  0.11175129945E+04  0.11175129946E+04  0.25500000920E-02 0. -1.
        2   -1    0    0  501    0  0.00000000000E+00  0.00000000000E+00 -0.24380995661E+04  0.24380995661E+04  0.25500000920E-02 0.  1.
    10030    2    1    2    0    0  0.00000000000E+00  0.00000000000E+00 -0.13205865716E+04  0.35556125607E+04  0.33012772965E+04 0.  0.
        4    1    3    3  502    0 -0.61159857869E+03  0.15200739932E+04 -0.44507741521E+03  0.16978731651E+04  0.12699999809E+01 0. -1.
       -4    1    3    3    0  502  0.61159857869E+03 -0.15200739932E+04 -0.87550915639E+03  0.18577393956E+04  0.12699999809E+01 0.  1.
</event>
<event>
 5   0  0.6765252E-08  0.3289850E+04  0.7818609E-02  0.8165483E-01
       -2   -1    0    0    0  501  0.00000000000E+00  0.00000000000E+00  0.12852621910E+04  0.12852621910E+04  0.25500000920E-02 0. -1.
        2   -1    0    0  501    0  0.00000000000E+00  0.00000000000E+00 -0.21052344122E+04  0.21052344122E+04  0.25500000920E-02 0.  1.
    10030    2    1    2    0    0  0.00000000000E+00  0.00000000000E+00 -0.81997222118E+03  0.33904966032E+04  0.32898499620E+04 0.  0.
        2    1    3    3  502    0  0.14031409327E+04  0.69064848129E+03 -0.93546569513E+03  0.18223325351E+04  0.25500000920E-02 0.  1.
       -2    1    3    3    0  502 -0.14031409327E+04 -0.69064848129E+03  0.11549347395E+03  0.15681640681E+04  0.25500000920E-02 0. -1.
</event>
<event>
 5   0  0.2383270E-08  0.3302710E+04  0.7818609E-02  0.8162206E-01
       -1   -1    0    0    0  501  0.00000000000E+00  0.00000000000E+00  0.18336442907E+04  0.18336442907E+04  0.50400001928E-02 0.  1.
        1   -1    0    0  501    0  0.00000000000E+00  0.00000000000E+00 -0.14871880308E+04  0.14871880308E+04  0.50400001928E-02 0. -1.
    10030    2    1    2    0    0  0.00000000000E+00  0.00000000000E+00  0.34645625986E+03  0.33208323215E+04  0.33027103063E+04 0.  0.
        5    1    3    3  502    0  0.91057575905E+03  0.19169543038E+03  0.15449189532E+04  0.18035221132E+04  0.46999998093E+01 0.  1.
       -5    1    3    3    0  502 -0.91057575905E+03 -0.19169543038E+03 -0.11984626933E+04  0.15173102083E+04  0.46999998093E+01 0. -1.
</event>
<event>
 5   0  0.7084130E-08  0.3286806E+04  0.7818609E-02  0.8166261E-01
        2   -1    0    0  501    0  0.00000000000E+00  0.00000000000E+00  0.18647979340E+04  0.18647979340E+04  0.25500000920E-02 0. -1.
       -2   -1    0    0    0  501  0.00000000000E+00  0.00000000000E+00 -0.14482927497E+04  0.14482927497E+04  0.25500000920E-02 0.  1.
    10030    2    1    2    0    0  0.00000000000E+00  0.00000000000E+00  0.41650518430E+03  0.33130906837E+04  0.32868059434E+04 0.  0.
        3    1    3    3  502    0  0.12208521512E+04 -0.64039763181E+03  0.11099363562E+04  0.17699005132E+04  0.10100000352E+00 0.  1.
       -3    1    3    3    0  502 -0.12208521512E+04  0.64039763181E+03 -0.69343117186E+03  0.15431901704E+04  0.10100000352E+00 0. -1.
</event>
<event>
 5   0  0.2200750E-08  0.3298143E+04  0.7818609E-02  0.8163368E-01
        3   -1    0    0  501    0  0.00000000000E+00  0.00000000000E+00  0.21717040344E+04  0.21717040367E+04  0.10100000352E+00 0. -1.
       -3   -1    0    0    0  501  0.00000000000E+00  0.00000000000E+00 -0.12522132028E+04  0.12522132069E+04  0.10100000352E+00 0.  1.
    10030    2    1    2    0    0  0.00000000000E+00  0.00000000000E+00  0.91949083158E+03  0.34239172436E+04  0.32981427958E+04 0.  0.
        1    1    3    3  502    0 -0.15496103788E+02  0.15586652295E+04 -0.99075056216E+02  0.15618877340E+04  0.50400001928E-02 0.  1.
       -1    1    3    3    0  502  0.15496103788E+02 -0.15586652295E+04  0.10185658878E+04  0.18620295096E+04  0.50400001928E-02 0. -1.
</event>
<event>
 5   0  0.2279938E-08  0.3297937E+04  0.7818609E-02  0.8163420E-01
       -1   -1    0    0    0  501  0.00000000000E+00  0.00000000000E+00  0.25926147293E+04  0.25926147293E+04  0.50400001928E-02 0.  1.
        1   -1    0    0  501    0  0.00000000000E+00  0.00000000000E+00 -0.10487858745E+04  0.10487858745E+04  0.50400001928E-02 0. -1.
    10030    2    1    2    0    0  0.00000000000E+00  0.00000000000E+00  0.15438288548E+04  0.36414006039E+04  0.32979373592E+04 0.  0.
        3    1    3    3  502    0  0.10390796470E+03 -0.90308470523E+03  0.22909621057E+04  0.24647243720E+04  0.10100000352E+00 0.  1.
       -3    1    3    3    0  502 -0.10390796470E+03  0.90308470523E+03 -0.74713325088E+03  0.11766762319E+04  0.10100000352E+00 0. -1.
</event>
<event>
 5   0  0.2200750E-08  0.3298247E+04  0.7818609E-02  0.8163342E-01
        3   -1    0    0  501    0  0.00000000000E+00  0.00000000000E+00  0.15004614348E+04  0.15004614382E+04  0.10100000352E+00 0. -1.
       -3   -1    0    0    0  501  0.00000000000E+00  0.00000000000E+00 -0.18125146189E+04  0.18125146217E+04  0.10100000352E+00 0.  1.
    10030    2    1    2    0    0  0.00000000000E+00  0.00000000000E+00 -0.31205318413E+03  0.33129760599E+04  0.32982469865E+04 0.  0.
        5    1    3    3  502    0  0.10560540046E+04  0.25148023676E+03  0.10909252036E+04  0.15390361464E+04  0.46999998093E+01 0. -1.
       -5    1    3    3    0  502 -0.10560540046E+04 -0.25148023676E+03 -0.14029783878E+04  0.17739399135E+04  0.46999998093E+01 0.  1.
</event>
<event>
 5   0  0.6706080E-08  0.3299062E+04  0.7818609E-02  0.8163134E-01
       -2   -1    0    0    0  501  0.00000000000E+00  0.00000000000E+00  0.14293100433E+04  0.14293100433E+04  0.25500000920E-02 0. -1.
        2   -1    0    0  501    0  0.00000000000E+00  0.00000000000E+00 -0.19036827809E+04  0.19036827809E+04  0.25500000920E-02 0.  1.
    10030    2    1    2    0    0  0.00000000000E+00  0.00000000000E+00 -0.47437273762E+03  0.33329928241E+04  0.32990622412E+04 0.  0.
        4    1    3    3  502    0 -0.59964381516E+03 -0.10009661875E+04 -0.14151306197E+04  0.18341489300E+04  0.12699999809E+01 0.  1.
       -4    1    3    3    0  502  0.59964381516E+03  0.10009661875E+04  0.94075788206E+03  0.14988438942E+04  0.12699999809E+01 0. -1.
</event>
<event>
 5   0  0.2309822E-08  0.3301932E+04  0.7818609E-02  0.8162404E-01
       -1   -1    0    0    0  501  0.00000000000E+00  0.00000000000E+00  0.17365027201E+04  0.17365027201E+04  0.50400001928E-02 0.  1.
        1   -1    0    0  501    0  0.00000000000E+00  0.00000000000E+00 -0.15696425825E+04  0.15696425825E+04  0.50400001928E-02 0. -1.
    10030    2    1    2    0    0  0.00000000000E+00  0.00000000000E+00  0.16686013766E+03  0.33061453026E+04  0.33019319279E+04 0.  0.
        4    1    3    3  502    0 -0.16060789504E+04  0.23716276474E+02  0.46553849819E+03  0.16723575463E+04  0.12699999809E+01 0.  1.
       -4    1    3    3    0  502  0.16060789504E+04 -0.23716276474E+02 -0.29867836053E+03  0.16337877563E+04  0.12699999809E+01 0. -1.
</event>
<event>
 5   0  0.2279938E-08  0.3299895E+04  0.7818609E-02  0.8162922E-01
       -1   -1    0    0    0  501  0.00000000000E+00  0.00000000000E+00  0.13074576832E+04  0.13074576832E+04  0.50400001928E-02 0. -1.
        1   -1    0    0  501    0  0.00000000000E+00  0.00000000000E+00 -0.20821524279E+04  0.20821524279E+04  0.50400001928E-02 0.  1.
    10030    2    1    2    0    0  0.00000000000E+00  0.00000000000E+00 -0.77469474468E+03  0.33896101111E+04  0.32998946586E+04 0.  0.
        3    1    3    3  502    0 -0.68571946288E+03  0.14299074195E+04 -0.85523067648E+03  0.18017396955E+04  0.10100000352E+00 0.  1.
       -3    1    3    3    0  502  0.68571946288E+03 -0.14299074195E+04  0.80535931794E+02  0.15878704156E+04  0.10100000352E+00 0. -1.
</event>
<event>
 5   0  0.6765252E-08  0.3308708E+04  0.7818609E-02  0.8160683E-01
        2   -1    0    0  501    0  0.00000000000E+00  0.00000000000E+00  0.27750003682E+04  0.27750003683E+04  0.25500000920E-02 0.  1.
       -2   -1    0    0    0  501  0.00000000000E+00  0.00000000000E+00 -0.98626555611E+03  0.98626555611E+03  0.25500000920E-02 0. -1.
    10030    2    1    2    0    0  0.00000000000E+00  0.00000000000E+00  0.17887348121E+04  0.37612659244E+04  0.33087080750E+04 0.  0.
        2    1    3    3  502    0  0.37359909223E+03  0.84233687013E+03 -0.66752542689E+03  0.11378479160E+04  0.25500000920E-02 0. -1.
       -2    1    3    3    0  502 -0.37359909223E+03 -0.84233687013E+03  0.24562602390E+04  0.26234180083E+04  0.25500000920E-02 0.  1.
</event>
<event>
 5   0  0.2279938E-08  0.3300189E+04  0.7818609E-02  0.8162847E-01
       -1   -1    0    0    0  501  0.00000000000E+00  0.00000000000E+00  0.25008726273E+04  0.25008726273E+04  0.50400001928E-02 0. -1.
        1   -1    0    0  501    0  0.00000000000E+00  0.00000000000E+00 -0.10887449302E+04  0.10887449302E+04  0.50400001928E-02 0.  1.
    10030    2    1    2    0    0  0.00000000000E+00  0.00000000000E+00  0.14121276971E+04  0.35896175575E+04  0.33001893243E+04 0.  0.
        3    1    3    3  502    0  0.50427789102E+02 -0.16400365847E+04  0.51595127940E+03  0.17200199690E+04  0.10100000352E+00 0. -1.
       -3    1    3    3    0  502 -0.50427789102E+02  0.16400365847E+04  0.89617641769E+03  0.18695975884E+04  0.10100000352E+00 0.  1.
</event>
<event>
 5   0  0.6706080E-08  0.3299400E+04  0.7818609E-02  0.8163048E-01
        2   -1    0    0  501    0  0.00000000000E+00  0.00000000000E+00  0.20030356714E+04  0.20030356714E+04  0.25500000920E-02 0.  1.
       -2   -1    0    0    0  501  0.00000000000E+00  0.00000000000E+00 -0.13586929388E+04  0.13586929388E+04  0.25500000920E-02 0. -1.
    10030    2    1    2    0    0  0.00000000000E+00  0.00000000000E+00  0.64434273259E+03  0.33617286102E+04  0.32994002018E+04 0.  0.
        4    1    3    3  502    0  0.43883994446E+03  0.15769854895E+04  0.11324885384E+03  0.16408201141E+04  0.12699999809E+01 0.  1.
       -4    1    3    3    0  502 -0.43883994446E+03 -0.15769854895E+04  0.53109387876E+03  0.17209084961E+04  0.12699999809E+01 0. -1.
</event>
<event>
 5   0  0.6603516E-08  0.3299558E+04  0.7818609E-02  0.8163008E-01
        2   -1    0    0  501    0  0.00000000000E+00  0.00000000000E+00  0.93046094123E+03  0.93046094124E+03  0.25500000920E-02 0. -1.
       -2   -1    0    0    0  501  0.00000000000E+00  0.00000000000E+00 -0.29251852164E+04  0.29251852164E+04  0.25500000920E-02 0.  1.
    10030    2    1    2    0    0  0.00000000000E+00  0.00000000000E+00 -0.19947242751E+04  0.38556461576E+04  0.32995579035E+04 0.  0.
        1    1    3    3  502    0  0.38916896544E+03 -0.25343604599E+03  0.85250100347E+03  0.97079363101E+03  0.50400001928E-02 0. -1.
       -1    1    3    3    0  502 -0.38916896544E+03  0.25343604599E+03 -0.28472252786E+04  0.28848525266E+04  0.50400001928E-02 0.  1.
</event>
<event>
 5   0  0.6603516E-08  0.3300023E+04  0.7818609E-02  0.8162890E-01
        2   -1    0    0  501    0  0.00000000000E+00  0.00000000000E+00  0.17038835080E+04  0.17038835080E+04  0.25500000920E-02 0. -1.
       -2   -1    0    0    0  501  0.00000000000E+00  0.00000000000E+00 -0.15978423029E+04  0.15978423029E+04  0.25500000920E-02 0.  1.
    10030    2    1    2    0    0  0.00000000000E+00  0.00000000000E+00  0.10604120508E+03  0.33017258109E+04  0.33000225141E+04 0.  0.
        1    1    3    3  502    0 -0.10121145056E+04 -0.66780893621E+03 -0.10665710932E+04  0.16149050884E+04  0.50400001928E-02 0. -1.
       -1    1    3    3    0  502  0.10121145056E+04  0.66780893621E+03  0.11726122983E+04  0.16868207225E+04  0.50400001928E-02 0.  1.
</event>
<event>
 5   0  0.7084130E-08  0.3300003E+04  0.7818609E-02  0.8162895E-01
       -2   -1    0    0    0  501  0.00000000000E+00  0.00000000000E+00  0.31927722947E+04  0.31927722947E+04  0.25500000920E-02 0. -1.
        2   -1    0    0  501    0  0.00000000000E+00  0.00000000000E+00 -0.85270893995E+03  0.85270893995E+03  0.25500000920E-02 0.  1.
    10030    2    1    2    0    0  0.00000000000E+00  0.00000000000E+00  0.23400633548E+04  0.40454812347E+04  0.33000033206E+04 0.  0.
        3    1    3    3  502    0  0.79249034744E+03 -0.11017392161E+04  0.19618523470E+02  0.13572970006E+04  0.10100000352E+00 0.  1.
       -3    1    3    3    0  502 -0.79249034744E+03  0.11017392161E+04  0.23204448313E+04  0.26881842341E+04  0.10100000352E+00 0. -1.
</event>
<event>
 5   0  0.6821287E-08  0.3299594E+04  0.7818609E-02  0.8162999E-01
       -2   -1    0    0    0  501  0.00000000000E+00  0.00000000000E+00  0.16554581771E+04  0.16554581771E+04  0.25500000920E-02 0. -1.
        2   -1    0    0  501    0  0.00000000000E+00  0.00000000000E+00 -0.16441554454E+04  0.16441554454E+04  0.25500000920E-02 0.  1.
    10030    2    1    2    0    0  0.00000000000E+00  0.00000000000E+00  0.11302731621E+02  0.32996136225E+04  0.32995942638E+04 0.  0.
        5    1    3    3  502    0  0.14960044146E+04 -0.20334468912E+02 -0.68959784069E+03  0.16474252551E+04  0.46999998093E+01 0.  1.
       -5    1    3    3    0  502 -0.14960044146E+04  0.20334468912E+02  0.70090057231E+03  0.16521883674E+04  0.46999998093E+01 0. -1.
</event>
<event>
 5   0  0.2279938E-08  0.3298791E+04  0.7818609E-02  0.8163203E-01
       -1   -1    0    0    0  501  0.00000000000E+00  0.00000000000E+00  0.15118532113E+04  0.15118532113E+04  0.50400001928E-02 0.  1.
        1   -1    0    0  501    0  0.00000000000E+00  0.00000000000E+00 -0.17994503334E+04  0.17994503334E+04  0.50400001928E-02 0. -1.
    10030    2    1    2    0    0  0.00000000000E+00  0.00000000000E+00 -0.28759712213E+03  0.33113035447E+04  0.32987905451E+04 0.  0.
        3    1    3    3  502    0 -0.72393672776E+03  0.68990204192E+03  0.11728382107E+04  0.15412977298E+04  0.10100000352E+00 0.  1.
       -3    1    3    3    0  502  0.72393672776E+03 -0.68990204192E+03 -0.14604353328E+04  0.17700058149E+04  0.10100000352E+00 0. -1.
</event>
<event>
 5   0  0.2309822E-08  0.3300114E+04  0.7818609E-02  0.8162866E-01
        1   -1    0    0  501    0  0.00000000000E+00  0.00000000000E+00  0.17186235256E+04  0.17186235256E+04  0.50400001928E-02 0.  1.
       -1   -1    0    0    0  501  0.00000000000E+00  0.00000000000E+00 -0.15842259177E+04  0.15842259177E+04  0.50400001928E-02 0. -1.
    10030    2    1    2    0    0  0.00000000000E+00  0.00000000000E+00  0.13439760791E+03  0.33028494434E+04  0.33001138963E+04 0.  0.
        4    1    3    3  502    0 -0.13751084135E+03 -0.13225063650E+04 -0.91072629413E+03  0.16116315685E+04  0.12699999809E+01 0. -1.
       -4    1    3    3    0  502  0.13751084135E+03  0.13225063650E+04  0.10451239020E+04  0.16912178749E+04  0.12699999809E+01 0.  1.
</event>
<event>
 5   0  0.6706080E-08  0.3300002E+04  0.7818609E-02  0.8162895E-01
       -2   -1    0    0    0  501  0.00000000000E+00  0.00000000000E+00  0.11522183584E+04  0.11522183584E+04  0.25500000920E-02 0.  1.
        2   -1    0    0  501    0  0.00000000000E+00  0.00000000000E+00 -0.23628361554E+04  0.23628361554E+04  0.25500000920E-02 0. -1.
    10030    2    1    2    0    0  0.00000000000E+00  0.00000000000E+00 -0.12106177970E+04  0.35150545138E+04  0.33000019371E+04 0.  0.
        4    1    3    3  502    0  0.15770841776E+04 -0.48056728255E+03 -0.53495810187E+03  0.17332977816E+04  0.12699999809E+01 0.  1.
       -4    1    3    3    0  502 -0.15770841776E+04  0.48056728255E+03 -0.67565969516E+03  0.17817567322E+04  0.12699999809E+01 0. -1.
</event>
<event>
 5   0  0.2279938E-08  0.3300120E+04  0.7818609E-02  0.8162865E-01
       -1   -1    0    0    0  501  0.00000000000E+00  0.00000000000E+00  0.25413089536E+04  0.25413089537E+04  0.50400001928E-02 0.  1.
        1   -1    0    0  501    0  0.00000000000E+00  0.00000000000E+00 -0.10713761586E+04  0.10713761587E+04  0.50400001928E-02 0. -1.
    10030    2    1    2    0    0  0.00000000000E+00  0.00000000000E+00  0.14699327950E+04  0.36126851123E+04  0.33001198916E+04 0.  0.
        3    1    3    3  502    0 -0.14987738478E+03 -0.13461803042E+03  0.25277954955E+04  0.25358105848E+04  0.10100000352E+00 0.  1.
       -3    1    3    3    0  502  0.14987738478E+03  0.13461803042E+03 -0.10578627005E+04  0.10768745275E+04  0.10100000352E+00 0. -1.
</event>
<event>
 5   0  0.2291682E-08  0.3300533E+04  0.7818609E-02  0.8162760E-01
       -1   -1    0    0    0  501  0.00000000000E+00  0.00000000000E+00  0.19873282920E+04  0.19873282920E+04  0.50400001928E-02 0.  1.
        1   -1    0    0  501    0  0.00000000000E+00  0.00000000000E+00 -0.13703718668E+04  0.13703718668E+04  0.50400001928E-02 0. -1.
    10030    2    1    2    0    0  0.00000000000E+00  0.00000000000E+00  0.61695642520E+03  0.33577001587E+04  0.33005325518E+04 0.  0.
        2    1    3    3  502    0  0.13615847057E+03  0.74298296897E+03 -0.11841833279E+04  0.14045828475E+04  0.25500000920E-02 0. -1.
       -2    1    3    3    0  502 -0.13615847057E+03 -0.74298296897E+03  0.18011397531E+04  0.19531173113E+04  0.25500000920E-02 0.  1.
</event>
<event>
 5   0  0.2279938E-08  0.3299055E+04  0.7818609E-02  0.8163136E-01
        1   -1    0    0  501    0  0.00000000000E+00  0.00000000000E+00  0.28465182262E+04  0.28465182262E+04  0.50400001928E-02 0. -1.
       -1   -1    0    0    0  501  0.00000000000E+00  0.00000000000E+00 -0.95588418700E+03  0.95588418701E+03  0.50400001928E-02 0.  1.
    10030    2    1    2    0    0  0.00000000000E+00  0.00000000000E+00  0.18906340392E+04  0.38024024132E+04  0.32990554772E+04 0.  0.
        3    1    3    3  502    0 -0.58713494965E+03  0.13526612494E+04  0.93253010472E+02  0.14775371532E+04  0.10100000352E+00 0.  1.
       -3    1    3    3    0  502  0.58713494965E+03 -0.13526612494E+04  0.17973810287E+04  0.23248652601E+04  0.10100000352E+00 0. -1.
</event>
<event>
 5   0  0.2279938E-08  0.3298465E+04  0.7818609E-02  0.8163286E-01
       -1   -1    0    0    0  501  0.00000000000E+00  0.00000000000E+00  0.19408144677E+04  0.19408144677E+04  0.50400001928E-02 0.  1.
        1   -1    0    0  501    0  0.00000000000E+00  0.00000000000E+00 -0.14014567271E+04  0.14014567271E+04  0.50400001928E-02 0. -1.
    10030    2    1    2    0    0  0.00000000000E+00  0.00000000000E+00  0.53935774063E+03  0.33422711948E+04  0.32984647895E+04 0.  0.
        3    1    3    3  502    0  0.12661806901E+04  0.99291165058E+03 -0.96899751010E+02  0.16119791121E+04  0.10100000352E+00 0. -1.
       -3    1    3    3    0  502 -0.12661806901E+04 -0.99291165058E+03  0.63625749164E+03  0.17302920828E+04  0.10100000352E+00 0.  1.
</event>
<event>
 5   0  0.2383270E-08  0.3309636E+04  0.7818609E-02  0.8160448E-01
        1   -1    0    0  501    0  0.00000000000E+00  0.00000000000E+00  0.11013593821E+04  0.11013593821E+04  0.50400001928E-02 0.  1.
       -1   -1    0    0    0  501  0.00000000000E+00  0.00000000000E+00 -0.24864020804E+04  0.24864020804E+04  0.50400001928E-02 0. -1.
    10030    2    1    2    0    0  0.00000000000E+00  0.00000000000E+00 -0.13850426983E+04  0.35877614625E+04  0.33096357859E+04 0.  0.
        5    1    3    3  502    0  0.87081448663E+03  0.12283151021E+04  0.51701974402E+02  0.15065759338E+04  0.46999998093E+01 0.  1.
       -5    1    3    3    0  502 -0.87081448663E+03 -0.12283151021E+04 -0.14367446727E+04  0.20811855287E+04  0.46999998093E+01 0. -1.
</event>
<event>
 5   0  0.2291682E-08  0.3300686E+04  0.7818609E-02  0.8162721E-01
       -1   -1    0    0    0  501  0.00000000000E+00  0.00000000000E+00  0.13660542140E+04  0.13660542140E+04  0.50400001928E-02 0. -1.
        1   -1    0    0  501    0  0.00000000000E+00  0.00000000000E+00 -0.19937954620E+04  0.19937954620E+04  0.50400001928E-02 0.  1.
    10030    2    1    2    0    0  0.00000000000E+00  0.00000000000E+00 -0.62774124797E+03  0.33598496760E+04  0.33006864090E+04 0.  0.
        2    1    3    3  502    0  0.16019609426E+03 -0.23519276359E+03 -0.19686334523E+04  0.19890942899E+04  0.25500000920E-02 0.  1.
       -2    1    3    3    0  502 -0.16019609426E+03  0.23519276359E+03  0.13408922043E+04  0.13707553860E+04  0.25500000920E-02 0. -1.
</event>
<event>
 5   0  0.2291682E-08  0.3297835E+04  0.7818609E-02  0.8163447E-01
        1   -1    0    0  501    0  0.00000000000E+00  0.00000000000E+00  0.18140596983E+04  0.18140596983E+04  0.50400001928E-02 0.  1.
       -1   -1    0    0    0  501  0.00000000000E+00  0.00000000000E+00 -0.14988086471E+04  0.14988086471E+04  0.50400001928E-02 0. -1.
    10030    2    1    2    0    0  0.00000000000E+00  0.00000000000E+00  0.31525105116E+03  0.33128683454E+04  0.32978346606E+04 0.  0.
        2    1    3    3  502    0  0.25825115985E+03 -0.15615852517E+04 -0.30674381625E+03  0.16122449965E+04  0.25500000920E-02 0. -1.
       -2    1    3    3    0  502 -0.25825115985E+03  0.15615852517E+04  0.62199486741E+03  0.17006233489E+04  0.25500000920E-02 0.  1.
</event>
<event>
 5   0  0.6821287E-08  0.3300357E+04  0.7818609E-02  0.8162804E-01
       -2   -1    0    0    0  501  0.00000000000E+00  0.00000000000E+00  0.13898633047E+04  0.13898633047E+04  0.25500000920E-02 0.  1.
        2   -1    0    0  501    0  0.00000000000E+00  0.00000000000E+00 -0.19592501071E+04  0.19592501071E+04  0.25500000920E-02 0. -1.
    10030    2    1    2    0    0  0.00000000000E+00  0.00000000000E+00 -0.56938680235E+03  0.33491134118E+04  0.33003574525E+04 0.  0.
        5    1    3    3  502    0 -0.35251461877E+03 -0.71792711617E+03 -0.17494090168E+04  0.19235747707E+04  0.46999998093E+01 0. -1.
       -5    1    3    3    0  502  0.35251461877E+03  0.71792711617E+03  0.11800222144E+04  0.14255386410E+04  0.46999998093E+01 0.  1.
</event>
<event>
 5   0  0.2279938E-08  0.3299671E+04  0.7818609E-02  0.8162979E-01
        1   -1    0    0  501    0  0.00000000000E+00  0.00000000000E+00  0.18828283971E+04  0.18828283971E+04  0.50400001928E-02 0.  1.
       -1   -1    0    0    0  501  0.00000000000E+00  0.00000000000E+00 -0.14456744399E+04  0.14456744399E+04  0.50400001928E-02 0. -1.
    10030    2    1    2    0    0  0.00000000000E+00  0.00000000000E+00  0.43715395723E+03  0.33285028370E+04  0.32996708250E+04 0.  0.
        3    1    3    3  502    0  0.38284035738E+03 -0.16013391055E+04  0.32486946283E+03  0.16782115028E+04  0.10100000352E+00 0. -1.
       -3    1    3    3    0  502 -0.38284035738E+03  0.16013391055E+04  0.11228449440E+03  0.16502913342E+04  0.10100000352E+00 0.  1.
</event>
<event>
 5   0  0.6821287E-08  0.3301558E+04  0.7818609E-02  0.8162499E-01
        2   -1    0    0  501    0  0.00000000000E+00  0.00000000000E+00  0.18870021795E+04  0.18870021795E+04  0.25500000920E-02 0. -1.
       -2   -1    0    0    0  501  0.00000000000E+00  0.00000000000E+00 -0.14441273608E+04  0.14441273608E+04  0.25500000920E-02 0.  1.
    10030    2    1    2    0    0  0.00000000000E+00  0.00000000000E+00  0.44287481873E+03  0.33311295404E+04  0.33015581033E+04 0.  0.
        5    1    3    3  502    0  0.10219327222E+04 -0.74499813888E+03 -0.84904659351E+03  0.15232435536E+04  0.46999998093E+01 0.  1.
       -5    1    3    3    0  502 -0.10219327222E+04  0.74499813888E+03  0.12919214122E+04  0.18078859867E+04  0.46999998093E+01 0. -1.
</event>
<event>
 5   0  0.2279938E-08  0.3300075E+04  0.7818609E-02  0.8162876E-01
        1   -1    0    0  501    0  0.00000000000E+00  0.00000000000E+00  0.29743387889E+04  0.29743387889E+04  0.50400001928E-02 0. -1.
       -1   -1    0    0    0  501  0.00000000000E+00  0.00000000000E+00 -0.91537118338E+03  0.91537118339E+03  0.50400001928E-02 0.  1.
    10030    2    1    2    0    0  0.00000000000E+00  0.00000000000E+00  0.20589676056E+04  0.38897099723E+04  0.33000751610E+04 0.  0.
        3    1    3    3  502    0  0.57094386001E+02  0.12663713715E+04 -0.21549178603E+03  0.12858432796E+04  0.10100000352E+00 0.  1.
       -3    1    3    3    0  502 -0.57094386001E+02 -0.12663713715E+04  0.22744593916E+04  0.26038666928E+04  0.10100000352E+00 0. -1.
</event>
<event>
 5   0  0.6706080E-08  0.3298417E+04  0.7818609E-02  0.8163298E-01
        2   -1    0    0  501    0  0.00000000000E+00  0.00000000000E+00  0.22983336174E+04  0.22983336174E+04  0.25500000920E-02 0. -1.
       -2   -1    0    0    0  501  0.00000000000E+00  0.00000000000E+00 -0.11834177981E+04  0.11834177981E+04  0.25500000920E-02 0.  1.
    10030    2    1    2    0    0  0.00000000000E+00  0.00000000000E+00  0.11149158193E+04  0.34817514155E+04  0.32984171409E+04 0.  0.
        4    1    3    3  502    0 -0.10004470725E+04  0.34469635920E+03 -0.77783408211E+03  0.13132925787E+04  0.12699999809E+01 0.  1.
       -4    1    3    3    0  502  0.10004470725E+04 -0.34469635920E+03  0.18927499014E+04  0.21684588368E+04  0.12699999809E+01 0. -1.
</event>
<event>
 5   0  0.2309822E-08  0.3299348E+04  0.7818609E-02  0.8163061E-01
       -1   -1    0    0    0  501  0.00000000000E+00  0.00000000000E+00  0.15531631195E+04  0.15531631195E+04  0.50400001928E-02 0.  1.
        1   -1    0    0  501    0  0.00000000000E+00  0.00000000000E+00 -0.17521822494E+04  0.17521822494E+04  0.50400001928E-02 0. -1.
    10030    2    1    2    0    0  0.00000000000E+00  0.00000000000E+00 -0.19901912990E+03  0.33053453688E+04  0.32993483286E+04 0.  0.
        4    1    3    3  502    0 -0.84031313323E+03 -0.48847970936E+03  0.12358365613E+04  0.15722697629E+04  0.12699999809E+01 0.  1.
       -4    1    3    3    0  502  0.84031313323E+03  0.48847970936E+03 -0.14348556912E+04  0.17330756059E+04  0.12699999809E+01 0. -1.
</event>
<event>
 5   0  0.6706080E-08  0.3302486E+04  0.7818609E-02  0.8162263E-01
       -2   -1    0    0    0  501  0.00000000000E+00  0.00000000000E+00  0.17352863241E+04  0.17352863242E+04  0.25500000920E-02 0. -1.
        2   -1    0    0  501    0  0.00000000000E+00  0.00000000000E+00 -0.15712702262E+04  0.15712702262E+04  0.25500000920E-02 0.  1.
    10030    2    1    2    0    0  0.00000000000E+00  0.00000000000E+00  0.16401609800E+03  0.33065565503E+04  0.33024861756E+04 0.  0.
        4    1    3    3  502    0  0.88488440484E+03  0.27665436749E+01  0.14778475785E+04  0.17225165143E+04  0.12699999809E+01 0. -1.
       -4    1    3    3    0  502 -0.88488440484E+03 -0.27665436749E+01 -0.13138314805E+04  0.15840400360E+04  0.12699999809E+01 0.  1.
</event>
<event>
 5   0  0.6765252E-08  0.3300270E+04  0.7818609E-02  0.8162827E-01
        2   -1    0    0  501    0  0.00000000000E+00  0.00000000000E+00  0.20625530362E+04  0.20625530362E+04  0.25500000920E-02 0. -1.
       -2   -1    0    0    0  501  0.00000000000E+00  0.00000000000E+00 -0.13201817901E+04  0.13201817902E+04  0.25500000920E-02 0.  1.
    10030    2    1    2    0    0  0.00000000000E+00  0.00000000000E+00  0.74237124604E+03  0.33827348263E+04  0.33002696615E+04 0.  0.
        2    1    3    3  502    0 -0.10989467618E+04  0.26415578672E+03  0.16035098197E+04  0.19618119193E+04  0.25500000920E-02 0. -1.
       -2    1    3    3    0  502  0.10989467618E+04 -0.26415578672E+03 -0.86113857363E+03  0.14209229071E+04  0.25500000920E-02 0.  1.
</event>
<event>
 5   0  0.2244093E-08  0.3300134E+04  0.7818609E-02  0.8162861E-01
       -1   -1    0    0    0  501  0.00000000000E+00  0.00000000000E+00  0.10457152016E+04  0.10457152016E+04  0.50400001928E-02 0.  1.
        1   -1    0    0  501    0  0.00000000000E+00  0.00000000000E+00 -0.26036923380E+04  0.26036923380E+04  0.50400001928E-02 0. -1.
    10030    2    1    2    0    0  0.00000000000E+00  0.00000000000E+00 -0.15579771364E+04  0.36494075396E+04  0.33001337295E+04 0.  0.
        1    1    3    3  502    0  0.13336681084E+03  0.10109860835E+04  0.65555049893E+03  0.12122813304E+04  0.50400001928E-02 0. -1.
       -1    1    3    3    0  502 -0.13336681084E+03 -0.10109860835E+04 -0.22135276353E+04  0.24371262092E+04  0.50400001928E-02 0.  1.
</event>
<event>
 5   0  0.2200750E-08  0.3299897E+04  0.7818609E-02  0.8162922E-01
       -3   -1    0    0    0  501  0.00000000000E+00  0.00000000000E+00  0.20094210009E+04  0.20094210034E+04  0.10100000352E+00 0.  1.
        3   -1    0    0  501    0  0.00000000000E+00  0.00000000000E+00 -0.13547833298E+04  0.13547833335E+04  0.10100000352E+00 0. -1.
    10030    2    1    2    0    0  0.00000000000E+00  0.00000000000E+00  0.65463767108E+03  0.33642043369E+04  0.32998970196E+04 0.  0.
        5    1    3    3  502    0  0.13480875946E+04 -0.50102786376E+03  0.11517427282E+04  0.18425261151E+04  0.46999998093E+01 0.  1.
       -5    1    3    3    0  502 -0.13480875946E+04  0.50102786376E+03 -0.49710505713E+03  0.15216782218E+04  0.46999998093E+01 0. -1.
</event>
<event>
 5   0  0.2244093E-08  0.3299527E+04  0.7818609E-02  0.8163016E-01
        1   -1    0    0  501    0  0.00000000000E+00  0.00000000000E+00  0.21763982148E+04  0.21763982148E+04  0.50400001928E-02 0. -1.
       -1   -1    0    0    0  501  0.00000000000E+00  0.00000000000E+00 -0.12505614567E+04  0.12505614567E+04  0.50400001928E-02 0.  1.
    10030    2    1    2    0    0  0.00000000000E+00  0.00000000000E+00  0.92583675809E+03  0.34269596714E+04  0.32995270702E+04 0.  0.
        1    1    3    3  502    0 -0.97621763244E+02 -0.94987767046E+03  0.18602106034E+04  0.20909761085E+04  0.50400001928E-02 0. -1.
       -1    1    3    3    0  502  0.97621763244E+02  0.94987767046E+03 -0.93437384531E+03  0.13359835629E+04  0.50400001928E-02 0.  1.
</event>
<event>
 5   0  0.6821287E-08  0.3309704E+04  0.7818609E-02  0.8160431E-01
        2   -1    0    0  501    0  0.00000000000E+00  0.00000000000E+00  0.12115921993E+04  0.12115921993E+04  0.25500000920E-02 0.  1.
       -2   -1    0    0    0  501  0.00000000000E+00  0.00000000000E+00 -0.22602776069E+04  0.22602776069E+04  0.25500000920E-02 0. -1.
    10030    2    1    2    0    0  0.00000000000E+00  0.00000000000E+00 -0.10486854076E+04  0.34718698062E+04  0.33097037431E+04 0.  0.
        5    1    3    3  502    0 -0.18195550247E+03 -0.96742994372E+03  0.87105384740E+03  0.13144525081E+04  0.46999998093E+01 0.  1.
       -5    1    3    3    0  502  0.18195550247E+03  0.96742994372E+03 -0.19197392550E+04  0.21574172981E+04  0.46999998093E+01 0. -1.
</event>
<event>
 5   0  0.7084130E-08  0.3300583E+04  0.7818609E-02  0.8162747E-01
        2   -1    0    0  501    0  0.00000000000E+00  0.00000000000E+00  0.29236519735E+04  0.29236519735E+04  0.25500000920E-02 0. -1.
       -2   -1    0    0    0  501  0.00000000000E+00  0.00000000000E+00 -0.93152744263E+03  0.93152744264E+03  0.25500000920E-02 0.  1.
    10030    2    1    2    0    0  0.00000000000E+00  0.00000000000E+00  0.19921245309E+04  0.38551794161E+04  0.33005830067E+04 0.  0.
        3    1    3    3  502    0 -0.33651303300E+03 -0.12075650812E+04 -0.25760303442E+03  0.12797709874E+04  0.10100000352E+00 0.  1.
       -3    1    3    3    0  502  0.33651303300E+03  0.12075650812E+04  0.22497275653E+04  0.25754084288E+04  0.10100000352E+00 0. -1.
</event>
<event>
 5   0  0.6821287E-08  0.3300429E+04  0.7818609E-02  0.8162786E-01
        2   -1    0    0  501    0  0.00000000000E+00  0.00000000000E+00  0.16126322734E+04  0.16126322734E+04  0.25500000920E-02 0.  1.
       -2   -1    0    0    0  501  0.00000000000E+00  0.00000000000E+00 -0.16886726174E+04  0.16886726174E+04  0.25500000920E-02 0. -1.
    10030    2    1    2    0    0  0.00000000000E+00  0.00000000000E+00 -0.76040344008E+02  0.33013048908E+04  0.33004290401E+04 0.  0.
        5    1    3    3  502    0 -0.11279044425E+04 -0.10783879808E+04  0.49886876537E+03  0.16382860567E+04  0.46999998093E+01 0.  1.
       -5    1    3    3    0  502  0.11279044425E+04  0.10783879808E+04 -0.57490910938E+03  0.16630188341E+04  0.46999998093E+01 0. -1.
</event>
<event>
 5   0  0.2291682E-08  0.3300391E+04  0.7818609E-02  0.8162796E-01
        1   -1    0    0  501    0  0.00000000000E+00  0.00000000000E+00  0.23494133976E+04  0.23494133976E+04  0.50400001928E-02 0. -1.
       -1   -1    0    0    0  501  0.00000000000E+00  0.00000000000E+00 -0.11590744393E+04  0.11590744393E+04  0.50400001928E-02 0.  1.
    10030    2    1    2    0    0  0.00000000000E+00  0.00000000000E+00  0.11903389583E+04  0.35084878369E+04  0.33003908959E+04 0.  0.
        2    1    3    3  502    0 -0.42803303935E+03 -0.31099530420E+03 -0.10664646627E+04  0.11904945354E+04  0.25500000920E-02 0.  1.
       -2    1    3    3    0  502  0.42803303935E+03  0.31099530420E+03  0.22568036210E+04  0.23179933015E+04  0.25500000920E-02 0. -1.
</event>
<event>
 5   0  0.6706080E-08  0.3299784E+04  0.7818609E-02  0.8162950E-01
        2   -1    0    0  501    0  0.00000000000E+00  0.00000000000E+00  0.20464710223E+04  0.20464710223E+04  0.25500000920E-02 0. -1.
       -2   -1    0    0    0  501  0.00000000000E+00  0.00000000000E+00 -0.13301645743E+04  0.13301645743E+04  0.25500000920E-02 0.  1.
    10030    2    1    2    0    0  0.00000000000E+00  0.00000000000E+00  0.71630644799E+03  0.33766355966E+04  0.32997837845E+04 0.  0.
        4    1    3    3  502    0  0.13043208842E+04  0.54928767868E+03  0.12259439634E+04  0.18724075777E+04  0.12699999809E+01 0. -1.
       -4    1    3    3    0  502 -0.13043208842E+04 -0.54928767868E+03 -0.50963751539E+03  0.15042280189E+04  0.12699999809E+01 0.  1.
</event>
<event>
 5   0  0.2244093E-08  0.3299717E+04  0.7818609E-02  0.8162967E-01
        1   -1    0    0  501    0  0.00000000000E+00  0.00000000000E+00  0.13643383853E+04  0.13643383853E+04  0.50400001928E-02 0.  1.
       -1   -1    0    0    0  501  0.00000000000E+00  0.00000000000E+00 -0.19951308218E+04  0.19951308218E+04  0.50400001928E-02 0. -1.
    10030    2    1    2    0    0  0.00000000000E+00  0.00000000000E+00 -0.63079243646E+03  0.33594692071E+04  0.32997172993E+04 0.  0.
        1    1    3    3  502    0 -0.31691707859E+03  0.14250505975E+04  0.46717602037E+03  0.15327945310E+04  0.50400001928E-02 0.  1.
       -1    1    3    3    0  502  0.31691707859E+03 -0.14250505975E+04 -0.10979684568E+04  0.18266746761E+04  0.50400001928E-02 0. -1.
</event>
<event>
 5   0  0.7084130E-08  0.3296455E+04  0.7818609E-02  0.8163798E-01
       -2   -1    0    0    0  501  0.00000000000E+00  0.00000000000E+00  0.17631166013E+04  0.17631166013E+04  0.25500000920E-02 0.  1.
        2   -1    0    0  501    0  0.00000000000E+00  0.00000000000E+00 -0.15408251911E+04  0.15408251911E+04  0.25500000920E-02 0. -1.
    10030    2    1    2    0    0  0.00000000000E+00  0.00000000000E+00  0.22229141018E+03  0.33039417924E+04  0.32964553533E+04 0.  0.
        3    1    3    3  502    0 -0.62711811825E+03 -0.14143252971E+04  0.68082134195E+03  0.16902990535E+04  0.10100000352E+00 0.  1.
       -3    1    3    3    0  502  0.62711811825E+03  0.14143252971E+04 -0.45852993178E+03  0.16136427389E+04  0.10100000352E+00 0. -1.
</event>
<event>
 5   0  0.2244093E-08  0.3301768E+04  0.7818609E-02  0.8162446E-01
       -1   -1    0    0    0  501  0.00000000000E+00  0.00000000000E+00  0.10267768002E+04  0.10267768002E+04  0.50400001928E-02 0.  1.
        1   -1    0    0  501    0  0.00000000000E+00  0.00000000000E+00 -0.26543435872E+04  0.26543435872E+04  0.50400001928E-02 0. -1.
    10030    2    1    2    0    0  0.00000000000E+00  0.00000000000E+00 -0.16275667870E+04  0.36811203874E+04  0.33017682627E+04 0.  0.
        1    1    3    3  502    0 -0.45269134503E+03  0.14541851151E+04 -0.15240280483E+04  0.21545870358E+04  0.50400001928E-02 0. -1.
       -1    1    3    3    0  502  0.45269134503E+03 -0.14541851151E+04 -0.10353873869E+03  0.15265333516E+04  0.50400001928E-02 0.  1.
</event>
<event>
 5   0  0.6821287E-08  0.3300940E+04  0.7818609E-02  0.8162656E-01
        2   -1    0    0  501    0  0.00000000000E+00  0.00000000000E+00  0.20380862500E+04  0.20380862500E+04  0.25500000920E-02 0.  1.
       -2   -1    0    0    0  501  0.00000000000E+00  0.00000000000E+00 -0.13365731846E+04  0.13365731846E+04  0.25500000920E-02 0. -1.
    10030    2    1    2    0    0  0.00000000000E+00  0.00000000000E+00  0.70151306539E+03  0.33746594346E+04  0.33009401264E+04 0.  0.
        5    1    3    3  502    0 -0.10654989162E+04 -0.12514430103E+04  0.50455491472E+03  0.17193008173E+04  0.46999998093E+01 0. -1.
       -5    1    3    3    0  502  0.10654989162E+04  0.12514430103E+04  0.19695815067E+03  0.16553586172E+04  0.46999998093E+01 0.  1.
</event>
<event>
 5   0  0.2309822E-08  0.3293462E+04  0.7818609E-02  0.8164561E-01
       -1   -1    0    0    0  501  0.00000000000E+00  0.00000000000E+00  0.17481753676E+04  0.17481753676E+04  0.50400001928E-02 0. -1.
        1   -1    0    0  501    0  0.00000000000E+00  0.00000000000E+00 -0.15511737362E+04  0.15511737362E+04  0.50400001928E-02 0.  1.
    10030    2    1    2    0    0  0.00000000000E+00  0.00000000000E+00  0.19700163138E+03  0.32993491039E+04  0.32934624434E+04 0.  0.
        4    1    3    3  502    0  0.38762367389E+03  0.10173736531E+04 -0.11391915120E+04  0.15757728822E+04  0.12699999809E+01 0.  1.
       -4    1    3    3    0  502 -0.38762367389E+03 -0.10173736531E+04  0.13361931433E+04  0.17235762216E+04  0.12699999809E+01 0. -1.
</event>
<event>
 5   0  0.6765252E-08  0.3300086E+04  0.7818609E-02  0.8162874E-01
        2   -1    0    0  501    0  0.00000000000E+00  0.00000000000E+00  0.22147913234E+04  0.22147913234E+04  0.25500000920E-02 0. -1.
       -2   -1    0    0    0  501  0.00000000000E+00  0.00000000000E+00 -0.12292993981E+04  0.12292993981E+04  0.25500000920E-02 0.  1.
    10030    2    1    2    0    0  0.00000000000E+00  0.00000000000E+00  0.98549192532E+03  0.34440907216E+04  0.33000858418E+04 0.  0.
        2    1    3    3  502    0 -0.88460642124E+02  0.48790915486E+03 -0.11497011620E+04  0.12520756329E+04  0.25500000920E-02 0.  1.
       -2    1    3    3    0  502  0.88460642124E+02 -0.48790915486E+03  0.21351930873E+04  0.21920150886E+04  0.25500000920E-02 0. -1.
</event>
<event>
 5   0  0.7084130E-08  0.3294983E+04  0.7818609E-02  0.8164173E-01
       -2   -1    0    0    0  501  0.00000000000E+00  0.00000000000E+00  0.20483654963E+04  0.20483654963E+04  0.25500000920E-02 0. -1.
        2   -1    0    0  501    0  0.00000000000E+00  0.00000000000E+00 -0.13250699604E+04  0.13250699604E+04  0.25500000920E-02 0.  1.
    10030    2    1    2    0    0  0.00000000000E+00  0.00000000000E+00  0.72329553592E+03  0.33734354567E+04  0.32949826021E+04 0.  0.
        3    1    3    3  502    0  0.13987052527E+04 -0.82590914247E+03  0.79913465481E+02  0.16263113071E+04  0.10100000352E+00 0.  1.
       -3    1    3    3    0  502 -0.13987052527E+04  0.82590914247E+03  0.64338207044E+03  0.17471241496E+04  0.10100000352E+00 0. -1.
</event>
<event>
 5   0  0.2383270E-08  0.3298457E+04  0.7818609E-02  0.8163288E-01
        1   -1    0    0  501    0  0.00000000000E+00  0.00000000000E+00  0.22251264999E+04  0.22251264999E+04  0.50400001928E-02 0.  1.
       -1   -1    0    0    0  501  0.00000000000E+00  0.00000000000E+00 -0.12223820386E+04  0.12223820386E+04  0.50400001928E-02 0. -1.
    10030    2    1    2    0    0  0.00000000000E+00  0.00000000000E+00  0.10027444613E+04  0.34475085385E+04  0.32984570133E+04 0.  0.
        5    1    3    3  502    0 -0.11136321746E+04  0.15147589531E+02 -0.76995074902E+03  0.13539764827E+04  0.46999998093E+01 0. -1.
       -5    1    3    3    0  502  0.11136321746E+04 -0.15147589531E+02  0.17726952103E+04  0.20935320558E+04  0.46999998093E+01 0.  1.
</event>
<event>
 5   0  0.2200750E-08  0.3300825E+04  0.7818609E-02  0.8162686E-01
       -4   -1    0    0    0  501  0.00000000000E+00  0.00000000000E+00  0.16962674734E+04  0.16962679488E+04  0.12699999809E+01 0.  1.
        4   -1    0    0  501    0  0.00000000000E+00  0.00000000000E+00 -0.16057960514E+04  0.16057965536E+04  0.12699999809E+01 0. -1.
    10030    2    1    2    0    0  0.00000000000E+00  0.00000000000E+00  0.90471422021E+02  0.33020645024E+04  0.33008248817E+04 0.  0.
        2    1    3    3  502    0 -0.10564370032E+04 -0.12651706793E+04  0.12979694895E+03  0.16533490973E+04  0.25500000920E-02 0. -1.
       -2    1    3    3    0  502  0.10564370032E+04  0.12651706793E+04 -0.39325526931E+02  0.16487154050E+04  0.25500000920E-02 0.  1.
</event>
<event>
 5   0  0.6706080E-08  0.3300163E+04  0.7818609E-02  0.8162854E-01
        2   -1    0    0  501    0  0.00000000000E+00  0.00000000000E+00  0.13569085517E+04  0.13569085517E+04  0.25500000920E-02 0.  1.
       -2   -1    0    0    0  501  0.00000000000E+00  0.00000000000E+00 -0.20065969791E+04  0.20065969791E+04  0.25500000920E-02 0. -1.
    10030    2    1    2    0    0  0.00000000000E+00  0.00000000000E+00 -0.64968842736E+03  0.33635055308E+04  0.33001627843E+04 0.  0.
        4    1    3    3  502    0 -0.13691997934E+04 -0.13130769967E+03 -0.12538309718E+04  0.18611941073E+04  0.12699999809E+01 0. -1.
       -4    1    3    3    0  502  0.13691997934E+04  0.13130769967E+03  0.60414254440E+03  0.15023114235E+04  0.12699999809E+01 0.  1.
</event>
<event>
 5   0  0.6765252E-08  0.3299134E+04  0.7818609E-02  0.8163116E-01
        2   -1    0    0  501    0  0.00000000000E+00  0.00000000000E+00  0.22953483321E+04  0.22953483321E+04  0.25500000920E-02 0. -1.
       -2   -1    0    0    0  501  0.00000000000E+00  0.00000000000E+00 -0.11854720161E+04  0.11854720161E+04  0.25500000920E-02 0.  1.
    10030    2    1    2    0    0  0.00000000000E+00  0.00000000000E+00  0.11098763160E+04  0.34808203483E+04  0.32991339561E+04 0.  0.
        2    1    3    3  502    0  0.70485687716E+03 -0.14760777530E+04  0.33002617273E+03  0.16686959055E+04  0.25500000920E-02 0.  1.
       -2    1    3    3    0  502 -0.70485687716E+03  0.14760777530E+04  0.77985014327E+03  0.18121244428E+04  0.25500000920E-02 0. -1.
</event>
<event>
 5   0  0.2291682E-08  0.3301439E+04  0.7818609E-02  0.8162529E-01
        1   -1    0    0  501    0  0.00000000000E+00  0.00000000000E+00  0.15434237627E+04  0.15434237627E+04  0.50400001928E-02 0. -1.
       -1   -1    0    0    0  501  0.00000000000E+00  0.00000000000E+00 -0.17654746709E+04  0.17654746709E+04  0.50400001928E-02 0.  1.
    10030    2    1    2    0    0  0.00000000000E+00  0.00000000000E+00 -0.22205090816E+03  0.33088984336E+04  0.33014394191E+04 0.  0.
        2    1    3    3  502    0  0.31562494350E+03 -0.13339761857E+04 -0.10327575270E+04  0.17163040751E+04  0.25500000920E-02 0.  1.
       -2    1    3    3    0  502 -0.31562494350E+03  0.13339761857E+04  0.81070661879E+03  0.15925943585E+04  0.25500000920E-02 0. -1.
</event>
<event>
 5   0  0.6765252E-08  0.3304317E+04  0.7818609E-02  0.8161798E-01
       -2   -1    0    0    0  501  0.00000000000E+00  0.00000000000E+00  0.19464389487E+04  0.19464389487E+04  0.25500000920E-02 0.  1.
        2   -1    0    0  501    0  0.00000000000E+00  0.00000000000E+00 -0.14023699292E+04  0.14023699292E+04  0.25500000920E-02 0. -1.
    10030    2    1    2    0    0  0.00000000000E+00  0.00000000000E+00  0.54406901955E+03  0.33488088779E+04  0.33043168436E+04 0.  0.
        2    1    3    3  502    0 -0.26287172471E+03 -0.61998247344E+03 -0.12569704440E+04  0.14259924643E+04  0.25500000920E-02 0. -1.
       -2    1    3    3    0  502  0.26287172471E+03  0.61998247344E+03  0.18010394636E+04  0.19228164136E+04  0.25500000920E-02 0.  1.
</event>
<event>
 5   0  0.6821287E-08  0.3300179E+04  0.7818609E-02  0.8162850E-01
       -2   -1    0    0    0  501  0.00000000000E+00  0.00000000000E+00  0.17810220141E+04  0.17810220141E+04  0.25500000920E-02 0.  1.
        2   -1    0    0  501    0  0.00000000000E+00  0.00000000000E+00 -0.15287821704E+04  0.15287821704E+04  0.25500000920E-02 0. -1.
    10030    2    1    2    0    0  0.00000000000E+00  0.00000000000E+00  0.25223984373E+03  0.33098041845E+04  0.33001786014E+04 0.  0.
        5    1    3    3  502    0 -0.10768860339E+03 -0.12299843956E+04 -0.97174827011E+03  0.15712336679E+04  0.46999998093E+01 0. -1.
       -5    1    3    3    0  502  0.10768860339E+03  0.12299843956E+04  0.12239881138E+04  0.17385705167E+04  0.46999998093E+01 0.  1.
</event>
<event>
 5   0  0.6706080E-08  0.3305864E+04  0.7818609E-02  0.8161405E-01
        2   -1    0    0  501    0  0.00000000000E+00  0.00000000000E+00  0.15740867753E+04  0.15740867753E+04  0.25500000920E-02 0.  1.
       -2   -1    0    0    0  501  0.00000000000E+00  0.00000000000E+00 -0.17357269775E+04  0.17357269775E+04  0.25500000920E-02 0. -1.
    10030    2    1    2    0    0  0.00000000000E+00  0.00000000000E+00 -0.16164020218E+03  0.33098137529E+04  0.33058644140E+04 0.  0.
        4    1    3    3  502    0 -0.27668835883E+02 -0.14719034481E+04 -0.83332824299E+03  0.16916568501E+04  0.12699999809E+01 0. -1.
       -4    1    3    3    0  502  0.27668835883E+02  0.14719034481E+04  0.67168804081E+03  0.16181569028E+04  0.12699999809E+01 0.  1.
</event>
<event>
 5   0  0.6765252E-08  0.3299462E+04  0.7818609E-02  0.8163032E-01
        2   -1    0    0  501    0  0.00000000000E+00  0.00000000000E+00  0.11486798477E+04  0.11486798477E+04  0.25500000920E-02 0. -1.
       -2   -1    0    0    0  501  0.00000000000E+00  0.00000000000E+00 -0.23693389202E+04  0.23693389202E+04  0.25500000920E-02 0.  1.
    10030    2    1    2    0    0  0.00000000000E+00  0.00000000000E+00 -0.12206590725E+04  0.35180187679E+04  0.32994616955E+04 0.  0.
        2    1    3    3  502    0  0.72156783832E+01 -0.20421281365E+03 -0.23557934144E+04  0.23646389894E+04  0.25500000920E-02 0.  1.
       -2    1    3    3    0  502 -0.72156783832E+01  0.20421281365E+03  0.11351343418E+04  0.11533797784E+04  0.25500000920E-02 0. -1.
</event>
<event>
 5   0  0.6821287E-08  0.3300934E+04  0.7818609E-02  0.8162658E-01
        2   -1    0    0  501    0  0.00000000000E+00  0.00000000000E+00  0.26714258479E+04  0.26714258479E+04  0.25500000920E-02 0. -1.
       -2   -1    0    0    0  501  0.00000000000E+00  0.00000000000E+00 -0.10196956812E+04  0.10196956812E+04  0.25500000920E-02 0.  1.
    10030    2    1    2    0    0  0.00000000000E+00  0.00000000000E+00  0.16517301667E+04  0.36911215291E+04  0.33009340495E+04 0.  0.
        5    1    3    3  502    0  0.80684168798E+03  0.13091972328E+04  0.15584795938E+03  0.15457365818E+04  0.46999998093E+01 0. -1.
       -5    1    3    3    0  502 -0.80684168798E+03 -0.13091972328E+04  0.14958822073E+04  0.21453849473E+04  0.46999998093E+01 0.  1.
</event>
<event>
 5   0  0.2244093E-08  0.3298806E+04  0.7818609E-02  0.8163199E-01
       -1   -1    0    0    0  501  0.00000000000E+00  0.00000000000E+00  0.15255789804E+04  0.15255789804E+04  0.50400001928E-02 0.  1.
        1   -1    0    0  501    0  0.00000000000E+00  0.00000000000E+00 -0.17832774626E+04  0.17832774626E+04  0.50400001928E-02 0. -1.
    10030    2    1    2    0    0  0.00000000000E+00  0.00000000000E+00 -0.25769848223E+03  0.33088564430E+04  0.32988062163E+04 0.  0.
        1    1    3    3  502    0 -0.11387490259E+04  0.11179410995E+04  0.28954141421E+03  0.16218433576E+04  0.50400001928E-02 0.  1.
       -1    1    3    3    0  502  0.11387490259E+04 -0.11179410995E+04 -0.54723989644E+03  0.16870130854E+04  0.50400001928E-02 0. -1.
</event>
<event>
 5   0  0.7084130E-08  0.3298966E+04  0.7818609E-02  0.8163158E-01
       -2   -1    0    0    0  501  0.00000000000E+00  0.00000000000E+00  0.15252301863E+04  0.15252301863E+04  0.25500000920E-02 0.  1.
        2   -1    0    0  501    0  0.00000000000E+00  0.00000000000E+00 -0.17838584547E+04  0.17838584547E+04  0.25500000920E-02 0. -1.
    10030    2    1    2    0    0  0.00000000000E+00  0.00000000000E+00 -0.25862826844E+03  0.33090886410E+04  0.32989663613E+04 0.  0.
        3    1    3    3  502    0 -0.10332342346E+04  0.12280916217E+04  0.25265967897E+03  0.16246904131E+04  0.10100000352E+00 0.  1.
       -3    1    3    3    0  502  0.10332342346E+04 -0.12280916217E+04 -0.51128794741E+03  0.16843982279E+04  0.10100000352E+00 0. -1.
</event>
<event>
 5   0  0.2244093E-08  0.3299083E+04  0.7818609E-02  0.8163129E-01
        1   -1    0    0  501    0  0.00000000000E+00  0.00000000000E+00  0.21312408349E+04  0.21312408349E+04  0.50400001928E-02 0. -1.
       -1   -1    0    0    0  501  0.00000000000E+00  0.00000000000E+00 -0.12767152994E+04  0.12767152994E+04  0.50400001928E-02 0.  1.
    10030    2    1    2    0    0  0.00000000000E+00  0.00000000000E+00  0.85452553553E+03  0.34079561343E+04  0.32990833761E+04 0.  0.
        1    1    3    3  502    0 -0.93829341863E+03 -0.11472820526E+04  0.11752703707E+04  0.18915367012E+04  0.50400001928E-02 0. -1.
       -1    1    3    3    0  502  0.93829341863E+03  0.11472820526E+04 -0.32074483514E+03  0.15164194331E+04  0.50400001928E-02 0.  1.
</event>
<event>
 5   0  0.6765252E-08  0.3300859E+04  0.7818609E-02  0.8162677E-01
       -2   -1    0    0    0  501  0.00000000000E+00  0.00000000000E+00  0.19387589444E+04  0.19387589444E+04  0.25500000920E-02 0. -1.
        2   -1    0    0  501    0  0.00000000000E+00  0.00000000000E+00 -0.14049802690E+04  0.14049802690E+04  0.25500000920E-02 0.  1.
    10030    2    1    2    0    0  0.00000000000E+00  0.00000000000E+00  0.53377867548E+03  0.33437392134E+04  0.33008593204E+04 0.  0.
        2    1    3    3  502    0  0.85669354161E+03  0.41391803826E+03 -0.10992087024E+04  0.14537921922E+04  0.25500000920E-02 0.  1.
       -2    1    3    3    0  502 -0.85669354161E+03 -0.41391803826E+03  0.16329873779E+04  0.18899470212E+04  0.25500000920E-02 0. -1.
</event>
<event>
 5   0  0.6821287E-08  0.3297264E+04  0.7818609E-02  0.8163592E-01
       -2   -1    0    0    0  501  0.00000000000E+00  0.00000000000E+00  0.15860443081E+04  0.15860443081E+04  0.25500000920E-02 0.  1.
        2   -1    0    0  501    0  0.00000000000E+00  0.00000000000E+00 -0.17136895866E+04  0.17136895866E+04  0.25500000920E-02 0. -1.
    10030    2    1    2    0    0  0.00000000000E+00  0.00000000000E+00 -0.12764527849E+03  0.32997338947E+04  0.32972640869E+04 0.  0.
        5    1    3    3  502    0  0.51814518507E+03 -0.15627676819E+04 -0.14902314855E+03  0.16531628018E+04  0.46999998093E+01 0.  1.
       -5    1    3    3    0  502 -0.51814518507E+03  0.15627676819E+04  0.21377870061E+02  0.16465710929E+04  0.46999998093E+01 0. -1.
</event>
<event>
 5   0  0.2279938E-08  0.3300199E+04  0.7818609E-02  0.8162845E-01
        1   -1    0    0  501    0  0.00000000000E+00  0.00000000000E+00  0.23477003789E+04  0.23477003790E+04  0.50400001928E-02 0.  1.
       -1   -1    0    0    0  501  0.00000000000E+00  0.00000000000E+00 -0.11597851499E+04  0.11597851499E+04  0.50400001928E-02 0. -1.
    10030    2    1    2    0    0  0.00000000000E+00  0.00000000000E+00  0.11879152291E+04  0.35074855288E+04  0.33001988036E+04 0.  0.
        3    1    3    3  502    0  0.28544420068E+03  0.16068798516E+04  0.85273999539E+03  0.18413871834E+04  0.10100000352E+00 0. -1.
       -3    1    3    3    0  502 -0.28544420068E+03 -0.16068798516E+04  0.33517523370E+03  0.16660983454E+04  0.10100000352E+00 0.  1.
</event>
<event>
 5   0  0.2244093E-08  0.3298130E+04  0.7818609E-02  0.8163371E-01
        1   -1    0    0  501    0  0.00000000000E+00  0.00000000000E+00  0.25833540162E+04  0.25833540162E+04  0.50400001928E-02 0.  1.
       -1   -1    0    0    0  501  0.00000000000E+00  0.00000000000E+00 -0.10526683566E+04  0.10526683566E+04  0.50400001928E-02 0. -1.
    10030    2    1    2    0    0  0.00000000000E+00  0.00000000000E+00  0.15306856596E+04  0.36360223727E+04  0.32981297892E+04 0.  0.
        1    1    3    3  502    0 -0.32067376965E+02 -0.77025791711E+03 -0.84177386422E+03  0.11414503117E+04  0.50400001928E-02 0. -1.
       -1    1    3    3    0  502  0.32067376965E+02  0.77025791711E+03  0.23724595238E+04  0.24945720611E+04  0.50400001928E-02 0.  1.
</event>
<event>
 5   0  0.2383270E-08  0.3299304E+04  0.7818609E-02  0.8163073E-01
        1   -1    0    0  501    0  0.00000000000E+00  0.00000000000E+00  0.16677478239E+04  0.16677478239E+04  0.50400001928E-02 0.  1.
       -1   -1    0    0    0  501  0.00000000000E+00  0.00000000000E+00 -0.16317524675E+04  0.16317524676E+04  0.50400001928E-02 0. -1.
    10030    2    1    2    0    0  0.00000000000E+00  0.00000000000E+00  0.35995356366E+02  0.32995002915E+04  0.32993039429E+04 0.  0.
        5    1    3    3  502    0  0.79554389501E+03  0.89127391892E+03 -0.11196421065E+04  0.16373392514E+04  0.46999998093E+01 0. -1.
       -5    1    3    3    0  502 -0.79554389501E+03 -0.89127391892E+03  0.11556374629E+04  0.16621610401E+04  0.46999998093E+01 0.  1.
</event>
<event>
 5   0  0.2200750E-08  0.3300530E+04  0.7818609E-02  0.8162760E-01
        3   -1    0    0  501    0  0.00000000000E+00  0.00000000000E+00  0.16468846437E+04  0.16468846468E+04  0.10100000352E+00 0.  1.
       -3   -1    0    0    0  501  0.00000000000E+00  0.00000000000E+00 -0.16536527681E+04  0.16536527712E+04  0.10100000352E+00 0. -1.
    10030    2    1    2    0    0  0.00000000000E+00  0.00000000000E+00 -0.67681244465E+01  0.33005374180E+04  0.33005304786E+04 0.  0.
        1    1    3    3  502    0  0.14757219507E+03  0.12481387824E+04  0.10660794465E+04  0.16480756534E+04  0.50400001928E-02 0.  1.
       -1    1    3    3    0  502 -0.14757219507E+03 -0.12481387824E+04 -0.10728475710E+04  0.16524617646E+04  0.50400001928E-02 0. -1.
</event>
<event>
 5   0  0.2279938E-08  0.3303584E+04  0.7818609E-02  0.8161984E-01
       -1   -1    0    0    0  501  0.00000000000E+00  0.00000000000E+00  0.10088645422E+04  0.10088645422E+04  0.50400001928E-02 0.  1.
        1   -1    0    0  501    0  0.00000000000E+00  0.00000000000E+00 -0.27044432366E+04  0.27044432367E+04  0.50400001928E-02 0. -1.
    10030    2    1    2    0    0  0.00000000000E+00  0.00000000000E+00 -0.16955786945E+04  0.37133077788E+04  0.33035840463E+04 0.  0.
        3    1    3    3  502    0  0.52161132955E+03  0.82895734364E+03  0.64727591931E+03  0.11739739276E+04  0.10100000352E+00 0.  1.
       -3    1    3    3    0  502 -0.52161132955E+03 -0.82895734364E+03 -0.23428546138E+04  0.25393338513E+04  0.10100000352E+00 0. -1.
</event>
<event>
 5   0  0.6821287E-08  0.3300479E+04  0.7818609E-02  0.8162774E-01
        2   -1    0    0  501    0  0.00000000000E+00  0.00000000000E+00  0.22262246223E+04  0.22262246223E+04  0.25500000920E-02 0.  1.
       -2   -1    0    0    0  501  0.00000000000E+00  0.00000000000E+00 -0.12232773976E+04  0.12232773976E+04  0.25500000920E-02 0. -1.
    10030    2    1    2    0    0  0.00000000000E+00  0.00000000000E+00  0.10029472248E+04  0.34495020199E+04  0.33004789121E+04 0.  0.
        5    1    3    3  502    0  0.77690126287E+03 -0.70575511519E+03  0.18323925955E+04  0.21117174453E+04  0.46999998093E+01 0.  1.
       -5    1    3    3    0  502 -0.77690126287E+03  0.70575511519E+03 -0.82944537073E+03  0.13377845745E+04  0.46999998093E+01 0. -1.
</event>
<event>
 5   0  0.2200750E-08  0.3299552E+04  0.7818609E-02  0.8163009E-01
        3   -1    0    0  501    0  0.00000000000E+00  0.00000000000E+00  0.21555556024E+04  0.21555556048E+04  0.10100000352E+00 0. -1.
       -3   -1    0    0    0  501  0.00000000000E+00  0.00000000000E+00 -0.12626723479E+04  0.12626723519E+04  0.10100000352E+00 0.  1.
    10030    2    1    2    0    0  0.00000000000E+00  0.00000000000E+00  0.89288325453E+03  0.34182279567E+04  0.32995517662E+04 0.  0.
        1    1    3    3  502    0 -0.32289764121E+03  0.40988719007E+03 -0.11749350329E+04  0.12855904195E+04  0.50400001928E-02 0.  1.
       -1    1    3    3    0  502  0.32289764121E+03 -0.40988719007E+03  0.20678182874E+04  0.21326375372E+04  0.50400001928E-02 0. -1.
</event>
<event>
 5   0  0.6821287E-08  0.3298319E+04  0.7818609E-02  0.8163323E-01
       -2   -1    0    0    0  501  0.00000000000E+00  0.00000000000E+00  0.16898859007E+04  0.16898859007E+04  0.25500000920E-02 0. -1.
        2   -1    0    0  501    0  0.00000000000E+00  0.00000000000E+00 -0.16094142892E+04  0.16094142892E+04  0.25500000920E-02 0.  1.
    10030    2    1    2    0    0  0.00000000000E+00  0.00000000000E+00  0.80471611546E+02  0.32993001899E+04  0.32983186721E+04 0.  0.
        5    1    3    3  502    0 -0.51447297072E+03  0.10424656316E+04 -0.11298504601E+04  0.16211110952E+04  0.46999998093E+01 0.  1.
       -5    1    3    3    0  502  0.51447297072E+03 -0.10424656316E+04  0.12103220716E+04  0.16781890948E+04  0.46999998093E+01 0. -1.
</event>
<event>
 5   0  0.2244093E-08  0.3301308E+04  0.7818609E-02  0.8162563E-01
       -1   -1    0    0    0  501  0.00000000000E+00  0.00000000000E+00  0.17881985448E+04  0.17881985448E+04  0.50400001928E-02 0. -1.
        1   -1    0    0  501    0  0.00000000000E+00  0.00000000000E+00 -0.15236891891E+04  0.15236891891E+04  0.50400001928E-02 0.  1.
    10030    2    1    2    0    0  0.00000000000E+00  0.00000000000E+00  0.26450935574E+03  0.33118877339E+04  0.33013080987E+04 0.  0.
        1    1    3    3  502    0 -0.80308439227E+03  0.97195451325E+03 -0.93653205154E+03  0.15705834586E+04  0.50400001928E-02 0.  1.
       -1    1    3    3    0  502  0.80308439227E+03 -0.97195451325E+03  0.12010414073E+04  0.17413042752E+04  0.50400001928E-02 0. -1.
</event>
<event>
 5   0  0.2383270E-08  0.3300850E+04  0.7818609E-02  0.8162679E-01
        1   -1    0    0  501    0  0.00000000000E+00  0.00000000000E+00  0.22596079070E+04  0.22596079070E+04  0.50400001928E-02 0.  1.
       -1   -1    0    0    0  501  0.00000000000E+00  0.00000000000E+00 -0.12054754736E+04  0.12054754736E+04  0.50400001928E-02 0. -1.
    10030    2    1    2    0    0  0.00000000000E+00  0.00000000000E+00  0.10541324334E+04  0.34650833806E+04  0.33008495342E+04 0.  0.
        5    1    3    3  502    0 -0.39951850721E+03 -0.62281054664E+03 -0.10215881710E+04  0.12614168604E+04  0.46999998093E+01 0. -1.
       -5    1    3    3    0  502  0.39951850721E+03  0.62281054664E+03  0.20757206044E+04  0.22036665202E+04  0.46999998093E+01 0.  1.
</event>
<event>
 5   0  0.7084130E-08  0.3295832E+04  0.7818609E-02  0.8163957E-01
        2   -1    0    0  501    0  0.00000000000E+00  0.00000000000E+00  0.13468064606E+04  0.13468064606E+04  0.25500000920E-02 0. -1.
       -2   -1    0    0    0  501  0.00000000000E+00  0.00000000000E+00 -0.20163451272E+04  0.20163451272E+04  0.25500000920E-02 0.  1.
    10030    2    1    2    0    0  0.00000000000E+00  0.00000000000E+00 -0.66953866657E+03  0.33631515878E+04  0.32958316973E+04 0.  0.
        3    1    3    3  502    0  0.15625470026E+04  0.22128784404E+03  0.14937423815E+03  0.15851921392E+04  0.10100000352E+00 0. -1.
       -3    1    3    3    0  502 -0.15625470026E+04 -0.22128784404E+03 -0.81891290472E+03  0.17779594486E+04  0.10100000352E+00 0.  1.
</event>
<event>
 5   0  0.6821287E-08  0.3299741E+04  0.7818609E-02  0.8162961E-01
       -2   -1    0    0    0  501  0.00000000000E+00  0.00000000000E+00  0.18327659685E+04  0.18327659685E+04  0.25500000920E-02 0. -1.
        2   -1    0    0  501    0  0.00000000000E+00  0.00000000000E+00 -0.14852268612E+04  0.14852268612E+04  0.25500000920E-02 0.  1.
    10030    2    1    2    0    0  0.00000000000E+00  0.00000000000E+00  0.34753910734E+03  0.33179928297E+04  0.32997413515E+04 0.  0.
        5    1    3    3  502    0 -0.79967531715E+03  0.91574866881E+03  0.12952749202E+04  0.17764671250E+04  0.46999998093E+01 0. -1.
       -5    1    3    3    0  502  0.79967531715E+03 -0.91574866881E+03 -0.94773581288E+03  0.15415257047E+04  0.46999998093E+01 0.  1.
</event>
<event>
 5   0  0.2200750E-08  0.3301239E+04  0.7818609E-02  0.8162580E-01
        3   -1    0    0  501    0  0.00000000000E+00  0.00000000000E+00  0.19761010712E+04  0.19761010738E+04  0.10100000352E+00 0.  1.
       -3   -1    0    0    0  501  0.00000000000E+00  0.00000000000E+00 -0.13787473037E+04  0.13787473074E+04  0.10100000352E+00 0. -1.
    10030    2    1    2    0    0  0.00000000000E+00  0.00000000000E+00  0.59735376753E+03  0.33548483811E+04  0.33012385762E+04 0.  0.
        5    1    3    3  502    0  0.12927544041E+04  0.61515647860E+03  0.11335349434E+04  0.18260763950E+04  0.46999998093E+01 0.  1.
       -5    1    3    3    0  502 -0.12927544041E+04 -0.61515647860E+03 -0.53618117582E+03  0.15287719862E+04  0.46999998093E+01 0. -1.
</event>
<event>
 5   0  0.6706080E-08  0.3291136E+04  0.7818609E-02  0.8165154E-01
       -2   -1    0    0    0  501  0.00000000000E+00  0.00000000000E+00  0.17351709231E+04  0.17351709231E+04  0.25500000920E-02 0.  1.
        2   -1    0    0  501    0  0.00000000000E+00  0.00000000000E+00 -0.15605925273E+04  0.15605925273E+04  0.25500000920E-02 0. -1.
    10030    2    1    2    0    0  0.00000000000E+00  0.00000000000E+00  0.17457839582E+03  0.32957634503E+04  0.32911364457E+04 0.  0.
        4    1    3    3  502    0 -0.55575931320E+03  0.14401813202E+04  0.65809276837E+03  0.16781175031E+04  0.12699999809E+01 0.  1.
       -4    1    3    3    0  502  0.55575931320E+03 -0.14401813202E+04 -0.48351437255E+03  0.16176459473E+04  0.12699999809E+01 0. -1.
</event>
<event>
 5   0  0.2244093E-08  0.3295366E+04  0.7818609E-02  0.8164076E-01
        1   -1    0    0  501    0  0.00000000000E+00  0.00000000000E+00  0.25545387934E+04  0.25545387934E+04  0.50400001928E-02 0.  1.
       -1   -1    0    0    0  501  0.00000000000E+00  0.00000000000E+00 -0.10627588022E+04  0.10627588022E+04  0.50400001928E-02 0. -1.
    10030    2    1    2    0    0  0.00000000000E+00  0.00000000000E+00  0.14917799912E+04  0.36172975956E+04  0.32953655872E+04 0.  0.
        1    1    3    3  502    0 -0.12341790537E+04 -0.10909699861E+04  0.78761878211E+03  0.18258578239E+04  0.50400001928E-02 0.  1.
       -1    1    3    3    0  502  0.12341790537E+04  0.10909699861E+04  0.70416120907E+03  0.17914397717E+04  0.50400001928E-02 0. -1.
</event>
<event>
 5   0  0.2309822E-08  0.3300151E+04  0.7818609E-02  0.8162857E-01
        1   -1    0    0  501    0  0.00000000000E+00  0.00000000000E+00  0.97525300318E+03  0.97525300319E+03  0.50400001928E-02 0. -1.
       -1   -1    0    0    0  501  0.00000000000E+00  0.00000000000E+00 -0.27918393569E+04  0.27918393569E+04  0.50400001928E-02 0.  1.
    10030    2    1    2    0    0  0.00000000000E+00  0.00000000000E+00 -0.18165863537E+04  0.37670923600E+04  0.33001513403E+04 0.  0.
        4    1    3    3  502    0  0.16252255168E+04 -0.27027055141E+03 -0.80402342585E+03  0.18332646927E+04  0.12699999809E+01 0.  1.
       -4    1    3    3    0  502 -0.16252255168E+04  0.27027055141E+03 -0.10125629278E+04  0.19338276673E+04  0.12699999809E+01 0. -1.
</event>
<event>
 5   0  0.2309822E-08  0.3297089E+04  0.7818609E-02  0.8163637E-01
       -1   -1    0    0    0  501  0.00000000000E+00  0.00000000000E+00  0.10969577436E+04  0.10969577436E+04  0.50400001928E-02 0.  1.
        1   -1    0    0  501    0  0.00000000000E+00  0.00000000000E+00 -0.24774871557E+04  0.24774871557E+04  0.50400001928E-02 0. -1.
    10030    2    1    2    0    0  0.00000000000E+00  0.00000000000E+00 -0.13805294121E+04  0.35744448993E+04  0.32970888493E+04 0.  0.
        4    1    3    3  502    0  0.24175997175E+03  0.15361640749E+04 -0.12835171068E+04  0.20163496040E+04  0.12699999809E+01 0.  1.
       -4    1    3    3    0  502 -0.24175997175E+03 -0.15361640749E+04 -0.97012305302E+02  0.15580952953E+04  0.12699999809E+01 0. -1.
</event>
<event>
 5   0  0.2309822E-08  0.3301037E+04  0.7818609E-02  0.8162632E-01
        1   -1    0    0  501    0  0.00000000000E+00  0.00000000000E+00  0.23731299938E+04  0.23731299938E+04  0.50400001928E-02 0. -1.
       -1   -1    0    0    0  501  0.00000000000E+00  0.00000000000E+00 -0.11479400054E+04  0.11479400054E+04  0.50400001928E-02 0.  1.
    10030    2    1    2    0    0  0.00000000000E+00  0.00000000000E+00  0.12251899884E+04  0.35210699992E+04  0.33010367207E+04 0.  0.
        4    1    3    3  502    0 -0.11042594474E+04  0.22370585067E+03  0.18991322553E+04  0.22081979465E+04  0.12699999809E+01 0. -1.
       -4    1    3    3    0  502  0.11042594474E+04 -0.22370585067E+03 -0.67394226692E+03  0.13128720527E+04  0.12699999809E+01 0.  1.
</event>
<event>
 5   0  0.2244093E-08  0.3300453E+04  0.7818609E-02  0.8162780E-01
        1   -1    0    0  501    0  0.00000000000E+00  0.00000000000E+00  0.26743576962E+04  0.26743576962E+04  0.50400001928E-02 0. -1.
       -1   -1    0    0    0  501  0.00000000000E+00  0.00000000000E+00 -0.10182807480E+04  0.10182807480E+04  0.50400001928E-02 0.  1.
    10030    2    1    2    0    0  0.00000000000E+00  0.00000000000E+00  0.16560769482E+04  0.36926384442E+04  0.33004526691E+04 0.  0.
        1    1    3    3  502    0  0.82599299744E+03  0.10565646078E+04 -0.24781430526E+03  0.13638200512E+04  0.50400001928E-02 0.  1.
       -1    1    3    3    0  502 -0.82599299744E+03 -0.10565646078E+04  0.19038912535E+04  0.23288183929E+04  0.50400001928E-02 0. -1.
</event>
<event>
 5   0  0.2383270E-08  0.3302297E+04  0.7818609E-02  0.8162311E-01
       -1   -1    0    0    0  501  0.00000000000E+00  0.00000000000E+00  0.95468995071E+03  0.95468995073E+03  0.50400001928E-02 0. -1.
        1   -1    0    0  501    0  0.00000000000E+00  0.00000000000E+00 -0.28556822086E+04  0.28556822086E+04  0.50400001928E-02 0.  1.
    10030    2    1    2    0    0  0.00000000000E+00  0.00000000000E+00 -0.19009922579E+04  0.38103721593E+04  0.33022968413E+04 0.  0.
        5    1    3    3  502    0  0.11015434373E+04  0.58670771956E+02  0.46711659996E+03  0.11979399867E+04  0.46999998093E+01 0. -1.
       -5    1    3    3    0  502 -0.11015434373E+04 -0.58670771956E+02 -0.23681088579E+04  0.26124321726E+04  0.46999998093E+01 0.  1.
</event>
<event>
 5   0  0.6706080E-08  0.3301128E+04  0.7818609E-02  0.8162609E-01
        2   -1    0    0  501    0  0.00000000000E+00  0.00000000000E+00  0.19390270407E+04  0.19390270407E+04  0.25500000920E-02 0. -1.
       -2   -1    0    0    0  501  0.00000000000E+00  0.00000000000E+00 -0.14050143248E+04  0.14050143248E+04  0.25500000920E-02 0.  1.
    10030    2    1    2    0    0  0.00000000000E+00  0.00000000000E+00  0.53401271592E+03  0.33440413655E+04  0.33011275458E+04 0.  0.
        4    1    3    3  502    0  0.85164127652E+02  0.14924059511E+04  0.97598367189E+03  0.17852378531E+04  0.12699999809E+01 0. -1.
       -4    1    3    3    0  502 -0.85164127652E+02 -0.14924059511E+04 -0.44197095597E+03  0.15588035124E+04  0.12699999809E+01 0.  1.
</event>
<event>
 5   0  0.2383270E-08  0.3299092E+04  0.7818609E-02  0.8163126E-01
        1   -1    0    0  501    0  0.00000000000E+00  0.00000000000E+00  0.18673454667E+04  0.18673454667E+04  0.50400001928E-02 0.  1.
       -1   -1    0    0    0  501  0.00000000000E+00  0.00000000000E+00 -0.14571498886E+04  0.14571498886E+04  0.50400001928E-02 0. -1.
    10030    2    1    2    0    0  0.00000000000E+00  0.00000000000E+00  0.41019557810E+03  0.33244953553E+04  0.32990921411E+04 0.  0.
        5    1    3    3  502    0 -0.11953612964E+03 -0.13501798515E+04  0.11523924652E+04  0.17791304059E+04  0.46999998093E+01 0.  1.
       -5    1    3    3    0  502  0.11953612964E+03  0.13501798515E+04 -0.74219688707E+03  0.15453649494E+04  0.46999998093E+01 0. -1.
</event>
<event>
 5   0  0.6706080E-08  0.3299938E+04  0.7818609E-02  0.8162911E-01
       -2   -1    0    0    0  501  0.00000000000E+00  0.00000000000E+00  0.99200971747E+03  0.99200971747E+03  0.25500000920E-02 0.  1.
        2   -1    0    0  501    0  0.00000000000E+00  0.00000000000E+00 -0.27443262276E+04  0.27443262276E+04  0.25500000920E-02 0. -1.
    10030    2    1    2    0    0  0.00000000000E+00  0.00000000000E+00 -0.17523165102E+04  0.37363359451E+04  0.32999383544E+04 0.  0.
        4    1    3    3  502    0  0.92861901920E+03 -0.91582646410E+03  0.26809493383E+03  0.13315208979E+04  0.12699999809E+01 0.  1.
       -4    1    3    3    0  502 -0.92861901920E+03  0.91582646410E+03 -0.20204114440E+04  0.24048150472E+04  0.12699999809E+01 0. -1.
</event>
<event>
 5   0  0.2244093E-08  0.3292134E+04  0.7818609E-02  0.8164900E-01
       -1   -1    0    0    0  501  0.00000000000E+00  0.00000000000E+00  0.13741845433E+04  0.13741845433E+04  0.50400001928E-02 0. -1.
        1   -1    0    0  501    0  0.00000000000E+00  0.00000000000E+00 -0.19717417026E+04  0.19717417026E+04  0.50400001928E-02 0.  1.
    10030    2    1    2    0    0  0.00000000000E+00  0.00000000000E+00 -0.59755715933E+03  0.33459262460E+04  0.32921342446E+04 0.  0.
        1    1    3    3  502    0 -0.10266491228E+04 -0.11808876384E+04 -0.81804050689E+03  0.17656993817E+04  0.50400001928E-02 0.  1.
       -1    1    3    3    0  502  0.10266491228E+04  0.11808876384E+04  0.22048334757E+03  0.15802268642E+04  0.50400001928E-02 0. -1.
</event>
<event>
 5   0  0.6603516E-08  0.3299801E+04  0.7818609E-02  0.8162946E-01
       -2   -1    0    0    0  501  0.00000000000E+00  0.00000000000E+00  0.13443815937E+04  0.13443815937E+04  0.25500000920E-02 0. -1.
        2   -1    0    0  501    0  0.00000000000E+00  0.00000000000E+00 -0.20248501215E+04  0.20248501215E+04  0.25500000920E-02 0.  1.
    10030    2    1    2    0    0  0.00000000000E+00  0.00000000000E+00 -0.68046852782E+03  0.33692317152E+04  0.32998007415E+04 0.  0.
        1    1    3    3  502    0 -0.95176770796E+03  0.12036447486E+04  0.27878000304E+03  0.15595963390E+04  0.50400001928E-02 0.  1.
       -1    1    3    3    0  502  0.95176770796E+03 -0.12036447486E+04 -0.95924853086E+03  0.18096353762E+04  0.50400001928E-02 0. -1.
</event>
<event>
 5   0  0.2279938E-08  0.3295691E+04  0.7818609E-02  0.8163993E-01
       -1   -1    0    0    0  501  0.00000000000E+00  0.00000000000E+00  0.11286216299E+04  0.11286216299E+04  0.50400001928E-02 0.  1.
        1   -1    0    0  501    0  0.00000000000E+00  0.00000000000E+00 -0.24059387315E+04  0.24059387315E+04  0.50400001928E-02 0. -1.
    10030    2    1    2    0    0  0.00000000000E+00  0.00000000000E+00 -0.12773171017E+04  0.35345603614E+04  0.32956908184E+04 0.  0.
        3    1    3    3  502    0 -0.57599315085E+03  0.13507331350E+04 -0.14406166831E+04  0.20570912838E+04  0.10100000352E+00 0. -1.
       -3    1    3    3    0  502  0.57599315085E+03 -0.13507331350E+04  0.16329958145E+03  0.14774690776E+04  0.10100000352E+00 0.  1.
</event>
<event>
 5   0  0.6765252E-08  0.3302716E+04  0.7818609E-02  0.8162205E-01
        2   -1    0    0  501    0  0.00000000000E+00  0.00000000000E+00  0.16658707503E+04  0.16658707503E+04  0.25500000920E-02 0.  1.
       -2   -1    0    0    0  501  0.00000000000E+00  0.00000000000E+00 -0.16369712889E+04  0.16369712889E+04  0.25500000920E-02 0. -1.
    10030    2    1    2    0    0  0.00000000000E+00  0.00000000000E+00  0.28899461391E+02  0.33028420392E+04  0.33027156034E+04 0.  0.
        2    1    3    3  502    0 -0.15129759334E+04  0.61297849113E+03  0.26374582347E+03  0.16536023297E+04  0.25500000920E-02 0. -1.
       -2    1    3    3    0  502  0.15129759334E+04 -0.61297849113E+03 -0.23484636208E+03  0.16492397095E+04  0.25500000920E-02 0.  1.
</event>
<event>
 5   0  0.2244093E-08  0.3299670E+04  0.7818609E-02  0.8162979E-01
       -1   -1    0    0    0  501  0.00000000000E+00  0.00000000000E+00  0.23912071445E+04  0.23912071445E+04  0.50400001928E-02 0. -1.
        1   -1    0    0  501    0  0.00000000000E+00  0.00000000000E+00 -0.11383185391E+04  0.11383185391E+04  0.50400001928E-02 0.  1.
    10030    2    1    2    0    0  0.00000000000E+00  0.00000000000E+00  0.12528886054E+04  0.35295256837E+04  0.32996699372E+04 0.  0.
        1    1    3    3  502    0  0.31320936096E+03  0.10465920034E+04  0.19488924083E+04  0.22341970694E+04  0.50400001928E-02 0. -1.
       -1    1    3    3    0  502 -0.31320936096E+03 -0.10465920034E+04 -0.69600380294E+03  0.12953286143E+04  0.50400001928E-02 0.  1.
</event>
<event>
 5   0  0.2279938E-08  0.3301063E+04  0.7818609E-02  0.8162625E-01
       -1   -1    0    0    0  501  0.00000000000E+00  0.00000000000E+00  0.11503114612E+04  0.11503114612E+04  0.50400001928E-02 0.  1.
        1   -1    0    0  501    0  0.00000000000E+00  0.00000000000E+00 -0.23682751922E+04  0.23682751922E+04  0.50400001928E-02 0. -1.
    10030    2    1    2    0    0  0.00000000000E+00  0.00000000000E+00 -0.12179637310E+04  0.35185866535E+04  0.33010629179E+04 0.  0.
        3    1    3    3  502    0  0.15791638605E+04 -0.25958531935E+03 -0.10394649999E+04  0.19083056706E+04  0.10100000352E+00 0. -1.
       -3    1    3    3    0  502 -0.15791638605E+04  0.25958531935E+03 -0.17849873117E+03  0.16102809828E+04  0.10100000352E+00 0.  1.
</event>
<event>
 5   0  0.2244093E-08  0.3299010E+04  0.7818609E-02  0.8163147E-01
       -1   -1    0    0    0  501  0.00000000000E+00  0.00000000000E+00  0.10650054694E+04  0.10650054694E+04  0.50400001928E-02 0.  1.
        1   -1    0    0  501    0  0.00000000000E+00  0.00000000000E+00 -0.25547912085E+04  0.25547912085E+04  0.50400001928E-02 0. -1.
    10030    2    1    2    0    0  0.00000000000E+00  0.00000000000E+00 -0.14897857391E+04  0.36197966780E+04  0.32990099183E+04 0.  0.
        1    1    3    3  502    0  0.60224606658E+03  0.82344864552E+03 -0.21671166716E+04  0.23952374966E+04  0.50400001928E-02 0. -1.
       -1    1    3    3    0  502 -0.60224606658E+03 -0.82344864552E+03  0.67733093251E+03  0.12245591814E+04  0.50400001928E-02 0.  1.
</event>
<event>
 5   0  0.6821287E-08  0.3299490E+04  0.7818609E-02  0.8163025E-01
        2   -1    0    0  501    0  0.00000000000E+00  0.00000000000E+00  0.19192106206E+04  0.19192106206E+04  0.25500000920E-02 0.  1.
       -2   -1    0    0    0  501  0.00000000000E+00  0.00000000000E+00 -0.14181132205E+04  0.14181132206E+04  0.25500000920E-02 0. -1.
    10030    2    1    2    0    0  0.00000000000E+00  0.00000000000E+00  0.50109740007E+03  0.33373238412E+04  0.32994896297E+04 0.  0.
        5    1    3    3  502    0 -0.14401173849E+04 -0.79916974517E+03  0.34664069822E+03  0.16830900830E+04  0.46999998093E+01 0.  1.
       -5    1    3    3    0  502  0.14401173849E+04  0.79916974517E+03  0.15445670185E+03  0.16542337582E+04  0.46999998093E+01 0. -1.
</event>
<event>
 5   0  0.7084130E-08  0.3300830E+04  0.7818609E-02  0.8162684E-01
       -2   -1    0    0    0  501  0.00000000000E+00  0.00000000000E+00  0.14144110586E+04  0.14144110586E+04  0.25500000920E-02 0. -1.
        2   -1    0    0  501    0  0.00000000000E+00  0.00000000000E+00 -0.19257980875E+04  0.19257980875E+04  0.25500000920E-02 0.  1.
    10030    2    1    2    0    0  0.00000000000E+00  0.00000000000E+00 -0.51138702887E+03  0.33402091461E+04  0.33008302662E+04 0.  0.
        3    1    3    3  502    0 -0.14762696223E+04  0.40618000866E+03  0.36770456259E+03  0.15746621392E+04  0.10100000352E+00 0. -1.
       -3    1    3    3    0  502  0.14762696223E+04 -0.40618000866E+03 -0.87909159145E+03  0.17655470069E+04  0.10100000352E+00 0.  1.
</event>
<event>
 5   0  0.6603516E-08  0.3299451E+04  0.7818609E-02  0.8163035E-01
       -2   -1    0    0    0  501  0.00000000000E+00  0.00000000000E+00  0.12797241191E+04  0.12797241191E+04  0.25500000920E-02 0. -1.
        2   -1    0    0  501    0  0.00000000000E+00  0.00000000000E+00 -0.21267042583E+04  0.21267042583E+04  0.25500000920E-02 0.  1.
    10030    2    1    2    0    0  0.00000000000E+00  0.00000000000E+00 -0.84698013923E+03  0.34064283775E+04  0.32994513081E+04 0.  0.
        1    1    3    3  502    0  0.13666538378E+04 -0.89744164457E+03 -0.19623857879E+03  0.16467099920E+04  0.50400001928E-02 0.  1.
       -1    1    3    3    0  502 -0.13666538378E+04  0.89744164457E+03 -0.65074156044E+03  0.17597183855E+04  0.50400001928E-02 0. -1.
</event>
<event>
 5   0  0.2291682E-08  0.3299516E+04  0.7818609E-02  0.8163019E-01
        1   -1    0    0  501    0  0.00000000000E+00  0.00000000000E+00  0.24118424849E+04  0.24118424849E+04  0.50400001928E-02 0.  1.
       -1   -1    0    0    0  501  0.00000000000E+00  0.00000000000E+00 -0.11284739620E+04  0.11284739620E+04  0.50400001928E-02 0. -1.
    10030    2    1    2    0    0  0.00000000000E+00  0.00000000000E+00  0.12833685229E+04  0.35403164469E+04  0.32995159916E+04 0.  0.
        2    1    3    3  502    0  0.96259213963E+02  0.97129024072E+03 -0.78543264687E+03  0.12528268080E+04  0.25500000920E-02 0. -1.
       -2    1    3    3    0  502 -0.96259213963E+02 -0.97129024072E+03  0.20688011698E+04  0.22874896389E+04  0.25500000920E-02 0.  1.
</event>
<event>
 5   0  0.2244093E-08  0.3299870E+04  0.7818609E-02  0.8162928E-01
        1   -1    0    0  501    0  0.00000000000E+00  0.00000000000E+00  0.27634325281E+04  0.27634325281E+04  0.50400001928E-02 0.  1.
       -1   -1    0    0    0  501  0.00000000000E+00  0.00000000000E+00 -0.98511012240E+03  0.98511012241E+03  0.50400001928E-02 0. -1.
    10030    2    1    2    0    0  0.00000000000E+00  0.00000000000E+00  0.17783224057E+04  0.37485426505E+04  0.32998699102E+04 0.  0.
        1    1    3    3  502    0 -0.59703406961E+03 -0.10203239102E+04 -0.41832364789E+03  0.12539957083E+04  0.50400001928E-02 0. -1.
       -1    1    3    3    0  502  0.59703406961E+03  0.10203239102E+04  0.21966460536E+04  0.24945469422E+04  0.50400001928E-02 0.  1.
</event>
<event>
 5   0  0.6821287E-08  0.3300088E+04  0.7818609E-02  0.8162873E-01
        2   -1    0    0  501    0  0.00000000000E+00  0.00000000000E+00  0.20623441306E+04  0.20623441306E+04  0.25500000920E-02 0.  1.
       -2   -1    0    0    0  501  0.00000000000E+00  0.00000000000E+00 -0.13201703799E+04  0.13201703799E+04  0.25500000920E-02 0. -1.
    10030    2    1    2    0    0  0.00000000000E+00  0.00000000000E+00  0.74217375072E+03  0.33825145105E+04  0.33000882621E+04 0.  0.
        5    1    3    3  502    0  0.30032466365E+03 -0.13098702061E+04  0.13524287035E+04  0.19065781779E+04  0.46999998093E+01 0.  1.
       -5    1    3    3    0  502 -0.30032466365E+03  0.13098702061E+04 -0.61025495281E+03  0.14759363326E+04  0.46999998093E+01 0. -1.
</event>
<event>
 5   0  0.2383270E-08  0.3299608E+04  0.7818609E-02  0.8162995E-01
        1   -1    0    0  501    0  0.00000000000E+00  0.00000000000E+00  0.20010961997E+04  0.20010961997E+04  0.50400001928E-02 0.  1.
       -1   -1    0    0    0  501  0.00000000000E+00  0.00000000000E+00 -0.13601807899E+04  0.13601807899E+04  0.50400001928E-02 0. -1.
    10030    2    1    2    0    0  0.00000000000E+00  0.00000000000E+00  0.64091540979E+03  0.33612769896E+04  0.32996076189E+04 0.  0.
        5    1    3    3  502    0 -0.15207806509E+03 -0.14860524434E+04  0.10337959363E+04  0.18166550940E+04  0.46999998093E+01 0.  1.
       -5    1    3    3    0  502  0.15207806509E+03  0.14860524434E+04 -0.39288052652E+03  0.15446218957E+04  0.46999998093E+01 0. -1.
</event>
<event>
 5   0  0.2309822E-08  0.3301609E+04  0.7818609E-02  0.8162486E-01
       -1   -1    0    0    0  501  0.00000000000E+00  0.00000000000E+00  0.21292845054E+04  0.21292845054E+04  0.50400001928E-02 0.  1.
        1   -1    0    0  501    0  0.00000000000E+00  0.00000000000E+00 -0.12798456534E+04  0.12798456534E+04  0.50400001928E-02 0. -1.
    10030    2    1    2    0    0  0.00000000000E+00  0.00000000000E+00  0.84943885204E+03  0.34091301589E+04  0.33016090133E+04 0.  0.
        4    1    3    3  502    0 -0.60939276630E+03  0.12648591614E+04 -0.47184644935E+03  0.14811714710E+04  0.12699999809E+01 0.  1.
       -4    1    3    3    0  502  0.60939276630E+03 -0.12648591614E+04  0.13212853014E+04  0.19279586879E+04  0.12699999809E+01 0. -1.
</event>
<event>
 5   0  0.6821287E-08  0.3300665E+04  0.7818609E-02  0.8162726E-01
        2   -1    0    0  501    0  0.00000000000E+00  0.00000000000E+00  0.12453374461E+04  0.12453374461E+04  0.25500000920E-02 0.  1.
       -2   -1    0    0    0  501  0.00000000000E+00  0.00000000000E+00 -0.21870357930E+04  0.21870357930E+04  0.25500000920E-02 0. -1.
    10030    2    1    2    0    0  0.00000000000E+00  0.00000000000E+00 -0.94169834697E+03  0.34323732391E+04  0.33006651263E+04 0.  0.
        5    1    3    3  502    0  0.32792060824E+03  0.60920740934E+03 -0.20289390253E+04  0.21436607128E+04  0.46999998093E+01 0. -1.
       -5    1    3    3    0  502 -0.32792060824E+03 -0.60920740934E+03  0.10872406784E+04  0.12887125264E+04  0.46999998093E+01 0.  1.
</event>
<event>
 5   0  0.2200750E-08  0.3299194E+04  0.7818609E-02  0.8163100E-01
        3   -1    0    0  501    0  0.00000000000E+00  0.00000000000E+00  0.18177758500E+04  0.18177758528E+04  0.10100000352E+00 0.  1.
       -3   -1    0    0    0  501  0.00000000000E+00  0.00000000000E+00 -0.14969782513E+04  0.14969782547E+04  0.10100000352E+00 0. -1.
    10030    2    1    2    0    0  0.00000000000E+00  0.00000000000E+00  0.32079759864E+03  0.33147541075E+04  0.32991944008E+04 0.  0.
        2    1    3    3  502    0 -0.83655065918E+03 -0.10651474883E+04 -0.78575091807E+03  0.15658099126E+04  0.25500000920E-02 0. -1.
       -2    1    3    3    0  502  0.83655065918E+03  0.10651474883E+04  0.11065485167E+04  0.17489441949E+04  0.25500000920E-02 0.  1.
</event>
<event>
 5   0  0.6821287E-08  0.3300208E+04  0.7818609E-02  0.8162843E-01
       -2   -1    0    0    0  501  0.00000000000E+00  0.00000000000E+00  0.20786909245E+04  0.20786909245E+04  0.25500000920E-02 0. -1.
        2   -1    0    0  501    0  0.00000000000E+00  0.00000000000E+00 -0.13098834636E+04  0.13098834637E+04  0.25500000920E-02 0.  1.
    10030    2    1    2    0    0  0.00000000000E+00  0.00000000000E+00  0.76880746080E+03  0.33885743881E+04  0.33002077922E+04 0.  0.
        5    1    3    3  502    0  0.24220969111E+03  0.94044563217E+03 -0.98537760530E+03  0.13835080905E+04  0.46999998093E+01 0.  1.
       -5    1    3    3    0  502 -0.24220969111E+03 -0.94044563217E+03  0.17541850661E+04  0.20050662976E+04  0.46999998093E+01 0. -1.
</event>
<event>
 5   0  0.6706080E-08  0.3299170E+04  0.7818609E-02  0.8163107E-01
       -2   -1    0    0    0  501  0.00000000000E+00  0.00000000000E+00  0.92324371857E+03  0.92324371857E+03  0.25500000920E-02 0. -1.
        2   -1    0    0  501    0  0.00000000000E+00  0.00000000000E+00 -0.29473580964E+04  0.29473580964E+04  0.25500000920E-02 0.  1.
    10030    2    1    2    0    0  0.00000000000E+00  0.00000000000E+00 -0.20241143778E+04  0.38706018150E+04  0.32991695009E+04 0.  0.
        4    1    3    3  502    0 -0.53302758992E+03 -0.67313351240E+03 -0.26645283013E+04  0.27994534856E+04  0.12699999809E+01 0.  1.
       -4    1    3    3    0  502  0.53302758992E+03  0.67313351240E+03  0.64041392345E+03  0.10711483293E+04  0.12699999809E+01 0. -1.
</event>
<event>
 5   0  0.6603516E-08  0.3298682E+04  0.7818609E-02  0.8163231E-01
        2   -1    0    0  501    0  0.00000000000E+00  0.00000000000E+00  0.20173945105E+04  0.20173945105E+04  0.25500000920E-02 0.  1.
       -2   -1    0    0    0  501  0.00000000000E+00  0.00000000000E+00 -0.13484353057E+04  0.13484353057E+04  0.25500000920E-02 0. -1.
    10030    2    1    2    0    0  0.00000000000E+00  0.00000000000E+00  0.66895920476E+03  0.33658298162E+04  0.32986821511E+04 0.  0.
        1    1    3    3  502    0 -0.56825861503E+03  0.73693665954E+03 -0.10549785990E+04  0.14067598723E+04  0.50400001928E-02 0. -1.
       -1    1    3    3    0  502  0.56825861503E+03 -0.73693665954E+03  0.17239378038E+04  0.19590699439E+04  0.50400001928E-02 0.  1.
</event>
<event>
 5   0  0.6603516E-08  0.3300004E+04  0.7818609E-02  0.8162894E-01
       -2   -1    0    0    0  501  0.00000000000E+00  0.00000000000E+00  0.16346163831E+04  0.16346163831E+04  0.25500000920E-02 0. -1.
        2   -1    0    0  501    0  0.00000000000E+00  0.00000000000E+00 -0.16655321789E+04  0.16655321789E+04  0.25500000920E-02 0.  1.
    10030    2    1    2    0    0  0.00000000000E+00  0.00000000000E+00 -0.30915795805E+02  0.33001485621E+04  0.33000037493E+04 0.  0.
        1    1    3    3  502    0 -0.74531936990E+03  0.28852775514E+03  0.14281278609E+04  0.16365507679E+04  0.50400001928E-02 0. -1.
       -1    1    3    3    0  502  0.74531936990E+03 -0.28852775514E+03 -0.14590436567E+04  0.16635977942E+04  0.50400001928E-02 0.  1.
</event>
<event>
 5   0  0.2291682E-08  0.3301793E+04  0.7818609E-02  0.8162439E-01
       -1   -1    0    0    0  501  0.00000000000E+00  0.00000000000E+00  0.16911447863E+04  0.16911447863E+04  0.50400001928E-02 0.  1.
        1   -1    0    0  501    0  0.00000000000E+00  0.00000000000E+00 -0.16116059803E+04  0.16116059803E+04  0.50400001928E-02 0. -1.
    10030    2    1    2    0    0  0.00000000000E+00  0.00000000000E+00  0.79538806015E+02  0.33027507665E+04  0.33017928773E+04 0.  0.
        2    1    3    3  502    0 -0.82327025554E+03 -0.99746051803E+03  0.10661068602E+04  0.16760922516E+04  0.25500000920E-02 0.  1.
       -2    1    3    3    0  502  0.82327025554E+03  0.99746051803E+03 -0.98656805414E+03  0.16266585149E+04  0.25500000920E-02 0. -1.
</event>
<event>
 5   0  0.6603516E-08  0.3300183E+04  0.7818609E-02  0.8162849E-01
        2   -1    0    0  501    0  0.00000000000E+00  0.00000000000E+00  0.13118474822E+04  0.13118474822E+04  0.25500000920E-02 0. -1.
       -2   -1    0    0    0  501  0.00000000000E+00  0.00000000000E+00 -0.20755481770E+04  0.20755481770E+04  0.25500000920E-02 0.  1.
    10030    2    1    2    0    0  0.00000000000E+00  0.00000000000E+00 -0.76370069484E+03  0.33873956593E+04  0.33001834193E+04 0.  0.
        1    1    3    3  502    0 -0.85735258755E+03 -0.21515587810E+02  0.10651147807E+04  0.13674742688E+04  0.50400001928E-02 0. -1.
       -1    1    3    3    0  502  0.85735258755E+03  0.21515587810E+02 -0.18288154755E+04  0.20199213904E+04  0.50400001928E-02 0.  1.
</event>
<event>
 5   0  0.2383270E-08  0.3292254E+04  0.7818609E-02  0.8164869E-01
        1   -1    0    0  501    0  0.00000000000E+00  0.00000000000E+00  0.18288371875E+04  0.18288371875E+04  0.50400001928E-02 0. -1.
       -1   -1    0    0    0  501  0.00000000000E+00  0.00000000000E+00 -0.14816703256E+04  0.14816703256E+04  0.50400001928E-02 0.  1.
    10030    2    1    2    0    0  0.00000000000E+00  0.00000000000E+00  0.34716686185E+03  0.33105075131E+04  0.32922538123E+04 0.  0.
        5    1    3    3  502    0 -0.87046433862E+03 -0.13342094020E+04  0.59047687787E+03  0.16989726091E+04  0.46999998093E+01 0.  1.
       -5    1    3    3    0  502  0.87046433862E+03  0.13342094020E+04 -0.24331001602E+03  0.16115349040E+04  0.46999998093E+01 0. -1.
</event>
<event>
 5   0  0.2279938E-08  0.3300722E+04  0.7818609E-02  0.8162712E-01
        1   -1    0    0  501    0  0.00000000000E+00  0.00000000000E+00  0.17468321615E+04  0.17468321615E+04  0.50400001928E-02 0. -1.
       -1   -1    0    0    0  501  0.00000000000E+00  0.00000000000E+00 -0.15592178539E+04  0.15592178539E+04  0.50400001928E-02 0.  1.
    10030    2    1    2    0    0  0.00000000000E+00  0.00000000000E+00  0.18761430764E+03  0.33060500154E+04  0.33007222809E+04 0.  0.
        3    1    3    3  502    0 -0.35778072566E+03  0.13138444160E+04 -0.84016655280E+03  0.16000231385E+04  0.10100000352E+00 0.  1.
       -3    1    3    3    0  502  0.35778072566E+03 -0.13138444160E+04  0.10277808604E+04  0.17060268768E+04  0.10100000352E+00 0. -1.
</event>
<event>
 5   0  0.6706080E-08  0.3300446E+04  0.7818609E-02  0.8162782E-01
       -2   -1    0    0    0  501  0.00000000000E+00  0.00000000000E+00  0.14109615273E+04  0.14109615273E+04  0.25500000920E-02 0. -1.
        2   -1    0    0  501    0  0.00000000000E+00  0.00000000000E+00 -0.19300572246E+04  0.19300572246E+04  0.25500000920E-02 0.  1.
    10030    2    1    2    0    0  0.00000000000E+00  0.00000000000E+00 -0.51909569730E+03  0.33410187518E+04  0.33004463269E+04 0.  0.
        4    1    3    3  502    0 -0.78487308415E+03  0.67805154592E+03  0.10397629501E+04  0.14686348295E+04  0.12699999809E+01 0. -1.
       -4    1    3    3    0  502  0.78487308415E+03 -0.67805154592E+03 -0.15588586474E+04  0.18723839223E+04  0.12699999809E+01 0.  1.
</event>
<event>
 5   0  0.2244093E-08  0.3300432E+04  0.7818609E-02  0.8162785E-01
        1   -1    0    0  501    0  0.00000000000E+00  0.00000000000E+00  0.13186145036E+04  0.13186145036E+04  0.50400001928E-02 0.  1.
       -1   -1    0    0    0  501  0.00000000000E+00  0.00000000000E+00 -0.20652082775E+04  0.20652082775E+04  0.50400001928E-02 0. -1.
    10030    2    1    2    0    0  0.00000000000E+00  0.00000000000E+00 -0.74659377388E+03  0.33838227811E+04  0.33004324491E+04 0.  0.
        1    1    3    3  502    0 -0.10558692887E+04 -0.10762567185E+04 -0.10610857421E+04  0.18436625047E+04  0.50400001928E-02 0. -1.
       -1    1    3    3    0  502  0.10558692887E+04  0.10762567185E+04  0.31449196825E+03  0.15401602764E+04  0.50400001928E-02 0.  1.
</event>
<event>
 5   0  0.6603516E-08  0.3299108E+04  0.7818609E-02  0.8163122E-01
       -2   -1    0    0    0  501  0.00000000000E+00  0.00000000000E+00  0.14995753976E+04  0.14995753976E+04  0.25500000920E-02 0.  1.
        2   -1    0    0  501    0  0.00000000000E+00  0.00000000000E+00 -0.18145324707E+04  0.18145324707E+04  0.25500000920E-02 0. -1.
    10030    2    1    2    0    0  0.00000000000E+00  0.00000000000E+00 -0.31495707311E+03  0.33141078682E+04  0.32991079104E+04 0.  0.
        1    1    3    3  502    0 -0.11286705594E+04 -0.89137142187E+03  0.65402359152E+03  0.15799326257E+04  0.50400001928E-02 0.  1.
       -1    1    3    3    0  502  0.11286705594E+04  0.89137142187E+03 -0.96898066463E+03  0.17341752426E+04  0.50400001928E-02 0. -1.
</event>
<event>
 5   0  0.7084130E-08  0.3299546E+04  0.7818609E-02  0.8163011E-01
       -2   -1    0    0    0  501  0.00000000000E+00  0.00000000000E+00  0.92360434030E+03  0.92360434030E+03  0.25500000920E-02 0. -1.
        2   -1    0    0  501    0  0.00000000000E+00  0.00000000000E+00 -0.29468796001E+04  0.29468796001E+04  0.25500000920E-02 0.  1.
    10030    2    1    2    0    0  0.00000000000E+00  0.00000000000E+00 -0.20232752598E+04  0.38704839404E+04  0.32995459015E+04 0.  0.
        3    1    3    3  502    0 -0.13464361033E+04 -0.14776618920E+03 -0.21164262943E+04  0.25127644729E+04  0.10100000352E+00 0.  1.
       -3    1    3    3    0  502  0.13464361033E+04  0.14776618920E+03  0.93151034547E+02  0.13577194675E+04  0.10100000352E+00 0. -1.
</event>
<event>
 5   0  0.7084130E-08  0.3296655E+04  0.7818609E-02  0.8163747E-01
        2   -1    0    0  501    0  0.00000000000E+00  0.00000000000E+00  0.19229398863E+04  0.19229398863E+04  0.25500000920E-02 0. -1.
       -2   -1    0    0    0  501  0.00000000000E+00  0.00000000000E+00 -0.14129319716E+04  0.14129319716E+04  0.25500000920E-02 0.  1.
    10030    2    1    2    0    0  0.00000000000E+00  0.00000000000E+00  0.51000791465E+03  0.33358718579E+04  0.32966548165E+04 0.  0.
        3    1    3    3  502    0  0.15881607621E+04 -0.20968267172E+03 -0.13789560831E+03  0.16078671084E+04  0.10100000352E+00 0.  1.
       -3    1    3    3    0  502 -0.15881607621E+04  0.20968267172E+03  0.64790352296E+03  0.17280047495E+04  0.10100000352E+00 0. -1.
</event>
<event>
 5   0  0.2291682E-08  0.3301961E+04  0.7818609E-02  0.8162397E-01
       -1   -1    0    0    0  501  0.00000000000E+00  0.00000000000E+00  0.15636304377E+04  0.15636304377E+04  0.50400001928E-02 0. -1.
        1   -1    0    0  501    0  0.00000000000E+00  0.00000000000E+00 -0.17432099851E+04  0.17432099851E+04  0.50400001928E-02 0.  1.
    10030    2    1    2    0    0  0.00000000000E+00  0.00000000000E+00 -0.17957954736E+03  0.33068404228E+04  0.33019607460E+04 0.  0.
        2    1    3    3  502    0 -0.48513278744E+03  0.13556439947E+04  0.71924794489E+03  0.16094850320E+04  0.25500000920E-02 0. -1.
       -2    1    3    3    0  502  0.48513278744E+03 -0.13556439947E+04 -0.89882749225E+03  0.16973553908E+04  0.25500000920E-02 0.  1.
</event>
<event>
 5   0  0.6821287E-08  0.3298159E+04  0.7818609E-02  0.8163364E-01
       -2   -1    0    0    0  501  0.00000000000E+00  0.00000000000E+00  0.10750511279E+04  0.10750511279E+04  0.25500000920E-02 0.  1.
        2   -1    0    0  501    0  0.00000000000E+00  0.00000000000E+00 -0.25296123665E+04  0.25296123665E+04  0.25500000920E-02 0. -1.
    10030    2    1    2    0    0  0.00000000000E+00  0.00000000000E+00 -0.14545612385E+04  0.36046634944E+04  0.32981586547E+04 0.  0.
        5    1    3    3  502    0  0.61183718376E+03 -0.29458155734E+03  0.91514490499E+03  0.11395768164E+04  0.46999998093E+01 0.  1.
       -5    1    3    3    0  502 -0.61183718376E+03  0.29458155734E+03 -0.23697061435E+04  0.24650866780E+04  0.46999998093E+01 0. -1.
</event>
<event>
 5   0  0.6821287E-08  0.3298454E+04  0.7818609E-02  0.8163289E-01
        2   -1    0    0  501    0  0.00000000000E+00  0.00000000000E+00  0.19597978193E+04  0.19597978193E+04  0.25500000920E-02 0.  1.
       -2   -1    0    0    0  501  0.00000000000E+00  0.00000000000E+00 -0.13878727590E+04  0.13878727590E+04  0.25500000920E-02 0. -1.
    10030    2    1    2    0    0  0.00000000000E+00  0.00000000000E+00  0.57192506031E+03  0.33476705783E+04  0.32984541874E+04 0.  0.
        5    1    3    3  502    0 -0.35533905350E+03 -0.15037382413E+03  0.19133370138E+04  0.19518603301E+04  0.46999998093E+01 0.  1.
       -5    1    3    3    0  502  0.35533905350E+03  0.15037382413E+03 -0.13414119535E+04  0.13958102482E+04  0.46999998093E+01 0. -1.
</event>
<event>
 5   0  0.6706080E-08  0.3300671E+04  0.7818609E-02  0.8162725E-01
       -2   -1    0    0    0  501  0.00000000000E+00  0.00000000000E+00  0.12544850524E+04  0.12544850524E+04  0.25500000920E-02 0.  1.
        2   -1    0    0  501    0  0.00000000000E+00  0.00000000000E+00 -0.21710959000E+04  0.21710959000E+04  0.25500000920E-02 0. -1.
    10030    2    1    2    0    0  0.00000000000E+00  0.00000000000E+00 -0.91661084755E+03  0.34255809524E+04  0.33006710553E+04 0.  0.
        4    1    3    3  502    0  0.39218262585E+03 -0.94245437832E+02  0.12025417997E+04  0.12683839354E+04  0.12699999809E+01 0.  1.
       -4    1    3    3    0  502 -0.39218262585E+03  0.94245437832E+02 -0.21191526473E+04  0.21571970170E+04  0.12699999809E+01 0. -1.
</event>
<event>
 5   0  0.6706080E-08  0.3299569E+04  0.7818609E-02  0.8163005E-01
        2   -1    0    0  501    0  0.00000000000E+00  0.00000000000E+00  0.30694083998E+04  0.30694083998E+04  0.25500000920E-02 0.  1.
       -2   -1    0    0    0  501  0.00000000000E+00  0.00000000000E+00 -0.88674720417E+03  0.88674720417E+03  0.25500000920E-02 0. -1.
    10030    2    1    2    0    0  0.00000000000E+00  0.00000000000E+00  0.21826611957E+04  0.39561556040E+04  0.32995692549E+04 0.  0.
        4    1    3    3  502    0 -0.45669548319E+03  0.44117722081E+03  0.29170209558E+04  0.29853343152E+04  0.12699999809E+01 0. -1.
       -4    1    3    3    0  502  0.45669548319E+03 -0.44117722081E+03 -0.73435976011E+03  0.97082128875E+03  0.12699999809E+01 0.  1.
</event>
<event>
 5   0  0.2291682E-08  0.3298994E+04  0.7818609E-02  0.8163151E-01
        1   -1    0    0  501    0  0.00000000000E+00  0.00000000000E+00  0.15212471844E+04  0.15212471844E+04  0.50400001928E-02 0.  1.
       -1   -1    0    0    0  501  0.00000000000E+00  0.00000000000E+00 -0.17885587947E+04  0.17885587947E+04  0.50400001928E-02 0. -1.
    10030    2    1    2    0    0  0.00000000000E+00  0.00000000000E+00 -0.26731161023E+03  0.33098059791E+04  0.32989938045E+04 0.  0.
        2    1    3    3  502    0 -0.81661591176E+03 -0.50223077118E+03  0.12130335464E+04  0.15461396054E+04  0.25500000920E-02 0.  1.
       -2    1    3    3    0  502  0.81661591176E+03  0.50223077118E+03 -0.14803451566E+04  0.17636663737E+04  0.25500000920E-02 0. -1.
</event>
<event>
 5   0  0.7084130E-08  0.3308561E+04  0.7818609E-02  0.8160720E-01
       -2   -1    0    0    0  501  0.00000000000E+00  0.00000000000E+00  0.16604749820E+04  0.16604749820E+04  0.25500000920E-02 0.  1.
        2   -1    0    0  501    0  0.00000000000E+00  0.00000000000E+00 -0.16481093336E+04  0.16481093336E+04  0.25500000920E-02 0. -1.
    10030    2    1    2    0    0  0.00000000000E+00  0.00000000000E+00  0.12365648423E+02  0.33085843156E+04  0.33085612075E+04 0.  0.
        3    1    3    3  502    0  0.52032037520E+03  0.13513703356E+04 -0.79364100937E+03  0.16513028610E+04  0.10100000352E+00 0. -1.
       -3    1    3    3    0  502 -0.52032037520E+03 -0.13513703356E+04  0.80600665780E+03  0.16572814545E+04  0.10100000352E+00 0.  1.
</event>
<event>
 5   0  0.2309822E-08  0.3301090E+04  0.7818609E-02  0.8162618E-01
        1   -1    0    0  501    0  0.00000000000E+00  0.00000000000E+00  0.23732610985E+04  0.23732610985E+04  0.50400001928E-02 0.  1.
       -1   -1    0    0    0  501  0.00000000000E+00  0.00000000000E+00 -0.11479135454E+04  0.11479135454E+04  0.50400001928E-02 0. -1.
    10030    2    1    2    0    0  0.00000000000E+00  0.00000000000E+00  0.12253475531E+04  0.35211746439E+04  0.33010898575E+04 0.  0.
        4    1    3    3  502    0 -0.68627807756E+03 -0.18005802072E+03  0.22022983616E+04  0.23137670965E+04  0.12699999809E+01 0.  1.
       -4    1    3    3    0  502  0.68627807756E+03  0.18005802072E+03 -0.97695080846E+03  0.12074075474E+04  0.12699999809E+01 0. -1.
</event>
<event>
 5   0  0.6603516E-08  0.3303605E+04  0.7818609E-02  0.8161979E-01
       -2   -1    0    0    0  501  0.00000000000E+00  0.00000000000E+00  0.10103931482E+04  0.10103931482E+04  0.25500000920E-02 0. -1.
        2   -1    0    0  501    0  0.00000000000E+00  0.00000000000E+00 -0.27003853823E+04  0.27003853823E+04  0.25500000920E-02 0.  1.
    10030    2    1    2    0    0  0.00000000000E+00  0.00000000000E+00 -0.16899922340E+04  0.37107785305E+04  0.33036046300E+04 0.  0.
        1    1    3    3  502    0 -0.64459474217E+03  0.14948361093E+04 -0.11595336120E+04  0.19986384297E+04  0.50400001928E-02 0.  1.
       -1    1    3    3    0  502  0.64459474217E+03 -0.14948361093E+04 -0.53045862201E+03  0.17121401008E+04  0.50400001928E-02 0. -1.
</event>
<event>
 5   0  0.6765252E-08  0.3300718E+04  0.7818609E-02  0.8162713E-01
       -2   -1    0    0    0  501  0.00000000000E+00  0.00000000000E+00  0.11841459254E+04  0.11841459254E+04  0.25500000920E-02 0. -1.
        2   -1    0    0  501    0  0.00000000000E+00  0.00000000000E+00 -0.23001263702E+04  0.23001263702E+04  0.25500000920E-02 0.  1.
    10030    2    1    2    0    0  0.00000000000E+00  0.00000000000E+00 -0.11159804448E+04  0.34842722956E+04  0.33007182668E+04 0.  0.
        2    1    3    3  502    0  0.73607071155E+03 -0.43296185779E+03 -0.20487681149E+04  0.22196186275E+04  0.25500000920E-02 0.  1.
       -2    1    3    3    0  502 -0.73607071155E+03  0.43296185779E+03  0.93278767017E+03  0.12646536681E+04  0.25500000920E-02 0. -1.
</event>
<event>
 5   0  0.2309822E-08  0.3300579E+04  0.7818609E-02  0.8162748E-01
        1   -1    0    0  501    0  0.00000000000E+00  0.00000000000E+00  0.18357256579E+04  0.18357256579E+04  0.50400001928E-02 0. -1.
       -1   -1    0    0    0  501  0.00000000000E+00  0.00000000000E+00 -0.14835851827E+04  0.14835851827E+04  0.50400001928E-02 0.  1.
    10030    2    1    2    0    0  0.00000000000E+00  0.00000000000E+00  0.35214047523E+03  0.33193108406E+04  0.33005789708E+04 0.  0.
        4    1    3    3  502    0 -0.65881147282E+03  0.11662960151E+03  0.16932136365E+04  0.18206067813E+04  0.12699999809E+01 0. -1.
       -4    1    3    3    0  502  0.65881147282E+03 -0.11662960151E+03 -0.13410731612E+04  0.14987040593E+04  0.12699999809E+01 0.  1.
</event>
<event>
 5   0  0.2291682E-08  0.3300609E+04  0.7818609E-02  0.8162740E-01
        1   -1    0    0  501    0  0.00000000000E+00  0.00000000000E+00  0.17898787106E+04  0.17898787106E+04  0.50400001928E-02 0.  1.
       -1   -1    0    0    0  501  0.00000000000E+00  0.00000000000E+00 -0.15216141469E+04  0.15216141469E+04  0.50400001928E-02 0. -1.
    10030    2    1    2    0    0  0.00000000000E+00  0.00000000000E+00  0.26826456371E+03  0.33114928574E+04  0.33006088936E+04 0.  0.
        2    1    3    3  502    0 -0.28401267738E+03 -0.14881417565E+04  0.79071804724E+03  0.17089365461E+04  0.25500000920E-02 0. -1.
       -2    1    3    3    0  502  0.28401267738E+03  0.14881417565E+04 -0.52245348353E+03  0.16025563113E+04  0.25500000920E-02 0.  1.
</event>
<event>
 5   0  0.6706080E-08  0.3298960E+04  0.7818609E-02  0.8163160E-01
        2   -1    0    0  501    0  0.00000000000E+00  0.00000000000E+00  0.23052470597E+04  0.23052470597E+04  0.25500000920E-02 0. -1.
       -2   -1    0    0    0  501  0.00000000000E+00  0.00000000000E+00 -0.11802568731E+04  0.11802568731E+04  0.25500000920E-02 0.  1.
    10030    2    1    2    0    0  0.00000000000E+00  0.00000000000E+00  0.11249901865E+04  0.34855039328E+04  0.32989596460E+04 0.  0.
        4    1    3    3  502    0 -0.55292749106E+03  0.14671328586E+04  0.11038907863E+04  0.19174942285E+04  0.12699999809E+01 0. -1.
       -4    1    3    3    0  502  0.55292749106E+03 -0.14671328586E+04  0.21099400219E+02  0.15680097043E+04  0.12699999809E+01 0.  1.
</event>
<event>
 5   0  0.6706080E-08  0.3300640E+04  0.7818609E-02  0.8162732E-01
        2   -1    0    0  501    0  0.00000000000E+00  0.00000000000E+00  0.19090027012E+04  0.19090027012E+04  0.25500000920E-02 0.  1.
       -2   -1    0    0    0  501  0.00000000000E+00  0.00000000000E+00 -0.14266908715E+04  0.14266908715E+04  0.25500000920E-02 0. -1.
    10030    2    1    2    0    0  0.00000000000E+00  0.00000000000E+00  0.48231182963E+03  0.33356935727E+04  0.33006403788E+04 0.  0.
        4    1    3    3  502    0  0.64904433868E+03  0.54526352468E+03  0.16721683986E+04  0.18747585527E+04  0.12699999809E+01 0.  1.
       -4    1    3    3    0  502 -0.64904433868E+03 -0.54526352468E+03 -0.11898565690E+04  0.14609350200E+04  0.12699999809E+01 0. -1.
</event>
<event>
 5   0  0.2309822E-08  0.3301040E+04  0.7818609E-02  0.8162631E-01
        1   -1    0    0  501    0  0.00000000000E+00  0.00000000000E+00  0.24917154956E+04  0.24917154956E+04  0.50400001928E-02 0.  1.
       -1   -1    0    0    0  501  0.00000000000E+00  0.00000000000E+00 -0.10933096546E+04  0.10933096547E+04  0.50400001928E-02 0. -1.
    10030    2    1    2    0    0  0.00000000000E+00  0.00000000000E+00  0.13984058409E+04  0.35850251502E+04  0.33010402045E+04 0.  0.
        4    1    3    3  502    0 -0.11155777670E+04  0.86965451110E+03 -0.22449789542E+03  0.14322058654E+04  0.12699999809E+01 0. -1.
       -4    1    3    3    0  502  0.11155777670E+04 -0.86965451110E+03  0.16229037364E+04  0.21528192849E+04  0.12699999809E+01 0.  1.
</event>
<event>
 5   0  0.2291682E-08  0.3299277E+04  0.7818609E-02  0.8163079E-01
        1   -1    0    0  501    0  0.00000000000E+00  0.00000000000E+00  0.22231410033E+04  0.22231410033E+04  0.50400001928E-02 0.  1.
       -1   -1    0    0    0  501  0.00000000000E+00  0.00000000000E+00 -0.12240824934E+04  0.12240824934E+04  0.50400001928E-02 0. -1.
    10030    2    1    2    0    0  0.00000000000E+00  0.00000000000E+00  0.99905850990E+03  0.34472234967E+04  0.32992774861E+04 0.  0.
        2    1    3    3  502    0 -0.76267165878E+03 -0.14031255418E+04  0.67618037229E+02  0.15984372193E+04  0.25500000920E-02 0. -1.
       -2    1    3    3    0  502  0.76267165878E+03  0.14031255418E+04  0.93144047267E+03  0.18487862774E+04  0.25500000920E-02 0.  1.
</event>
<event>
 5   0  0.6821287E-08  0.3300237E+04  0.7818609E-02  0.8162835E-01
       -2   -1    0    0    0  501  0.00000000000E+00  0.00000000000E+00  0.96355593697E+03  0.96355593697E+03  0.25500000920E-02 0.  1.
        2   -1    0    0  501    0  0.00000000000E+00  0.00000000000E+00 -0.28258782736E+04  0.28258782736E+04  0.25500000920E-02 0. -1.
    10030    2    1    2    0    0  0.00000000000E+00  0.00000000000E+00 -0.18623223366E+04  0.37894342106E+04  0.33002374385E+04 0.  0.
        5    1    3    3  502    0  0.13994477524E+04  0.40414040508E+03 -0.40940710506E+02  0.14572171116E+04  0.46999998093E+01 0.  1.
       -5    1    3    3    0  502 -0.13994477524E+04 -0.40414040508E+03 -0.18213816261E+04  0.23322170989E+04  0.46999998093E+01 0. -1.
</event>
<event>
 5   0  0.6821287E-08  0.3297744E+04  0.7818609E-02  0.8163470E-01
        2   -1    0    0  501    0  0.00000000000E+00  0.00000000000E+00  0.24430853805E+04  0.24430853805E+04  0.25500000920E-02 0. -1.
       -2   -1    0    0    0  501  0.00000000000E+00  0.00000000000E+00 -0.11128463044E+04  0.11128463044E+04  0.25500000920E-02 0.  1.
    10030    2    1    2    0    0  0.00000000000E+00  0.00000000000E+00  0.13302390761E+04  0.35559316848E+04  0.32977437965E+04 0.  0.
        5    1    3    3  502    0 -0.29433459286E+03 -0.11627511083E+04 -0.55489251292E+03  0.13215713311E+04  0.46999998093E+01 0.  1.
       -5    1    3    3    0  502  0.29433459286E+03  0.11627511083E+04  0.18851315890E+04  0.22343603537E+04  0.46999998093E+01 0. -1.
</event>
<event>
 5   0  0.2383270E-08  0.3295040E+04  0.7818609E-02  0.8164159E-01
       -1   -1    0    0    0  501  0.00000000000E+00  0.00000000000E+00  0.12025021285E+04  0.12025021285E+04  0.50400001928E-02 0. -1.
        1   -1    0    0  501    0  0.00000000000E+00  0.00000000000E+00 -0.22572287814E+04  0.22572287814E+04  0.50400001928E-02 0.  1.
    10030    2    1    2    0    0  0.00000000000E+00  0.00000000000E+00 -0.10547266528E+04  0.34597309099E+04  0.32950401601E+04 0.  0.
        5    1    3    3  502    0 -0.10611764803E+04  0.12403302072E+04 -0.76164281277E+03  0.18012874311E+04  0.46999998093E+01 0. -1.
       -5    1    3    3    0  502  0.10611764803E+04 -0.12403302072E+04 -0.29308384007E+03  0.16584434788E+04  0.46999998093E+01 0.  1.
</event>
<event>
 5   0  0.6765252E-08  0.3300491E+04  0.7818609E-02  0.8162770E-01
        2   -1    0    0  501    0  0.00000000000E+00  0.00000000000E+00  0.16430768678E+04  0.16430768678E+04  0.25500000920E-02 0. -1.
       -2   -1    0    0    0  501  0.00000000000E+00  0.00000000000E+00 -0.16574458799E+04  0.16574458800E+04  0.25500000920E-02 0.  1.
    10030    2    1    2    0    0  0.00000000000E+00  0.00000000000E+00 -0.14369012128E+02  0.33005227478E+04  0.33004914695E+04 0.  0.
        2    1    3    3  502    0 -0.69191487497E+03  0.10892593302E+04 -0.10358238778E+04  0.16547396135E+04  0.25500000920E-02 0.  1.
       -2    1    3    3    0  502  0.69191487497E+03 -0.10892593302E+04  0.10214548657E+04  0.16457831343E+04  0.25500000920E-02 0. -1.
</event>
<event>
 5   0  0.2309822E-08  0.3302699E+04  0.7818609E-02  0.8162209E-01
       -1   -1    0    0    0  501  0.00000000000E+00  0.00000000000E+00  0.12115726649E+04  0.12115726649E+04  0.50400001928E-02 0. -1.
        1   -1    0    0  501    0  0.00000000000E+00  0.00000000000E+00 -0.22507562442E+04  0.22507562442E+04  0.50400001928E-02 0.  1.
    10030    2    1    2    0    0  0.00000000000E+00  0.00000000000E+00 -0.10391835792E+04  0.34623289091E+04  0.33026987394E+04 0.  0.
        4    1    3    3  502    0 -0.11756579447E+04  0.22423598793E+03 -0.17123443190E+04  0.20891572609E+04  0.12699999809E+01 0.  1.
       -4    1    3    3    0  502  0.11756579447E+04 -0.22423598793E+03  0.67316073973E+03  0.13731716482E+04  0.12699999809E+01 0. -1.
</event>
<event>
 5   0  0.7084130E-08  0.3307058E+04  0.7818609E-02  0.8161102E-01
       -2   -1    0    0    0  501  0.00000000000E+00  0.00000000000E+00  0.13665525739E+04  0.13665525739E+04  0.25500000920E-02 0.  1.
        2   -1    0    0  501    0  0.00000000000E+00  0.00000000000E+00 -0.20007700393E+04  0.20007700393E+04  0.25500000920E-02 0. -1.
    10030    2    1    2    0    0  0.00000000000E+00  0.00000000000E+00 -0.63421746548E+03  0.33673226132E+04  0.33070575725E+04 0.  0.
        3    1    3    3  502    0 -0.77766452383E+03  0.48317521307E+03  0.10849135844E+04  0.14195977930E+04  0.10100000352E+00 0.  1.
       -3    1    3    3    0  502  0.77766452383E+03 -0.48317521307E+03 -0.17191310499E+04  0.19477248202E+04  0.10100000352E+00 0. -1.
</event>
<event>
 5   0  0.6821287E-08  0.3299999E+04  0.7818609E-02  0.8162896E-01
       -2   -1    0    0    0  501  0.00000000000E+00  0.00000000000E+00  0.11088875721E+04  0.11088875721E+04  0.25500000920E-02 0.  1.
        2   -1    0    0  501    0  0.00000000000E+00  0.00000000000E+00 -0.24551621311E+04  0.24551621311E+04  0.25500000920E-02 0. -1.
    10030    2    1    2    0    0  0.00000000000E+00  0.00000000000E+00 -0.13462745591E+04  0.35640497032E+04  0.32999992574E+04 0.  0.
        5    1    3    3  502    0 -0.74231706063E+03 -0.58957149371E+03 -0.21316968568E+04  0.23329772275E+04  0.46999998093E+01 0. -1.
       -5    1    3    3    0  502  0.74231706063E+03  0.58957149371E+03  0.78542229773E+03  0.12310724757E+04  0.46999998093E+01 0.  1.
</event>
<event>
 5   0  0.6765252E-08  0.3299327E+04  0.7818609E-02  0.8163067E-01
        2   -1    0    0  501    0  0.00000000000E+00  0.00000000000E+00  0.14469647362E+04  0.14469647362E+04  0.25500000920E-02 0. -1.
       -2   -1    0    0    0  501  0.00000000000E+00  0.00000000000E+00 -0.18807578491E+04  0.18807578491E+04  0.25500000920E-02 0.  1.
    10030    2    1    2    0    0  0.00000000000E+00  0.00000000000E+00 -0.43379311284E+03  0.33277225853E+04  0.32993273769E+04 0.  0.
        2    1    3    3  502    0  0.89400150716E+03  0.12842453923E+04  0.30996426970E+03  0.15951811091E+04  0.25500000920E-02 0. -1.
       -2    1    3    3    0  502 -0.89400150716E+03 -0.12842453923E+04 -0.74375738254E+03  0.17325414761E+04  0.25500000920E-02 0.  1.
</event>
<event>
 5   0  0.2279938E-08  0.3291700E+04  0.7818609E-02  0.8165011E-01
       -1   -1    0    0    0  501  0.00000000000E+00  0.00000000000E+00  0.13327637702E+04  0.13327637702E+04  0.50400001928E-02 0.  1.
        1   -1    0    0  501    0  0.00000000000E+00  0.00000000000E+00 -0.20324844404E+04  0.20324844404E+04  0.50400001928E-02 0. -1.
    10030    2    1    2    0    0  0.00000000000E+00  0.00000000000E+00 -0.69972067027E+03  0.33652482106E+04  0.32916996373E+04 0.  0.
        3    1    3    3  502    0 -0.10759149614E+04  0.59029874238E+03 -0.14710763188E+04  0.19157534172E+04  0.10100000352E+00 0. -1.
       -3    1    3    3    0  502  0.10759149614E+04 -0.59029874238E+03  0.77135564853E+03  0.14494947934E+04  0.10100000352E+00 0.  1.
</event>
<event>
 5   0  0.6765252E-08  0.3300450E+04  0.7818609E-02  0.8162781E-01
       -2   -1    0    0    0  501  0.00000000000E+00  0.00000000000E+00  0.12576194610E+04  0.12576194610E+04  0.25500000920E-02 0. -1.
        2   -1    0    0  501    0  0.00000000000E+00  0.00000000000E+00 -0.21653943369E+04  0.21653943369E+04  0.25500000920E-02 0.  1.
    10030    2    1    2    0    0  0.00000000000E+00  0.00000000000E+00 -0.90777487591E+03  0.34230137979E+04  0.33004497019E+04 0.  0.
        2    1    3    3  502    0 -0.72688658002E+03 -0.14789653666E+04 -0.54394164603E+03  0.17353890544E+04  0.25500000920E-02 0.  1.
       -2    1    3    3    0  502  0.72688658002E+03  0.14789653666E+04 -0.36383322988E+03  0.16876247435E+04  0.25500000920E-02 0. -1.
</event>
<event>
 5   0  0.2383270E-08  0.3315981E+04  0.7818609E-02  0.8158841E-01
        1   -1    0    0  501    0  0.00000000000E+00  0.00000000000E+00  0.14591835473E+04  0.14591835473E+04  0.50400001928E-02 0. -1.
       -1   -1    0    0    0  501  0.00000000000E+00  0.00000000000E+00 -0.18838836026E+04  0.18838836026E+04  0.50400001928E-02 0.  1.
    10030    2    1    2    0    0  0.00000000000E+00  0.00000000000E+00 -0.42470005535E+03  0.33430671499E+04  0.33159806742E+04 0.  0.
        5    1    3    3  502    0 -0.16131637146E+03 -0.12548864745E+04 -0.12926188081E+04  0.18087698883E+04  0.46999998093E+01 0.  1.
       -5    1    3    3    0  502  0.16131637146E+03  0.12548864745E+04  0.86791875274E+03  0.15342972616E+04  0.46999998093E+01 0. -1.
</event>
<event>
 5   0  0.2309822E-08  0.3298779E+04  0.7818609E-02  0.8163206E-01
       -1   -1    0    0    0  501  0.00000000000E+00  0.00000000000E+00  0.99076541928E+03  0.99076541929E+03  0.50400001928E-02 0. -1.
        1   -1    0    0  501    0  0.00000000000E+00  0.00000000000E+00 -0.27458421173E+04  0.27458421173E+04  0.50400001928E-02 0.  1.
    10030    2    1    2    0    0  0.00000000000E+00  0.00000000000E+00 -0.17550766980E+04  0.37366075366E+04  0.32987788144E+04 0.  0.
        4    1    3    3  502    0  0.80841674643E+03  0.11856517746E+04  0.43510875586E+02  0.14356888854E+04  0.12699999809E+01 0. -1.
       -4    1    3    3    0  502 -0.80841674643E+03 -0.11856517746E+04 -0.17985875736E+04  0.23009186512E+04  0.12699999809E+01 0.  1.
</event>
<event>
 5   0  0.7084130E-08  0.3299608E+04  0.7818609E-02  0.8162995E-01
        2   -1    0    0  501    0  0.00000000000E+00  0.00000000000E+00  0.26555240196E+04  0.26555240196E+04  0.25500000920E-02 0.  1.
       -2   -1    0    0    0  501  0.00000000000E+00  0.00000000000E+00 -0.10249778009E+04  0.10249778009E+04  0.25500000920E-02 0. -1.
    10030    2    1    2    0    0  0.00000000000E+00  0.00000000000E+00  0.16305462187E+04  0.36805018204E+04  0.32996079583E+04 0.  0.
        3    1    3    3  502    0  0.72755338579E+03 -0.29084352276E+03  0.24347423819E+04  0.25577127204E+04  0.10100000352E+00 0.  1.
       -3    1    3    3    0  502 -0.72755338579E+03  0.29084352276E+03 -0.80419616320E+03  0.11227891000E+04  0.10100000352E+00 0. -1.
</event>
<event>
 5   0  0.2279938E-08  0.3299821E+04  0.7818609E-02  0.8162941E-01
        1   -1    0    0  501    0  0.00000000000E+00  0.00000000000E+00  0.25284276337E+04  0.25284276337E+04  0.50400001928E-02 0.  1.
       -1   -1    0    0    0  501  0.00000000000E+00  0.00000000000E+00 -0.10766393715E+04  0.10766393715E+04  0.50400001928E-02 0. -1.
    10030    2    1    2    0    0  0.00000000000E+00  0.00000000000E+00  0.14517882622E+04  0.36050670052E+04  0.32998210487E+04 0.  0.
        3    1    3    3  502    0 -0.64383276614E+03 -0.14318781075E+04  0.17160677674E+03  0.15793177139E+04  0.10100000352E+00 0. -1.
       -3    1    3    3    0  502  0.64383276614E+03  0.14318781075E+04  0.12801814854E+04  0.20257492913E+04  0.10100000352E+00 0.  1.
</event>
<event>
 5   0  0.2291682E-08  0.3303059E+04  0.7818609E-02  0.8162117E-01
        1   -1    0    0  501    0  0.00000000000E+00  0.00000000000E+00  0.20086105368E+04  0.20086105368E+04  0.50400001928E-02 0.  1.
       -1   -1    0    0    0  501  0.00000000000E+00  0.00000000000E+00 -0.13579286541E+04  0.13579286541E+04  0.50400001928E-02 0. -1.
    10030    2    1    2    0    0  0.00000000000E+00  0.00000000000E+00  0.65068188273E+03  0.33665391909E+04  0.33030590687E+04 0.  0.
        2    1    3    3  502    0 -0.92610966780E+03  0.57781044576E+03 -0.93783474734E+03  0.14391240535E+04  0.25500000920E-02 0. -1.
       -2    1    3    3    0  502  0.92610966780E+03 -0.57781044576E+03  0.15885166301E+04  0.19274151374E+04  0.25500000920E-02 0.  1.
</event>
<event>
 5   0  0.2291682E-08  0.3298723E+04  0.7818609E-02  0.8163220E-01
        1   -1    0    0  501    0  0.00000000000E+00  0.00000000000E+00  0.18910738296E+04  0.18910738296E+04  0.50400001928E-02 0. -1.
       -1   -1    0    0    0  501  0.00000000000E+00  0.00000000000E+00 -0.14385439773E+04  0.14385439773E+04  0.50400001928E-02 0.  1.
    10030    2    1    2    0    0  0.00000000000E+00  0.00000000000E+00  0.45252985224E+03  0.33296178069E+04  0.32987227032E+04 0.  0.
        2    1    3    3  502    0  0.28366396663E+03  0.29266367539E+03  0.18394435293E+04  0.18840567323E+04  0.25500000920E-02 0. -1.
       -2    1    3    3    0  502 -0.28366396663E+03 -0.29266367539E+03 -0.13869136771E+04  0.14455610746E+04  0.25500000920E-02 0.  1.
</event>
<event>
 5   0  0.6706080E-08  0.3308458E+04  0.7818609E-02  0.8160747E-01
        2   -1    0    0  501    0  0.00000000000E+00  0.00000000000E+00  0.16299135081E+04  0.16299135081E+04  0.25500000920E-02 0.  1.
       -2   -1    0    0    0  501  0.00000000000E+00  0.00000000000E+00 -0.16789073714E+04  0.16789073714E+04  0.25500000920E-02 0. -1.
    10030    2    1    2    0    0  0.00000000000E+00  0.00000000000E+00 -0.48993863255E+02  0.33088208795E+04  0.33084581324E+04 0.  0.
        4    1    3    3  502    0  0.23555362109E+02  0.22111470995E+03  0.16148977360E+04  0.16301358473E+04  0.12699999809E+01 0.  1.
       -4    1    3    3    0  502 -0.23555362109E+02 -0.22111470995E+03 -0.16638915993E+04  0.16786850321E+04  0.12699999809E+01 0. -1.
</event>
<event>
 5   0  0.2244093E-08  0.3312441E+04  0.7818609E-02  0.8159737E-01
        1   -1    0    0  501    0  0.00000000000E+00  0.00000000000E+00  0.26156360645E+04  0.26156360645E+04  0.50400001928E-02 0. -1.
       -1   -1    0    0    0  501  0.00000000000E+00  0.00000000000E+00 -0.10487187470E+04  0.10487187470E+04  0.50400001928E-02 0.  1.
    10030    2    1    2    0    0  0.00000000000E+00  0.00000000000E+00  0.15669173175E+04  0.36643548115E+04  0.33124411398E+04 0.  0.
        1    1    3    3  502    0  0.12772563605E+04 -0.66401316503E+03  0.16894747937E+04  0.22195995973E+04  0.50400001928E-02 0. -1.
       -1    1    3    3    0  502 -0.12772563605E+04  0.66401316503E+03 -0.12255747625E+03  0.14447552141E+04  0.50400001928E-02 0.  1.
</event>
<event>
 5   0  0.2244093E-08  0.3293575E+04  0.7818609E-02  0.8164532E-01
        1   -1    0    0  501    0  0.00000000000E+00  0.00000000000E+00  0.14056073052E+04  0.14056073052E+04  0.50400001928E-02 0.  1.
       -1   -1    0    0    0  501  0.00000000000E+00  0.00000000000E+00 -0.19293504196E+04  0.19293504196E+04  0.50400001928E-02 0. -1.
    10030    2    1    2    0    0  0.00000000000E+00  0.00000000000E+00 -0.52374311442E+03  0.33349577248E+04  0.32935749841E+04 0.  0.
        1    1    3    3  502    0  0.41526403228E+03 -0.11995478663E+04  0.80038058637E+03  0.15006559843E+04  0.50400001928E-02 0. -1.
       -1    1    3    3    0  502 -0.41526403228E+03  0.11995478663E+04 -0.13241237008E+04  0.18343017405E+04  0.50400001928E-02 0.  1.
</event>
<event>
 5   0  0.6821287E-08  0.3298488E+04  0.7818609E-02  0.8163280E-01
       -2   -1    0    0    0  501  0.00000000000E+00  0.00000000000E+00  0.96709069548E+03  0.96709069549E+03  0.25500000920E-02 0. -1.
        2   -1    0    0  501    0  0.00000000000E+00  0.00000000000E+00 -0.28125650792E+04  0.28125650792E+04  0.25500000920E-02 0.  1.
    10030    2    1    2    0    0  0.00000000000E+00  0.00000000000E+00 -0.18454743837E+04  0.37796557747E+04  0.32984878466E+04 0.  0.
        5    1    3    3  502    0  0.23605082862E+03 -0.13332357688E+04 -0.20017756797E+04  0.24166848307E+04  0.46999998093E+01 0.  1.
       -5    1    3    3    0  502 -0.23605082862E+03  0.13332357688E+04  0.15630129601E+03  0.13629709440E+04  0.46999998093E+01 0. -1.
</event>
<event>
 5   0  0.6603516E-08  0.3299549E+04  0.7818609E-02  0.8163010E-01
        2   -1    0    0  501    0  0.00000000000E+00  0.00000000000E+00  0.13599650514E+04  0.13599650514E+04  0.25500000920E-02 0. -1.
       -2   -1    0    0    0  501  0.00000000000E+00  0.00000000000E+00 -0.20013431180E+04  0.20013431180E+04  0.25500000920E-02 0.  1.
    10030    2    1    2    0    0  0.00000000000E+00  0.00000000000E+00 -0.64137806659E+03  0.33613081695E+04  0.32995494823E+04 0.  0.
        1    1    3    3  502    0 -0.15163087759E+04  0.45844960212E+03 -0.79017113024E+03  0.17702369211E+04  0.50400001928E-02 0.  1.
       -1    1    3    3    0  502  0.15163087759E+04 -0.45844960212E+03  0.14879306365E+03  0.15910712484E+04  0.50400001928E-02 0. -1.
</event>
<event>
 5   0  0.6603516E-08  0.3296555E+04  0.7818609E-02  0.8163772E-01
        2   -1    0    0  501    0  0.00000000000E+00  0.00000000000E+00  0.20488107494E+04  0.20488107494E+04  0.25500000920E-02 0.  1.
       -2   -1    0    0    0  501  0.00000000000E+00  0.00000000000E+00 -0.13260469233E+04  0.13260469233E+04  0.25500000920E-02 0. -1.
    10030    2    1    2    0    0  0.00000000000E+00  0.00000000000E+00  0.72276382607E+03  0.33748576727E+04  0.32965552874E+04 0.  0.
        1    1    3    3  502    0  0.25410153388E+03 -0.10571057571E+04 -0.90690650110E+03  0.14158105710E+04  0.50400001928E-02 0. -1.
       -1    1    3    3    0  502 -0.25410153388E+03  0.10571057571E+04  0.16296703272E+04  0.19590471017E+04  0.50400001928E-02 0.  1.
</event>
<event>
 5   0  0.2279938E-08  0.3297579E+04  0.7818609E-02  0.8163512E-01
       -1   -1    0    0    0  501  0.00000000000E+00  0.00000000000E+00  0.18252861597E+04  0.18252861597E+04  0.50400001928E-02 0.  1.
        1   -1    0    0  501    0  0.00000000000E+00  0.00000000000E+00 -0.14893596857E+04  0.14893596857E+04  0.50400001928E-02 0. -1.
    10030    2    1    2    0    0  0.00000000000E+00  0.00000000000E+00  0.33592647400E+03  0.33146458453E+04  0.32975794887E+04 0.  0.
        3    1    3    3  502    0  0.47655856761E+03  0.54756532501E+03  0.16560207171E+04  0.18081317649E+04  0.10100000352E+00 0.  1.
       -3    1    3    3    0  502 -0.47655856761E+03 -0.54756532501E+03 -0.13200942431E+04  0.15065140804E+04  0.10100000352E+00 0. -1.
</event>
<event>
 5   0  0.6821287E-08  0.3299153E+04  0.7818609E-02  0.8163111E-01
       -2   -1    0    0    0  501  0.00000000000E+00  0.00000000000E+00  0.93187888907E+03  0.93187888908E+03  0.25500000920E-02 0.  1.
        2   -1    0    0  501    0  0.00000000000E+00  0.00000000000E+00 -0.29200179424E+04  0.29200179424E+04  0.25500000920E-02 0. -1.
    10030    2    1    2    0    0  0.00000000000E+00  0.00000000000E+00 -0.19881390533E+04  0.38518968315E+04  0.32991532709E+04 0.  0.
        5    1    3    3  502    0  0.53425027004E+03  0.22470720729E+03  0.80907818476E+03  0.99526191482E+03  0.46999998093E+01 0.  1.
       -5    1    3    3    0  502 -0.53425027004E+03 -0.22470720729E+03 -0.27972172381E+04  0.28566349166E+04  0.46999998093E+01 0. -1.
</event>
<event>
 5   0  0.6765252E-08  0.3288300E+04  0.7818609E-02  0.8165879E-01
        2   -1    0    0  501    0  0.00000000000E+00  0.00000000000E+00  0.20176347248E+04  0.20176347248E+04  0.25500000920E-02 0. -1.
       -2   -1    0    0    0  501  0.00000000000E+00  0.00000000000E+00 -0.13398010160E+04  0.13398010160E+04  0.25500000920E-02 0.  1.
    10030    2    1    2    0    0  0.00000000000E+00  0.00000000000E+00  0.67783370876E+03  0.33574357409E+04  0.32882998977E+04 0.  0.
        2    1    3    3  502    0 -0.58171846049E+03 -0.15302291482E+04  0.18329364628E+03  0.16472990543E+04  0.25500000920E-02 0.  1.
       -2    1    3    3    0  502  0.58171846049E+03  0.15302291482E+04  0.49454006248E+03  0.17101366866E+04  0.25500000920E-02 0. -1.
</event>
<event>
 5   0  0.2383270E-08  0.3301481E+04  0.7818609E-02  0.8162519E-01
       -1   -1    0    0    0  501  0.00000000000E+00  0.00000000000E+00  0.31872645890E+04  0.31872645890E+04  0.50400001928E-02 0. -1.
        1   -1    0    0  501    0  0.00000000000E+00  0.00000000000E+00 -0.85494745844E+03  0.85494745845E+03  0.50400001928E-02 0.  1.
    10030    2    1    2    0    0  0.00000000000E+00  0.00000000000E+00  0.23323171305E+04  0.40422120474E+04  0.33014807343E+04 0.  0.
        5    1    3    3  502    0 -0.13393018111E+04  0.57386217967E+03  0.21629045702E+03  0.14730413416E+04  0.46999998093E+01 0.  1.
       -5    1    3    3    0  502  0.13393018111E+04 -0.57386217967E+03  0.21160266735E+04  0.25691707058E+04  0.46999998093E+01 0. -1.
</event>
<event>
 5   0  0.6603516E-08  0.3297919E+04  0.7818609E-02  0.8163425E-01
        2   -1    0    0  501    0  0.00000000000E+00  0.00000000000E+00  0.24771395351E+04  0.24771395351E+04  0.25500000920E-02 0.  1.
       -2   -1    0    0    0  501  0.00000000000E+00  0.00000000000E+00 -0.10976641747E+04  0.10976641747E+04  0.25500000920E-02 0. -1.
    10030    2    1    2    0    0  0.00000000000E+00  0.00000000000E+00  0.13794753605E+04  0.35748037098E+04  0.32979189337E+04 0.  0.
        1    1    3    3  502    0 -0.10177811537E+03 -0.10258700729E+03 -0.10907871768E+04  0.11003179285E+04  0.50400001928E-02 0. -1.
       -1    1    3    3    0  502  0.10177811537E+03  0.10258700729E+03  0.24702625372E+04  0.24744857813E+04  0.50400001928E-02 0.  1.
</event>
<event>
 5   0  0.6706080E-08  0.3300760E+04  0.7818609E-02  0.8162702E-01
       -2   -1    0    0    0  501  0.00000000000E+00  0.00000000000E+00  0.17776477567E+04  0.17776477567E+04  0.25500000920E-02 0.  1.
        2   -1    0    0  501    0  0.00000000000E+00  0.00000000000E+00 -0.15322241159E+04  0.15322241159E+04  0.25500000920E-02 0. -1.
    10030    2    1    2    0    0  0.00000000000E+00  0.00000000000E+00  0.24542364079E+03  0.33098718725E+04  0.33007603744E+04 0.  0.
        4    1    3    3  502    0  0.33360944722E+03 -0.77071506438E+03 -0.13019338007E+04  0.15492999090E+04  0.12699999809E+01 0. -1.
       -4    1    3    3    0  502 -0.33360944722E+03  0.77071506438E+03  0.15473574415E+04  0.17605719635E+04  0.12699999809E+01 0.  1.
</event>
<event>
 5   0  0.6603516E-08  0.3299711E+04  0.7818609E-02  0.8162969E-01
       -2   -1    0    0    0  501  0.00000000000E+00  0.00000000000E+00  0.95897435586E+03  0.95897435586E+03  0.25500000920E-02 0. -1.
        2   -1    0    0  501    0  0.00000000000E+00  0.00000000000E+00 -0.28384739364E+04  0.28384739364E+04  0.25500000920E-02 0.  1.
    10030    2    1    2    0    0  0.00000000000E+00  0.00000000000E+00 -0.18794995805E+04  0.37974482922E+04  0.32997113297E+04 0.  0.
        1    1    3    3  502    0 -0.12642445755E+04 -0.40966963335E+03 -0.20649184964E+04  0.24556123375E+04  0.50400001928E-02 0.  1.
       -1    1    3    3    0  502  0.12642445755E+04  0.40966963335E+03  0.18541891586E+03  0.13418359548E+04  0.50400001928E-02 0. -1.
</event>
<event>
 5   0  0.6765252E-08  0.3300820E+04  0.7818609E-02  0.8162687E-01
        2   -1    0    0  501    0  0.00000000000E+00  0.00000000000E+00  0.23065929810E+04  0.23065929810E+04  0.25500000920E-02 0. -1.
       -2   -1    0    0    0  501  0.00000000000E+00  0.00000000000E+00 -0.11808987778E+04  0.11808987778E+04  0.25500000920E-02 0.  1.
    10030    2    1    2    0    0  0.00000000000E+00  0.00000000000E+00  0.11256942032E+04  0.34874917588E+04  0.33008197964E+04 0.  0.
        2    1    3    3  502    0 -0.12680994393E+04  0.83045258365E+03 -0.12685247371E+03  0.15211243314E+04  0.25500000920E-02 0.  1.
       -2    1    3    3    0  502  0.12680994393E+04 -0.83045258365E+03  0.12525466769E+04  0.19663674273E+04  0.25500000920E-02 0. -1.
</event>
<event>
 5   0  0.2291682E-08  0.3301140E+04  0.7818609E-02  0.8162605E-01
        1   -1    0    0  501    0  0.00000000000E+00  0.00000000000E+00  0.13490740997E+04  0.13490740997E+04  0.50400001928E-02 0. -1.
       -1   -1    0    0    0  501  0.00000000000E+00  0.00000000000E+00 -0.20194457741E+04  0.20194457741E+04  0.50400001928E-02 0.  1.
    10030    2    1    2    0    0  0.00000000000E+00  0.00000000000E+00 -0.67037167445E+03  0.33685198738E+04  0.33011404027E+04 0.  0.
        2    1    3    3  502    0 -0.15373137810E+04  0.70431783435E+02 -0.94409652862E+03  0.18054397117E+04  0.25500000920E-02 0.  1.
       -2    1    3    3    0  502  0.15373137810E+04 -0.70431783435E+02  0.27372485417E+03  0.15630801621E+04  0.25500000920E-02 0. -1.
</event>
<event>
 5   0  0.2291682E-08  0.3299949E+04  0.7818609E-02  0.8162908E-01
       -1   -1    0    0    0  501  0.00000000000E+00  0.00000000000E+00  0.14031465622E+04  0.14031465622E+04  0.50400001928E-02 0. -1.
        1   -1    0    0  501    0  0.00000000000E+00  0.00000000000E+00 -0.19402222180E+04  0.19402222181E+04  0.50400001928E-02 0.  1.
    10030    2    1    2    0    0  0.00000000000E+00  0.00000000000E+00 -0.53707565584E+03  0.33433687803E+04  0.32999491725E+04 0.  0.
        2    1    3    3  502    0 -0.15477056641E+04  0.45096269209E+03  0.87736528132E+02  0.16144528085E+04  0.25500000920E-02 0.  1.
       -2    1    3    3    0  502  0.15477056641E+04 -0.45096269209E+03 -0.62481218398E+03  0.17289159718E+04  0.25500000920E-02 0. -1.
</event>
<event>
 5   0  0.6603516E-08  0.3299001E+04  0.7818609E-02  0.8163150E-01
        2   -1    0    0  501    0  0.00000000000E+00  0.00000000000E+00  0.24389630730E+04  0.24389630730E+04  0.25500000920E-02 0.  1.
       -2   -1    0    0    0  501  0.00000000000E+00  0.00000000000E+00 -0.11155774514E+04  0.11155774514E+04  0.25500000920E-02 0. -1.
    10030    2    1    2    0    0  0.00000000000E+00  0.00000000000E+00  0.13233856216E+04  0.35545405244E+04  0.32990011877E+04 0.  0.
        1    1    3    3  502    0  0.34363392663E+03 -0.15029708936E+04  0.29887524059E+02  0.15420437888E+04  0.50400001928E-02 0.  1.
       -1    1    3    3    0  502 -0.34363392663E+03  0.15029708936E+04  0.12934980976E+04  0.20124967356E+04  0.50400001928E-02 0. -1.
</event>
<event>
 5   0  0.2244093E-08  0.3294708E+04  0.7818609E-02  0.8164243E-01
       -1   -1    0    0    0  501  0.00000000000E+00  0.00000000000E+00  0.13834184205E+04  0.13834184205E+04  0.50400001928E-02 0.  1.
        1   -1    0    0  501    0  0.00000000000E+00  0.00000000000E+00 -0.19616444303E+04  0.19616444303E+04  0.50400001928E-02 0. -1.
    10030    2    1    2    0    0  0.00000000000E+00  0.00000000000E+00 -0.57822600980E+03  0.33450628508E+04  0.32947079017E+04 0.  0.
        1    1    3    3  502    0  0.94834875812E+02 -0.11978712952E+04  0.85500201992E+03  0.14747602339E+04  0.50400001928E-02 0.  1.
       -1    1    3    3    0  502 -0.94834875812E+02  0.11978712952E+04 -0.14332280297E+04  0.18703026169E+04  0.50400001928E-02 0. -1.
</event>
<event>
 5   0  0.2383270E-08  0.3298956E+04  0.7818609E-02  0.8163161E-01
        1   -1    0    0  501    0  0.00000000000E+00  0.00000000000E+00  0.25975841719E+04  0.25975841719E+04  0.50400001928E-02 0.  1.
       -1   -1    0    0    0  501  0.00000000000E+00  0.00000000000E+00 -0.10474264309E+04  0.10474264309E+04  0.50400001928E-02 0. -1.
    10030    2    1    2    0    0  0.00000000000E+00  0.00000000000E+00  0.15501577410E+04  0.36450106028E+04  0.32989563914E+04 0.  0.
        5    1    3    3  502    0 -0.48691551733E+03  0.73381925050E+03 -0.76591881610E+03  0.11671465787E+04  0.46999998093E+01 0. -1.
       -5    1    3    3    0  502  0.48691551733E+03 -0.73381925050E+03  0.23160765571E+04  0.24778640240E+04  0.46999998093E+01 0.  1.
</event>
<event>
 5   0  0.6603516E-08  0.3299882E+04  0.7818609E-02  0.8162925E-01
       -2   -1    0    0    0  501  0.00000000000E+00  0.00000000000E+00  0.19018584281E+04  0.19018584281E+04  0.25500000920E-02 0. -1.
        2   -1    0    0  501    0  0.00000000000E+00  0.00000000000E+00 -0.14313921537E+04  0.14313921537E+04  0.25500000920E-02 0.  1.
    10030    2    1    2    0    0  0.00000000000E+00  0.00000000000E+00  0.47046627447E+03  0.33332505818E+04  0.32998819563E+04 0.  0.
        1    1    3    3  502    0 -0.10404660689E+04 -0.12343111657E+04  0.57957845493E+03  0.17152273551E+04  0.50400001928E-02 0. -1.
       -1    1    3    3    0  502  0.10404660689E+04  0.12343111657E+04 -0.10911218046E+03  0.16180232267E+04  0.50400001928E-02 0.  1.
</event>
<event>
 5   0  0.2309822E-08  0.3300311E+04  0.7818609E-02  0.8162816E-01
       -1   -1    0    0    0  501  0.00000000000E+00  0.00000000000E+00  0.13943822597E+04  0.13943822597E+04  0.50400001928E-02 0. -1.
        1   -1    0    0  501    0  0.00000000000E+00  0.00000000000E+00 -0.19528458089E+04  0.19528458089E+04  0.50400001928E-02 0.  1.
    10030    2    1    2    0    0  0.00000000000E+00  0.00000000000E+00 -0.55846354915E+03  0.33472280686E+04  0.33003112289E+04 0.  0.
        4    1    3    3  502    0  0.71097231014E+03  0.38295009947E+03 -0.17387442978E+04  0.19171243441E+04  0.12699999809E+01 0.  1.
       -4    1    3    3    0  502 -0.71097231014E+03 -0.38295009947E+03  0.11802807487E+04  0.14301037246E+04  0.12699999809E+01 0. -1.
</event>
<event>
 5   0  0.6765252E-08  0.3308510E+04  0.7818609E-02  0.8160733E-01
        2   -1    0    0  501    0  0.00000000000E+00  0.00000000000E+00  0.20189704306E+04  0.20189704306E+04  0.25500000920E-02 0.  1.
       -2   -1    0    0    0  501  0.00000000000E+00  0.00000000000E+00 -0.13554233342E+04  0.13554233342E+04  0.25500000920E-02 0. -1.
    10030    2    1    2    0    0  0.00000000000E+00  0.00000000000E+00  0.66354709638E+03  0.33743937648E+04  0.33085100167E+04 0.  0.
        2    1    3    3  502    0 -0.16455981798E+03  0.15146829282E+04 -0.32543014278E+03  0.15579631204E+04  0.25500000920E-02 0. -1.
       -2    1    3    3    0  502  0.16455981798E+03 -0.15146829282E+04  0.98897723916E+03  0.18164306445E+04  0.25500000920E-02 0.  1.
</event>
<event>
 5   0  0.2309822E-08  0.3300175E+04  0.7818609E-02  0.8162851E-01
        1   -1    0    0  501    0  0.00000000000E+00  0.00000000000E+00  0.30023038410E+04  0.30023038410E+04  0.50400001928E-02 0. -1.
       -1   -1    0    0    0  501  0.00000000000E+00  0.00000000000E+00 -0.90689959414E+03  0.90689959415E+03  0.50400001928E-02 0.  1.
    10030    2    1    2    0    0  0.00000000000E+00  0.00000000000E+00  0.20954042468E+04  0.39092034351E+04  0.33001746226E+04 0.  0.
        4    1    3    3  502    0 -0.13267259851E+04 -0.20826335488E+03  0.21833899519E+04  0.25633510800E+04  0.12699999809E+01 0. -1.
       -4    1    3    3    0  502  0.13267259851E+04  0.20826335488E+03 -0.87985705053E+02  0.13458523551E+04  0.12699999809E+01 0.  1.
</event>
<event>
 5   0  0.2244093E-08  0.3299758E+04  0.7818609E-02  0.8162957E-01
       -1   -1    0    0    0  501  0.00000000000E+00  0.00000000000E+00  0.19162822983E+04  0.19162822983E+04  0.50400001928E-02 0.  1.
        1   -1    0    0  501    0  0.00000000000E+00  0.00000000000E+00 -0.14205110973E+04  0.14205110973E+04  0.50400001928E-02 0. -1.
    10030    2    1    2    0    0  0.00000000000E+00  0.00000000000E+00  0.49577120103E+03  0.33367933956E+04  0.32997577306E+04 0.  0.
        1    1    3    3  502    0  0.39940180424E+03 -0.11467052730E+04  0.13774028355E+04  0.18362171319E+04  0.50400001928E-02 0.  1.
       -1    1    3    3    0  502 -0.39940180424E+03  0.11467052730E+04 -0.88163163442E+03  0.15005762637E+04  0.50400001928E-02 0. -1.
</event>
<event>
 5   0  0.6821287E-08  0.3301477E+04  0.7818609E-02  0.8162520E-01
        2   -1    0    0  501    0  0.00000000000E+00  0.00000000000E+00  0.19030816407E+04  0.19030816407E+04  0.25500000920E-02 0. -1.
       -2   -1    0    0    0  501  0.00000000000E+00  0.00000000000E+00 -0.14318557200E+04  0.14318557200E+04  0.25500000920E-02 0.  1.
    10030    2    1    2    0    0  0.00000000000E+00  0.00000000000E+00  0.47122592065E+03  0.33349373607E+04  0.33014774468E+04 0.  0.
        5    1    3    3  502    0  0.12965444847E+04 -0.99733631014E+03  0.45969202936E+03  0.16991310039E+04  0.46999998093E+01 0.  1.
       -5    1    3    3    0  502 -0.12965444847E+04  0.99733631014E+03  0.11533891290E+02  0.16358063568E+04  0.46999998093E+01 0. -1.
</event>
<event>
 5   0  0.2279938E-08  0.3298822E+04  0.7818609E-02  0.8163195E-01
       -1   -1    0    0    0  501  0.00000000000E+00  0.00000000000E+00  0.11575824817E+04  0.11575824817E+04  0.50400001928E-02 0.  1.
        1   -1    0    0  501    0  0.00000000000E+00  0.00000000000E+00 -0.23502053646E+04  0.23502053646E+04  0.50400001928E-02 0. -1.
    10030    2    1    2    0    0  0.00000000000E+00  0.00000000000E+00 -0.11926228830E+04  0.35077878463E+04  0.32988219463E+04 0.  0.
        3    1    3    3  502    0 -0.11756848170E+04 -0.11512193500E+04 -0.47499788449E+03  0.17126481778E+04  0.10100000352E+00 0.  1.
       -3    1    3    3    0  502  0.11756848170E+04  0.11512193500E+04 -0.71762499847E+03  0.17951396685E+04  0.10100000352E+00 0. -1.
</event>
<event>
 5   0  0.2279938E-08  0.3299420E+04  0.7818609E-02  0.8163043E-01
        1   -1    0    0  501    0  0.00000000000E+00  0.00000000000E+00  0.13607336731E+04  0.13607336731E+04  0.50400001928E-02 0. -1.
       -1   -1    0    0    0  501  0.00000000000E+00  0.00000000000E+00 -0.20000561712E+04  0.20000561712E+04  0.50400001928E-02 0.  1.
    10030    2    1    2    0    0  0.00000000000E+00  0.00000000000E+00 -0.63932249811E+03  0.33607898444E+04  0.32994204221E+04 0.  0.
        3    1    3    3  502    0 -0.73137491077E+02 -0.95732097628E+03  0.10468321053E+04  0.14204471166E+04  0.10100000352E+00 0. -1.
       -3    1    3    3    0  502  0.73137491077E+02  0.95732097628E+03 -0.16861546034E+04  0.19403427277E+04  0.10100000352E+00 0.  1.
</event>
<event>
 5   0  0.6765252E-08  0.3300252E+04  0.7818609E-02  0.8162831E-01
       -2   -1    0    0    0  501  0.00000000000E+00  0.00000000000E+00  0.14782775469E+04  0.14782775469E+04  0.25500000920E-02 0.  1.
        2   -1    0    0  501    0  0.00000000000E+00  0.00000000000E+00 -0.18419518888E+04  0.18419518888E+04  0.25500000920E-02 0. -1.
    10030    2    1    2    0    0  0.00000000000E+00  0.00000000000E+00 -0.36367434189E+03  0.33202294356E+04  0.33002521840E+04 0.  0.
        2    1    3    3  502    0  0.22833556242E+03  0.14950221465E+04  0.48222486707E+03  0.15873780804E+04  0.25500000920E-02 0.  1.
       -2    1    3    3    0  502 -0.22833556242E+03 -0.14950221465E+04 -0.84589920897E+03  0.17328513552E+04  0.25500000920E-02 0. -1.
</event>
<event>
 5   0  0.6706080E-08  0.3299151E+04  0.7818609E-02  0.8163112E-01
       -2   -1    0    0    0  501  0.00000000000E+00  0.00000000000E+00  0.17695284099E+04  0.17695284099E+04  0.25500000920E-02 0.  1.
        2   -1    0    0  501    0  0.00000000000E+00  0.00000000000E+00 -0.15377536138E+04  0.15377536138E+04  0.25500000920E-02 0. -1.
    10030    2    1    2    0    0  0.00000000000E+00  0.00000000000E+00  0.23177479610E+03  0.33072820238E+04  0.32991506223E+04 0.  0.
        4    1    3    3  502    0 -0.14564944249E+03 -0.13688924604E+04  0.10269820931E+04  0.17174906581E+04  0.12699999809E+01 0.  1.
       -4    1    3    3    0  502  0.14564944249E+03  0.13688924604E+04 -0.79520729696E+03  0.15897913657E+04  0.12699999809E+01 0. -1.
</event>
<event>
 5   0  0.2279938E-08  0.3299694E+04  0.7818609E-02  0.8162973E-01
       -1   -1    0    0    0  501  0.00000000000E+00  0.00000000000E+00  0.11978504396E+04  0.11978504397E+04  0.50400001928E-02 0.  1.
        1   -1    0    0  501    0  0.00000000000E+00  0.00000000000E+00 -0.22723992591E+04  0.22723992591E+04  0.50400001928E-02 0. -1.
    10030    2    1    2    0    0  0.00000000000E+00  0.00000000000E+00 -0.10745488194E+04  0.34702496987E+04  0.32996935928E+04 0.  0.
        3    1    3    3  502    0 -0.84510115595E+03  0.30284123204E+03 -0.19930504680E+04  0.21859000329E+04  0.10100000352E+00 0. -1.
       -3    1    3    3    0  502  0.84510115595E+03 -0.30284123204E+03  0.91850164856E+03  0.12843496659E+04  0.10100000352E+00 0.  1.
</event>
<event>
 5   0  0.6765252E-08  0.3300088E+04  0.7818609E-02  0.8162873E-01
        2   -1    0    0  501    0  0.00000000000E+00  0.00000000000E+00  0.16731316733E+04  0.16731316733E+04  0.25500000920E-02 0.  1.
       -2   -1    0    0    0  501  0.00000000000E+00  0.00000000000E+00 -0.16272751658E+04  0.16272751658E+04  0.25500000920E-02 0. -1.
    10030    2    1    2    0    0  0.00000000000E+00  0.00000000000E+00  0.45856507541E+02  0.33004068392E+04  0.33000882541E+04 0.  0.
        2    1    3    3  502    0 -0.19283315812E+02  0.43903506294E+03  0.16135288962E+04  0.16723035405E+04  0.25500000920E-02 0.  1.
       -2    1    3    3    0  502  0.19283315812E+02 -0.43903506294E+03 -0.15676723887E+04  0.16281032986E+04  0.25500000920E-02 0. -1.
</event>
<event>
 5   0  0.6706080E-08  0.3301498E+04  0.7818609E-02  0.8162514E-01
       -2   -1    0    0    0  501  0.00000000000E+00  0.00000000000E+00  0.13607552604E+04  0.13607552604E+04  0.25500000920E-02 0. -1.
        2   -1    0    0  501    0  0.00000000000E+00  0.00000000000E+00 -0.20025440826E+04  0.20025440826E+04  0.25500000920E-02 0.  1.
    10030    2    1    2    0    0  0.00000000000E+00  0.00000000000E+00 -0.64178882220E+03  0.33632993430E+04  0.33014980809E+04 0.  0.
        4    1    3    3  502    0  0.71249239866E+03 -0.66360908700E+03  0.10370809014E+04  0.14225191905E+04  0.12699999809E+01 0. -1.
       -4    1    3    3    0  502 -0.71249239866E+03  0.66360908700E+03 -0.16788697236E+04  0.19407801525E+04  0.12699999809E+01 0.  1.
</event>
<event>
 5   0  0.7084130E-08  0.3299850E+04  0.7818609E-02  0.8162934E-01
       -2   -1    0    0    0  501  0.00000000000E+00  0.00000000000E+00  0.10237951714E+04  0.10237951714E+04  0.25500000920E-02 0.  1.
        2   -1    0    0  501    0  0.00000000000E+00  0.00000000000E+00 -0.26589816993E+04  0.26589816993E+04  0.25500000920E-02 0. -1.
    10030    2    1    2    0    0  0.00000000000E+00  0.00000000000E+00 -0.16351865279E+04  0.36827768707E+04  0.32998500722E+04 0.  0.
        3    1    3    3  502    0 -0.14276793845E+04 -0.44242130271E+02  0.10409047712E+03  0.14321524460E+04  0.10100000352E+00 0.  1.
       -3    1    3    3    0  502  0.14276793845E+04  0.44242130271E+02 -0.17392770050E+04  0.22506244247E+04  0.10100000352E+00 0. -1.
</event>
<event>
 5   0  0.2279938E-08  0.3299631E+04  0.7818609E-02  0.8162989E-01
        1   -1    0    0  501    0  0.00000000000E+00  0.00000000000E+00  0.11734577096E+04  0.11734577096E+04  0.50400001928E-02 0. -1.
       -1   -1    0    0    0  501  0.00000000000E+00  0.00000000000E+00 -0.23195473343E+04  0.23195473343E+04  0.50400001928E-02 0.  1.
    10030    2    1    2    0    0  0.00000000000E+00  0.00000000000E+00 -0.11460896247E+04  0.34930050439E+04  0.32996307079E+04 0.  0.
        3    1    3    3  502    0 -0.11253876140E+04 -0.86410517520E+03 -0.14642339604E+04  0.20389105269E+04  0.10100000352E+00 0.  1.
       -3    1    3    3    0  502  0.11253876140E+04  0.86410517520E+03  0.31814433577E+03  0.14540945170E+04  0.10100000352E+00 0. -1.
</event>
<event>
 5   0  0.6765252E-08  0.3300417E+04  0.7818609E-02  0.8162789E-01
        2   -1    0    0  501    0  0.00000000000E+00  0.00000000000E+00  0.17213045256E+04  0.17213045256E+04  0.25500000920E-02 0. -1.
       -2   -1    0    0    0  501  0.00000000000E+00  0.00000000000E+00 -0.15820485735E+04  0.15820485735E+04  0.25500000920E-02 0.  1.
    10030    2    1    2    0    0  0.00000000000E+00  0.00000000000E+00  0.13925595209E+03  0.33033530990E+04  0.33004165611E+04 0.  0.
        2    1    3    3  502    0 -0.10854933518E+04 -0.11271126154E+04 -0.45477397737E+03  0.16295698927E+04  0.25500000920E-02 0.  1.
       -2    1    3    3    0  502  0.10854933518E+04  0.11271126154E+04  0.59402992946E+03  0.16737832063E+04  0.25500000920E-02 0. -1.
</event>
<event>
 5   0  0.2200750E-08  0.3303141E+04  0.7818609E-02  0.8162097E-01
        3   -1    0    0  501    0  0.00000000000E+00  0.00000000000E+00  0.17025667340E+04  0.17025667370E+04  0.10100000352E+00 0. -1.
       -3   -1    0    0    0  501  0.00000000000E+00  0.00000000000E+00 -0.16021015203E+04  0.16021015235E+04  0.10100000352E+00 0.  1.
    10030    2    1    2    0    0  0.00000000000E+00  0.00000000000E+00  0.10046521373E+03  0.33046682605E+04  0.33031407861E+04 0.  0.
        4    1    3    3  502    0 -0.11549595549E+04  0.91468753817E+03 -0.69650271593E+03  0.16296326311E+04  0.12699999809E+01 0.  1.
       -4    1    3    3    0  502  0.11549595549E+04 -0.91468753817E+03  0.79696792966E+03  0.16750356294E+04  0.12699999809E+01 0. -1.
</event>
<event>
 5   0  0.2309822E-08  0.3299953E+04  0.7818609E-02  0.8162907E-01
        1   -1    0    0  501    0  0.00000000000E+00  0.00000000000E+00  0.22697184399E+04  0.22697184399E+04  0.50400001928E-02 0. -1.
       -1   -1    0    0    0  501  0.00000000000E+00  0.00000000000E+00 -0.11994535372E+04  0.11994535372E+04  0.50400001928E-02 0.  1.
    10030    2    1    2    0    0  0.00000000000E+00  0.00000000000E+00  0.10702649027E+04  0.34691719772E+04  0.32999526126E+04 0.  0.
        4    1    3    3  502    0  0.49187095903E+03 -0.34699716521E+03 -0.10798995494E+04  0.12363368160E+04  0.12699999809E+01 0.  1.
       -4    1    3    3    0  502 -0.49187095903E+03  0.34699716521E+03  0.21501644521E+04  0.22328351611E+04  0.12699999809E+01 0. -1.
</event>
<event>
 5   0  0.6765252E-08  0.3303355E+04  0.7818609E-02  0.8162042E-01
       -2   -1    0    0    0  501  0.00000000000E+00  0.00000000000E+00  0.10832517543E+04  0.10832517543E+04  0.25500000920E-02 0. -1.
        2   -1    0    0  501    0  0.00000000000E+00  0.00000000000E+00 -0.25183794165E+04  0.25183794165E+04  0.25500000920E-02 0.  1.
    10030    2    1    2    0    0  0.00000000000E+00  0.00000000000E+00 -0.14351276622E+04  0.36016311708E+04  0.33033552161E+04 0.  0.
        2    1    3    3  502    0 -0.98636654944E+03  0.13073914489E+04 -0.95101821199E+03  0.18938392249E+04  0.25500000920E-02 0.  1.
       -2    1    3    3    0  502  0.98636654944E+03 -0.13073914489E+04 -0.48410945018E+03  0.17077919458E+04  0.25500000920E-02 0. -1.
</event>
<event>
 5   0  0.2383270E-08  0.3281561E+04  0.7818609E-02  0.8167603E-01
       -1   -1    0    0    0  501  0.00000000000E+00  0.00000000000E+00  0.13498260359E+04  0.13498260359E+04  0.50400001928E-02 0. -1.
        1   -1    0    0  501    0  0.00000000000E+00  0.00000000000E+00 -0.19944506763E+04  0.19944506763E+04  0.50400001928E-02 0.  1.
    10030    2    1    2    0    0  0.00000000000E+00  0.00000000000E+00 -0.64462464044E+03  0.33442767122E+04  0.32815614882E+04 0.  0.
        5    1    3    3  502    0  0.75797123263E+03  0.36913033570E+03  0.11121975723E+04  0.13956300097E+04  0.46999998093E+01 0. -1.
       -5    1    3    3    0  502 -0.75797123263E+03 -0.36913033570E+03 -0.17568222127E+04  0.19486467025E+04  0.46999998093E+01 0.  1.
</event>
<event>
 5   0  0.2383270E-08  0.3300856E+04  0.7818609E-02  0.8162678E-01
       -1   -1    0    0    0  501  0.00000000000E+00  0.00000000000E+00  0.12402474959E+04  0.12402474959E+04  0.50400001928E-02 0.  1.
        1   -1    0    0  501    0  0.00000000000E+00  0.00000000000E+00 -0.21962658910E+04  0.21962658910E+04  0.50400001928E-02 0. -1.
    10030    2    1    2    0    0  0.00000000000E+00  0.00000000000E+00 -0.95601839511E+03  0.34365133869E+04  0.33008564171E+04 0.  0.
        5    1    3    3  502    0  0.11256376722E+04 -0.84523191777E+03 -0.13750547312E+04  0.19678096370E+04  0.46999998093E+01 0. -1.
       -5    1    3    3    0  502 -0.11256376722E+04  0.84523191777E+03  0.41903633607E+03  0.14687037499E+04  0.46999998093E+01 0.  1.
</event>
<event>
 5   0  0.2279938E-08  0.3302279E+04  0.7818609E-02  0.8162316E-01
       -1   -1    0    0    0  501  0.00000000000E+00  0.00000000000E+00  0.12202768565E+04  0.12202768565E+04  0.50400001928E-02 0.  1.
        1   -1    0    0  501    0  0.00000000000E+00  0.00000000000E+00 -0.22341336306E+04  0.22341336306E+04  0.50400001928E-02 0. -1.
    10030    2    1    2    0    0  0.00000000000E+00  0.00000000000E+00 -0.10138567741E+04  0.34544104872E+04  0.33022789488E+04 0.  0.
        3    1    3    3  502    0 -0.28632842061E+03  0.10550327837E+04  0.78748738362E+03  0.13472989752E+04  0.10100000352E+00 0.  1.
       -3    1    3    3    0  502  0.28632842061E+03 -0.10550327837E+04 -0.18013441577E+04  0.21071115119E+04  0.10100000352E+00 0. -1.
</event>
<event>
 5   0  0.2291682E-08  0.3300851E+04  0.7818609E-02  0.8162679E-01
       -1   -1    0    0    0  501  0.00000000000E+00  0.00000000000E+00  0.28823572459E+04  0.28823572459E+04  0.50400001928E-02 0. -1.
        1   -1    0    0  501    0  0.00000000000E+00  0.00000000000E+00 -0.94502637586E+03  0.94502637588E+03  0.50400001928E-02 0.  1.
    10030    2    1    2    0    0  0.00000000000E+00  0.00000000000E+00  0.19373308700E+04  0.38273836218E+04  0.33008505704E+04 0.  0.
        2    1    3    3  502    0 -0.95480204213E+03  0.39345859587E+03  0.24614459472E+04  0.26693019233E+04  0.25500000920E-02 0. -1.
       -2    1    3    3    0  502  0.95480204213E+03 -0.39345859587E+03 -0.52411507719E+03  0.11580816985E+04  0.25500000920E-02 0.  1.
</event>
<event>
 5   0  0.6821287E-08  0.3299952E+04  0.7818609E-02  0.8162908E-01
       -2   -1    0    0    0  501  0.00000000000E+00  0.00000000000E+00  0.24565634915E+04  0.24565634915E+04  0.25500000920E-02 0. -1.
        2   -1    0    0  501    0  0.00000000000E+00  0.00000000000E+00 -0.11082230034E+04  0.11082230034E+04  0.25500000920E-02 0.  1.
    10030    2    1    2    0    0  0.00000000000E+00  0.00000000000E+00  0.13483404881E+04  0.35647864950E+04  0.32999516182E+04 0.  0.
        5    1    3    3  502    0  0.76712972266E+03  0.50354404340E+03  0.21554793710E+04  0.23426818017E+04  0.46999998093E+01 0. -1.
       -5    1    3    3    0  502 -0.76712972266E+03 -0.50354404340E+03 -0.80713888290E+03  0.12221046933E+04  0.46999998093E+01 0.  1.
</event>
<event>
 5   0  0.2309822E-08  0.3305611E+04  0.7818609E-02  0.8161469E-01
       -1   -1    0    0    0  501  0.00000000000E+00  0.00000000000E+00  0.17706515815E+04  0.17706515815E+04  0.50400001928E-02 0. -1.
        1   -1    0    0  501    0  0.00000000000E+00  0.00000000000E+00 -0.15428026064E+04  0.15428026064E+04  0.50400001928E-02 0.  1.
    10030    2    1    2    0    0  0.00000000000E+00  0.00000000000E+00  0.22784897505E+03  0.33134541879E+04  0.33056109118E+04 0.  0.
        4    1    3    3  502    0 -0.75974231705E+03 -0.12437572246E+04 -0.66742735295E+03  0.16029976002E+04  0.12699999809E+01 0. -1.
       -4    1    3    3    0  502  0.75974231705E+03  0.12437572246E+04  0.89527632800E+03  0.17104565877E+04  0.12699999809E+01 0.  1.
</event>
<event>
 5   0  0.2383270E-08  0.3299369E+04  0.7818609E-02  0.8163056E-01
        1   -1    0    0  501    0  0.00000000000E+00  0.00000000000E+00  0.20317288700E+04  0.20317288700E+04  0.50400001928E-02 0. -1.
       -1   -1    0    0    0  501  0.00000000000E+00  0.00000000000E+00 -0.13394794937E+04  0.13394794937E+04  0.50400001928E-02 0.  1.
    10030    2    1    2    0    0  0.00000000000E+00  0.00000000000E+00  0.69224937627E+03  0.33712083637E+04  0.32993691264E+04 0.  0.
        5    1    3    3  502    0  0.78471197336E+03 -0.79975624989E+03  0.15832955762E+04  0.19396468523E+04  0.46999998093E+01 0. -1.
       -5    1    3    3    0  502 -0.78471197336E+03  0.79975624989E+03 -0.89104619988E+03  0.14315615113E+04  0.46999998093E+01 0.  1.
</event>
<event>
 5   0  0.6765252E-08  0.3299491E+04  0.7818609E-02  0.8163025E-01
       -2   -1    0    0    0  501  0.00000000000E+00  0.00000000000E+00  0.97917724002E+03  0.97917724002E+03  0.25500000920E-02 0. -1.
        2   -1    0    0  501    0  0.00000000000E+00  0.00000000000E+00 -0.27795379654E+04  0.27795379654E+04  0.25500000920E-02 0.  1.
    10030    2    1    2    0    0  0.00000000000E+00  0.00000000000E+00 -0.18003607254E+04  0.37587152055E+04  0.32994910599E+04 0.  0.
        2    1    3    3  502    0  0.11349838570E+04  0.85542368768E+03 -0.18544587665E+04  0.23364407456E+04  0.25500000920E-02 0.  1.
       -2    1    3    3    0  502 -0.11349838570E+04 -0.85542368768E+03  0.54098041065E+02  0.14222744599E+04  0.25500000920E-02 0. -1.
</event>
<event>
 5   0  0.2291682E-08  0.3296720E+04  0.7818609E-02  0.8163731E-01
       -1   -1    0    0    0  501  0.00000000000E+00  0.00000000000E+00  0.17656400202E+04  0.17656400202E+04  0.50400001928E-02 0. -1.
        1   -1    0    0  501    0  0.00000000000E+00  0.00000000000E+00 -0.15388697949E+04  0.15388697949E+04  0.50400001928E-02 0.  1.
    10030    2    1    2    0    0  0.00000000000E+00  0.00000000000E+00  0.22677022524E+03  0.33045098151E+04  0.32967196397E+04 0.  0.
        2    1    3    3  502    0  0.22802251637E+03  0.49399705766E+03 -0.14462681294E+04  0.15452245349E+04  0.25500000920E-02 0.  1.
       -2    1    3    3    0  502 -0.22802251637E+03 -0.49399705766E+03  0.16730383547E+04  0.17592852802E+04  0.25500000920E-02 0. -1.
</event>
<event>
 5   0  0.6821287E-08  0.3300263E+04  0.7818609E-02  0.8162828E-01
       -2   -1    0    0    0  501  0.00000000000E+00  0.00000000000E+00  0.15012296362E+04  0.15012296362E+04  0.25500000920E-02 0.  1.
        2   -1    0    0  501    0  0.00000000000E+00  0.00000000000E+00 -0.18138028693E+04  0.18138028693E+04  0.25500000920E-02 0. -1.
    10030    2    1    2    0    0  0.00000000000E+00  0.00000000000E+00 -0.31257323311E+03  0.33150325055E+04  0.33002633966E+04 0.  0.
        5    1    3    3  502    0 -0.61510153734E+03 -0.13785609669E+04 -0.82570149940E+03  0.17206351434E+04  0.46999998093E+01 0. -1.
       -5    1    3    3    0  502  0.61510153734E+03  0.13785609669E+04  0.51312826629E+03  0.15943973621E+04  0.46999998093E+01 0.  1.
</event>
<event>
 5   0  0.2244093E-08  0.3300551E+04  0.7818609E-02  0.8162755E-01
        1   -1    0    0  501    0  0.00000000000E+00  0.00000000000E+00  0.21800515098E+04  0.21800515098E+04  0.50400001928E-02 0. -1.
       -1   -1    0    0    0  501  0.00000000000E+00  0.00000000000E+00 -0.12492405842E+04  0.12492405842E+04  0.50400001928E-02 0.  1.
    10030    2    1    2    0    0  0.00000000000E+00  0.00000000000E+00  0.93081092553E+03  0.34292920940E+04  0.33005507551E+04 0.  0.
        1    1    3    3  502    0 -0.15377584207E+04 -0.19717111100E+03  0.10530011802E+04  0.18741368394E+04  0.50400001928E-02 0.  1.
       -1    1    3    3    0  502  0.15377584207E+04  0.19717111100E+03 -0.12219025464E+03  0.15551552546E+04  0.50400001928E-02 0. -1.
</event>
<event>
 5   0  0.7084130E-08  0.3299014E+04  0.7818609E-02  0.8163146E-01
       -2   -1    0    0    0  501  0.00000000000E+00  0.00000000000E+00  0.14376809402E+04  0.14376809402E+04  0.25500000920E-02 0.  1.
        2   -1    0    0  501    0  0.00000000000E+00  0.00000000000E+00 -0.18925437724E+04  0.18925437724E+04  0.25500000920E-02 0. -1.
    10030    2    1    2    0    0  0.00000000000E+00  0.00000000000E+00 -0.45486283225E+03  0.33302247126E+04  0.32990144650E+04 0.  0.
        3    1    3    3  502    0 -0.85648112080E+03  0.66538238187E+03 -0.14820005253E+04  0.18364692188E+04  0.10100000352E+00 0. -1.
       -3    1    3    3    0  502  0.85648112080E+03 -0.66538238187E+03  0.10271376931E+04  0.14937554938E+04  0.10100000352E+00 0.  1.
</event>
<event>
 5   0  0.6821287E-08  0.3301127E+04  0.7818609E-02  0.8162609E-01
       -2   -1    0    0    0  501  0.00000000000E+00  0.00000000000E+00  0.15177862152E+04  0.15177862152E+04  0.25500000920E-02 0.  1.
        2   -1    0    0  501    0  0.00000000000E+00  0.00000000000E+00 -0.17949564294E+04  0.17949564294E+04  0.25500000920E-02 0. -1.
    10030    2    1    2    0    0  0.00000000000E+00  0.00000000000E+00 -0.27717021425E+03  0.33127426446E+04  0.33011271563E+04 0.  0.
        5    1    3    3  502    0  0.39326806486E+03  0.36866563561E+03 -0.17041269108E+04  0.17873569145E+04  0.46999998093E+01 0. -1.
       -5    1    3    3    0  502 -0.39326806486E+03 -0.36866563561E+03  0.14269566966E+04  0.15253857301E+04  0.46999998093E+01 0.  1.
</event>
<event>
 5   0  0.2244093E-08  0.3300649E+04  0.7818609E-02  0.8162730E-01
       -1   -1    0    0    0  501  0.00000000000E+00  0.00000000000E+00  0.14494239592E+04  0.14494239592E+04  0.50400001928E-02 0. -1.
        1   -1    0    0  501    0  0.00000000000E+00  0.00000000000E+00 -0.18790716423E+04  0.18790716423E+04  0.50400001928E-02 0.  1.
    10030    2    1    2    0    0  0.00000000000E+00  0.00000000000E+00 -0.42964768303E+03  0.33284956015E+04  0.33006493055E+04 0.  0.
        1    1    3    3  502    0  0.34985050174E+03  0.12652025587E+04  0.79383388153E+03  0.15340486040E+04  0.50400001928E-02 0. -1.
       -1    1    3    3    0  502 -0.34985050174E+03 -0.12652025587E+04 -0.12234815646E+04  0.17944469975E+04  0.50400001928E-02 0.  1.
</event>
<event>
 5   0  0.6765252E-08  0.3301585E+04  0.7818609E-02  0.8162492E-01
        2   -1    0    0  501    0  0.00000000000E+00  0.00000000000E+00  0.16571367512E+04  0.16571367512E+04  0.25500000920E-02 0.  1.
       -2   -1    0    0    0  501  0.00000000000E+00  0.00000000000E+00 -0.16444721545E+04  0.16444721545E+04  0.25500000920E-02 0. -1.
    10030    2    1    2    0    0  0.00000000000E+00  0.00000000000E+00  0.12664596669E+02  0.33016089057E+04  0.33015846156E+04 0.  0.
        2    1    3    3  502    0 -0.12868893603E+04  0.10131050301E+04 -0.20018608671E+03  0.16500122718E+04  0.25500000920E-02 0.  1.
       -2    1    3    3    0  502  0.12868893603E+04 -0.10131050301E+04  0.21285068338E+03  0.16515966339E+04  0.25500000920E-02 0. -1.
</event>
<event>
 5   0  0.6821287E-08  0.3299818E+04  0.7818609E-02  0.8162942E-01
        2   -1    0    0  501    0  0.00000000000E+00  0.00000000000E+00  0.19879160615E+04  0.19879160615E+04  0.25500000920E-02 0. -1.
       -2   -1    0    0    0  501  0.00000000000E+00  0.00000000000E+00 -0.13693738286E+04  0.13693738286E+04  0.25500000920E-02 0.  1.
    10030    2    1    2    0    0  0.00000000000E+00  0.00000000000E+00  0.61854223289E+03  0.33572898901E+04  0.32998183150E+04 0.  0.
        5    1    3    3  502    0  0.14060316283E+04 -0.11007037134E+02 -0.56897337408E+03  0.15168384505E+04  0.46999998093E+01 0. -1.
       -5    1    3    3    0  502 -0.14060316283E+04  0.11007037134E+02  0.11875156070E+04  0.18404514396E+04  0.46999998093E+01 0.  1.
</event>
<event>
 5   0  0.2291682E-08  0.3300674E+04  0.7818609E-02  0.8162724E-01
        1   -1    0    0  501    0  0.00000000000E+00  0.00000000000E+00  0.17756789262E+04  0.17756789262E+04  0.50400001928E-02 0. -1.
       -1   -1    0    0    0  501  0.00000000000E+00  0.00000000000E+00 -0.15338424355E+04  0.15338424356E+04  0.50400001928E-02 0.  1.
    10030    2    1    2    0    0  0.00000000000E+00  0.00000000000E+00  0.24183649069E+03  0.33095213618E+04  0.33006736821E+04 0.  0.
        2    1    3    3  502    0 -0.42755481555E+03 -0.70687552633E+03  0.15534310830E+04  0.17594386206E+04  0.25500000920E-02 0. -1.
       -2    1    3    3    0  502  0.42755481555E+03  0.70687552633E+03 -0.13115945923E+04  0.15500827412E+04  0.25500000920E-02 0.  1.
</event>
<event>
 5   0  0.6821287E-08  0.3296607E+04  0.7818609E-02  0.8163759E-01
       -2   -1    0    0    0  501  0.00000000000E+00  0.00000000000E+00  0.92663879911E+03  0.92663879911E+03  0.25500000920E-02 0.  1.
        2   -1    0    0  501    0  0.00000000000E+00  0.00000000000E+00 -0.29319995235E+04  0.29319995235E+04  0.25500000920E-02 0. -1.
    10030    2    1    2    0    0  0.00000000000E+00  0.00000000000E+00 -0.20053607244E+04  0.38586383226E+04  0.32966070542E+04 0.  0.
        5    1    3    3  502    0  0.10828328115E+04  0.99123114113E+03 -0.12534814369E+03  0.14733636075E+04  0.46999998093E+01 0.  1.
       -5    1    3    3    0  502 -0.10828328115E+04 -0.99123114113E+03 -0.18800125807E+04  0.23852747151E+04  0.46999998093E+01 0. -1.
</event>
<event>
 5   0  0.2309822E-08  0.3298480E+04  0.7818609E-02  0.8163282E-01
        1   -1    0    0  501    0  0.00000000000E+00  0.00000000000E+00  0.17856391253E+04  0.17856391253E+04  0.50400001928E-02 0.  1.
       -1   -1    0    0    0  501  0.00000000000E+00  0.00000000000E+00 -0.15232597710E+04  0.15232597710E+04  0.50400001928E-02 0. -1.
    10030    2    1    2    0    0  0.00000000000E+00  0.00000000000E+00  0.26237935426E+03  0.33088988963E+04  0.32984797984E+04 0.  0.
        4    1    3    3  502    0  0.89758203042E+03 -0.41185718357E+02  0.15185407822E+04  0.17644595447E+04  0.12699999809E+01 0.  1.
       -4    1    3    3    0  502 -0.89758203042E+03  0.41185718357E+02 -0.12561614279E+04  0.15444393516E+04  0.12699999809E+01 0. -1.
</event>
<event>
 5   0  0.2383270E-08  0.3297648E+04  0.7818609E-02  0.8163494E-01
        1   -1    0    0  501    0  0.00000000000E+00  0.00000000000E+00  0.20298157384E+04  0.20298157384E+04  0.50400001928E-02 0. -1.
       -1   -1    0    0    0  501  0.00000000000E+00  0.00000000000E+00 -0.13393435330E+04  0.13393435330E+04  0.50400001928E-02 0.  1.
    10030    2    1    2    0    0  0.00000000000E+00  0.00000000000E+00  0.69047220545E+03  0.33691592714E+04  0.32976479997E+04 0.  0.
        5    1    3    3  502    0 -0.31254980541E+02 -0.10656780717E+04  0.16302679133E+04  0.19479327980E+04  0.46999998093E+01 0. -1.
       -5    1    3    3    0  502  0.31254980541E+02  0.10656780717E+04 -0.93979570789E+03  0.14212264734E+04  0.46999998093E+01 0.  1.
</event>
<event>
 5   0  0.2383270E-08  0.3299132E+04  0.7818609E-02  0.8163116E-01
       -1   -1    0    0    0  501  0.00000000000E+00  0.00000000000E+00  0.14776436883E+04  0.14776436883E+04  0.50400001928E-02 0.  1.
        1   -1    0    0  501    0  0.00000000000E+00  0.00000000000E+00 -0.18414911395E+04  0.18414911395E+04  0.50400001928E-02 0. -1.
    10030    2    1    2    0    0  0.00000000000E+00  0.00000000000E+00 -0.36384745118E+03  0.33191348278E+04  0.32991318612E+04 0.  0.
        5    1    3    3  502    0  0.14391647148E+04 -0.16334214412E+02  0.62893054545E+03  0.15706806181E+04  0.46999998093E+01 0.  1.
       -5    1    3    3    0  502 -0.14391647148E+04  0.16334214412E+02 -0.99277799663E+03  0.17484542097E+04  0.46999998093E+01 0. -1.
</event>
<event>
 5   0  0.2200750E-08  0.3299267E+04  0.7818609E-02  0.8163082E-01
       -3   -1    0    0    0  501  0.00000000000E+00  0.00000000000E+00  0.11610714136E+04  0.11610714180E+04  0.10100000352E+00 0.  1.
        3   -1    0    0  501    0  0.00000000000E+00  0.00000000000E+00 -0.23437750103E+04  0.23437750124E+04  0.10100000352E+00 0. -1.
    10030    2    1    2    0    0  0.00000000000E+00  0.00000000000E+00 -0.11827035967E+04  0.35048464304E+04  0.32992666918E+04 0.  0.
        1    1    3    3  502    0  0.60363781378E+03  0.59900862309E+03 -0.20929723599E+04  0.22591421469E+04  0.50400001928E-02 0. -1.
       -1    1    3    3    0  502 -0.60363781378E+03 -0.59900862309E+03  0.91026876320E+03  0.12457042835E+04  0.50400001928E-02 0.  1.
</event>
<event>
 5   0  0.7084130E-08  0.3299902E+04  0.7818609E-02  0.8162920E-01
        2   -1    0    0  501    0  0.00000000000E+00  0.00000000000E+00  0.19069545192E+04  0.19069545192E+04  0.25500000920E-02 0.  1.
       -2   -1    0    0    0  501  0.00000000000E+00  0.00000000000E+00 -0.14275845569E+04  0.14275845569E+04  0.25500000920E-02 0. -1.
    10030    2    1    2    0    0  0.00000000000E+00  0.00000000000E+00  0.47936996231E+03  0.33345390761E+04  0.32999023151E+04 0.  0.
        3    1    3    3  502    0 -0.13290145161E+04 -0.69033264839E+03  0.93941267271E+03  0.17678616827E+04  0.10100000352E+00 0.  1.
       -3    1    3    3    0  502  0.13290145161E+04  0.69033264839E+03 -0.46004271041E+03  0.15666773934E+04  0.10100000352E+00 0. -1.
</event>
<event>
 5   0  0.2383270E-08  0.3301852E+04  0.7818609E-02  0.8162424E-01
       -1   -1    0    0    0  501  0.00000000000E+00  0.00000000000E+00  0.13664172422E+04  0.13664172422E+04  0.50400001928E-02 0.  1.
        1   -1    0    0  501    0  0.00000000000E+00  0.00000000000E+00 -0.19946739859E+04  0.19946739859E+04  0.50400001928E-02 0. -1.
    10030    2    1    2    0    0  0.00000000000E+00  0.00000000000E+00 -0.62825674372E+03  0.33610912280E+04  0.33018521631E+04 0.  0.
        5    1    3    3  502    0 -0.85816958911E+03 -0.13109900591E+04 -0.84344295509E+03  0.17794853434E+04  0.46999998093E+01 0. -1.
       -5    1    3    3    0  502  0.85816958911E+03  0.13109900591E+04  0.21518621137E+03  0.15816058847E+04  0.46999998093E+01 0.  1.
</event>
<event>
 5   0  0.2383270E-08  0.3299770E+04  0.7818609E-02  0.8162954E-01
       -1   -1    0    0    0  501  0.00000000000E+00  0.00000000000E+00  0.11915873491E+04  0.11915873491E+04  0.50400001928E-02 0.  1.
        1   -1    0    0  501    0  0.00000000000E+00  0.00000000000E+00 -0.22844488580E+04  0.22844488580E+04  0.50400001928E-02 0. -1.
    10030    2    1    2    0    0  0.00000000000E+00  0.00000000000E+00 -0.10928615089E+04  0.34760362072E+04  0.32997699065E+04 0.  0.
        5    1    3    3  502    0  0.46864079505E+03  0.98961297662E+03  0.75365074636E+03  0.13292740785E+04  0.46999998093E+01 0.  1.
       -5    1    3    3    0  502 -0.46864079505E+03 -0.98961297662E+03 -0.18465122553E+04  0.21467621287E+04  0.46999998093E+01 0. -1.
</event>
<event>
 5   0  0.7084130E-08  0.3297934E+04  0.7818609E-02  0.8163421E-01
       -2   -1    0    0    0  501  0.00000000000E+00  0.00000000000E+00  0.12498076871E+04  0.12498076871E+04  0.25500000920E-02 0. -1.
        2   -1    0    0  501    0  0.00000000000E+00  0.00000000000E+00 -0.21756088206E+04  0.21756088206E+04  0.25500000920E-02 0.  1.
    10030    2    1    2    0    0  0.00000000000E+00  0.00000000000E+00 -0.92580113347E+03  0.34254165078E+04  0.32979342797E+04 0.  0.
        3    1    3    3  502    0  0.11634068055E+04  0.10081299882E+04 -0.10767195447E+04  0.18786075845E+04  0.10100000352E+00 0.  1.
       -3    1    3    3    0  502 -0.11634068055E+04 -0.10081299882E+04  0.15091841126E+03  0.15468089233E+04  0.10100000352E+00 0. -1.
</event>
<event>
 5   0  0.6603516E-08  0.3299193E+04  0.7818609E-02  0.8163101E-01
       -2   -1    0    0    0  501  0.00000000000E+00  0.00000000000E+00  0.91121844925E+03  0.91121844925E+03  0.25500000920E-02 0. -1.
        2   -1    0    0  501    0  0.00000000000E+00  0.00000000000E+00 -0.29862973314E+04  0.29862973314E+04  0.25500000920E-02 0.  1.
    10030    2    1    2    0    0  0.00000000000E+00  0.00000000000E+00 -0.20750788822E+04  0.38975157807E+04  0.32991933701E+04 0.  0.
        1    1    3    3  502    0 -0.15354838958E+04  0.60052051552E+03 -0.97465477632E+03  0.19152774255E+04  0.50400001928E-02 0. -1.
       -1    1    3    3    0  502  0.15354838958E+04 -0.60052051552E+03 -0.11004241058E+04  0.19822383551E+04  0.50400001928E-02 0.  1.
</event>
<event>
 5   0  0.6706080E-08  0.3297555E+04  0.7818609E-02  0.8163518E-01
        2   -1    0    0  501    0  0.00000000000E+00  0.00000000000E+00  0.24356982103E+04  0.24356982103E+04  0.25500000920E-02 0. -1.
       -2   -1    0    0    0  501  0.00000000000E+00  0.00000000000E+00 -0.11160938778E+04  0.11160938778E+04  0.25500000920E-02 0.  1.
    10030    2    1    2    0    0  0.00000000000E+00  0.00000000000E+00  0.13196043325E+04  0.35517920881E+04  0.32975553738E+04 0.  0.
        4    1    3    3  502    0  0.45675734016E+03  0.13749318813E+04 -0.18789649098E+03  0.14609488870E+04  0.12699999809E+01 0.  1.
       -4    1    3    3    0  502 -0.45675734016E+03 -0.13749318813E+04  0.15075008235E+04  0.20908432012E+04  0.12699999809E+01 0. -1.
</event>
<event>
 5   0  0.2291682E-08  0.3300387E+04  0.7818609E-02  0.8162797E-01
       -1   -1    0    0    0  501  0.00000000000E+00  0.00000000000E+00  0.12100195358E+04  0.12100195358E+04  0.50400001928E-02 0.  1.
        1   -1    0    0  501    0  0.00000000000E+00  0.00000000000E+00 -0.22504913638E+04  0.22504913638E+04  0.50400001928E-02 0. -1.
    10030    2    1    2    0    0  0.00000000000E+00  0.00000000000E+00 -0.10404718280E+04  0.34605108996E+04  0.33003869563E+04 0.  0.
        2    1    3    3  502    0  0.53369099299E+03 -0.13650704487E+04 -0.13152405598E+04  0.19692895003E+04  0.25500000920E-02 0. -1.
       -2    1    3    3    0  502 -0.53369099299E+03  0.13650704487E+04  0.27476873181E+03  0.14912213993E+04  0.25500000920E-02 0.  1.
</event>
<event>
 5   0  0.6821287E-08  0.3305026E+04  0.7818609E-02  0.8161618E-01
        2   -1    0    0  501    0  0.00000000000E+00  0.00000000000E+00  0.12662369343E+04  0.12662369343E+04  0.25500000920E-02 0.  1.
       -2   -1    0    0    0  501  0.00000000000E+00  0.00000000000E+00 -0.21566257852E+04  0.21566257852E+04  0.25500000920E-02 0. -1.
    10030    2    1    2    0    0  0.00000000000E+00  0.00000000000E+00 -0.89038885091E+03  0.34228627196E+04  0.33050260046E+04 0.  0.
        5    1    3    3  502    0 -0.14444834521E+03 -0.12172669416E+02  0.12596325375E+04  0.12679549352E+04  0.46999998093E+01 0.  1.
       -5    1    3    3    0  502  0.14444834521E+03  0.12172669416E+02 -0.21500213884E+04  0.21549077843E+04  0.46999998093E+01 0. -1.
</event>
<event>
 5   0  0.2309822E-08  0.3299565E+04  0.7818609E-02  0.8163006E-01
       -1   -1    0    0    0  501  0.00000000000E+00  0.00000000000E+00  0.10622948635E+04  0.10622948635E+04  0.50400001928E-02 0.  1.
        1   -1    0    0  501    0  0.00000000000E+00  0.00000000000E+00 -0.25621723385E+04  0.25621723385E+04  0.50400001928E-02 0. -1.
    10030    2    1    2    0    0  0.00000000000E+00  0.00000000000E+00 -0.14998774750E+04  0.36244672019E+04  0.32995651317E+04 0.  0.
        4    1    3    3  502    0 -0.70133030264E+03  0.14303749888E+04 -0.12210574986E+04  0.20071920262E+04  0.12699999809E+01 0. -1.
       -4    1    3    3    0  502  0.70133030264E+03 -0.14303749888E+04 -0.27881997635E+03  0.16172751758E+04  0.12699999809E+01 0.  1.
</event>
<event>
 5   0  0.6603516E-08  0.3299345E+04  0.7818609E-02  0.8163062E-01
       -2   -1    0    0    0  501  0.00000000000E+00  0.00000000000E+00  0.16218178045E+04  0.16218178045E+04  0.25500000920E-02 0.  1.
        2   -1    0    0  501    0  0.00000000000E+00  0.00000000000E+00 -0.16780053569E+04  0.16780053569E+04  0.25500000920E-02 0. -1.
    10030    2    1    2    0    0  0.00000000000E+00  0.00000000000E+00 -0.56187552369E+02  0.32998231614E+04  0.32993447615E+04 0.  0.
        1    1    3    3  502    0  0.97140102951E+03  0.30204818337E+03 -0.13269606027E+04  0.16720279622E+04  0.50400001928E-02 0. -1.
       -1    1    3    3    0  502 -0.97140102951E+03 -0.30204818337E+03  0.12707730503E+04  0.16277951992E+04  0.50400001928E-02 0.  1.
</event>
<event>
 5   0  0.6821287E-08  0.3297342E+04  0.7818609E-02  0.8163572E-01
        2   -1    0    0  501    0  0.00000000000E+00  0.00000000000E+00  0.20763857197E+04  0.20763857197E+04  0.25500000920E-02 0. -1.
       -2   -1    0    0    0  501  0.00000000000E+00  0.00000000000E+00 -0.13090612342E+04  0.13090612342E+04  0.25500000920E-02 0.  1.
    10030    2    1    2    0    0  0.00000000000E+00  0.00000000000E+00  0.76732448550E+03  0.33854469538E+04  0.32973419918E+04 0.  0.
        5    1    3    3  502    0 -0.31857551344E+03  0.11065592202E+04  0.15950744969E+04  0.19672946923E+04  0.46999998093E+01 0. -1.
       -5    1    3    3    0  502  0.31857551344E+03 -0.11065592202E+04 -0.82775001139E+03  0.14181522615E+04  0.46999998093E+01 0.  1.
</event>
<event>
 5   0  0.6765252E-08  0.3299126E+04  0.7818609E-02  0.8163118E-01
        2   -1    0    0  501    0  0.00000000000E+00  0.00000000000E+00  0.14182462687E+04  0.14182462687E+04  0.25500000920E-02 0.  1.
       -2   -1    0    0    0  501  0.00000000000E+00  0.00000000000E+00 -0.19186078156E+04  0.19186078156E+04  0.25500000920E-02 0. -1.
    10030    2    1    2    0    0  0.00000000000E+00  0.00000000000E+00 -0.50036154694E+03  0.33368540844E+04  0.32991261726E+04 0.  0.
        2    1    3    3  502    0  0.15329086226E+04  0.29784055076E+03  0.28744325886E+03  0.15878102739E+04  0.25500000920E-02 0.  1.
       -2    1    3    3    0  502 -0.15329086226E+04 -0.29784055076E+03 -0.78780480580E+03  0.17490438105E+04  0.25500000920E-02 0. -1.
</event>
<event>
 5   0  0.2244093E-08  0.3299652E+04  0.7818609E-02  0.8162984E-01
       -1   -1    0    0    0  501  0.00000000000E+00  0.00000000000E+00  0.17135739808E+04  0.17135739808E+04  0.50400001928E-02 0. -1.
        1   -1    0    0  501    0  0.00000000000E+00  0.00000000000E+00 -0.15884500117E+04  0.15884500117E+04  0.50400001928E-02 0.  1.
    10030    2    1    2    0    0  0.00000000000E+00  0.00000000000E+00  0.12512396903E+03  0.33020239925E+04  0.32996524725E+04 0.  0.
        1    1    3    3  502    0 -0.13276747346E+04  0.97744311186E+03  0.12434266587E+03  0.16533530586E+04  0.50400001928E-02 0.  1.
       -1    1    3    3    0  502  0.13276747346E+04 -0.97744311186E+03  0.78130315645E+00  0.16486709339E+04  0.50400001928E-02 0. -1.
</event>
<event>
 5   0  0.2309822E-08  0.3301111E+04  0.7818609E-02  0.8162613E-01
        1   -1    0    0  501    0  0.00000000000E+00  0.00000000000E+00  0.18778364272E+04  0.18778364272E+04  0.50400001928E-02 0.  1.
       -1   -1    0    0    0  501  0.00000000000E+00  0.00000000000E+00 -0.14507835449E+04  0.14507835449E+04  0.50400001928E-02 0. -1.
    10030    2    1    2    0    0  0.00000000000E+00  0.00000000000E+00  0.42705288237E+03  0.33286199721E+04  0.33011114423E+04 0.  0.
        4    1    3    3  502    0 -0.11702432852E+04 -0.11459851069E+04  0.79121045397E+01  0.16379302263E+04  0.12699999809E+01 0. -1.
       -4    1    3    3    0  502  0.11702432852E+04  0.11459851069E+04  0.41914077783E+03  0.16906897458E+04  0.12699999809E+01 0.  1.
</event>
<event>
 5   0  0.6765252E-08  0.3299866E+04  0.7818609E-02  0.8162929E-01
       -2   -1    0    0    0  501  0.00000000000E+00  0.00000000000E+00  0.13249302288E+04  0.13249302288E+04  0.25500000920E-02 0.  1.
        2   -1    0    0  501    0  0.00000000000E+00  0.00000000000E+00 -0.20546582976E+04  0.20546582976E+04  0.25500000920E-02 0. -1.
    10030    2    1    2    0    0  0.00000000000E+00  0.00000000000E+00 -0.72972806879E+03  0.33795885264E+04  0.32998659903E+04 0.  0.
        2    1    3    3  502    0 -0.15993822133E+04  0.14491405010E+03  0.22770924522E+02  0.16060952840E+04  0.25500000920E-02 0.  1.
       -2    1    3    3    0  502  0.15993822133E+04 -0.14491405010E+03 -0.75249899331E+03  0.17734932425E+04  0.25500000920E-02 0. -1.
</event>
<event>
 5   0  0.6821287E-08  0.3297357E+04  0.7818609E-02  0.8163568E-01
       -2   -1    0    0    0  501  0.00000000000E+00  0.00000000000E+00  0.11219809728E+04  0.11219809728E+04  0.25500000920E-02 0. -1.
        2   -1    0    0  501    0  0.00000000000E+00  0.00000000000E+00 -0.24226270907E+04  0.24226270907E+04  0.25500000920E-02 0.  1.
    10030    2    1    2    0    0  0.00000000000E+00  0.00000000000E+00 -0.13006461178E+04  0.35446080635E+04  0.32973574268E+04 0.  0.
        5    1    3    3  502    0  0.11606143133E+04 -0.75201244689E+03  0.31451435287E+03  0.14182699576E+04  0.46999998093E+01 0. -1.
       -5    1    3    3    0  502 -0.11606143133E+04  0.75201244689E+03 -0.16151604707E+04  0.21263381059E+04  0.46999998093E+01 0.  1.
</event>
<event>
 5   0  0.2309822E-08  0.3299360E+04  0.7818609E-02  0.8163058E-01
       -1   -1    0    0    0  501  0.00000000000E+00  0.00000000000E+00  0.16589858442E+04  0.16589858442E+04  0.50400001928E-02 0. -1.
        1   -1    0    0  501    0  0.00000000000E+00  0.00000000000E+00 -0.16404260441E+04  0.16404260441E+04  0.50400001928E-02 0.  1.
    10030    2    1    2    0    0  0.00000000000E+00  0.00000000000E+00  0.18559800097E+02  0.32994118883E+04  0.32993596868E+04 0.  0.
        4    1    3    3  502    0  0.98008334778E+03 -0.10104514558E+04 -0.85088861355E+03  0.16448673377E+04  0.12699999809E+01 0. -1.
       -4    1    3    3    0  502 -0.98008334778E+03  0.10104514558E+04  0.86944841365E+03  0.16545445506E+04  0.12699999809E+01 0.  1.
</event>
<event>
 5   0  0.2291682E-08  0.3303772E+04  0.7818609E-02  0.8161936E-01
        1   -1    0    0  501    0  0.00000000000E+00  0.00000000000E+00  0.16964103900E+04  0.16964103900E+04  0.50400001928E-02 0. -1.
       -1   -1    0    0    0  501  0.00000000000E+00  0.00000000000E+00 -0.16085303825E+04  0.16085303825E+04  0.50400001928E-02 0.  1.
    10030    2    1    2    0    0  0.00000000000E+00  0.00000000000E+00  0.87880007472E+02  0.33049407725E+04  0.33037721795E+04 0.  0.
        2    1    3    3  502    0  0.10966640888E+04 -0.11435563438E+04 -0.42348796053E+03  0.16400412458E+04  0.25500000920E-02 0.  1.
       -2    1    3    3    0  502 -0.10966640888E+04  0.11435563438E+04  0.51136796800E+03  0.16648995267E+04  0.25500000920E-02 0. -1.
</event>
<event>
 5   0  0.6706080E-08  0.3292146E+04  0.7818609E-02  0.8164897E-01
       -2   -1    0    0    0  501  0.00000000000E+00  0.00000000000E+00  0.11332104514E+04  0.11332104514E+04  0.25500000920E-02 0. -1.
        2   -1    0    0  501    0  0.00000000000E+00  0.00000000000E+00 -0.23910435689E+04  0.23910435689E+04  0.25500000920E-02 0.  1.
    10030    2    1    2    0    0  0.00000000000E+00  0.00000000000E+00 -0.12578331175E+04  0.35242540202E+04  0.32921455386E+04 0.  0.
        4    1    3    3  502    0 -0.91156188918E+03 -0.13250668166E+04 -0.25377136227E+03  0.16282348306E+04  0.12699999809E+01 0. -1.
       -4    1    3    3    0  502  0.91156188918E+03  0.13250668166E+04 -0.10040617552E+04  0.18960191896E+04  0.12699999809E+01 0.  1.
</event>
<event>
 5   0  0.2200750E-08  0.3301014E+04  0.7818609E-02  0.8162638E-01
        3   -1    0    0  501    0  0.00000000000E+00  0.00000000000E+00  0.20785383245E+04  0.20785383269E+04  0.10100000352E+00 0.  1.
       -3   -1    0    0    0  501  0.00000000000E+00  0.00000000000E+00 -0.13106193861E+04  0.13106193900E+04  0.10100000352E+00 0. -1.
    10030    2    1    2    0    0  0.00000000000E+00  0.00000000000E+00  0.76791893832E+03  0.33891577170E+04  0.33010135617E+04 0.  0.
        2    1    3    3  502    0 -0.35453231744E+03 -0.31480733534E+03 -0.12391964961E+04  0.13268024640E+04  0.25500000920E-02 0. -1.
       -2    1    3    3    0  502  0.35453231744E+03  0.31480733534E+03  0.20071154344E+04  0.20623552530E+04  0.25500000920E-02 0.  1.
</event>
<event>
 5   0  0.6706080E-08  0.3294705E+04  0.7818609E-02  0.8164244E-01
       -2   -1    0    0    0  501  0.00000000000E+00  0.00000000000E+00  0.10999298277E+04  0.10999298277E+04  0.25500000920E-02 0.  1.
        2   -1    0    0  501    0  0.00000000000E+00  0.00000000000E+00 -0.24672205457E+04  0.24672205457E+04  0.25500000920E-02 0. -1.
    10030    2    1    2    0    0  0.00000000000E+00  0.00000000000E+00 -0.13672907180E+04  0.35671503734E+04  0.32947045207E+04 0.  0.
        4    1    3    3  502    0 -0.73304577056E+03 -0.13389393516E+04 -0.13542620215E+04  0.20406229256E+04  0.12699999809E+01 0. -1.
       -4    1    3    3    0  502  0.73304577056E+03  0.13389393516E+04 -0.13028696541E+02  0.15265274478E+04  0.12699999809E+01 0.  1.
</event>
<event>
 5   0  0.6706080E-08  0.3293915E+04  0.7818609E-02  0.8164445E-01
       -2   -1    0    0    0  501  0.00000000000E+00  0.00000000000E+00  0.18103067396E+04  0.18103067396E+04  0.25500000920E-02 0.  1.
        2   -1    0    0  501    0  0.00000000000E+00  0.00000000000E+00 -0.14983477165E+04  0.14983477165E+04  0.25500000920E-02 0. -1.
    10030    2    1    2    0    0  0.00000000000E+00  0.00000000000E+00  0.31195902310E+03  0.33086544562E+04  0.32939149774E+04 0.  0.
        4    1    3    3  502    0 -0.45291840376E+03 -0.15037243975E+04 -0.34237078976E+03  0.16073398877E+04  0.12699999809E+01 0. -1.
       -4    1    3    3    0  502  0.45291840376E+03  0.15037243975E+04  0.65432981287E+03  0.17013145685E+04  0.12699999809E+01 0.  1.
</event>
<event>
 5   0  0.7084130E-08  0.3300669E+04  0.7818609E-02  0.8162725E-01
        2   -1    0    0  501    0  0.00000000000E+00  0.00000000000E+00  0.17866268715E+04  0.17866268716E+04  0.25500000920E-02 0.  1.
       -2   -1    0    0    0  501  0.00000000000E+00  0.00000000000E+00 -0.15244392818E+04  0.15244392818E+04  0.25500000920E-02 0. -1.
    10030    2    1    2    0    0  0.00000000000E+00  0.00000000000E+00  0.26218758972E+03  0.33110661534E+04  0.33006691352E+04 0.  0.
        3    1    3    3  502    0  0.45661332292E+03  0.15725683201E+04 -0.74826596576E+02  0.16392272197E+04  0.10100000352E+00 0. -1.
       -3    1    3    3    0  502 -0.45661332292E+03 -0.15725683201E+04  0.33701418629E+03  0.16718389337E+04  0.10100000352E+00 0.  1.
</event>
<event>
 5   0  0.2291682E-08  0.3296934E+04  0.7818609E-02  0.8163676E-01
       -1   -1    0    0    0  501  0.00000000000E+00  0.00000000000E+00  0.12685667833E+04  0.12685667833E+04  0.50400001928E-02 0. -1.
        1   -1    0    0  501    0  0.00000000000E+00  0.00000000000E+00 -0.21421370901E+04  0.21421370901E+04  0.50400001928E-02 0.  1.
    10030    2    1    2    0    0  0.00000000000E+00  0.00000000000E+00 -0.87357030680E+03  0.34107038733E+04  0.32969343079E+04 0.  0.
        2    1    3    3  502    0  0.15444323940E+04 -0.32020661923E+03 -0.93252945939E+03  0.18323249961E+04  0.25500000920E-02 0.  1.
       -2    1    3    3    0  502 -0.15444323940E+04  0.32020661923E+03  0.58959152588E+02  0.15783788773E+04  0.25500000920E-02 0. -1.
</event>
<event>
 5   0  0.2244093E-08  0.3302338E+04  0.7818609E-02  0.8162301E-01
        1   -1    0    0  501    0  0.00000000000E+00  0.00000000000E+00  0.23695324099E+04  0.23695324099E+04  0.50400001928E-02 0. -1.
       -1   -1    0    0    0  501  0.00000000000E+00  0.00000000000E+00 -0.11505896546E+04  0.11505896546E+04  0.50400001928E-02 0.  1.
    10030    2    1    2    0    0  0.00000000000E+00  0.00000000000E+00  0.12189427553E+04  0.35201220644E+04  0.33023382486E+04 0.  0.
        1    1    3    3  502    0 -0.16266649432E+04  0.24566828248E+03  0.45884516165E+03  0.17079024049E+04  0.50400001928E-02 0.  1.
       -1    1    3    3    0  502  0.16266649432E+04 -0.24566828248E+03  0.76009759365E+03  0.18122196595E+04  0.50400001928E-02 0. -1.
</event>
<event>
 5   0  0.2383270E-08  0.3299974E+04  0.7818609E-02  0.8162902E-01
       -1   -1    0    0    0  501  0.00000000000E+00  0.00000000000E+00  0.22066561692E+04  0.22066561692E+04  0.50400001928E-02 0.  1.
        1   -1    0    0  501    0  0.00000000000E+00  0.00000000000E+00 -0.12337476801E+04  0.12337476801E+04  0.50400001928E-02 0. -1.
    10030    2    1    2    0    0  0.00000000000E+00  0.00000000000E+00  0.97290848909E+03  0.34404038493E+04  0.32999738966E+04 0.  0.
        5    1    3    3  502    0  0.99914304192E+03  0.25294976265E+03 -0.85685026850E+03  0.13403301359E+04  0.46999998093E+01 0. -1.
       -5    1    3    3    0  502 -0.99914304192E+03 -0.25294976265E+03  0.18297587576E+04  0.21000737134E+04  0.46999998093E+01 0.  1.
</event>
<event>
 5   0  0.6603516E-08  0.3302035E+04  0.7818609E-02  0.8162378E-01
        2   -1    0    0  501    0  0.00000000000E+00  0.00000000000E+00  0.17173202457E+04  0.17173202457E+04  0.25500000920E-02 0. -1.
       -2   -1    0    0    0  501  0.00000000000E+00  0.00000000000E+00 -0.15872747547E+04  0.15872747547E+04  0.25500000920E-02 0.  1.
    10030    2    1    2    0    0  0.00000000000E+00  0.00000000000E+00  0.13004549100E+03  0.33045950004E+04  0.33020351734E+04 0.  0.
        1    1    3    3  502    0  0.63586305624E+03  0.14115628101E+04  0.63907676606E+03  0.16748882070E+04  0.50400001928E-02 0. -1.
       -1    1    3    3    0  502 -0.63586305624E+03 -0.14115628101E+04 -0.50903127506E+03  0.16297067933E+04  0.50400001928E-02 0.  1.
</event>
<event>
 5   0  0.6821287E-08  0.3299132E+04  0.7818609E-02  0.8163116E-01
        2   -1    0    0  501    0  0.00000000000E+00  0.00000000000E+00  0.31698397780E+04  0.31698397780E+04  0.25500000920E-02 0.  1.
       -2   -1    0    0    0  501  0.00000000000E+00  0.00000000000E+00 -0.85842451145E+03  0.85842451146E+03  0.25500000920E-02 0. -1.
    10030    2    1    2    0    0  0.00000000000E+00  0.00000000000E+00  0.23114152666E+04  0.40282642895E+04  0.32991321058E+04 0.  0.
        5    1    3    3  502    0  0.75884611611E+03 -0.76157780963E+03  0.26832838086E+04  0.28906542989E+04  0.46999998093E+01 0.  1.
       -5    1    3    3    0  502 -0.75884611611E+03  0.76157780963E+03 -0.37186854208E+03  0.11376099906E+04  0.46999998093E+01 0. -1.
</event>
<event>
 5   0  0.6706080E-08  0.3302596E+04  0.7818609E-02  0.8162235E-01
        2   -1    0    0  501    0  0.00000000000E+00  0.00000000000E+00  0.15547599508E+04  0.15547599508E+04  0.25500000920E-02 0. -1.
       -2   -1    0    0    0  501  0.00000000000E+00  0.00000000000E+00 -0.17538306418E+04  0.17538306418E+04  0.25500000920E-02 0.  1.
    10030    2    1    2    0    0  0.00000000000E+00  0.00000000000E+00 -0.19907069107E+03  0.33085905926E+04  0.33025963376E+04 0.  0.
        4    1    3    3  502    0 -0.14719816782E+04 -0.33401368475E+03 -0.77044393115E+03  0.16946624049E+04  0.12699999809E+01 0.  1.
       -4    1    3    3    0  502  0.14719816782E+04  0.33401368475E+03  0.57137324008E+03  0.16139281877E+04  0.12699999809E+01 0. -1.
</event>
<event>
 5   0  0.2383270E-08  0.3300122E+04  0.7818609E-02  0.8162864E-01
       -1   -1    0    0    0  501  0.00000000000E+00  0.00000000000E+00  0.25276102576E+04  0.25276102576E+04  0.50400001928E-02 0.  1.
        1   -1    0    0  501    0  0.00000000000E+00  0.00000000000E+00 -0.10771841524E+04  0.10771841524E+04  0.50400001928E-02 0. -1.
    10030    2    1    2    0    0  0.00000000000E+00  0.00000000000E+00  0.14504261052E+04  0.36047944100E+04  0.33001222480E+04 0.  0.
        5    1    3    3  502    0  0.10037349813E+04  0.11833979715E+04  0.13380481888E+04  0.20489777249E+04  0.46999998093E+01 0.  1.
       -5    1    3    3    0  502 -0.10037349813E+04 -0.11833979715E+04  0.11237791640E+03  0.15558166851E+04  0.46999998093E+01 0. -1.
</event>
<event>
 5   0  0.2244093E-08  0.3298846E+04  0.7818609E-02  0.8163189E-01
       -1   -1    0    0    0  501  0.00000000000E+00  0.00000000000E+00  0.11244946951E+04  0.11244946951E+04  0.50400001928E-02 0. -1.
        1   -1    0    0  501    0  0.00000000000E+00  0.00000000000E+00 -0.24193938877E+04  0.24193938877E+04  0.50400001928E-02 0.  1.
    10030    2    1    2    0    0  0.00000000000E+00  0.00000000000E+00 -0.12948991927E+04  0.35438885828E+04  0.32988456114E+04 0.  0.
        1    1    3    3  502    0 -0.29434923066E+03  0.85148943889E+03  0.83681701042E+03  0.12296090611E+04  0.50400001928E-02 0. -1.
       -1    1    3    3    0  502  0.29434923066E+03 -0.85148943889E+03 -0.21317162031E+04  0.23142795217E+04  0.50400001928E-02 0.  1.
</event>
<event>
 5   0  0.2291682E-08  0.3299831E+04  0.7818609E-02  0.8162938E-01
       -1   -1    0    0    0  501  0.00000000000E+00  0.00000000000E+00  0.11049555025E+04  0.11049555025E+04  0.50400001928E-02 0.  1.
        1   -1    0    0  501    0  0.00000000000E+00  0.00000000000E+00 -0.24636484524E+04  0.24636484524E+04  0.50400001928E-02 0. -1.
    10030    2    1    2    0    0  0.00000000000E+00  0.00000000000E+00 -0.13586929499E+04  0.35686039549E+04  0.32998314586E+04 0.  0.
        2    1    3    3  502    0 -0.17340866726E+03 -0.16047257507E+04 -0.10492698696E+04  0.19251448153E+04  0.25500000920E-02 0. -1.
       -2    1    3    3    0  502  0.17340866726E+03  0.16047257507E+04 -0.30942308028E+03  0.16434591396E+04  0.25500000920E-02 0.  1.
</event>
<event>
 5   0  0.2291682E-08  0.3325952E+04  0.7818609E-02  0.8156323E-01
       -1   -1    0    0    0  501  0.00000000000E+00  0.00000000000E+00  0.17468474777E+04  0.17468474777E+04  0.50400001928E-02 0.  1.
        1   -1    0    0  501    0  0.00000000000E+00  0.00000000000E+00 -0.15831315733E+04  0.15831315733E+04  0.50400001928E-02 0. -1.
    10030    2    1    2    0    0  0.00000000000E+00  0.00000000000E+00  0.16371590442E+03  0.33299790510E+04  0.33259521318E+04 0.  0.
        2    1    3    3  502    0 -0.10533020312E+04 -0.24913632398E+03  0.13459139195E+04  0.17271358822E+04  0.25500000920E-02 0.  1.
       -2    1    3    3    0  502  0.10533020312E+04  0.24913632398E+03 -0.11821980151E+04  0.16028431688E+04  0.25500000920E-02 0. -1.
</event>
<event>
 5   0  0.2383270E-08  0.3301409E+04  0.7818609E-02  0.8162537E-01
       -1   -1    0    0    0  501  0.00000000000E+00  0.00000000000E+00  0.11245333853E+04  0.11245333853E+04  0.50400001928E-02 0. -1.
        1   -1    0    0  501    0  0.00000000000E+00  0.00000000000E+00 -0.24230724262E+04  0.24230724262E+04  0.50400001928E-02 0.  1.
    10030    2    1    2    0    0  0.00000000000E+00  0.00000000000E+00 -0.12985390410E+04  0.35476058115E+04  0.33014092980E+04 0.  0.
        5    1    3    3  502    0  0.84503037616E+03 -0.21353614273E+03 -0.21556393206E+04  0.23251832167E+04  0.46999998093E+01 0.  1.
       -5    1    3    3    0  502 -0.84503037616E+03  0.21353614273E+03  0.85710027961E+03  0.12224225948E+04  0.46999998093E+01 0. -1.
</event>
<event>
 5   0  0.6603516E-08  0.3299429E+04  0.7818609E-02  0.8163041E-01
       -2   -1    0    0    0  501  0.00000000000E+00  0.00000000000E+00  0.13282308184E+04  0.13282308184E+04  0.25500000920E-02 0. -1.
        2   -1    0    0  501    0  0.00000000000E+00  0.00000000000E+00 -0.20490093087E+04  0.20490093087E+04  0.25500000920E-02 0.  1.
    10030    2    1    2    0    0  0.00000000000E+00  0.00000000000E+00 -0.72077849026E+03  0.33772401271E+04  0.32994286239E+04 0.  0.
        1    1    3    3  502    0 -0.73217986144E+03  0.97535752951E+02  0.11495112631E+04  0.13663735641E+04  0.50400001928E-02 0. -1.
       -1    1    3    3    0  502  0.73217986144E+03 -0.97535752951E+02 -0.18702897534E+04  0.20108665630E+04  0.50400001928E-02 0.  1.
</event>
<event>
 5   0  0.2309822E-08  0.3302043E+04  0.7818609E-02  0.8162376E-01
        1   -1    0    0  501    0  0.00000000000E+00  0.00000000000E+00  0.26841521591E+04  0.26841521591E+04  0.50400001928E-02 0. -1.
       -1   -1    0    0    0  501  0.00000000000E+00  0.00000000000E+00 -0.10155429921E+04  0.10155429921E+04  0.50400001928E-02 0.  1.
    10030    2    1    2    0    0  0.00000000000E+00  0.00000000000E+00  0.16686091670E+04  0.36996951512E+04  0.33020429524E+04 0.  0.
        4    1    3    3  502    0  0.73199686980E+03  0.58354926968E+03 -0.68944244384E+03  0.11626184515E+04  0.12699999809E+01 0.  1.
       -4    1    3    3    0  502 -0.73199686980E+03 -0.58354926968E+03  0.23580516109E+04  0.25370766997E+04  0.12699999809E+01 0. -1.
</event>
<event>
 5   0  0.2244093E-08  0.3299591E+04  0.7818609E-02  0.8162999E-01
       -1   -1    0    0    0  501  0.00000000000E+00  0.00000000000E+00  0.18344250105E+04  0.18344250105E+04  0.50400001928E-02 0.  1.
        1   -1    0    0  501    0  0.00000000000E+00  0.00000000000E+00 -0.14837486300E+04  0.14837486300E+04  0.50400001928E-02 0. -1.
    10030    2    1    2    0    0  0.00000000000E+00  0.00000000000E+00  0.35067638046E+03  0.33181736405E+04  0.32995912451E+04 0.  0.
        1    1    3    3  502    0 -0.15808057119E+04 -0.46753897901E+03  0.10950040469E+03  0.16521288492E+04  0.50400001928E-02 0. -1.
       -1    1    3    3    0  502  0.15808057119E+04  0.46753897901E+03  0.24117597577E+03  0.16660447914E+04  0.50400001928E-02 0.  1.
</event>
<event>
 5   0  0.6706080E-08  0.3300399E+04  0.7818609E-02  0.8162794E-01
       -2   -1    0    0    0  501  0.00000000000E+00  0.00000000000E+00  0.11192175635E+04  0.11192175635E+04  0.25500000920E-02 0.  1.
        2   -1    0    0  501    0  0.00000000000E+00  0.00000000000E+00 -0.24330916555E+04  0.24330916555E+04  0.25500000920E-02 0. -1.
    10030    2    1    2    0    0  0.00000000000E+00  0.00000000000E+00 -0.13138740920E+04  0.35523092190E+04  0.33003993179E+04 0.  0.
        4    1    3    3  502    0 -0.46118691753E+03 -0.27314198226E+03  0.10229117913E+04  0.11548376774E+04  0.12699999809E+01 0.  1.
       -4    1    3    3    0  502  0.46118691753E+03  0.27314198226E+03 -0.23367858833E+04  0.23974715416E+04  0.12699999809E+01 0. -1.
</event>
<event>
 5   0  0.2383270E-08  0.3311113E+04  0.7818609E-02  0.8160073E-01
        1   -1    0    0  501    0  0.00000000000E+00  0.00000000000E+00  0.25584257173E+04  0.25584257173E+04  0.50400001928E-02 0. -1.
       -1   -1    0    0    0  501  0.00000000000E+00  0.00000000000E+00 -0.10713101243E+04  0.10713101243E+04  0.50400001928E-02 0.  1.
    10030    2    1    2    0    0  0.00000000000E+00  0.00000000000E+00  0.14871155930E+04  0.36297358416E+04  0.33111130293E+04 0.  0.
        5    1    3    3  502    0 -0.33896394054E+03 -0.16032701902E+04  0.48536536191E+03  0.17090855685E+04  0.46999998093E+01 0.  1.
       -5    1    3    3    0  502  0.33896394054E+03  0.16032701902E+04  0.10017502311E+04  0.19206502731E+04  0.46999998093E+01 0. -1.
</event>
<event>
 5   0  0.2383270E-08  0.3299607E+04  0.7818609E-02  0.8162995E-01
        1   -1    0    0  501    0  0.00000000000E+00  0.00000000000E+00  0.19746632791E+04  0.19746632791E+04  0.50400001928E-02 0. -1.
       -1   -1    0    0    0  501  0.00000000000E+00  0.00000000000E+00 -0.13783874753E+04  0.13783874753E+04  0.50400001928E-02 0.  1.
    10030    2    1    2    0    0  0.00000000000E+00  0.00000000000E+00  0.59627580380E+03  0.33530507544E+04  0.32996067231E+04 0.  0.
        5    1    3    3  502    0  0.12227574644E+04  0.51393496982E+03 -0.69885661804E+03  0.14992290127E+04  0.46999998093E+01 0.  1.
       -5    1    3    3    0  502 -0.12227574644E+04 -0.51393496982E+03  0.12951324218E+04  0.18538217417E+04  0.46999998093E+01 0. -1.
</event>
<event>
 5   0  0.2291682E-08  0.3301135E+04  0.7818609E-02  0.8162607E-01
       -1   -1    0    0    0  501  0.00000000000E+00  0.00000000000E+00  0.12258154976E+04  0.12258154977E+04  0.50400001928E-02 0. -1.
        1   -1    0    0  501    0  0.00000000000E+00  0.00000000000E+00 -0.22224981440E+04  0.22224981441E+04  0.50400001928E-02 0.  1.
    10030    2    1    2    0    0  0.00000000000E+00  0.00000000000E+00 -0.99668264641E+03  0.34483136417E+04  0.33011347555E+04 0.  0.
        2    1    3    3  502    0 -0.15960409331E+04  0.33675248381E+03 -0.76182469788E+03  0.18003126856E+04  0.25500000920E-02 0.  1.
       -2    1    3    3    0  502  0.15960409331E+04 -0.33675248381E+03 -0.23485794853E+03  0.16480009561E+04  0.25500000920E-02 0. -1.
</event>
<event>
 5   0  0.6603516E-08  0.3301671E+04  0.7818609E-02  0.8162470E-01
        2   -1    0    0  501    0  0.00000000000E+00  0.00000000000E+00  0.21020606841E+04  0.21020606841E+04  0.25500000920E-02 0.  1.
       -2   -1    0    0    0  501  0.00000000000E+00  0.00000000000E+00 -0.12964697592E+04  0.12964697593E+04  0.25500000920E-02 0. -1.
    10030    2    1    2    0    0  0.00000000000E+00  0.00000000000E+00  0.80559092482E+03  0.33985304433E+04  0.33016711581E+04 0.  0.
        1    1    3    3  502    0 -0.31501956589E+03 -0.16171590209E+04  0.50985379175E+03  0.17246424310E+04  0.50400001928E-02 0.  1.
       -1    1    3    3    0  502  0.31501956589E+03  0.16171590209E+04  0.29573713307E+03  0.16738880123E+04  0.50400001928E-02 0. -1.
</event>
<event>
 5   0  0.2309822E-08  0.3300691E+04  0.7818609E-02  0.8162720E-01
        1   -1    0    0  501    0  0.00000000000E+00  0.00000000000E+00  0.16978001067E+04  0.16978001067E+04  0.50400001928E-02 0.  1.
       -1   -1    0    0    0  501  0.00000000000E+00  0.00000000000E+00 -0.16042171574E+04  0.16042171575E+04  0.50400001928E-02 0. -1.
    10030    2    1    2    0    0  0.00000000000E+00  0.00000000000E+00  0.93582949248E+02  0.33020172642E+04  0.33006908738E+04 0.  0.
        4    1    3    3  502    0 -0.59904319152E+03  0.15374715853E+04  0.77897816747E+02  0.16518902214E+04  0.12699999809E+01 0. -1.
       -4    1    3    3    0  502  0.59904319152E+03 -0.15374715853E+04  0.15685132501E+02  0.16501270427E+04  0.12699999809E+01 0.  1.
</event>
<event>
 5   0  0.6603516E-08  0.3304381E+04  0.7818609E-02  0.8161781E-01
        2   -1    0    0  501    0  0.00000000000E+00  0.00000000000E+00  0.30184564725E+04  0.30184564725E+04  0.25500000920E-02 0.  1.
       -2   -1    0    0    0  501  0.00000000000E+00  0.00000000000E+00 -0.90434768407E+03  0.90434768407E+03  0.25500000920E-02 0. -1.
    10030    2    1    2    0    0  0.00000000000E+00  0.00000000000E+00  0.21141087884E+04  0.39228041566E+04  0.33043814068E+04 0.  0.
        1    1    3    3  502    0  0.15139754276E+04  0.87836666506E+02  0.27867955699E+03  0.15419141257E+04  0.50400001928E-02 0. -1.
       -1    1    3    3    0  502 -0.15139754276E+04 -0.87836666506E+02  0.18354292314E+04  0.23808900309E+04  0.50400001928E-02 0.  1.
</event>
<event>
 5   0  0.7084130E-08  0.3298866E+04  0.7818609E-02  0.8163184E-01
       -2   -1    0    0    0  501  0.00000000000E+00  0.00000000000E+00  0.15427908737E+04  0.15427908737E+04  0.25500000920E-02 0. -1.
        2   -1    0    0  501    0  0.00000000000E+00  0.00000000000E+00 -0.17634461653E+04  0.17634461653E+04  0.25500000920E-02 0.  1.
    10030    2    1    2    0    0  0.00000000000E+00  0.00000000000E+00 -0.22065529156E+03  0.33062370390E+04  0.32988656536E+04 0.  0.
        3    1    3    3  502    0  0.13096122012E+04 -0.88193599280E+03  0.36795293564E+03  0.16211985029E+04  0.10100000352E+00 0. -1.
       -3    1    3    3    0  502 -0.13096122012E+04  0.88193599280E+03 -0.58860822720E+03  0.16850385361E+04  0.10100000352E+00 0.  1.
</event>
<event>
 5   0  0.7084130E-08  0.3299645E+04  0.7818609E-02  0.8162986E-01
       -2   -1    0    0    0  501  0.00000000000E+00  0.00000000000E+00  0.15172081340E+04  0.15172081340E+04  0.25500000920E-02 0. -1.
        2   -1    0    0  501    0  0.00000000000E+00  0.00000000000E+00 -0.17940281064E+04  0.17940281064E+04  0.25500000920E-02 0.  1.
    10030    2    1    2    0    0  0.00000000000E+00  0.00000000000E+00 -0.27681997241E+03  0.33112362404E+04  0.32996448510E+04 0.  0.
        3    1    3    3  502    0  0.63766859816E+03  0.16018831568E+03 -0.16568787334E+04  0.17825623930E+04  0.10100000352E+00 0.  1.
       -3    1    3    3    0  502 -0.63766859816E+03 -0.16018831568E+03  0.13800587610E+04  0.15286738474E+04  0.10100000352E+00 0. -1.
</event>
<event>
 5   0  0.2244093E-08  0.3300382E+04  0.7818609E-02  0.8162798E-01
       -1   -1    0    0    0  501  0.00000000000E+00  0.00000000000E+00  0.18419138027E+04  0.18419138027E+04  0.50400001928E-02 0.  1.
        1   -1    0    0  501    0  0.00000000000E+00  0.00000000000E+00 -0.14784241792E+04  0.14784241792E+04  0.50400001928E-02 0. -1.
    10030    2    1    2    0    0  0.00000000000E+00  0.00000000000E+00  0.36348962351E+03  0.33203379820E+04  0.33003817367E+04 0.  0.
        1    1    3    3  502    0 -0.92838275410E+03 -0.11935640006E+04 -0.48303840505E+03  0.15873927247E+04  0.50400001928E-02 0. -1.
       -1    1    3    3    0  502  0.92838275410E+03  0.11935640006E+04  0.84652802856E+03  0.17329452573E+04  0.50400001928E-02 0.  1.
</event>
<event>
 5   0  0.2383270E-08  0.3300143E+04  0.7818609E-02  0.8162859E-01
        1   -1    0    0  501    0  0.00000000000E+00  0.00000000000E+00  0.28483149383E+04  0.28483149383E+04  0.50400001928E-02 0. -1.
       -1   -1    0    0    0  501  0.00000000000E+00  0.00000000000E+00 -0.95591100082E+03  0.95591100083E+03  0.50400001928E-02 0.  1.
    10030    2    1    2    0    0  0.00000000000E+00  0.00000000000E+00  0.18924039375E+04  0.38042259391E+04  0.33001427747E+04 0.  0.
        5    1    3    3  502    0  0.80077650362E+03 -0.39061202802E+03 -0.65478431492E+03  0.11057058172E+04  0.46999998093E+01 0.  1.
       -5    1    3    3    0  502 -0.80077650362E+03  0.39061202802E+03  0.25471882524E+04  0.26985201219E+04  0.46999998093E+01 0. -1.
</event>
<event>
 5   0  0.7084130E-08  0.3299765E+04  0.7818609E-02  0.8162955E-01
       -2   -1    0    0    0  501  0.00000000000E+00  0.00000000000E+00  0.16020993720E+04  0.16020993720E+04  0.25500000920E-02 0.  1.
        2   -1    0    0  501    0  0.00000000000E+00  0.00000000000E+00 -0.16990907610E+04  0.16990907610E+04  0.25500000920E-02 0. -1.
    10030    2    1    2    0    0  0.00000000000E+00  0.00000000000E+00 -0.96991389014E+02  0.33011901330E+04  0.32997649863E+04 0.  0.
        3    1    3    3  502    0 -0.13394629720E+03  0.34547761855E+03 -0.16569263108E+04  0.16978519385E+04  0.10100000352E+00 0. -1.
       -3    1    3    3    0  502  0.13394629720E+03 -0.34547761855E+03  0.15599349218E+04  0.16033381945E+04  0.10100000352E+00 0.  1.
</event>
<event>
 5   0  0.2383270E-08  0.3303298E+04  0.7818609E-02  0.8162057E-01
        1   -1    0    0  501    0  0.00000000000E+00  0.00000000000E+00  0.20010606102E+04  0.20010606102E+04  0.50400001928E-02 0.  1.
       -1   -1    0    0    0  501  0.00000000000E+00  0.00000000000E+00 -0.13632489035E+04  0.13632489036E+04  0.50400001928E-02 0. -1.
    10030    2    1    2    0    0  0.00000000000E+00  0.00000000000E+00  0.63781170667E+03  0.33643095138E+04  0.33032975542E+04 0.  0.
        5    1    3    3  502    0  0.15115011337E+04 -0.51632348404E+03 -0.10921026266E+03  0.16009917517E+04  0.46999998093E+01 0.  1.
       -5    1    3    3    0  502 -0.15115011337E+04  0.51632348404E+03  0.74702196933E+03  0.17633177621E+04  0.46999998093E+01 0. -1.
</event>
<event>
 5   0  0.6765252E-08  0.3298767E+04  0.7818609E-02  0.8163209E-01
       -2   -1    0    0    0  501  0.00000000000E+00  0.00000000000E+00  0.25913338583E+04  0.25913338583E+04  0.25500000920E-02 0.  1.
        2   -1    0    0  501    0  0.00000000000E+00  0.00000000000E+00 -0.10498322150E+04  0.10498322150E+04  0.25500000920E-02 0. -1.
    10030    2    1    2    0    0  0.00000000000E+00  0.00000000000E+00  0.15415016433E+04  0.36411660733E+04  0.32987668995E+04 0.  0.
        2    1    3    3  502    0 -0.30248497919E+03 -0.58701923411E+03 -0.89754380424E+03  0.11143040987E+04  0.25500000920E-02 0. -1.
       -2    1    3    3    0  502  0.30248497919E+03  0.58701923411E+03  0.24390454475E+04  0.25268619746E+04  0.25500000920E-02 0.  1.
</event>
<event>
 5   0  0.2279938E-08  0.3299636E+04  0.7818609E-02  0.8162988E-01
        1   -1    0    0  501    0  0.00000000000E+00  0.00000000000E+00  0.24891751890E+04  0.24891751890E+04  0.50400001928E-02 0. -1.
       -1   -1    0    0    0  501  0.00000000000E+00  0.00000000000E+00 -0.10934946082E+04  0.10934946082E+04  0.50400001928E-02 0.  1.
    10030    2    1    2    0    0  0.00000000000E+00  0.00000000000E+00  0.13956805807E+04  0.35826697972E+04  0.32996361303E+04 0.  0.
        3    1    3    3  502    0  0.81026908949E+03 -0.45051798579E+03  0.21795969418E+04  0.23685745274E+04  0.10100000352E+00 0. -1.
       -3    1    3    3    0  502 -0.81026908949E+03  0.45051798579E+03 -0.78391636105E+03  0.12140952698E+04  0.10100000352E+00 0.  1.
</event>
<event>
 5   0  0.2244093E-08  0.3299139E+04  0.7818609E-02  0.8163114E-01
        1   -1    0    0  501    0  0.00000000000E+00  0.00000000000E+00  0.14849163069E+04  0.14849163069E+04  0.50400001928E-02 0. -1.
       -1   -1    0    0    0  501  0.00000000000E+00  0.00000000000E+00 -0.18324806163E+04  0.18324806163E+04  0.50400001928E-02 0.  1.
    10030    2    1    2    0    0  0.00000000000E+00  0.00000000000E+00 -0.34756430937E+03  0.33173969232E+04  0.32991394934E+04 0.  0.
        1    1    3    3  502    0  0.58653512022E+03  0.11500393529E+04 -0.12063370009E+04  0.17668794301E+04  0.50400001928E-02 0.  1.
       -1    1    3    3    0  502 -0.58653512022E+03 -0.11500393529E+04  0.85877269158E+03  0.15505174931E+04  0.50400001928E-02 0. -1.
</event>
<event>
 5   0  0.2309822E-08  0.3300676E+04  0.7818609E-02  0.8162723E-01
       -1   -1    0    0    0  501  0.00000000000E+00  0.00000000000E+00  0.11762308462E+04  0.11762308462E+04  0.50400001928E-02 0. -1.
        1   -1    0    0  501    0  0.00000000000E+00  0.00000000000E+00 -0.23155445415E+04  0.23155445415E+04  0.50400001928E-02 0.  1.
    10030    2    1    2    0    0  0.00000000000E+00  0.00000000000E+00 -0.11393136953E+04  0.34917753878E+04  0.33006756372E+04 0.  0.
        4    1    3    3  502    0 -0.10899583454E+03  0.30297972793E+03 -0.22819922436E+04  0.23045969323E+04  0.12699999809E+01 0.  1.
       -4    1    3    3    0  502  0.10899583454E+03 -0.30297972793E+03  0.11426785483E+04  0.11871784555E+04  0.12699999809E+01 0. -1.
</event>
<event>
 5   0  0.6706080E-08  0.3300686E+04  0.7818609E-02  0.8162721E-01
       -2   -1    0    0    0  501  0.00000000000E+00  0.00000000000E+00  0.11639544196E+04  0.11639544196E+04  0.25500000920E-02 0.  1.
        2   -1    0    0  501    0  0.00000000000E+00  0.00000000000E+00 -0.23399823574E+04  0.23399823574E+04  0.25500000920E-02 0. -1.
    10030    2    1    2    0    0  0.00000000000E+00  0.00000000000E+00 -0.11760279379E+04  0.35039367770E+04  0.33006864781E+04 0.  0.
        4    1    3    3  502    0  0.13415037813E+04  0.95323371984E+03 -0.45651414864E+03  0.17078330424E+04  0.12699999809E+01 0. -1.
       -4    1    3    3    0  502 -0.13415037813E+04 -0.95323371984E+03 -0.71951378923E+03  0.17961037346E+04  0.12699999809E+01 0.  1.
</event>
<event>
 5   0  0.2279938E-08  0.3302339E+04  0.7818609E-02  0.8162301E-01
       -1   -1    0    0    0  501  0.00000000000E+00  0.00000000000E+00  0.16815414782E+04  0.16815414782E+04  0.50400001928E-02 0.  1.
        1   -1    0    0  501    0  0.00000000000E+00  0.00000000000E+00 -0.16213459513E+04  0.16213459513E+04  0.50400001928E-02 0. -1.
    10030    2    1    2    0    0  0.00000000000E+00  0.00000000000E+00  0.60195526884E+02  0.33028874295E+04  0.33023388485E+04 0.  0.
        3    1    3    3  502    0 -0.69474024979E+03  0.13304980011E+04  0.71830473094E+03  0.16639863708E+04  0.10100000352E+00 0.  1.
       -3    1    3    3    0  502  0.69474024979E+03 -0.13304980011E+04 -0.65810920405E+03  0.16389010587E+04  0.10100000352E+00 0. -1.
</event>
<event>
 5   0  0.2383270E-08  0.3303263E+04  0.7818609E-02  0.8162066E-01
        1   -1    0    0  501    0  0.00000000000E+00  0.00000000000E+00  0.95204724393E+03  0.95204724394E+03  0.50400001928E-02 0.  1.
       -1   -1    0    0    0  501  0.00000000000E+00  0.00000000000E+00 -0.28652845675E+04  0.28652845675E+04  0.50400001928E-02 0. -1.
    10030    2    1    2    0    0  0.00000000000E+00  0.00000000000E+00 -0.19132373236E+04  0.38173318115E+04  0.33032627964E+04 0.  0.
        5    1    3    3  502    0  0.50960589302E+03  0.10470549844E+04 -0.23101515532E+04  0.25870532648E+04  0.46999998093E+01 0. -1.
       -5    1    3    3    0  502 -0.50960589302E+03 -0.10470549844E+04  0.39691422959E+03  0.12302785466E+04  0.46999998093E+01 0.  1.
</event>
<event>
 5   0  0.2309822E-08  0.3300540E+04  0.7818609E-02  0.8162758E-01
        1   -1    0    0  501    0  0.00000000000E+00  0.00000000000E+00  0.18653488638E+04  0.18653488638E+04  0.50400001928E-02 0.  1.
       -1   -1    0    0    0  501  0.00000000000E+00  0.00000000000E+00 -0.14599900390E+04  0.14599900391E+04  0.50400001928E-02 0. -1.
    10030    2    1    2    0    0  0.00000000000E+00  0.00000000000E+00  0.40535882473E+03  0.33253389028E+04  0.33005398107E+04 0.  0.
        4    1    3    3  502    0 -0.54105815929E+03 -0.11380560958E+03  0.17692557375E+04  0.18536351113E+04  0.12699999809E+01 0.  1.
       -4    1    3    3    0  502  0.54105815929E+03  0.11380560958E+03 -0.13638969127E+04  0.14717037915E+04  0.12699999809E+01 0. -1.
</event>
<event>
 5   0  0.6765252E-08  0.3300779E+04  0.7818609E-02  0.8162697E-01
       -2   -1    0    0    0  501  0.00000000000E+00  0.00000000000E+00  0.12277927997E+04  0.12277927997E+04  0.25500000920E-02 0. -1.
        2   -1    0    0  501    0  0.00000000000E+00  0.00000000000E+00 -0.22184404133E+04  0.22184404133E+04  0.25500000920E-02 0.  1.
    10030    2    1    2    0    0  0.00000000000E+00  0.00000000000E+00 -0.99064761355E+03  0.34462332130E+04  0.33007787966E+04 0.  0.
        2    1    3    3  502    0  0.27990973793E+03  0.94941372683E+03 -0.18741439484E+04  0.21194696095E+04  0.25500000920E-02 0.  1.
       -2    1    3    3    0  502 -0.27990973793E+03 -0.94941372683E+03  0.88349633485E+03  0.13267636036E+04  0.25500000920E-02 0. -1.
</event>
<event>
 5   0  0.6706080E-08  0.3311594E+04  0.7818609E-02  0.8159951E-01
       -2   -1    0    0    0  501  0.00000000000E+00  0.00000000000E+00  0.17380876926E+04  0.17380876926E+04  0.25500000920E-02 0.  1.
        2   -1    0    0  501    0  0.00000000000E+00  0.00000000000E+00 -0.15774026937E+04  0.15774026937E+04  0.25500000920E-02 0. -1.
    10030    2    1    2    0    0  0.00000000000E+00  0.00000000000E+00  0.16068499890E+03  0.33154903863E+04  0.33115943038E+04 0.  0.
        4    1    3    3  502    0 -0.10557752440E+04 -0.12563542515E+04  0.30099967425E+03  0.16684393270E+04  0.12699999809E+01 0.  1.
       -4    1    3    3    0  502  0.10557752440E+04  0.12563542515E+04 -0.14031467535E+03  0.16470510593E+04  0.12699999809E+01 0. -1.
</event>
<event>
 5   0  0.6706080E-08  0.3299867E+04  0.7818609E-02  0.8162929E-01
       -2   -1    0    0    0  501  0.00000000000E+00  0.00000000000E+00  0.15002740421E+04  0.15002740421E+04  0.25500000920E-02 0. -1.
        2   -1    0    0  501    0  0.00000000000E+00  0.00000000000E+00 -0.18145216578E+04  0.18145216578E+04  0.25500000920E-02 0.  1.
    10030    2    1    2    0    0  0.00000000000E+00  0.00000000000E+00 -0.31424761576E+03  0.33147956999E+04  0.32998665076E+04 0.  0.
        4    1    3    3  502    0 -0.71146595870E+03 -0.20695073793E+03 -0.16379933792E+04  0.17977865116E+04  0.12699999809E+01 0.  1.
       -4    1    3    3    0  502  0.71146595870E+03  0.20695073793E+03  0.13237457634E+04  0.15170091883E+04  0.12699999809E+01 0. -1.
</event>
<event>
 5   0  0.2309822E-08  0.3303446E+04  0.7818609E-02  0.8162019E-01
        1   -1    0    0  501    0  0.00000000000E+00  0.00000000000E+00  0.89753613358E+03  0.89753613359E+03  0.50400001928E-02 0.  1.
       -1   -1    0    0    0  501  0.00000000000E+00  0.00000000000E+00 -0.30396419770E+04  0.30396419770E+04  0.50400001928E-02 0. -1.
    10030    2    1    2    0    0  0.00000000000E+00  0.00000000000E+00 -0.21421058434E+04  0.39371781106E+04  0.33034457813E+04 0.  0.
        4    1    3    3  502    0  0.52684492958E+02  0.14228424846E+04 -0.20688801685E+04  0.25114782810E+04  0.12699999809E+01 0. -1.
       -4    1    3    3    0  502 -0.52684492958E+02 -0.14228424846E+04 -0.73225674965E+02  0.14256998296E+04  0.12699999809E+01 0.  1.
</event>
<event>
 5   0  0.6765252E-08  0.3300167E+04  0.7818609E-02  0.8162853E-01
       -2   -1    0    0    0  501  0.00000000000E+00  0.00000000000E+00  0.14296855346E+04  0.14296855346E+04  0.25500000920E-02 0. -1.
        2   -1    0    0  501    0  0.00000000000E+00  0.00000000000E+00 -0.19044581753E+04  0.19044581753E+04  0.25500000920E-02 0.  1.
    10030    2    1    2    0    0  0.00000000000E+00  0.00000000000E+00 -0.47477264062E+03  0.33341437099E+04  0.33001674530E+04 0.  0.
        2    1    3    3  502    0  0.11176216992E+03 -0.14726050354E+04  0.50620745514E+03  0.15611862030E+04  0.25500000920E-02 0. -1.
       -2    1    3    3    0  502 -0.11176216992E+03  0.14726050354E+04 -0.98098009576E+03  0.17729575069E+04  0.25500000920E-02 0.  1.
</event>
<event>
 5   0  0.6706080E-08  0.3299388E+04  0.7818609E-02  0.8163051E-01
       -2   -1    0    0    0  501  0.00000000000E+00  0.00000000000E+00  0.10957415468E+04  0.10957415468E+04  0.25500000920E-02 0. -1.
        2   -1    0    0  501    0  0.00000000000E+00  0.00000000000E+00 -0.24836969227E+04  0.24836969227E+04  0.25500000920E-02 0.  1.
    10030    2    1    2    0    0  0.00000000000E+00  0.00000000000E+00 -0.13879553759E+04  0.35794384695E+04  0.32993877662E+04 0.  0.
        4    1    3    3  502    0  0.42608307768E+03 -0.15908532457E+04 -0.79762461507E+03  0.18299091447E+04  0.12699999809E+01 0. -1.
       -4    1    3    3    0  502 -0.42608307768E+03  0.15908532457E+04 -0.59033076084E+03  0.17495293248E+04  0.12699999809E+01 0.  1.
</event>
<event>
 5   0  0.6821287E-08  0.3300449E+04  0.7818609E-02  0.8162781E-01
       -2   -1    0    0    0  501  0.00000000000E+00  0.00000000000E+00  0.12811302764E+04  0.12811302764E+04  0.25500000920E-02 0. -1.
        2   -1    0    0  501    0  0.00000000000E+00  0.00000000000E+00 -0.21256549751E+04  0.21256549751E+04  0.25500000920E-02 0.  1.
    10030    2    1    2    0    0  0.00000000000E+00  0.00000000000E+00 -0.84452469872E+03  0.34067852514E+04  0.33004490274E+04 0.  0.
        5    1    3    3  502    0 -0.49748282655E+03  0.14946467744E+04 -0.92979570780E+03  0.18292075583E+04  0.46999998093E+01 0.  1.
       -5    1    3    3    0  502  0.49748282655E+03 -0.14946467744E+04  0.85271009084E+02  0.15775776932E+04  0.46999998093E+01 0. -1.
</event>
<event>
 5   0  0.2291682E-08  0.3298650E+04  0.7818609E-02  0.8163239E-01
        1   -1    0    0  501    0  0.00000000000E+00  0.00000000000E+00  0.25731580615E+04  0.25731580615E+04  0.50400001928E-02 0. -1.
       -1   -1    0    0    0  501  0.00000000000E+00  0.00000000000E+00 -0.10571725978E+04  0.10571725978E+04  0.50400001928E-02 0.  1.
    10030    2    1    2    0    0  0.00000000000E+00  0.00000000000E+00  0.15159854637E+04  0.36303306593E+04  0.32986495373E+04 0.  0.
        2    1    3    3  502    0  0.13546122961E+04 -0.49553577143E+03 -0.12227026302E+03  0.14475773522E+04  0.25500000920E-02 0.  1.
       -2    1    3    3    0  502 -0.13546122961E+04  0.49553577143E+03  0.16382557267E+04  0.21827533071E+04  0.25500000920E-02 0. -1.
</event>
<event>
 5   0  0.6821287E-08  0.3300087E+04  0.7818609E-02  0.8162873E-01
        2   -1    0    0  501    0  0.00000000000E+00  0.00000000000E+00  0.21334473274E+04  0.21334473274E+04  0.25500000920E-02 0.  1.
       -2   -1    0    0    0  501  0.00000000000E+00  0.00000000000E+00 -0.12761710182E+04  0.12761710182E+04  0.25500000920E-02 0. -1.
    10030    2    1    2    0    0  0.00000000000E+00  0.00000000000E+00  0.85727630927E+03  0.34096183456E+04  0.33000870583E+04 0.  0.
        5    1    3    3  502    0 -0.52386232567E+03  0.10903801779E+04 -0.73077501637E+03  0.14132992900E+04  0.46999998093E+01 0. -1.
       -5    1    3    3    0  502  0.52386232567E+03 -0.10903801779E+04  0.15880513256E+04  0.19963190555E+04  0.46999998093E+01 0.  1.
</event>
<event>
 5   0  0.2383270E-08  0.3291387E+04  0.7818609E-02  0.8165090E-01
        1   -1    0    0  501    0  0.00000000000E+00  0.00000000000E+00  0.15124798278E+04  0.15124798278E+04  0.50400001928E-02 0. -1.
       -1   -1    0    0    0  501  0.00000000000E+00  0.00000000000E+00 -0.17906399407E+04  0.17906399407E+04  0.50400001928E-02 0.  1.
    10030    2    1    2    0    0  0.00000000000E+00  0.00000000000E+00 -0.27816011291E+03  0.33031197685E+04  0.32913868136E+04 0.  0.
        5    1    3    3  502    0 -0.86843124234E+03  0.10132993949E+04  0.82733570872E+03  0.15701767262E+04  0.46999998093E+01 0. -1.
       -5    1    3    3    0  502  0.86843124234E+03 -0.10132993949E+04 -0.11054958216E+04  0.17329430424E+04  0.46999998093E+01 0.  1.
</event>
<event>
 5   0  0.2291682E-08  0.3299563E+04  0.7818609E-02  0.8163006E-01
        1   -1    0    0  501    0  0.00000000000E+00  0.00000000000E+00  0.21082928347E+04  0.21082928347E+04  0.50400001928E-02 0. -1.
       -1   -1    0    0    0  501  0.00000000000E+00  0.00000000000E+00 -0.12909875453E+04  0.12909875454E+04  0.50400001928E-02 0.  1.
    10030    2    1    2    0    0  0.00000000000E+00  0.00000000000E+00  0.81730528934E+03  0.33992803800E+04  0.32995634812E+04 0.  0.
        2    1    3    3  502    0  0.95310102002E+03  0.42541678532E+03 -0.90761326101E+03  0.13831640637E+04  0.25500000920E-02 0.  1.
       -2    1    3    3    0  502 -0.95310102002E+03 -0.42541678532E+03  0.17249185503E+04  0.20161163163E+04  0.25500000920E-02 0. -1.
</event>
<event>
 5   0  0.6603516E-08  0.3300588E+04  0.7818609E-02  0.8162746E-01
        2   -1    0    0  501    0  0.00000000000E+00  0.00000000000E+00  0.22221843094E+04  0.22221843094E+04  0.25500000920E-02 0. -1.
       -2   -1    0    0    0  501  0.00000000000E+00  0.00000000000E+00 -0.12255825543E+04  0.12255825543E+04  0.25500000920E-02 0.  1.
    10030    2    1    2    0    0  0.00000000000E+00  0.00000000000E+00  0.99660175507E+03  0.34477668637E+04  0.33005880216E+04 0.  0.
        1    1    3    3  502    0 -0.36706891384E+02  0.14583691943E+04  0.13042507436E+04  0.19568490246E+04  0.50400001928E-02 0. -1.
       -1    1    3    3    0  502  0.36706891384E+02 -0.14583691943E+04 -0.30764898853E+03  0.14909178391E+04  0.50400001928E-02 0.  1.
</event>
<event>
 5   0  0.2309822E-08  0.3301797E+04  0.7818609E-02  0.8162438E-01
       -1   -1    0    0    0  501  0.00000000000E+00  0.00000000000E+00  0.14225851262E+04  0.14225851262E+04  0.50400001928E-02 0.  1.
        1   -1    0    0  501    0  0.00000000000E+00  0.00000000000E+00 -0.19158548613E+04  0.19158548613E+04  0.50400001928E-02 0. -1.
    10030    2    1    2    0    0  0.00000000000E+00  0.00000000000E+00 -0.49326973510E+03  0.33384399875E+04  0.33017974678E+04 0.  0.
        4    1    3    3  502    0 -0.34974236331E+03  0.15237398952E+04  0.28968747096E+03  0.15899759220E+04  0.12699999809E+01 0.  1.
       -4    1    3    3    0  502  0.34974236331E+03 -0.15237398952E+04 -0.78295720607E+03  0.17484640655E+04  0.12699999809E+01 0. -1.
</event>
<event>
 5   0  0.7084130E-08  0.3296953E+04  0.7818609E-02  0.8163671E-01
        2   -1    0    0  501    0  0.00000000000E+00  0.00000000000E+00  0.29607705783E+04  0.29607705783E+04  0.25500000920E-02 0. -1.
       -2   -1    0    0    0  501  0.00000000000E+00  0.00000000000E+00 -0.91782713721E+03  0.91782713721E+03  0.25500000920E-02 0.  1.
    10030    2    1    2    0    0  0.00000000000E+00  0.00000000000E+00  0.20429434411E+04  0.38785977155E+04  0.32969534931E+04 0.  0.
        3    1    3    3  502    0  0.84501695566E+02  0.29527354532E+03  0.29268155630E+04  0.29428857186E+04  0.10100000352E+00 0. -1.
       -3    1    3    3    0  502 -0.84501695566E+02 -0.29527354532E+03 -0.88387212186E+03  0.93571199689E+03  0.10100000352E+00 0.  1.
</event>
<event>
 5   0  0.2383270E-08  0.3294452E+04  0.7818609E-02  0.8164309E-01
        1   -1    0    0  501    0  0.00000000000E+00  0.00000000000E+00  0.10633710794E+04  0.10633710794E+04  0.50400001928E-02 0.  1.
       -1   -1    0    0    0  501  0.00000000000E+00  0.00000000000E+00 -0.25516517863E+04  0.25516517863E+04  0.50400001928E-02 0. -1.
    10030    2    1    2    0    0  0.00000000000E+00  0.00000000000E+00 -0.14882807068E+04  0.36150228657E+04  0.32944515260E+04 0.  0.
        5    1    3    3  502    0 -0.20919846115E+03 -0.11687554211E+04 -0.19969824484E+04  0.23232981340E+04  0.46999998093E+01 0.  1.
       -5    1    3    3    0  502  0.20919846115E+03  0.11687554211E+04  0.50870174152E+03  0.12917247317E+04  0.46999998093E+01 0. -1.
</event>
<event>
 5   0  0.2279938E-08  0.3299553E+04  0.7818609E-02  0.8163009E-01
       -1   -1    0    0    0  501  0.00000000000E+00  0.00000000000E+00  0.16810324292E+04  0.16810324292E+04  0.50400001928E-02 0. -1.
        1   -1    0    0  501    0  0.00000000000E+00  0.00000000000E+00 -0.16191015444E+04  0.16191015444E+04  0.50400001928E-02 0.  1.
    10030    2    1    2    0    0  0.00000000000E+00  0.00000000000E+00  0.61930884797E+02  0.33001339736E+04  0.32995528196E+04 0.  0.
        3    1    3    3  502    0  0.13669088094E+04  0.53357796183E+03 -0.72323438352E+03  0.16359135425E+04  0.10100000352E+00 0.  1.
       -3    1    3    3    0  502 -0.13669088094E+04 -0.53357796183E+03  0.78516526832E+03  0.16642204311E+04  0.10100000352E+00 0. -1.
</event>
<event>
 5   0  0.2200750E-08  0.3299687E+04  0.7818609E-02  0.8162975E-01
        3   -1    0    0  501    0  0.00000000000E+00  0.00000000000E+00  0.17174883489E+04  0.17174883519E+04  0.10100000352E+00 0.  1.
       -3   -1    0    0    0  501  0.00000000000E+00  0.00000000000E+00 -0.15848633488E+04  0.15848633521E+04  0.10100000352E+00 0. -1.
    10030    2    1    2    0    0  0.00000000000E+00  0.00000000000E+00  0.13262500010E+03  0.33023517040E+04  0.32996874679E+04 0.  0.
        3    1    3    3  502    0 -0.49842334978E+03  0.82179496968E+03 -0.12757443271E+04  0.15972778112E+04  0.10100000352E+00 0. -1.
       -3    1    3    3    0  502  0.49842334978E+03 -0.82179496968E+03  0.14083693272E+04  0.17050738928E+04  0.10100000352E+00 0.  1.
</event>
<event>
 5   0  0.6765252E-08  0.3303552E+04  0.7818609E-02  0.8161992E-01
        2   -1    0    0  501    0  0.00000000000E+00  0.00000000000E+00  0.15672687558E+04  0.15672687558E+04  0.25500000920E-02 0. -1.
       -2   -1    0    0    0  501  0.00000000000E+00  0.00000000000E+00 -0.17408402244E+04  0.17408402244E+04  0.25500000920E-02 0.  1.
    10030    2    1    2    0    0  0.00000000000E+00  0.00000000000E+00 -0.17357146860E+03  0.33081089802E+04  0.33035523259E+04 0.  0.
        2    1    3    3  502    0 -0.14348171924E+04  0.24252270345E+03  0.69585921936E+03  0.16129902946E+04  0.25500000920E-02 0. -1.
       -2    1    3    3    0  502  0.14348171924E+04 -0.24252270345E+03 -0.86943068796E+03  0.16951186856E+04  0.25500000920E-02 0.  1.
</event>
<event>
 5   0  0.6821287E-08  0.3296710E+04  0.7818609E-02  0.8163733E-01
       -2   -1    0    0    0  501  0.00000000000E+00  0.00000000000E+00  0.18989441360E+04  0.18989441360E+04  0.25500000920E-02 0.  1.
        2   -1    0    0  501    0  0.00000000000E+00  0.00000000000E+00 -0.14308340928E+04  0.14308340928E+04  0.25500000920E-02 0. -1.
    10030    2    1    2    0    0  0.00000000000E+00  0.00000000000E+00  0.46811004320E+03  0.33297782289E+04  0.32967098812E+04 0.  0.
        5    1    3    3  502    0 -0.14861702838E+03 -0.62986868941E+03 -0.12971429877E+04  0.14496287827E+04  0.46999998093E+01 0. -1.
       -5    1    3    3    0  502  0.14861702838E+03  0.62986868941E+03  0.17652530309E+04  0.18801494462E+04  0.46999998093E+01 0.  1.
</event>
<event>
 5   0  0.2309822E-08  0.3299186E+04  0.7818609E-02  0.8163102E-01
       -1   -1    0    0    0  501  0.00000000000E+00  0.00000000000E+00  0.11834718774E+04  0.11834718774E+04  0.50400001928E-02 0.  1.
        1   -1    0    0  501    0  0.00000000000E+00  0.00000000000E+00 -0.22993007345E+04  0.22993007346E+04  0.50400001928E-02 0. -1.
    10030    2    1    2    0    0  0.00000000000E+00  0.00000000000E+00 -0.11158288572E+04  0.34827726119E+04  0.32991864191E+04 0.  0.
        4    1    3    3  502    0 -0.21203974431E+03  0.42546212579E+03 -0.22254264270E+04  0.22756324985E+04  0.12699999809E+01 0. -1.
       -4    1    3    3    0  502  0.21203974431E+03 -0.42546212579E+03  0.11095975698E+04  0.12071401134E+04  0.12699999809E+01 0.  1.
</event>
<event>
 5   0  0.6706080E-08  0.3299120E+04  0.7818609E-02  0.8163119E-01
        2   -1    0    0  501    0  0.00000000000E+00  0.00000000000E+00  0.13859942419E+04  0.13859942419E+04  0.25500000920E-02 0. -1.
       -2   -1    0    0    0  501  0.00000000000E+00  0.00000000000E+00 -0.19632458696E+04  0.19632458696E+04  0.25500000920E-02 0.  1.
    10030    2    1    2    0    0  0.00000000000E+00  0.00000000000E+00 -0.57725162763E+03  0.33492401115E+04  0.32991195618E+04 0.  0.
        4    1    3    3  502    0  0.54516371575E+03  0.57593761622E+03  0.11797709477E+04  0.14215374482E+04  0.12699999809E+01 0. -1.
       -4    1    3    3    0  502 -0.54516371575E+03 -0.57593761622E+03 -0.17570225754E+04  0.19277026633E+04  0.12699999809E+01 0.  1.
</event>
<event>
 5   0  0.2383270E-08  0.3304225E+04  0.7818609E-02  0.8161821E-01
        1   -1    0    0  501    0  0.00000000000E+00  0.00000000000E+00  0.14958805386E+04  0.14958805387E+04  0.50400001928E-02 0. -1.
       -1   -1    0    0    0  501  0.00000000000E+00  0.00000000000E+00 -0.18246610874E+04  0.18246610874E+04  0.50400001928E-02 0.  1.
    10030    2    1    2    0    0  0.00000000000E+00  0.00000000000E+00 -0.32878054872E+03  0.33205416260E+04  0.33042245748E+04 0.  0.
        5    1    3    3  502    0  0.13376448108E+04 -0.40894410476E+03 -0.10478927449E+04  0.17477500437E+04  0.46999998093E+01 0. -1.
       -5    1    3    3    0  502 -0.13376448108E+04  0.40894410476E+03  0.71911219617E+03  0.15727915823E+04  0.46999998093E+01 0.  1.
</event>
<event>
 5   0  0.6765252E-08  0.3304302E+04  0.7818609E-02  0.8161802E-01
       -2   -1    0    0    0  501  0.00000000000E+00  0.00000000000E+00  0.16916076054E+04  0.16916076054E+04  0.25500000920E-02 0.  1.
        2   -1    0    0  501    0  0.00000000000E+00  0.00000000000E+00 -0.16136147992E+04  0.16136147992E+04  0.25500000920E-02 0. -1.
    10030    2    1    2    0    0  0.00000000000E+00  0.00000000000E+00  0.77992806157E+02  0.33052224046E+04  0.33043020846E+04 0.  0.
        2    1    3    3  502    0  0.16413528216E+04  0.12941084796E+03 -0.98216195837E+02  0.16493734185E+04  0.25500000920E-02 0.  1.
       -2    1    3    3    0  502 -0.16413528216E+04 -0.12941084796E+03  0.17620900199E+03  0.16558489861E+04  0.25500000920E-02 0. -1.
</event>
<event>
 5   0  0.7084130E-08  0.3299091E+04  0.7818609E-02  0.8163127E-01
       -2   -1    0    0    0  501  0.00000000000E+00  0.00000000000E+00  0.10017774699E+04  0.10017774699E+04  0.25500000920E-02 0. -1.
        2   -1    0    0  501    0  0.00000000000E+00  0.00000000000E+00 -0.27161723919E+04  0.27161723919E+04  0.25500000920E-02 0.  1.
    10030    2    1    2    0    0  0.00000000000E+00  0.00000000000E+00 -0.17143949221E+04  0.37179498618E+04  0.32990909697E+04 0.  0.
        3    1    3    3  502    0 -0.22528606033E+02  0.42079230434E+03  0.94009536933E+03  0.10302198868E+04  0.10100000352E+00 0. -1.
       -3    1    3    3    0  502  0.22528606033E+02 -0.42079230434E+03 -0.26544902914E+04  0.26877299751E+04  0.10100000352E+00 0.  1.
</event>
<event>
 5   0  0.2291682E-08  0.3299474E+04  0.7818609E-02  0.8163029E-01
       -1   -1    0    0    0  501  0.00000000000E+00  0.00000000000E+00  0.13425605613E+04  0.13425605614E+04  0.50400001928E-02 0. -1.
        1   -1    0    0  501    0  0.00000000000E+00  0.00000000000E+00 -0.20271956791E+04  0.20271956791E+04  0.50400001928E-02 0.  1.
    10030    2    1    2    0    0  0.00000000000E+00  0.00000000000E+00 -0.68463511772E+03  0.33697562404E+04  0.32994744847E+04 0.  0.
        2    1    3    3  502    0  0.11216135846E+04  0.11955005674E+04 -0.15291007614E+03  0.16463961040E+04  0.25500000920E-02 0. -1.
       -2    1    3    3    0  502 -0.11216135846E+04 -0.11955005674E+04 -0.53172504158E+03  0.17233601364E+04  0.25500000920E-02 0.  1.
</event>
<event>
 5   0  0.2383270E-08  0.3302515E+04  0.7818609E-02  0.8162256E-01
       -1   -1    0    0    0  501  0.00000000000E+00  0.00000000000E+00  0.11828137036E+04  0.11828137036E+04  0.50400001928E-02 0. -1.
        1   -1    0    0  501    0  0.00000000000E+00  0.00000000000E+00 -0.23052241493E+04  0.23052241493E+04  0.50400001928E-02 0.  1.
    10030    2    1    2    0    0  0.00000000000E+00  0.00000000000E+00 -0.11224104457E+04  0.34880378528E+04  0.33025146259E+04 0.  0.
        5    1    3    3  502    0 -0.11810972026E+04 -0.22433808667E+03  0.63433343272E+03  0.13593083436E+04  0.46999998093E+01 0. -1.
       -5    1    3    3    0  502  0.11810972026E+04  0.22433808667E+03 -0.17567438784E+04  0.21287295092E+04  0.46999998093E+01 0.  1.
</event>
<event>
 5   0  0.7084130E-08  0.3299602E+04  0.7818609E-02  0.8162997E-01
        2   -1    0    0  501    0  0.00000000000E+00  0.00000000000E+00  0.16781594828E+04  0.16781594828E+04  0.25500000920E-02 0. -1.
       -2   -1    0    0    0  501  0.00000000000E+00  0.00000000000E+00 -0.16219219629E+04  0.16219219629E+04  0.25500000920E-02 0.  1.
    10030    2    1    2    0    0  0.00000000000E+00  0.00000000000E+00  0.56237519953E+02  0.33000814457E+04  0.32996022321E+04 0.  0.
        3    1    3    3  502    0 -0.10090869347E+04 -0.72101069698E+03  0.11162707281E+04  0.16685841949E+04  0.10100000352E+00 0. -1.
       -3    1    3    3    0  502  0.10090869347E+04  0.72101069698E+03 -0.10600332081E+04  0.16314972508E+04  0.10100000352E+00 0.  1.
</event>
<event>
 5   0  0.7084130E-08  0.3297637E+04  0.7818609E-02  0.8163497E-01
        2   -1    0    0  501    0  0.00000000000E+00  0.00000000000E+00  0.15814094165E+04  0.15814094165E+04  0.25500000920E-02 0. -1.
       -2   -1    0    0    0  501  0.00000000000E+00  0.00000000000E+00 -0.17191007761E+04  0.17191007761E+04  0.25500000920E-02 0.  1.
    10030    2    1    2    0    0  0.00000000000E+00  0.00000000000E+00 -0.13769135956E+03  0.33005101926E+04  0.32976368237E+04 0.  0.
        3    1    3    3  502    0  0.15069587923E+04  0.63380588162E+03  0.14574134077E+03  0.16413029111E+04  0.10100000352E+00 0.  1.
       -3    1    3    3    0  502 -0.15069587923E+04 -0.63380588162E+03 -0.28343270034E+03  0.16592072815E+04  0.10100000352E+00 0. -1.
</event>
<event>
 5   0  0.6765252E-08  0.3302327E+04  0.7818609E-02  0.8162303E-01
        2   -1    0    0  501    0  0.00000000000E+00  0.00000000000E+00  0.12472308383E+04  0.12472308383E+04  0.25500000920E-02 0.  1.
       -2   -1    0    0    0  501  0.00000000000E+00  0.00000000000E+00 -0.21859157489E+04  0.21859157489E+04  0.25500000920E-02 0. -1.
    10030    2    1    2    0    0  0.00000000000E+00  0.00000000000E+00 -0.93868491060E+03  0.34331465872E+04  0.33023273805E+04 0.  0.
        2    1    3    3  502    0  0.15860916639E+04  0.43573958652E+03 -0.31945842242E+03  0.16755922646E+04  0.25500000920E-02 0. -1.
       -2    1    3    3    0  502 -0.15860916639E+04 -0.43573958652E+03 -0.61922648817E+03  0.17575543227E+04  0.25500000920E-02 0.  1.
</event>
<event>
 5   0  0.2244093E-08  0.3300305E+04  0.7818609E-02  0.8162818E-01
        1   -1    0    0  501    0  0.00000000000E+00  0.00000000000E+00  0.17070427410E+04  0.17070427410E+04  0.50400001928E-02 0.  1.
       -1   -1    0    0    0  501  0.00000000000E+00  0.00000000000E+00 -0.15951580685E+04  0.15951580685E+04  0.50400001928E-02 0. -1.
    10030    2    1    2    0    0  0.00000000000E+00  0.00000000000E+00  0.11188467252E+03  0.33022008095E+04  0.33003048354E+04 0.  0.
        1    1    3    3  502    0 -0.85847507149E+02  0.20065401166E+03  0.16925381863E+04  0.17065512999E+04  0.50400001928E-02 0.  1.
       -1    1    3    3    0  502  0.85847507149E+02 -0.20065401166E+03 -0.15806535138E+04  0.15956495096E+04  0.50400001928E-02 0. -1.
</event>
<event>
 5   0  0.6706080E-08  0.3304346E+04  0.7818609E-02  0.8161790E-01
       -2   -1    0    0    0  501  0.00000000000E+00  0.00000000000E+00  0.13247412057E+04  0.13247412057E+04  0.25500000920E-02 0. -1.
        2   -1    0    0  501    0  0.00000000000E+00  0.00000000000E+00 -0.20605352331E+04  0.20605352331E+04  0.25500000920E-02 0.  1.
    10030    2    1    2    0    0  0.00000000000E+00  0.00000000000E+00 -0.73579402737E+03  0.33852764388E+04  0.33043461859E+04 0.  0.
        4    1    3    3  502    0  0.55844150739E+03 -0.64531455804E+03  0.10814556836E+04  0.13776196153E+04  0.12699999809E+01 0. -1.
       -4    1    3    3    0  502 -0.55844150739E+03  0.64531455804E+03 -0.18172497110E+04  0.20076568235E+04  0.12699999809E+01 0.  1.
</event>
<event>
 5   0  0.7084130E-08  0.3298882E+04  0.7818609E-02  0.8163180E-01
        2   -1    0    0  501    0  0.00000000000E+00  0.00000000000E+00  0.19590596437E+04  0.19590596437E+04  0.25500000920E-02 0.  1.
       -2   -1    0    0    0  501  0.00000000000E+00  0.00000000000E+00 -0.13887557742E+04  0.13887557742E+04  0.25500000920E-02 0. -1.
    10030    2    1    2    0    0  0.00000000000E+00  0.00000000000E+00  0.57030386949E+03  0.33478154179E+04  0.32988818664E+04 0.  0.
        3    1    3    3  502    0 -0.76889520028E+03  0.43064476297E+02  0.17654181758E+04  0.19260726164E+04  0.10100000352E+00 0.  1.
       -3    1    3    3    0  502  0.76889520028E+03 -0.43064476297E+02 -0.11951143063E+04  0.14217428014E+04  0.10100000352E+00 0. -1.
</event>
<event>
 5   0  0.2291682E-08  0.3301681E+04  0.7818609E-02  0.8162468E-01
        1   -1    0    0  501    0  0.00000000000E+00  0.00000000000E+00  0.21280485196E+04  0.21280485196E+04  0.50400001928E-02 0.  1.
       -1   -1    0    0    0  501  0.00000000000E+00  0.00000000000E+00 -0.12806447048E+04  0.12806447048E+04  0.50400001928E-02 0. -1.
    10030    2    1    2    0    0  0.00000000000E+00  0.00000000000E+00  0.84740381481E+03  0.34086932244E+04  0.33016808254E+04 0.  0.
        2    1    3    3  502    0 -0.41150521369E+03  0.80322298675E+03 -0.10034068718E+04  0.13495662480E+04  0.25500000920E-02 0. -1.
       -2    1    3    3    0  502  0.41150521369E+03 -0.80322298675E+03  0.18508106866E+04  0.20591269764E+04  0.25500000920E-02 0.  1.
</event>
<event>
 5   0  0.2244093E-08  0.3292280E+04  0.7818609E-02  0.8164862E-01
       -1   -1    0    0    0  501  0.00000000000E+00  0.00000000000E+00  0.17509226152E+04  0.17509226152E+04  0.50400001928E-02 0.  1.
        1   -1    0    0  501    0  0.00000000000E+00  0.00000000000E+00 -0.15476284403E+04  0.15476284403E+04  0.50400001928E-02 0. -1.
    10030    2    1    2    0    0  0.00000000000E+00  0.00000000000E+00  0.20329417487E+03  0.32985510555E+04  0.32922804474E+04 0.  0.
        1    1    3    3  502    0  0.56554235136E+03  0.45106162005E+03  0.15831394958E+04  0.17405819140E+04  0.50400001928E-02 0.  1.
       -1    1    3    3    0  502 -0.56554235136E+03 -0.45106162005E+03 -0.13798453209E+04  0.15579691415E+04  0.50400001928E-02 0. -1.
</event>
<event>
 5   0  0.6603516E-08  0.3299226E+04  0.7818609E-02  0.8163092E-01
       -2   -1    0    0    0  501  0.00000000000E+00  0.00000000000E+00  0.10758581595E+04  0.10758581595E+04  0.25500000920E-02 0.  1.
        2   -1    0    0  501    0  0.00000000000E+00  0.00000000000E+00 -0.25293513089E+04  0.25293513089E+04  0.25500000920E-02 0. -1.
    10030    2    1    2    0    0  0.00000000000E+00  0.00000000000E+00 -0.14534931494E+04  0.36052094684E+04  0.32992261177E+04 0.  0.
        1    1    3    3  502    0 -0.15269895413E+04 -0.62063234538E+03 -0.79874900307E+03  0.18316335707E+04  0.50400001928E-02 0.  1.
       -1    1    3    3    0  502  0.15269895413E+04  0.62063234538E+03 -0.65474414637E+03  0.17735758976E+04  0.50400001928E-02 0. -1.
</event>
<event>
 5   0  0.2383270E-08  0.3300242E+04  0.7818609E-02  0.8162834E-01
       -1   -1    0    0    0  501  0.00000000000E+00  0.00000000000E+00  0.12972396247E+04  0.12972396247E+04  0.50400001928E-02 0.  1.
        1   -1    0    0  501    0  0.00000000000E+00  0.00000000000E+00 -0.20989944540E+04  0.20989944540E+04  0.50400001928E-02 0. -1.
    10030    2    1    2    0    0  0.00000000000E+00  0.00000000000E+00 -0.80175482930E+03  0.33962340788E+04  0.33002416747E+04 0.  0.
        5    1    3    3  502    0  0.79678275486E+03  0.11045876014E+04 -0.13595863070E+04  0.19244410991E+04  0.46999998093E+01 0. -1.
       -5    1    3    3    0  502 -0.79678275486E+03 -0.11045876014E+04  0.55783147767E+03  0.14717929797E+04  0.46999998093E+01 0.  1.
</event>
<event>
 5   0  0.2244093E-08  0.3301390E+04  0.7818609E-02  0.8162542E-01
        1   -1    0    0  501    0  0.00000000000E+00  0.00000000000E+00  0.20895922142E+04  0.20895922142E+04  0.50400001928E-02 0.  1.
       -1   -1    0    0    0  501  0.00000000000E+00  0.00000000000E+00 -0.13039838571E+04  0.13039838571E+04  0.50400001928E-02 0. -1.
    10030    2    1    2    0    0  0.00000000000E+00  0.00000000000E+00  0.78560835714E+03  0.33935760713E+04  0.33013903225E+04 0.  0.
        1    1    3    3  502    0  0.10059714491E+04 -0.12830123923E+04  0.12733880938E+03  0.16353331550E+04  0.50400001928E-02 0. -1.
       -1    1    3    3    0  502 -0.10059714491E+04  0.12830123923E+04  0.65826954776E+03  0.17582429164E+04  0.50400001928E-02 0.  1.
</event>
<event>
 5   0  0.7084130E-08  0.3301889E+04  0.7818609E-02  0.8162415E-01
       -2   -1    0    0    0  501  0.00000000000E+00  0.00000000000E+00  0.12651082355E+04  0.12651082355E+04  0.25500000920E-02 0.  1.
        2   -1    0    0  501    0  0.00000000000E+00  0.00000000000E+00 -0.21544546318E+04  0.21544546318E+04  0.25500000920E-02 0. -1.
    10030    2    1    2    0    0  0.00000000000E+00  0.00000000000E+00 -0.88934639631E+03  0.34195628673E+04  0.33018893366E+04 0.  0.
        3    1    3    3  502    0 -0.12471324901E+04  0.10290945734E+04 -0.99255319484E+02  0.16199465169E+04  0.10100000352E+00 0.  1.
       -3    1    3    3    0  502  0.12471324901E+04 -0.10290945734E+04 -0.79009107683E+03  0.17996163504E+04  0.10100000352E+00 0. -1.
</event>
<event>
 5   0  0.2244093E-08  0.3300237E+04  0.7818609E-02  0.8162835E-01
       -1   -1    0    0    0  501  0.00000000000E+00  0.00000000000E+00  0.12808828339E+04  0.12808828339E+04  0.50400001928E-02 0. -1.
        1   -1    0    0  501    0  0.00000000000E+00  0.00000000000E+00 -0.21257919507E+04  0.21257919507E+04  0.50400001928E-02 0.  1.
    10030    2    1    2    0    0  0.00000000000E+00  0.00000000000E+00 -0.84490911675E+03  0.34066747846E+04  0.33002366086E+04 0.  0.
        1    1    3    3  502    0  0.65574179381E+02 -0.97031270532E+03 -0.17985214319E+04  0.20446236965E+04  0.50400001928E-02 0.  1.
       -1    1    3    3    0  502 -0.65574179381E+02  0.97031270532E+03  0.95361231514E+03  0.13620510881E+04  0.50400001928E-02 0. -1.
</event>
<event>
 5   0  0.2244093E-08  0.3296879E+04  0.7818609E-02  0.8163690E-01
       -1   -1    0    0    0  501  0.00000000000E+00  0.00000000000E+00  0.13967615242E+04  0.13967615242E+04  0.50400001928E-02 0.  1.
        1   -1    0    0  501    0  0.00000000000E+00  0.00000000000E+00 -0.19454670020E+04  0.19454670020E+04  0.50400001928E-02 0. -1.
    10030    2    1    2    0    0  0.00000000000E+00  0.00000000000E+00 -0.54870547781E+03  0.33422285262E+04  0.32968794064E+04 0.  0.
        1    1    3    3  502    0 -0.24166136176E+03 -0.10241024951E+04  0.10120252016E+04  0.14599250470E+04  0.50400001928E-02 0.  1.
       -1    1    3    3    0  502  0.24166136176E+03  0.10241024951E+04 -0.15607306794E+04  0.18823034792E+04  0.50400001928E-02 0. -1.
</event>
<event>
 5   0  0.2291682E-08  0.3305803E+04  0.7818609E-02  0.8161420E-01
       -1   -1    0    0    0  501  0.00000000000E+00  0.00000000000E+00  0.15933411362E+04  0.15933411362E+04  0.50400001928E-02 0. -1.
        1   -1    0    0  501    0  0.00000000000E+00  0.00000000000E+00 -0.17146880508E+04  0.17146880508E+04  0.50400001928E-02 0.  1.
    10030    2    1    2    0    0  0.00000000000E+00  0.00000000000E+00 -0.12134691458E+03  0.33080291870E+04  0.33058027813E+04 0.  0.
        2    1    3    3  502    0 -0.66493448614E+03  0.15012512549E+04  0.12969084830E+03  0.16470315472E+04  0.25500000920E-02 0.  1.
       -2    1    3    3    0  502  0.66493448614E+03 -0.15012512549E+04 -0.25103776288E+03  0.16609976399E+04  0.25500000920E-02 0. -1.
</event>
<event>
 5   0  0.6603516E-08  0.3298919E+04  0.7818609E-02  0.8163171E-01
        2   -1    0    0  501    0  0.00000000000E+00  0.00000000000E+00  0.23415150708E+04  0.23415150708E+04  0.25500000920E-02 0. -1.
       -2   -1    0    0    0  501  0.00000000000E+00  0.00000000000E+00 -0.11619469633E+04  0.11619469633E+04  0.25500000920E-02 0.  1.
    10030    2    1    2    0    0  0.00000000000E+00  0.00000000000E+00  0.11795681075E+04  0.35034620342E+04  0.32989188084E+04 0.  0.
        1    1    3    3  502    0 -0.67660990253E+03 -0.91177933388E+03 -0.68088560874E+03  0.13239137910E+04  0.50400001928E-02 0.  1.
       -1    1    3    3    0  502  0.67660990253E+03  0.91177933388E+03  0.18604537162E+04  0.21795482431E+04  0.50400001928E-02 0. -1.
</event>
<event>
 5   0  0.2200750E-08  0.3298422E+04  0.7818609E-02  0.8163297E-01
       -3   -1    0    0    0  501  0.00000000000E+00  0.00000000000E+00  0.11893108709E+04  0.11893108752E+04  0.10100000352E+00 0. -1.
        3   -1    0    0  501    0  0.00000000000E+00  0.00000000000E+00 -0.22869524348E+04  0.22869524371E+04  0.10100000352E+00 0.  1.
    10030    2    1    2    0    0  0.00000000000E+00  0.00000000000E+00 -0.10976415639E+04  0.34762633123E+04  0.32984222916E+04 0.  0.
        3    1    3    3  502    0 -0.11190771771E+04 -0.83000029904E+03 -0.14788170900E+04  0.20317810464E+04  0.10100000352E+00 0.  1.
       -3    1    3    3    0  502  0.11190771771E+04  0.83000029904E+03  0.38117552609E+03  0.14444822659E+04  0.10100000352E+00 0. -1.
</event>
<event>
 5   0  0.7084130E-08  0.3298915E+04  0.7818609E-02  0.8163172E-01
       -2   -1    0    0    0  501  0.00000000000E+00  0.00000000000E+00  0.14256405699E+04  0.14256405699E+04  0.25500000920E-02 0. -1.
        2   -1    0    0  501    0  0.00000000000E+00  0.00000000000E+00 -0.19084122933E+04  0.19084122933E+04  0.25500000920E-02 0.  1.
    10030    2    1    2    0    0  0.00000000000E+00  0.00000000000E+00 -0.48277172339E+03  0.33340528632E+04  0.32989149667E+04 0.  0.
        3    1    3    3  502    0 -0.12940360368E+04  0.10227940876E+04 -0.23275268806E+03  0.16657763458E+04  0.10100000352E+00 0.  1.
       -3    1    3    3    0  502  0.12940360368E+04 -0.10227940876E+04 -0.25001903533E+03  0.16682765174E+04  0.10100000352E+00 0. -1.
</event>
<event>
 5   0  0.6765252E-08  0.3300276E+04  0.7818609E-02  0.8162825E-01
        2   -1    0    0  501    0  0.00000000000E+00  0.00000000000E+00  0.19645607411E+04  0.19645607411E+04  0.25500000920E-02 0.  1.
       -2   -1    0    0    0  501  0.00000000000E+00  0.00000000000E+00 -0.13860378467E+04  0.13860378467E+04  0.25500000920E-02 0. -1.
    10030    2    1    2    0    0  0.00000000000E+00  0.00000000000E+00  0.57852289439E+03  0.33505985877E+04  0.33002760728E+04 0.  0.
        2    1    3    3  502    0  0.12948259955E+04  0.54074266087E+03  0.11708209418E+04  0.18275116037E+04  0.25500000920E-02 0.  1.
       -2    1    3    3    0  502 -0.12948259955E+04 -0.54074266087E+03 -0.59229804744E+03  0.15230869840E+04  0.25500000920E-02 0. -1.
</event>
<event>
 5   0  0.6706080E-08  0.3298768E+04  0.7818609E-02  0.8163209E-01
        2   -1    0    0  501    0  0.00000000000E+00  0.00000000000E+00  0.96959578573E+03  0.96959578573E+03  0.25500000920E-02 0.  1.
       -2   -1    0    0    0  501  0.00000000000E+00  0.00000000000E+00 -0.28057748689E+04  0.28057748689E+04  0.25500000920E-02 0. -1.
    10030    2    1    2    0    0  0.00000000000E+00  0.00000000000E+00 -0.18361790831E+04  0.37753706546E+04  0.32987679449E+04 0.  0.
        4    1    3    3  502    0  0.13563486756E+04 -0.49521900787E+03 -0.57005137522E+01  0.14439382620E+04  0.12699999809E+01 0.  1.
       -4    1    3    3    0  502 -0.13563486756E+04  0.49521900787E+03 -0.18304785694E+04  0.23314323927E+04  0.12699999809E+01 0. -1.
</event>
<event>
 5   0  0.7084130E-08  0.3300057E+04  0.7818609E-02  0.8162881E-01
       -2   -1    0    0    0  501  0.00000000000E+00  0.00000000000E+00  0.19069268104E+04  0.19069268104E+04  0.25500000920E-02 0. -1.
        2   -1    0    0  501    0  0.00000000000E+00  0.00000000000E+00 -0.14277387355E+04  0.14277387355E+04  0.25500000920E-02 0.  1.
    10030    2    1    2    0    0  0.00000000000E+00  0.00000000000E+00  0.47918807486E+03  0.33346655459E+04  0.33000565286E+04 0.  0.
        3    1    3    3  502    0  0.46267074307E+03  0.86871476280E+03  0.15778180666E+04  0.18596342159E+04  0.10100000352E+00 0. -1.
       -3    1    3    3    0  502 -0.46267074307E+03 -0.86871476280E+03 -0.10986299917E+04  0.14750313300E+04  0.10100000352E+00 0.  1.
</event>
<event>
 5   0  0.2244093E-08  0.3300608E+04  0.7818609E-02  0.8162741E-01
       -1   -1    0    0    0  501  0.00000000000E+00  0.00000000000E+00  0.13360439815E+04  0.13360439815E+04  0.50400001928E-02 0. -1.
        1   -1    0    0  501    0  0.00000000000E+00  0.00000000000E+00 -0.20384826527E+04  0.20384826527E+04  0.50400001928E-02 0.  1.
    10030    2    1    2    0    0  0.00000000000E+00  0.00000000000E+00 -0.70243867129E+03  0.33745266342E+04  0.33006075074E+04 0.  0.
        1    1    3    3  502    0  0.68469812667E+03 -0.11056243445E+03  0.11798046622E+04  0.13685666288E+04  0.50400001928E-02 0. -1.
       -1    1    3    3    0  502 -0.68469812667E+03  0.11056243445E+03 -0.18822433335E+04  0.20059600054E+04  0.50400001928E-02 0.  1.
</event>
<event>
 5   0  0.2200750E-08  0.3299176E+04  0.7818609E-02  0.8163105E-01
        3   -1    0    0  501    0  0.00000000000E+00  0.00000000000E+00  0.31140175199E+04  0.31140175215E+04  0.10100000352E+00 0. -1.
       -3   -1    0    0    0  501  0.00000000000E+00  0.00000000000E+00 -0.87383617885E+03  0.87383618469E+03  0.10100000352E+00 0.  1.
    10030    2    1    2    0    0  0.00000000000E+00  0.00000000000E+00  0.22401813410E+04  0.39878537062E+04  0.32991763732E+04 0.  0.
        1    1    3    3  502    0  0.45504233795E+03  0.14521643052E+04  0.18896110113E+04  0.24262057771E+04  0.50400001928E-02 0. -1.
       -1    1    3    3    0  502 -0.45504233795E+03 -0.14521643052E+04  0.35057032974E+03  0.15616479292E+04  0.50400001928E-02 0.  1.
</event>
<event>
 5   0  0.6706080E-08  0.3299622E+04  0.7818609E-02  0.8162992E-01
        2   -1    0    0  501    0  0.00000000000E+00  0.00000000000E+00  0.28238099925E+04  0.28238099925E+04  0.25500000920E-02 0. -1.
       -2   -1    0    0    0  501  0.00000000000E+00  0.00000000000E+00 -0.96390197137E+03  0.96390197137E+03  0.25500000920E-02 0.  1.
    10030    2    1    2    0    0  0.00000000000E+00  0.00000000000E+00  0.18599080211E+04  0.37877119639E+04  0.32996218078E+04 0.  0.
        4    1    3    3  502    0 -0.35800801307E+03  0.75083984266E+02  0.27766718451E+04  0.28006634018E+04  0.12699999809E+01 0. -1.
       -4    1    3    3    0  502  0.35800801307E+03 -0.75083984266E+02 -0.91676382394E+03  0.98704856207E+03  0.12699999809E+01 0.  1.
</event>
<event>
 5   0  0.6765252E-08  0.3294675E+04  0.7818609E-02  0.8164252E-01
        2   -1    0    0  501    0  0.00000000000E+00  0.00000000000E+00  0.18599890882E+04  0.18599890882E+04  0.25500000920E-02 0. -1.
       -2   -1    0    0    0  501  0.00000000000E+00  0.00000000000E+00 -0.14589983428E+04  0.14589983428E+04  0.25500000920E-02 0.  1.
    10030    2    1    2    0    0  0.00000000000E+00  0.00000000000E+00  0.40099074541E+03  0.33189874310E+04  0.32946750961E+04 0.  0.
        2    1    3    3  502    0 -0.73688580402E+03 -0.14380648860E+04  0.52331240564E+03  0.16984955633E+04  0.25500000920E-02 0. -1.
       -2    1    3    3    0  502  0.73688580402E+03  0.14380648860E+04 -0.12232166022E+03  0.16204918677E+04  0.25500000920E-02 0.  1.
</event>
<event>
 5   0  0.2291682E-08  0.3298613E+04  0.7818609E-02  0.8163248E-01
       -1   -1    0    0    0  501  0.00000000000E+00  0.00000000000E+00  0.31017810057E+04  0.31017810057E+04  0.50400001928E-02 0.  1.
        1   -1    0    0  501    0  0.00000000000E+00  0.00000000000E+00 -0.87698397332E+03  0.87698397334E+03  0.50400001928E-02 0. -1.
    10030    2    1    2    0    0  0.00000000000E+00  0.00000000000E+00  0.22247970324E+04  0.39787649791E+04  0.32986131818E+04 0.  0.
        2    1    3    3  502    0 -0.34866088898E+03  0.67288732061E+03 -0.65452865026E+03  0.10013738142E+04  0.25500000920E-02 0. -1.
       -2    1    3    3    0  502  0.34866088898E+03 -0.67288732061E+03  0.28793256827E+04  0.29773911649E+04  0.25500000920E-02 0.  1.
</event>
<event>
 5   0  0.2291682E-08  0.3307927E+04  0.7818609E-02  0.8160881E-01
        1   -1    0    0  501    0  0.00000000000E+00  0.00000000000E+00  0.16704396710E+04  0.16704396710E+04  0.50400001928E-02 0. -1.
       -1   -1    0    0    0  501  0.00000000000E+00  0.00000000000E+00 -0.16376495450E+04  0.16376495450E+04  0.50400001928E-02 0.  1.
    10030    2    1    2    0    0  0.00000000000E+00  0.00000000000E+00  0.32790126031E+02  0.33080892160E+04  0.33079267024E+04 0.  0.
        2    1    3    3  502    0 -0.52038784692E+03 -0.10629453756E+04  0.11718471628E+04  0.16654975700E+04  0.25500000920E-02 0. -1.
       -2    1    3    3    0  502  0.52038784692E+03  0.10629453756E+04 -0.11390570367E+04  0.16425916460E+04  0.25500000920E-02 0.  1.
</event>
<event>
 5   0  0.6603516E-08  0.3301095E+04  0.7818609E-02  0.8162617E-01
        2   -1    0    0  501    0  0.00000000000E+00  0.00000000000E+00  0.25128613591E+04  0.25128613591E+04  0.25500000920E-02 0.  1.
       -2   -1    0    0    0  501  0.00000000000E+00  0.00000000000E+00 -0.10841452607E+04  0.10841452607E+04  0.25500000920E-02 0. -1.
    10030    2    1    2    0    0  0.00000000000E+00  0.00000000000E+00  0.14287160984E+04  0.35970066197E+04  0.33010948082E+04 0.  0.
        1    1    3    3  502    0 -0.25684425402E+02  0.88263753048E+03 -0.80513305060E+03  0.11949677523E+04  0.50400001928E-02 0. -1.
       -1    1    3    3    0  502  0.25684425402E+02 -0.88263753048E+03  0.22338491490E+04  0.24020388674E+04  0.50400001928E-02 0.  1.
</event>
<event>
 5   0  0.2244093E-08  0.3299695E+04  0.7818609E-02  0.8162973E-01
        1   -1    0    0  501    0  0.00000000000E+00  0.00000000000E+00  0.14596379979E+04  0.14596379979E+04  0.50400001928E-02 0.  1.
       -1   -1    0    0    0  501  0.00000000000E+00  0.00000000000E+00 -0.18648434302E+04  0.18648434302E+04  0.50400001928E-02 0. -1.
    10030    2    1    2    0    0  0.00000000000E+00  0.00000000000E+00 -0.40520543233E+03  0.33244814281E+04  0.32996947319E+04 0.  0.
        1    1    3    3  502    0 -0.78464250565E+03 -0.11818024213E+04 -0.10513532411E+04  0.17656909305E+04  0.50400001928E-02 0.  1.
       -1    1    3    3    0  502  0.78464250565E+03  0.11818024213E+04  0.64614780878E+03  0.15587904976E+04  0.50400001928E-02 0. -1.
</event>
<event>
 5   0  0.2383270E-08  0.3301097E+04  0.7818609E-02  0.8162616E-01
       -1   -1    0    0    0  501  0.00000000000E+00  0.00000000000E+00  0.20924165410E+04  0.20924165411E+04  0.50400001928E-02 0. -1.
        1   -1    0    0  501    0  0.00000000000E+00  0.00000000000E+00 -0.13019925211E+04  0.13019925212E+04  0.50400001928E-02 0.  1.
    10030    2    1    2    0    0  0.00000000000E+00  0.00000000000E+00  0.79042401991E+03  0.33944090622E+04  0.33010972040E+04 0.  0.
        5    1    3    3  502    0  0.92569237389E+03  0.46277932431E+03 -0.92690796120E+03  0.13893349246E+04  0.46999998093E+01 0.  1.
       -5    1    3    3    0  502 -0.92569237389E+03 -0.46277932431E+03  0.17173319811E+04  0.20050741376E+04  0.46999998093E+01 0. -1.
</event>
<event>
 5   0  0.2244093E-08  0.3299704E+04  0.7818609E-02  0.8162971E-01
        1   -1    0    0  501    0  0.00000000000E+00  0.00000000000E+00  0.22108312535E+04  0.22108312535E+04  0.50400001928E-02 0.  1.
       -1   -1    0    0    0  501  0.00000000000E+00  0.00000000000E+00 -0.12312163744E+04  0.12312163744E+04  0.50400001928E-02 0. -1.
    10030    2    1    2    0    0  0.00000000000E+00  0.00000000000E+00  0.97961487911E+03  0.34420476279E+04  0.32997040112E+04 0.  0.
        1    1    3    3  502    0 -0.15724144953E+04 -0.49202052154E+03  0.39983047701E+03  0.16954161580E+04  0.50400001928E-02 0. -1.
       -1    1    3    3    0  502  0.15724144953E+04  0.49202052154E+03  0.57978440210E+03  0.17466314699E+04  0.50400001928E-02 0.  1.
</event>
<event>
 5   0  0.2279938E-08  0.3300664E+04  0.7818609E-02  0.8162726E-01
       -1   -1    0    0    0  501  0.00000000000E+00  0.00000000000E+00  0.13187357675E+04  0.13187357675E+04  0.50400001928E-02 0. -1.
        1   -1    0    0  501    0  0.00000000000E+00  0.00000000000E+00 -0.20653079867E+04  0.20653079868E+04  0.50400001928E-02 0.  1.
    10030    2    1    2    0    0  0.00000000000E+00  0.00000000000E+00 -0.74657221923E+03  0.33840437543E+04  0.33006638805E+04 0.  0.
        3    1    3    3  502    0  0.12819439246E+04 -0.70353216138E+03 -0.11576331550E+04  0.18650609265E+04  0.10100000352E+00 0. -1.
       -3    1    3    3    0  502 -0.12819439246E+04  0.70353216138E+03  0.41106093573E+03  0.15189828278E+04  0.10100000352E+00 0.  1.
</event>
<event>
 5   0  0.6603516E-08  0.3301684E+04  0.7818609E-02  0.8162467E-01
        2   -1    0    0  501    0  0.00000000000E+00  0.00000000000E+00  0.21388133340E+04  0.21388133340E+04  0.25500000920E-02 0. -1.
       -2   -1    0    0    0  501  0.00000000000E+00  0.00000000000E+00 -0.12742018842E+04  0.12742018842E+04  0.25500000920E-02 0.  1.
    10030    2    1    2    0    0  0.00000000000E+00  0.00000000000E+00  0.86461144979E+03  0.34130152182E+04  0.33016844065E+04 0.  0.
        1    1    3    3  502    0  0.53342358785E+03 -0.13892764265E+04  0.11709995144E+04  0.18936392412E+04  0.50400001928E-02 0.  1.
       -1    1    3    3    0  502 -0.53342358785E+03  0.13892764265E+04 -0.30638806458E+03  0.15193759769E+04  0.50400001928E-02 0. -1.
</event>
<event>
 5   0  0.6603516E-08  0.3299072E+04  0.7818609E-02  0.8163132E-01
       -2   -1    0    0    0  501  0.00000000000E+00  0.00000000000E+00  0.24083240117E+04  0.24083240117E+04  0.25500000920E-02 0. -1.
        2   -1    0    0  501    0  0.00000000000E+00  0.00000000000E+00 -0.11298185925E+04  0.11298185925E+04  0.25500000920E-02 0.  1.
    10030    2    1    2    0    0  0.00000000000E+00  0.00000000000E+00  0.12785054192E+04  0.35381426042E+04  0.32990721394E+04 0.  0.
        1    1    3    3  502    0  0.74399692214E+03 -0.74719406396E+03 -0.72119007570E+03  0.12774762286E+04  0.50400001928E-02 0.  1.
       -1    1    3    3    0  502 -0.74399692214E+03  0.74719406396E+03  0.19996954949E+04  0.22606663756E+04  0.50400001928E-02 0. -1.
</event>
<event>
 5   0  0.2200750E-08  0.3294806E+04  0.7818609E-02  0.8164218E-01
       -3   -1    0    0    0  501  0.00000000000E+00  0.00000000000E+00  0.11820185441E+04  0.11820185485E+04  0.10100000352E+00 0.  1.
        3   -1    0    0  501    0  0.00000000000E+00  0.00000000000E+00 -0.22960182863E+04  0.22960182885E+04  0.10100000352E+00 0. -1.
    10030    2    1    2    0    0  0.00000000000E+00  0.00000000000E+00 -0.11139997421E+04  0.34780368370E+04  0.32948057323E+04 0.  0.
        5    1    3    3  502    0 -0.67880757864E+03 -0.15007570332E+04 -0.58800526774E+03  0.17489493093E+04  0.46999998093E+01 0. -1.
       -5    1    3    3    0  502  0.67880757864E+03  0.15007570332E+04 -0.52599447440E+03  0.17290875277E+04  0.46999998093E+01 0.  1.
</event>
<event>
 5   0  0.6706080E-08  0.3300105E+04  0.7818609E-02  0.8162869E-01
        2   -1    0    0  501    0  0.00000000000E+00  0.00000000000E+00  0.20284118069E+04  0.20284118069E+04  0.25500000920E-02 0.  1.
       -2   -1    0    0    0  501  0.00000000000E+00  0.00000000000E+00 -0.13422683156E+04  0.13422683156E+04  0.25500000920E-02 0. -1.
    10030    2    1    2    0    0  0.00000000000E+00  0.00000000000E+00  0.68614349127E+03  0.33706801225E+04  0.33001047858E+04 0.  0.
        4    1    3    3  502    0 -0.10695112629E+04  0.12430974482E+04  0.15605581507E+03  0.16472706631E+04  0.12699999809E+01 0.  1.
       -4    1    3    3    0  502  0.10695112629E+04 -0.12430974482E+04  0.53008767620E+03  0.17234094594E+04  0.12699999809E+01 0. -1.
</event>
<event>
 5   0  0.2291682E-08  0.3300957E+04  0.7818609E-02  0.8162652E-01
       -1   -1    0    0    0  501  0.00000000000E+00  0.00000000000E+00  0.17526519757E+04  0.17526519757E+04  0.50400001928E-02 0.  1.
        1   -1    0    0  501    0  0.00000000000E+00  0.00000000000E+00 -0.15542616953E+04  0.15542616953E+04  0.50400001928E-02 0. -1.
    10030    2    1    2    0    0  0.00000000000E+00  0.00000000000E+00  0.19839028039E+03  0.33069136710E+04  0.33009573344E+04 0.  0.
        2    1    3    3  502    0 -0.65894522065E+03 -0.14957465395E+04  0.32898496126E+03  0.16672425195E+04  0.25500000920E-02 0.  1.
       -2    1    3    3    0  502  0.65894522065E+03  0.14957465395E+04 -0.13059468087E+03  0.16396711514E+04  0.25500000920E-02 0. -1.
</event>
<event>
 5   0  0.6821287E-08  0.3298158E+04  0.7818609E-02  0.8163364E-01
       -2   -1    0    0    0  501  0.00000000000E+00  0.00000000000E+00  0.14777851774E+04  0.14777851774E+04  0.25500000920E-02 0. -1.
        2   -1    0    0  501    0  0.00000000000E+00  0.00000000000E+00 -0.18402283587E+04  0.18402283587E+04  0.25500000920E-02 0.  1.
    10030    2    1    2    0    0  0.00000000000E+00  0.00000000000E+00 -0.36244318127E+03  0.33180135362E+04  0.32981583901E+04 0.  0.
        5    1    3    3  502    0 -0.53836277839E+03  0.14591414045E+04  0.37026828208E+03  0.15987647764E+04  0.46999998093E+01 0. -1.
       -5    1    3    3    0  502  0.53836277839E+03 -0.14591414045E+04 -0.73271146335E+03  0.17192487598E+04  0.46999998093E+01 0.  1.
</event>
<event>
 5   0  0.6821287E-08  0.3299244E+04  0.7818609E-02  0.8163088E-01
       -2   -1    0    0    0  501  0.00000000000E+00  0.00000000000E+00  0.25862604202E+04  0.25862604202E+04  0.25500000920E-02 0.  1.
        2   -1    0    0  501    0  0.00000000000E+00  0.00000000000E+00 -0.10521960118E+04  0.10521960118E+04  0.25500000920E-02 0. -1.
    10030    2    1    2    0    0  0.00000000000E+00  0.00000000000E+00  0.15340644084E+04  0.36384564320E+04  0.32992440949E+04 0.  0.
        5    1    3    3  502    0  0.15246301252E+04 -0.53844729486E+03  0.11274491777E+04  0.19711890438E+04  0.46999998093E+01 0.  1.
       -5    1    3    3    0  502 -0.15246301252E+04  0.53844729486E+03  0.40661523073E+03  0.16672673882E+04  0.46999998093E+01 0. -1.
</event>
<event>
 5   0  0.7084130E-08  0.3299817E+04  0.7818609E-02  0.8162942E-01
       -2   -1    0    0    0  501  0.00000000000E+00  0.00000000000E+00  0.10868065661E+04  0.10868065661E+04  0.25500000920E-02 0.  1.
        2   -1    0    0  501    0  0.00000000000E+00  0.00000000000E+00 -0.25047684047E+04  0.25047684047E+04  0.25500000920E-02 0. -1.
    10030    2    1    2    0    0  0.00000000000E+00  0.00000000000E+00 -0.14179618386E+04  0.35915749708E+04  0.32998174185E+04 0.  0.
        3    1    3    3  502    0  0.12145344357E+04 -0.10943997867E+04 -0.95087871128E+03  0.18912892752E+04  0.10100000352E+00 0.  1.
       -3    1    3    3    0  502 -0.12145344357E+04  0.10943997867E+04 -0.46708312728E+03  0.17002856956E+04  0.10100000352E+00 0. -1.
</event>
<event>
 5   0  0.6821287E-08  0.3298621E+04  0.7818609E-02  0.8163246E-01
        2   -1    0    0  501    0  0.00000000000E+00  0.00000000000E+00  0.12781199045E+04  0.12781199045E+04  0.25500000920E-02 0.  1.
       -2   -1    0    0    0  501  0.00000000000E+00  0.00000000000E+00 -0.21283023722E+04  0.21283023722E+04  0.25500000920E-02 0. -1.
    10030    2    1    2    0    0  0.00000000000E+00  0.00000000000E+00 -0.85018246769E+03  0.34064222767E+04  0.32986213027E+04 0.  0.
        5    1    3    3  502    0  0.13721129647E+04 -0.69251164311E+03 -0.10429218497E+04  0.18574106811E+04  0.46999998093E+01 0. -1.
       -5    1    3    3    0  502 -0.13721129647E+04  0.69251164311E+03  0.19273938205E+03  0.15490115955E+04  0.46999998093E+01 0.  1.
</event>
<event>
 5   0  0.6765252E-08  0.3299706E+04  0.7818609E-02  0.8162970E-01
        2   -1    0    0  501    0  0.00000000000E+00  0.00000000000E+00  0.19790320431E+04  0.19790320431E+04  0.25500000920E-02 0.  1.
       -2   -1    0    0    0  501  0.00000000000E+00  0.00000000000E+00 -0.13754272716E+04  0.13754272716E+04  0.25500000920E-02 0. -1.
    10030    2    1    2    0    0  0.00000000000E+00  0.00000000000E+00  0.60360477150E+03  0.33544593148E+04  0.32997058315E+04 0.  0.
        2    1    3    3  502    0  0.19079073422E+03  0.41314230643E+03  0.19139692626E+04  0.19673245812E+04  0.25500000920E-02 0.  1.
       -2    1    3    3    0  502 -0.19079073422E+03 -0.41314230643E+03 -0.13103644911E+04  0.13871347336E+04  0.25500000920E-02 0. -1.
</event>
<event>
 5   0  0.6821287E-08  0.3299752E+04  0.7818609E-02  0.8162958E-01
        2   -1    0    0  501    0  0.00000000000E+00  0.00000000000E+00  0.18694796444E+04  0.18694796444E+04  0.25500000920E-02 0. -1.
       -2   -1    0    0    0  501  0.00000000000E+00  0.00000000000E+00 -0.14560688259E+04  0.14560688259E+04  0.25500000920E-02 0.  1.
    10030    2    1    2    0    0  0.00000000000E+00  0.00000000000E+00  0.41341081849E+03  0.33255484704E+04  0.32997521307E+04 0.  0.
        5    1    3    3  502    0  0.26532791209E+03 -0.15422311094E+04  0.73347044749E+03  0.17282582802E+04  0.46999998093E+01 0. -1.
       -5    1    3    3    0  502 -0.26532791209E+03  0.15422311094E+04 -0.32005962900E+03  0.15972901902E+04  0.46999998093E+01 0.  1.
</event>
<event>
 5   0  0.6765252E-08  0.3298416E+04  0.7818609E-02  0.8163299E-01
        2   -1    0    0  501    0  0.00000000000E+00  0.00000000000E+00  0.94759608834E+03  0.94759608834E+03  0.25500000920E-02 0. -1.
       -2   -1    0    0    0  501  0.00000000000E+00  0.00000000000E+00 -0.28703021755E+04  0.28703021755E+04  0.25500000920E-02 0.  1.
    10030    2    1    2    0    0  0.00000000000E+00  0.00000000000E+00 -0.19227060872E+04  0.38178982639E+04  0.32984160525E+04 0.  0.
        2    1    3    3  502    0 -0.13019282062E+04  0.90387867553E+03 -0.14890910543E+04  0.21747197249E+04  0.25500000920E-02 0.  1.
       -2    1    3    3    0  502  0.13019282062E+04 -0.90387867553E+03 -0.43361503291E+03  0.16431785389E+04  0.25500000920E-02 0. -1.
</event>
<event>
 5   0  0.6706080E-08  0.3300525E+04  0.7818609E-02  0.8162762E-01
       -2   -1    0    0    0  501  0.00000000000E+00  0.00000000000E+00  0.15346581490E+04  0.15346581490E+04  0.25500000920E-02 0.  1.
        2   -1    0    0  501    0  0.00000000000E+00  0.00000000000E+00 -0.17745751177E+04  0.17745751177E+04  0.25500000920E-02 0. -1.
    10030    2    1    2    0    0  0.00000000000E+00  0.00000000000E+00 -0.23991696875E+03  0.33092332667E+04  0.33005249069E+04 0.  0.
        4    1    3    3  502    0  0.13074960851E+04  0.10012098670E+04 -0.12918469573E+02  0.16468563113E+04  0.12699999809E+01 0.  1.
       -4    1    3    3    0  502 -0.13074960851E+04 -0.10012098670E+04 -0.22699849918E+03  0.16623769554E+04  0.12699999809E+01 0. -1.
</event>
<event>
 5   0  0.6603516E-08  0.3300537E+04  0.7818609E-02  0.8162759E-01
        2   -1    0    0  501    0  0.00000000000E+00  0.00000000000E+00  0.24031566304E+04  0.24031566304E+04  0.25500000920E-02 0.  1.
       -2   -1    0    0    0  501  0.00000000000E+00  0.00000000000E+00 -0.11332538615E+04  0.11332538615E+04  0.25500000920E-02 0. -1.
    10030    2    1    2    0    0  0.00000000000E+00  0.00000000000E+00  0.12699027689E+04  0.35364104919E+04  0.33005372479E+04 0.  0.
        1    1    3    3  502    0 -0.54797142476E+03  0.14885413554E+02 -0.10328528976E+04  0.11693072163E+04  0.50400001928E-02 0. -1.
       -1    1    3    3    0  502  0.54797142476E+03 -0.14885413554E+02  0.23027556665E+04  0.23671032757E+04  0.50400001928E-02 0.  1.
</event>
<event>
 5   0  0.2244093E-08  0.3302439E+04  0.7818609E-02  0.8162275E-01
        1   -1    0    0  501    0  0.00000000000E+00  0.00000000000E+00  0.25888930627E+04  0.25888930627E+04  0.50400001928E-02 0. -1.
       -1   -1    0    0    0  501  0.00000000000E+00  0.00000000000E+00 -0.10531630405E+04  0.10531630406E+04  0.50400001928E-02 0.  1.
    10030    2    1    2    0    0  0.00000000000E+00  0.00000000000E+00  0.15357300222E+04  0.36420561033E+04  0.33024393951E+04 0.  0.
        1    1    3    3  502    0 -0.78225507329E+03 -0.11799195589E+04 -0.16947819763E+03  0.14257826007E+04  0.50400001928E-02 0.  1.
       -1    1    3    3    0  502  0.78225507329E+03  0.11799195589E+04  0.17052082198E+04  0.22162735025E+04  0.50400001928E-02 0. -1.
</event>
<event>
 5   0  0.2383270E-08  0.3301200E+04  0.7818609E-02  0.8162590E-01
        1   -1    0    0  501    0  0.00000000000E+00  0.00000000000E+00  0.17342859382E+04  0.17342859383E+04  0.50400001928E-02 0.  1.
       -1   -1    0    0    0  501  0.00000000000E+00  0.00000000000E+00 -0.15709518279E+04  0.15709518279E+04  0.50400001928E-02 0. -1.
    10030    2    1    2    0    0  0.00000000000E+00  0.00000000000E+00  0.16333411034E+03  0.33052377662E+04  0.33011995788E+04 0.  0.
        5    1    3    3  502    0  0.79221286809E+03  0.10065582508E+04  0.11239480714E+04  0.17041250241E+04  0.46999998093E+01 0.  1.
       -5    1    3    3    0  502 -0.79221286809E+03 -0.10065582508E+04 -0.96061396105E+03  0.16011127421E+04  0.46999998093E+01 0. -1.
</event>
<event>
 5   0  0.2291682E-08  0.3321498E+04  0.7818609E-02  0.8157447E-01
       -1   -1    0    0    0  501  0.00000000000E+00  0.00000000000E+00  0.10285402904E+04  0.10285402904E+04  0.50400001928E-02 0. -1.
        1   -1    0    0  501    0  0.00000000000E+00  0.00000000000E+00 -0.26815546694E+04  0.26815546694E+04  0.50400001928E-02 0.  1.
    10030    2    1    2    0    0  0.00000000000E+00  0.00000000000E+00 -0.16530143790E+04  0.37100949598E+04  0.33214978659E+04 0.  0.
        2    1    3    3  502    0  0.81654627831E+03  0.38885532383E+03 -0.23823529656E+04  0.25482468366E+04  0.25500000920E-02 0.  1.
       -2    1    3    3    0  502 -0.81654627831E+03 -0.38885532383E+03  0.72933858659E+03  0.11618481232E+04  0.25500000920E-02 0. -1.
</event>
<event>
 5   0  0.2383270E-08  0.3299955E+04  0.7818609E-02  0.8162907E-01
       -1   -1    0    0    0  501  0.00000000000E+00  0.00000000000E+00  0.29338803992E+04  0.29338803992E+04  0.50400001928E-02 0. -1.
        1   -1    0    0  501    0  0.00000000000E+00  0.00000000000E+00 -0.92792671530E+03  0.92792671532E+03  0.50400001928E-02 0.  1.
    10030    2    1    2    0    0  0.00000000000E+00  0.00000000000E+00  0.20059536839E+04  0.38618071145E+04  0.32999551524E+04 0.  0.
        5    1    3    3  502    0 -0.63073110784E+03 -0.28630078909E+03  0.27554840341E+04  0.28412152724E+04  0.46999998093E+01 0. -1.
       -5    1    3    3    0  502  0.63073110784E+03  0.28630078909E+03 -0.74953035020E+03  0.10205918421E+04  0.46999998093E+01 0.  1.
</event>
<event>
 5   0  0.6603516E-08  0.3300532E+04  0.7818609E-02  0.8162760E-01
        2   -1    0    0  501    0  0.00000000000E+00  0.00000000000E+00  0.24458164247E+04  0.24458164247E+04  0.25500000920E-02 0.  1.
       -2   -1    0    0    0  501  0.00000000000E+00  0.00000000000E+00 -0.11134840566E+04  0.11134840566E+04  0.25500000920E-02 0. -1.
    10030    2    1    2    0    0  0.00000000000E+00  0.00000000000E+00  0.13323323681E+04  0.35593004813E+04  0.33005318324E+04 0.  0.
        1    1    3    3  502    0  0.82680576658E+03 -0.13082340574E+04  0.12840571558E+04  0.20109417952E+04  0.50400001928E-02 0.  1.
       -1    1    3    3    0  502 -0.82680576658E+03  0.13082340574E+04  0.48275212319E+02  0.15483586860E+04  0.50400001928E-02 0. -1.
</event>
<event>
 5   0  0.6706080E-08  0.3298052E+04  0.7818609E-02  0.8163391E-01
        2   -1    0    0  501    0  0.00000000000E+00  0.00000000000E+00  0.12401297204E+04  0.12401297204E+04  0.25500000920E-02 0.  1.
       -2   -1    0    0    0  501  0.00000000000E+00  0.00000000000E+00 -0.21927437994E+04  0.21927437994E+04  0.25500000920E-02 0. -1.
    10030    2    1    2    0    0  0.00000000000E+00  0.00000000000E+00 -0.95261407895E+03  0.34328735198E+04  0.32980520037E+04 0.  0.
        4    1    3    3  502    0 -0.39750619538E+03  0.13861652280E+04 -0.13088931937E+04  0.19474773991E+04  0.12699999809E+01 0. -1.
       -4    1    3    3    0  502  0.39750619538E+03 -0.13861652280E+04  0.35627911470E+03  0.14853961206E+04  0.12699999809E+01 0.  1.
</event>
<event>
 5   0  0.2309822E-08  0.3301388E+04  0.7818609E-02  0.8162542E-01
        1   -1    0    0  501    0  0.00000000000E+00  0.00000000000E+00  0.14562542257E+04  0.14562542257E+04  0.50400001928E-02 0. -1.
       -1   -1    0    0    0  501  0.00000000000E+00  0.00000000000E+00 -0.18710960152E+04  0.18710960152E+04  0.50400001928E-02 0.  1.
    10030    2    1    2    0    0  0.00000000000E+00  0.00000000000E+00 -0.41484178953E+03  0.33273502409E+04  0.33013884830E+04 0.  0.
        4    1    3    3  502    0 -0.43107578306E+03  0.65026397992E+03  0.12587076914E+04  0.14808836010E+04  0.12699999809E+01 0. -1.
       -4    1    3    3    0  502  0.43107578306E+03 -0.65026397992E+03 -0.16735494810E+04  0.18464666399E+04  0.12699999809E+01 0.  1.
</event>
<event>
 5   0  0.2291682E-08  0.3301093E+04  0.7818609E-02  0.8162617E-01
        1   -1    0    0  501    0  0.00000000000E+00  0.00000000000E+00  0.17031026212E+04  0.17031026212E+04  0.50400001928E-02 0. -1.
       -1   -1    0    0    0  501  0.00000000000E+00  0.00000000000E+00 -0.15996122633E+04  0.15996122633E+04  0.50400001928E-02 0.  1.
    10030    2    1    2    0    0  0.00000000000E+00  0.00000000000E+00  0.10349035791E+03  0.33027148845E+04  0.33010930545E+04 0.  0.
        2    1    3    3  502    0  0.82981721764E+03 -0.49851276609E+03  0.13892610763E+04  0.16932684166E+04  0.25500000920E-02 0. -1.
       -2    1    3    3    0  502 -0.82981721764E+03  0.49851276609E+03 -0.12857707184E+04  0.16094464679E+04  0.25500000920E-02 0.  1.
</event>
<event>
 5   0  0.2291682E-08  0.3298922E+04  0.7818609E-02  0.8163170E-01
        1   -1    0    0  501    0  0.00000000000E+00  0.00000000000E+00  0.31304906850E+04  0.31304906850E+04  0.50400001928E-02 0.  1.
       -1   -1    0    0    0  501  0.00000000000E+00  0.00000000000E+00 -0.86910405929E+03  0.86910405930E+03  0.50400001928E-02 0. -1.
    10030    2    1    2    0    0  0.00000000000E+00  0.00000000000E+00  0.22613866257E+04  0.39995947443E+04  0.32989223464E+04 0.  0.
        2    1    3    3  502    0  0.43119784259E+03 -0.10839464643E+03 -0.79508399959E+03  0.91095529267E+03  0.25500000920E-02 0. -1.
       -2    1    3    3    0  502 -0.43119784259E+03  0.10839464643E+03  0.30564706253E+04  0.30886394517E+04  0.25500000920E-02 0.  1.
</event>
<event>
 5   0  0.6765252E-08  0.3298992E+04  0.7818609E-02  0.8163152E-01
        2   -1    0    0  501    0  0.00000000000E+00  0.00000000000E+00  0.18450756382E+04  0.18450756382E+04  0.25500000920E-02 0. -1.
       -2   -1    0    0    0  501  0.00000000000E+00  0.00000000000E+00 -0.14746483047E+04  0.14746483047E+04  0.25500000920E-02 0.  1.
    10030    2    1    2    0    0  0.00000000000E+00  0.00000000000E+00  0.37042733349E+03  0.33197239428E+04  0.32989923685E+04 0.  0.
        2    1    3    3  502    0  0.11671483013E+03 -0.16266865430E+04  0.43396378872E+03  0.16876184494E+04  0.25500000920E-02 0. -1.
       -2    1    3    3    0  502 -0.11671483013E+03  0.16266865430E+04 -0.63536455227E+02  0.16321054935E+04  0.25500000920E-02 0.  1.
</event>
<event>
 5   0  0.2244093E-08  0.3299076E+04  0.7818609E-02  0.8163131E-01
        1   -1    0    0  501    0  0.00000000000E+00  0.00000000000E+00  0.11444120073E+04  0.11444120073E+04  0.50400001928E-02 0. -1.
       -1   -1    0    0    0  501  0.00000000000E+00  0.00000000000E+00 -0.23776183574E+04  0.23776183574E+04  0.50400001928E-02 0.  1.
    10030    2    1    2    0    0  0.00000000000E+00  0.00000000000E+00 -0.12332063500E+04  0.35220303647E+04  0.32990756263E+04 0.  0.
        1    1    3    3  502    0  0.86910590746E+03 -0.12227446662E+04  0.11570243443E+03  0.15046051477E+04  0.50400001928E-02 0. -1.
       -1    1    3    3    0  502 -0.86910590746E+03  0.12227446662E+04 -0.13489087845E+04  0.20174252170E+04  0.50400001928E-02 0.  1.
</event>
<event>
 5   0  0.2309822E-08  0.3299197E+04  0.7818609E-02  0.8163100E-01
       -1   -1    0    0    0  501  0.00000000000E+00  0.00000000000E+00  0.87163790743E+03  0.87163790745E+03  0.50400001928E-02 0.  1.
        1   -1    0    0  501    0  0.00000000000E+00  0.00000000000E+00 -0.31219110356E+04  0.31219110356E+04  0.50400001928E-02 0. -1.
    10030    2    1    2    0    0  0.00000000000E+00  0.00000000000E+00 -0.22502731282E+04  0.39935489431E+04  0.32991974796E+04 0.  0.
        4    1    3    3  502    0  0.76659577300E+03 -0.85155504941E+03 -0.25616425291E+04  0.28062125973E+04  0.12699999809E+01 0. -1.
       -4    1    3    3    0  502 -0.76659577300E+03  0.85155504941E+03  0.31136940090E+03  0.11873363458E+04  0.12699999809E+01 0.  1.
</event>
<event>
 5   0  0.2279938E-08  0.3300536E+04  0.7818609E-02  0.8162759E-01
       -1   -1    0    0    0  501  0.00000000000E+00  0.00000000000E+00  0.10896429403E+04  0.10896429403E+04  0.50400001928E-02 0. -1.
        1   -1    0    0  501    0  0.00000000000E+00  0.00000000000E+00 -0.24993360259E+04  0.24993360259E+04  0.50400001928E-02 0.  1.
    10030    2    1    2    0    0  0.00000000000E+00  0.00000000000E+00 -0.14096930856E+04  0.35889789662E+04  0.33005356269E+04 0.  0.
        3    1    3    3  502    0 -0.86023965183E+03 -0.14083199260E+04 -0.70205864286E+03  0.17933944409E+04  0.10100000352E+00 0.  1.
       -3    1    3    3    0  502  0.86023965183E+03  0.14083199260E+04 -0.70763444273E+03  0.17955845253E+04  0.10100000352E+00 0. -1.
</event>
<event>
 5   0  0.2309822E-08  0.3299292E+04  0.7818609E-02  0.8163075E-01
        1   -1    0    0  501    0  0.00000000000E+00  0.00000000000E+00  0.19482296147E+04  0.19482296147E+04  0.50400001928E-02 0.  1.
       -1   -1    0    0    0  501  0.00000000000E+00  0.00000000000E+00 -0.13968232175E+04  0.13968232175E+04  0.50400001928E-02 0. -1.
    10030    2    1    2    0    0  0.00000000000E+00  0.00000000000E+00  0.55140639722E+03  0.33450528322E+04  0.32992922628E+04 0.  0.
        4    1    3    3  502    0  0.10121442176E+04  0.30636166335E+03 -0.10079686436E+04  0.14609229224E+04  0.12699999809E+01 0. -1.
       -4    1    3    3    0  502 -0.10121442176E+04 -0.30636166335E+03  0.15593750408E+04  0.18841299097E+04  0.12699999809E+01 0.  1.
</event>
<event>
 5   0  0.6706080E-08  0.3299651E+04  0.7818609E-02  0.8162984E-01
        2   -1    0    0  501    0  0.00000000000E+00  0.00000000000E+00  0.23159483616E+04  0.23159483616E+04  0.25500000920E-02 0.  1.
       -2   -1    0    0    0  501  0.00000000000E+00  0.00000000000E+00 -0.11752958400E+04  0.11752958400E+04  0.25500000920E-02 0. -1.
    10030    2    1    2    0    0  0.00000000000E+00  0.00000000000E+00  0.11406525215E+04  0.34912442016E+04  0.32996511786E+04 0.  0.
        4    1    3    3  502    0 -0.40561258197E+03 -0.50509646102E+03  0.21757554664E+04  0.22701448113E+04  0.12699999809E+01 0.  1.
       -4    1    3    3    0  502  0.40561258197E+03  0.50509646102E+03 -0.10351029449E+04  0.12210993903E+04  0.12699999809E+01 0. -1.
</event>
<event>
 5   0  0.6765252E-08  0.3299887E+04  0.7818609E-02  0.8162924E-01
        2   -1    0    0  501    0  0.00000000000E+00  0.00000000000E+00  0.22641443329E+04  0.22641443329E+04  0.25500000920E-02 0.  1.
       -2   -1    0    0    0  501  0.00000000000E+00  0.00000000000E+00 -0.12023585266E+04  0.12023585266E+04  0.25500000920E-02 0. -1.
    10030    2    1    2    0    0  0.00000000000E+00  0.00000000000E+00  0.10617858062E+04  0.34665028595E+04  0.32998868127E+04 0.  0.
        2    1    3    3  502    0 -0.14668043772E+04 -0.73671730648E+03  0.35496844159E+03  0.16793659712E+04  0.25500000920E-02 0. -1.
       -2    1    3    3    0  502  0.14668043772E+04  0.73671730648E+03  0.70681736465E+03  0.17871368883E+04  0.25500000920E-02 0.  1.
</event>
<event>
 5   0  0.6821287E-08  0.3306165E+04  0.7818609E-02  0.8161328E-01
        2   -1    0    0  501    0  0.00000000000E+00  0.00000000000E+00  0.17567739641E+04  0.17567739641E+04  0.25500000920E-02 0. -1.
       -2   -1    0    0    0  501  0.00000000000E+00  0.00000000000E+00 -0.15555117146E+04  0.15555117146E+04  0.25500000920E-02 0.  1.
    10030    2    1    2    0    0  0.00000000000E+00  0.00000000000E+00  0.20126224943E+03  0.33122856787E+04  0.33061654412E+04 0.  0.
        5    1    3    3  502    0  0.51759267437E+03 -0.15615778301E+04  0.26289667076E+03  0.16660024747E+04  0.46999998093E+01 0.  1.
       -5    1    3    3    0  502 -0.51759267437E+03  0.15615778301E+04 -0.61634421328E+02  0.16462832041E+04  0.46999998093E+01 0. -1.
</event>
<event>
 5   0  0.7084130E-08  0.3303085E+04  0.7818609E-02  0.8162111E-01
        2   -1    0    0  501    0  0.00000000000E+00  0.00000000000E+00  0.19376803423E+04  0.19376803423E+04  0.25500000920E-02 0.  1.
       -2   -1    0    0    0  501  0.00000000000E+00  0.00000000000E+00 -0.14076587598E+04  0.14076587598E+04  0.25500000920E-02 0. -1.
    10030    2    1    2    0    0  0.00000000000E+00  0.00000000000E+00  0.53002158249E+03  0.33453391020E+04  0.33030850473E+04 0.  0.
        3    1    3    3  502    0 -0.92056237198E+03 -0.47881563846E+03 -0.10362965514E+04  0.14664958401E+04  0.10100000352E+00 0. -1.
       -3    1    3    3    0  502  0.92056237198E+03  0.47881563846E+03  0.15663181339E+04  0.18788432620E+04  0.10100000352E+00 0.  1.
</event>
<event>
 5   0  0.6603516E-08  0.3300718E+04  0.7818609E-02  0.8162713E-01
        2   -1    0    0  501    0  0.00000000000E+00  0.00000000000E+00  0.11698631660E+04  0.11698631660E+04  0.25500000920E-02 0. -1.
       -2   -1    0    0    0  501  0.00000000000E+00  0.00000000000E+00 -0.23282086363E+04  0.23282086363E+04  0.25500000920E-02 0.  1.
    10030    2    1    2    0    0  0.00000000000E+00  0.00000000000E+00 -0.11583454702E+04  0.34980718023E+04  0.33007184226E+04 0.  0.
        1    1    3    3  502    0 -0.19351944441E+03 -0.93259433273E+03  0.84918953332E+03  0.12760504803E+04  0.50400001928E-02 0. -1.
       -1    1    3    3    0  502  0.19351944441E+03  0.93259433273E+03 -0.20075350035E+04  0.22220213220E+04  0.50400001928E-02 0.  1.
</event>
<event>
 5   0  0.2279938E-08  0.3295895E+04  0.7818609E-02  0.8163941E-01
       -1   -1    0    0    0  501  0.00000000000E+00  0.00000000000E+00  0.14350466962E+04  0.14350466962E+04  0.50400001928E-02 0. -1.
        1   -1    0    0  501    0  0.00000000000E+00  0.00000000000E+00 -0.18924337408E+04  0.18924337408E+04  0.50400001928E-02 0.  1.
    10030    2    1    2    0    0  0.00000000000E+00  0.00000000000E+00 -0.45738704459E+03  0.33274804370E+04  0.32958948937E+04 0.  0.
        3    1    3    3  502    0 -0.22524150441E+03  0.47766629949E+03  0.13473018838E+04  0.14471078762E+04  0.10100000352E+00 0. -1.
       -3    1    3    3    0  502  0.22524150441E+03 -0.47766629949E+03 -0.18046889284E+04  0.18803725608E+04  0.10100000352E+00 0.  1.
</event>
<event>
 5   0  0.2279938E-08  0.3301578E+04  0.7818609E-02  0.8162494E-01
        1   -1    0    0  501    0  0.00000000000E+00  0.00000000000E+00  0.21629892896E+04  0.21629892896E+04  0.50400001928E-02 0.  1.
       -1   -1    0    0    0  501  0.00000000000E+00  0.00000000000E+00 -0.12598784815E+04  0.12598784815E+04  0.50400001928E-02 0. -1.
    10030    2    1    2    0    0  0.00000000000E+00  0.00000000000E+00  0.90311080811E+03  0.34228677711E+04  0.33015775996E+04 0.  0.
        3    1    3    3  502    0 -0.22154853669E+03 -0.13924030960E+04  0.13417217030E+04  0.19463009208E+04  0.10100000352E+00 0.  1.
       -3    1    3    3    0  502  0.22154853669E+03  0.13924030960E+04 -0.43861089492E+03  0.14765668502E+04  0.10100000352E+00 0. -1.
</event>
<event>
 5   0  0.6821287E-08  0.3300529E+04  0.7818609E-02  0.8162761E-01
        2   -1    0    0  501    0  0.00000000000E+00  0.00000000000E+00  0.22564111355E+04  0.22564111355E+04  0.25500000920E-02 0. -1.
       -2   -1    0    0    0  501  0.00000000000E+00  0.00000000000E+00 -0.12069490313E+04  0.12069490313E+04  0.25500000920E-02 0.  1.
    10030    2    1    2    0    0  0.00000000000E+00  0.00000000000E+00  0.10494621042E+04  0.34633601667E+04  0.33005291904E+04 0.  0.
        5    1    3    3  502    0  0.10400319826E+04  0.75514611023E+03  0.16109010413E+04  0.20608096533E+04  0.46999998093E+01 0. -1.
       -5    1    3    3    0  502 -0.10400319826E+04 -0.75514611023E+03 -0.56143893708E+03  0.14025505134E+04  0.46999998093E+01 0.  1.
</event>
<event>
 5   0  0.2309822E-08  0.3301774E+04  0.7818609E-02  0.8162444E-01
       -1   -1    0    0    0  501  0.00000000000E+00  0.00000000000E+00  0.18822228757E+04  0.18822228757E+04  0.50400001928E-02 0.  1.
        1   -1    0    0  501    0  0.00000000000E+00  0.00000000000E+00 -0.14479833661E+04  0.14479833661E+04  0.50400001928E-02 0. -1.
    10030    2    1    2    0    0  0.00000000000E+00  0.00000000000E+00  0.43423950957E+03  0.33302062418E+04  0.33017737144E+04 0.  0.
        4    1    3    3  502    0 -0.42594501121E+03 -0.15171590551E+04 -0.27928205157E+03  0.16003752148E+04  0.12699999809E+01 0. -1.
       -4    1    3    3    0  502  0.42594501121E+03  0.15171590551E+04  0.71352156115E+03  0.17298310270E+04  0.12699999809E+01 0.  1.
</event>
<event>
 5   0  0.6603516E-08  0.3301887E+04  0.7818609E-02  0.8162416E-01
       -2   -1    0    0    0  501  0.00000000000E+00  0.00000000000E+00  0.16642359866E+04  0.16642359866E+04  0.25500000920E-02 0.  1.
        2   -1    0    0  501    0  0.00000000000E+00  0.00000000000E+00 -0.16377567306E+04  0.16377567306E+04  0.25500000920E-02 0. -1.
    10030    2    1    2    0    0  0.00000000000E+00  0.00000000000E+00  0.26479256018E+02  0.33019927172E+04  0.33018865446E+04 0.  0.
        1    1    3    3  502    0 -0.29121560641E+02 -0.13842985351E+04 -0.88594621679E+03  0.16437856303E+04  0.50400001928E-02 0. -1.
       -1    1    3    3    0  502  0.29121560641E+02  0.13842985351E+04  0.91242547281E+03  0.16582070869E+04  0.50400001928E-02 0.  1.
</event>
<event>
 5   0  0.7084130E-08  0.3299219E+04  0.7818609E-02  0.8163094E-01
        2   -1    0    0  501    0  0.00000000000E+00  0.00000000000E+00  0.24914730096E+04  0.24914730096E+04  0.25500000920E-02 0. -1.
       -2   -1    0    0    0  501  0.00000000000E+00  0.00000000000E+00 -0.10922101176E+04  0.10922101176E+04  0.25500000920E-02 0.  1.
    10030    2    1    2    0    0  0.00000000000E+00  0.00000000000E+00  0.13992628920E+04  0.35836831272E+04  0.32992193190E+04 0.  0.
        3    1    3    3  502    0  0.54604737291E+03  0.25905593662E+03  0.23668786717E+04  0.24428246701E+04  0.10100000352E+00 0. -1.
       -3    1    3    3    0  502 -0.54604737291E+03 -0.25905593662E+03 -0.96761577974E+03  0.11408584571E+04  0.10100000352E+00 0.  1.
</event>
<event>
 5   0  0.2279938E-08  0.3300045E+04  0.7818609E-02  0.8162884E-01
       -1   -1    0    0    0  501  0.00000000000E+00  0.00000000000E+00  0.14205898227E+04  0.14205898228E+04  0.50400001928E-02 0.  1.
        1   -1    0    0  501    0  0.00000000000E+00  0.00000000000E+00 -0.19165094945E+04  0.19165094945E+04  0.50400001928E-02 0. -1.
    10030    2    1    2    0    0  0.00000000000E+00  0.00000000000E+00 -0.49591967173E+03  0.33370993172E+04  0.33000447773E+04 0.  0.
        3    1    3    3  502    0 -0.10399537014E+04 -0.14958065675E+03  0.10386057169E+04  0.14773557186E+04  0.10100000352E+00 0.  1.
       -3    1    3    3    0  502  0.10399537014E+04  0.14958065675E+03 -0.15345253886E+04  0.18597435986E+04  0.10100000352E+00 0. -1.
</event>
<event>
 5   0  0.7084130E-08  0.3299815E+04  0.7818609E-02  0.8162942E-01
       -2   -1    0    0    0  501  0.00000000000E+00  0.00000000000E+00  0.18009500645E+04  0.18009500645E+04  0.25500000920E-02 0.  1.
        2   -1    0    0  501    0  0.00000000000E+00  0.00000000000E+00 -0.15115330400E+04  0.15115330400E+04  0.25500000920E-02 0. -1.
    10030    2    1    2    0    0  0.00000000000E+00  0.00000000000E+00  0.28941702454E+03  0.33124831045E+04  0.32998154651E+04 0.  0.
        3    1    3    3  502    0  0.60511082897E+03  0.83240857296E+03  0.14392841389E+04  0.17693507257E+04  0.10100000352E+00 0.  1.
       -3    1    3    3    0  502 -0.60511082897E+03 -0.83240857296E+03 -0.11498671144E+04  0.15431323788E+04  0.10100000352E+00 0. -1.
</event>
<event>
 5   0  0.6603516E-08  0.3302377E+04  0.7818609E-02  0.8162291E-01
       -2   -1    0    0    0  501  0.00000000000E+00  0.00000000000E+00  0.23154983009E+04  0.23154983009E+04  0.25500000920E-02 0. -1.
        2   -1    0    0  501    0  0.00000000000E+00  0.00000000000E+00 -0.11774675724E+04  0.11774675724E+04  0.25500000920E-02 0.  1.
    10030    2    1    2    0    0  0.00000000000E+00  0.00000000000E+00  0.11380307285E+04  0.34929658734E+04  0.33023774245E+04 0.  0.
        1    1    3    3  502    0 -0.79741675156E+03 -0.12940093640E+03  0.20921970460E+04  0.22427453171E+04  0.50400001928E-02 0. -1.
       -1    1    3    3    0  502  0.79741675156E+03  0.12940093640E+03 -0.95416631748E+03  0.12502205563E+04  0.50400001928E-02 0.  1.
</event>
<event>
 5   0  0.2291682E-08  0.3299244E+04  0.7818609E-02  0.8163088E-01
        1   -1    0    0  501    0  0.00000000000E+00  0.00000000000E+00  0.10696979223E+04  0.10696979223E+04  0.50400001928E-02 0. -1.
       -1   -1    0    0    0  501  0.00000000000E+00  0.00000000000E+00 -0.25439455032E+04  0.25439455032E+04  0.50400001928E-02 0.  1.
    10030    2    1    2    0    0  0.00000000000E+00  0.00000000000E+00 -0.14742475809E+04  0.36136434255E+04  0.32992442887E+04 0.  0.
        2    1    3    3  502    0  0.17017174918E+03 -0.14991598201E+04 -0.66235660043E+01  0.15088016643E+04  0.25500000920E-02 0. -1.
       -2    1    3    3    0  502 -0.17017174918E+03  0.14991598201E+04 -0.14676240149E+04  0.21048417612E+04  0.25500000920E-02 0.  1.
</event>
<event>
 5   0  0.6706080E-08  0.3289435E+04  0.7818609E-02  0.8165589E-01
        2   -1    0    0  501    0  0.00000000000E+00  0.00000000000E+00  0.20272740740E+04  0.20272740740E+04  0.25500000920E-02 0. -1.
       -2   -1    0    0    0  501  0.00000000000E+00  0.00000000000E+00 -0.13343515011E+04  0.13343515011E+04  0.25500000920E-02 0.  1.
    10030    2    1    2    0    0  0.00000000000E+00  0.00000000000E+00  0.69292257296E+03  0.33616255751E+04  0.32894353337E+04 0.  0.
        4    1    3    3  502    0 -0.19533709056E+03  0.25129173729E+03 -0.13025780025E+04  0.13409008844E+04  0.12699999809E+01 0.  1.
       -4    1    3    3    0  502  0.19533709056E+03 -0.25129173729E+03  0.19955005755E+04  0.20207246907E+04  0.12699999809E+01 0. -1.
</event>
<event>
 5   0  0.6765252E-08  0.3299323E+04  0.7818609E-02  0.8163068E-01
       -2   -1    0    0    0  501  0.00000000000E+00  0.00000000000E+00  0.15560853234E+04  0.15560853234E+04  0.25500000920E-02 0. -1.
        2   -1    0    0  501    0  0.00000000000E+00  0.00000000000E+00 -0.17488654672E+04  0.17488654672E+04  0.25500000920E-02 0.  1.
    10030    2    1    2    0    0  0.00000000000E+00  0.00000000000E+00 -0.19278014373E+03  0.33049507906E+04  0.32993234980E+04 0.  0.
        2    1    3    3  502    0  0.20606851443E+03  0.12252972251E+04 -0.11833982042E+04  0.17158813572E+04  0.25500000920E-02 0.  1.
       -2    1    3    3    0  502 -0.20606851443E+03 -0.12252972251E+04  0.99061806047E+03  0.15890694334E+04  0.25500000920E-02 0. -1.
</event>
<event>
 5   0  0.2279938E-08  0.3298205E+04  0.7818609E-02  0.8163352E-01
       -1   -1    0    0    0  501  0.00000000000E+00  0.00000000000E+00  0.10147195574E+04  0.10147195575E+04  0.50400001928E-02 0. -1.
        1   -1    0    0  501    0  0.00000000000E+00  0.00000000000E+00 -0.26800886913E+04  0.26800886913E+04  0.50400001928E-02 0.  1.
    10030    2    1    2    0    0  0.00000000000E+00  0.00000000000E+00 -0.16653691339E+04  0.36948082488E+04  0.32982046091E+04 0.  0.
        3    1    3    3  502    0  0.14372140612E+04 -0.69472150392E+03 -0.12963593684E+04  0.20563972982E+04  0.10100000352E+00 0.  1.
       -3    1    3    3    0  502 -0.14372140612E+04  0.69472150392E+03 -0.36900976546E+03  0.16384109506E+04  0.10100000352E+00 0. -1.
</event>
<event>
 5   0  0.2309822E-08  0.3300010E+04  0.7818609E-02  0.8162893E-01
        1   -1    0    0  501    0  0.00000000000E+00  0.00000000000E+00  0.19502411237E+04  0.19502411237E+04  0.50400001928E-02 0. -1.
       -1   -1    0    0    0  501  0.00000000000E+00  0.00000000000E+00 -0.13959894113E+04  0.13959894114E+04  0.50400001928E-02 0.  1.
    10030    2    1    2    0    0  0.00000000000E+00  0.00000000000E+00  0.55425171236E+03  0.33462305351E+04  0.33000096717E+04 0.  0.
        4    1    3    3  502    0 -0.14519931742E+04  0.71881597594E+03 -0.39552315671E+02  0.16206623904E+04  0.12699999809E+01 0. -1.
       -4    1    3    3    0  502  0.14519931742E+04 -0.71881597594E+03  0.59380402803E+03  0.17255681446E+04  0.12699999809E+01 0.  1.
</event>
<event>
 5   0  0.2383270E-08  0.3299026E+04  0.7818609E-02  0.8163143E-01
        1   -1    0    0  501    0  0.00000000000E+00  0.00000000000E+00  0.15288229670E+04  0.15288229670E+04  0.50400001928E-02 0. -1.
       -1   -1    0    0    0  501  0.00000000000E+00  0.00000000000E+00 -0.17797302343E+04  0.17797302343E+04  0.50400001928E-02 0.  1.
    10030    2    1    2    0    0  0.00000000000E+00  0.00000000000E+00 -0.25090726727E+03  0.33085532014E+04  0.32990255879E+04 0.  0.
        5    1    3    3  502    0 -0.38836569395E+03 -0.12290772193E+04  0.90679617117E+03  0.15759949586E+04  0.46999998093E+01 0. -1.
       -5    1    3    3    0  502  0.38836569395E+03  0.12290772193E+04 -0.11577034384E+04  0.17325582428E+04  0.46999998093E+01 0.  1.
</event>
<event>
 5   0  0.2309822E-08  0.3298882E+04  0.7818609E-02  0.8163180E-01
       -1   -1    0    0    0  501  0.00000000000E+00  0.00000000000E+00  0.16172410224E+04  0.16172410225E+04  0.50400001928E-02 0. -1.
        1   -1    0    0  501    0  0.00000000000E+00  0.00000000000E+00 -0.16822816870E+04  0.16822816870E+04  0.50400001928E-02 0.  1.
    10030    2    1    2    0    0  0.00000000000E+00  0.00000000000E+00 -0.65040664592E+02  0.32995227095E+04  0.32988816018E+04 0.  0.
        4    1    3    3  502    0 -0.33525516268E+03 -0.33473645095E+03  0.15477262157E+04  0.16186113083E+04  0.12699999809E+01 0. -1.
       -4    1    3    3    0  502  0.33525516268E+03  0.33473645095E+03 -0.16127668803E+04  0.16809114012E+04  0.12699999809E+01 0.  1.
</event>
<event>
 5   0  0.2244093E-08  0.3301057E+04  0.7818609E-02  0.8162627E-01
        1   -1    0    0  501    0  0.00000000000E+00  0.00000000000E+00  0.18773342302E+04  0.18773342302E+04  0.50400001928E-02 0.  1.
       -1   -1    0    0    0  501  0.00000000000E+00  0.00000000000E+00 -0.14511234193E+04  0.14511234193E+04  0.50400001928E-02 0. -1.
    10030    2    1    2    0    0  0.00000000000E+00  0.00000000000E+00  0.42621081089E+03  0.33284576495E+04  0.33010565989E+04 0.  0.
        1    1    3    3  502    0 -0.60609998818E+03 -0.10954851585E+04  0.12975789653E+04  0.18030962535E+04  0.50400001928E-02 0.  1.
       -1    1    3    3    0  502  0.60609998818E+03  0.10954851585E+04 -0.87136815436E+03  0.15253613961E+04  0.50400001928E-02 0. -1.
</event>
<event>
 5   0  0.6821287E-08  0.3304712E+04  0.7818609E-02  0.8161697E-01
        2   -1    0    0  501    0  0.00000000000E+00  0.00000000000E+00  0.23354089733E+04  0.23354089733E+04  0.25500000920E-02 0. -1.
       -2   -1    0    0    0  501  0.00000000000E+00  0.00000000000E+00 -0.11690802054E+04  0.11690802054E+04  0.25500000920E-02 0.  1.
    10030    2    1    2    0    0  0.00000000000E+00  0.00000000000E+00  0.11663287679E+04  0.35044891787E+04  0.33047120311E+04 0.  0.
        5    1    3    3  502    0  0.66435292939E+03 -0.13142409637E+04  0.13779124289E+04  0.20167446236E+04  0.46999998093E+01 0. -1.
       -5    1    3    3    0  502 -0.66435292939E+03  0.13142409637E+04 -0.21158366098E+03  0.14877445550E+04  0.46999998093E+01 0.  1.
</event>
<event>
 5   0  0.2309822E-08  0.3300232E+04  0.7818609E-02  0.8162836E-01
        1   -1    0    0  501    0  0.00000000000E+00  0.00000000000E+00  0.20351972579E+04  0.20351972579E+04  0.50400001928E-02 0.  1.
       -1   -1    0    0    0  501  0.00000000000E+00  0.00000000000E+00 -0.13378959605E+04  0.13378959605E+04  0.50400001928E-02 0. -1.
    10030    2    1    2    0    0  0.00000000000E+00  0.00000000000E+00  0.69730129744E+03  0.33730932185E+04  0.33002316223E+04 0.  0.
        4    1    3    3  502    0  0.25216516416E+03 -0.32144825982E+03  0.19826855033E+04  0.20243417872E+04  0.12699999809E+01 0.  1.
       -4    1    3    3    0  502 -0.25216516416E+03  0.32144825982E+03 -0.12853842058E+04  0.13487514312E+04  0.12699999809E+01 0. -1.
</event>
<event>
 5   0  0.6821287E-08  0.3299571E+04  0.7818609E-02  0.8163005E-01
        2   -1    0    0  501    0  0.00000000000E+00  0.00000000000E+00  0.10145971358E+04  0.10145971358E+04  0.25500000920E-02 0.  1.
       -2   -1    0    0    0  501  0.00000000000E+00  0.00000000000E+00 -0.26826336191E+04  0.26826336191E+04  0.25500000920E-02 0. -1.
    10030    2    1    2    0    0  0.00000000000E+00  0.00000000000E+00 -0.16680364833E+04  0.36972307549E+04  0.32995711154E+04 0.  0.
        5    1    3    3  502    0  0.64416252553E+03  0.34939998958E+03 -0.24902434849E+04  0.25958352059E+04  0.46999998093E+01 0. -1.
       -5    1    3    3    0  502 -0.64416252553E+03 -0.34939998958E+03  0.82220700160E+03  0.11013955491E+04  0.46999998093E+01 0.  1.
</event>
<event>
 5   0  0.7084130E-08  0.3291450E+04  0.7818609E-02  0.8165074E-01
        2   -1    0    0  501    0  0.00000000000E+00  0.00000000000E+00  0.20446408323E+04  0.20446408323E+04  0.25500000920E-02 0.  1.
       -2   -1    0    0    0  501  0.00000000000E+00  0.00000000000E+00 -0.13246385907E+04  0.13246385907E+04  0.25500000920E-02 0. -1.
    10030    2    1    2    0    0  0.00000000000E+00  0.00000000000E+00  0.72000224155E+03  0.33692794230E+04  0.32914496202E+04 0.  0.
        3    1    3    3  502    0  0.29567020330E+03  0.14332618577E+04  0.11306303444E+04  0.18493202555E+04  0.10100000352E+00 0.  1.
       -3    1    3    3    0  502 -0.29567020330E+03 -0.14332618577E+04 -0.41062810282E+03  0.15199591675E+04  0.10100000352E+00 0. -1.
</event>
<event>
 5   0  0.7084130E-08  0.3302772E+04  0.7818609E-02  0.8162190E-01
        2   -1    0    0  501    0  0.00000000000E+00  0.00000000000E+00  0.21822423930E+04  0.21822423930E+04  0.25500000920E-02 0. -1.
       -2   -1    0    0    0  501  0.00000000000E+00  0.00000000000E+00 -0.12496667754E+04  0.12496667754E+04  0.25500000920E-02 0.  1.
    10030    2    1    2    0    0  0.00000000000E+00  0.00000000000E+00  0.93257561765E+03  0.34319091684E+04  0.33027720566E+04 0.  0.
        3    1    3    3  502    0  0.52490763045E+03  0.91909545974E+03 -0.85087550085E+03  0.13580329940E+04  0.10100000352E+00 0.  1.
       -3    1    3    3    0  502 -0.52490763045E+03 -0.91909545974E+03  0.17834511185E+04  0.20738761744E+04  0.10100000352E+00 0. -1.
</event>
<event>
 5   0  0.2383270E-08  0.3299973E+04  0.7818609E-02  0.8162902E-01
        1   -1    0    0  501    0  0.00000000000E+00  0.00000000000E+00  0.10364406445E+04  0.10364406445E+04  0.50400001928E-02 0.  1.
       -1   -1    0    0    0  501  0.00000000000E+00  0.00000000000E+00 -0.26267358286E+04  0.26267358286E+04  0.50400001928E-02 0. -1.
    10030    2    1    2    0    0  0.00000000000E+00  0.00000000000E+00 -0.15902951841E+04  0.36631764731E+04  0.32999731969E+04 0.  0.
        5    1    3    3  502    0  0.11337095951E+04  0.34174119824E+03 -0.20706809795E+04  0.23853356790E+04  0.46999998093E+01 0. -1.
       -5    1    3    3    0  502 -0.11337095951E+04 -0.34174119824E+03  0.48038579545E+03  0.12778407941E+04  0.46999998093E+01 0.  1.
</event>
<event>
 5   0  0.6821287E-08  0.3299440E+04  0.7818609E-02  0.8163038E-01
        2   -1    0    0  501    0  0.00000000000E+00  0.00000000000E+00  0.23947064282E+04  0.23947064282E+04  0.25500000920E-02 0. -1.
       -2   -1    0    0    0  501  0.00000000000E+00  0.00000000000E+00 -0.11364970712E+04  0.11364970712E+04  0.25500000920E-02 0.  1.
    10030    2    1    2    0    0  0.00000000000E+00  0.00000000000E+00  0.12582093569E+04  0.35312034994E+04  0.32994404629E+04 0.  0.
        5    1    3    3  502    0 -0.68523376638E+03  0.15006387557E+04  0.63941253838E+03  0.17692745615E+04  0.46999998093E+01 0.  1.
       -5    1    3    3    0  502  0.68523376638E+03 -0.15006387557E+04  0.61879681856E+03  0.17619289379E+04  0.46999998093E+01 0. -1.
</event>
<event>
 5   0  0.7084130E-08  0.3296663E+04  0.7818609E-02  0.8163745E-01
        2   -1    0    0  501    0  0.00000000000E+00  0.00000000000E+00  0.15245751933E+04  0.15245751933E+04  0.25500000920E-02 0.  1.
       -2   -1    0    0    0  501  0.00000000000E+00  0.00000000000E+00 -0.17821336380E+04  0.17821336380E+04  0.25500000920E-02 0. -1.
    10030    2    1    2    0    0  0.00000000000E+00  0.00000000000E+00 -0.25755844472E+03  0.33067088313E+04  0.32966630010E+04 0.  0.
        3    1    3    3  502    0 -0.91547200078E+03  0.13601840724E+04 -0.29902276420E+03  0.16666146282E+04  0.10100000352E+00 0. -1.
       -3    1    3    3    0  502  0.91547200078E+03 -0.13601840724E+04  0.41464319484E+02  0.16400942031E+04  0.10100000352E+00 0.  1.
</event>
<event>
 5   0  0.2279938E-08  0.3302134E+04  0.7818609E-02  0.8162352E-01
       -1   -1    0    0    0  501  0.00000000000E+00  0.00000000000E+00  0.11688929508E+04  0.11688929508E+04  0.50400001928E-02 0.  1.
        1   -1    0    0  501    0  0.00000000000E+00  0.00000000000E+00 -0.23321407960E+04  0.23321407960E+04  0.50400001928E-02 0. -1.
    10030    2    1    2    0    0  0.00000000000E+00  0.00000000000E+00 -0.11632478452E+04  0.35010337468E+04  0.33021344229E+04 0.  0.
        3    1    3    3  502    0 -0.10209746395E+04  0.11902653271E+04 -0.11293678799E+04  0.19325094002E+04  0.10100000352E+00 0. -1.
       -3    1    3    3    0  502  0.10209746395E+04 -0.11902653271E+04 -0.33879965342E+02  0.15685243466E+04  0.10100000352E+00 0.  1.
</event>
<event>
 5   0  0.2279938E-08  0.3299221E+04  0.7818609E-02  0.8163094E-01
       -1   -1    0    0    0  501  0.00000000000E+00  0.00000000000E+00  0.20850109306E+04  0.20850109306E+04  0.50400001928E-02 0. -1.
        1   -1    0    0  501    0  0.00000000000E+00  0.00000000000E+00 -0.13051323790E+04  0.13051323790E+04  0.50400001928E-02 0.  1.
    10030    2    1    2    0    0  0.00000000000E+00  0.00000000000E+00  0.77987855162E+03  0.33901433096E+04  0.32992212876E+04 0.  0.
        3    1    3    3  502    0 -0.96136667952E+03  0.13124148196E+04  0.10936361594E+03  0.16305272037E+04  0.10100000352E+00 0. -1.
       -3    1    3    3    0  502  0.96136667952E+03 -0.13124148196E+04  0.67051493568E+03  0.17596161060E+04  0.10100000352E+00 0.  1.
</event>
<event>
 5   0  0.2309822E-08  0.3303438E+04  0.7818609E-02  0.8162021E-01
       -1   -1    0    0    0  501  0.00000000000E+00  0.00000000000E+00  0.19051194341E+04  0.19051194341E+04  0.50400001928E-02 0. -1.
        1   -1    0    0  501    0  0.00000000000E+00  0.00000000000E+00 -0.14320236305E+04  0.14320236305E+04  0.50400001928E-02 0.  1.
    10030    2    1    2    0    0  0.00000000000E+00  0.00000000000E+00  0.47309580365E+03  0.33371430646E+04  0.33034382383E+04 0.  0.
        4    1    3    3  502    0  0.67700592839E+03 -0.73463165800E+02 -0.12836113872E+04  0.14530635464E+04  0.12699999809E+01 0.  1.
       -4    1    3    3    0  502 -0.67700592839E+03  0.73463165800E+02  0.17567071908E+04  0.18840795182E+04  0.12699999809E+01 0. -1.
</event>
<event>
 5   0  0.6603516E-08  0.3298929E+04  0.7818609E-02  0.8163168E-01
        2   -1    0    0  501    0  0.00000000000E+00  0.00000000000E+00  0.18080636390E+04  0.18080636390E+04  0.25500000920E-02 0.  1.
       -2   -1    0    0    0  501  0.00000000000E+00  0.00000000000E+00 -0.15047774254E+04  0.15047774254E+04  0.25500000920E-02 0. -1.
    10030    2    1    2    0    0  0.00000000000E+00  0.00000000000E+00  0.30328621364E+03  0.33128410644E+04  0.32989291279E+04 0.  0.
        1    1    3    3  502    0  0.22261625530E+03 -0.36742305069E+03 -0.14476102824E+04  0.15100110017E+04  0.50400001928E-02 0. -1.
       -1    1    3    3    0  502 -0.22261625530E+03  0.36742305069E+03  0.17508964961E+04  0.18028300628E+04  0.50400001928E-02 0.  1.
</event>
<event>
 5   0  0.6821287E-08  0.3297511E+04  0.7818609E-02  0.8163529E-01
       -2   -1    0    0    0  501  0.00000000000E+00  0.00000000000E+00  0.12223458642E+04  0.12223458642E+04  0.25500000920E-02 0. -1.
        2   -1    0    0  501    0  0.00000000000E+00  0.00000000000E+00 -0.22239162031E+04  0.22239162031E+04  0.25500000920E-02 0.  1.
    10030    2    1    2    0    0  0.00000000000E+00  0.00000000000E+00 -0.10015703389E+04  0.34462620673E+04  0.32975110451E+04 0.  0.
        5    1    3    3  502    0  0.74375600061E+03 -0.72745961581E+03  0.83597649644E+03  0.13346345094E+04  0.46999998093E+01 0. -1.
       -5    1    3    3    0  502 -0.74375600061E+03  0.72745961581E+03 -0.18375468354E+04  0.21116275579E+04  0.46999998093E+01 0.  1.
</event>
<event>
 5   0  0.6765252E-08  0.3298466E+04  0.7818609E-02  0.8163286E-01
       -2   -1    0    0    0  501  0.00000000000E+00  0.00000000000E+00  0.16504335708E+04  0.16504335708E+04  0.25500000920E-02 0. -1.
        2   -1    0    0  501    0  0.00000000000E+00  0.00000000000E+00 -0.16480328338E+04  0.16480328338E+04  0.25500000920E-02 0.  1.
    10030    2    1    2    0    0  0.00000000000E+00  0.00000000000E+00  0.24007370793E+01  0.32984664046E+04  0.32984655309E+04 0.  0.
        2    1    3    3  502    0  0.69338705204E+02 -0.40444025855E+03  0.15985701716E+04  0.16503958229E+04  0.25500000920E-02 0. -1.
       -2    1    3    3    0  502 -0.69338705204E+02  0.40444025855E+03 -0.15961694345E+04  0.16480705817E+04  0.25500000920E-02 0.  1.
</event>
<event>
 5   0  0.7084130E-08  0.3294587E+04  0.7818609E-02  0.8164274E-01
       -2   -1    0    0    0  501  0.00000000000E+00  0.00000000000E+00  0.13684229658E+04  0.13684229658E+04  0.25500000920E-02 0.  1.
        2   -1    0    0  501    0  0.00000000000E+00  0.00000000000E+00 -0.19829946071E+04  0.19829946071E+04  0.25500000920E-02 0. -1.
    10030    2    1    2    0    0  0.00000000000E+00  0.00000000000E+00 -0.61457164126E+03  0.33514175729E+04  0.32945866881E+04 0.  0.
        3    1    3    3  502    0 -0.13332199965E+04 -0.84578027560E+03  0.17066519268E+03  0.15880637430E+04  0.10100000352E+00 0.  1.
       -3    1    3    3    0  502  0.13332199965E+04  0.84578027560E+03 -0.78523683394E+03  0.17633538299E+04  0.10100000352E+00 0. -1.
</event>
<event>
 5   0  0.2291682E-08  0.3301803E+04  0.7818609E-02  0.8162437E-01
        1   -1    0    0  501    0  0.00000000000E+00  0.00000000000E+00  0.14284112629E+04  0.14284112629E+04  0.50400001928E-02 0. -1.
       -1   -1    0    0    0  501  0.00000000000E+00  0.00000000000E+00 -0.19080465479E+04  0.19080465479E+04  0.50400001928E-02 0.  1.
    10030    2    1    2    0    0  0.00000000000E+00  0.00000000000E+00 -0.47963528493E+03  0.33364578108E+04  0.33018026465E+04 0.  0.
        2    1    3    3  502    0  0.10755472329E+04  0.12129991028E+04 -0.55503161852E+03  0.17135427543E+04  0.25500000920E-02 0. -1.
       -2    1    3    3    0  502 -0.10755472329E+04 -0.12129991028E+04  0.75396333589E+02  0.16229150565E+04  0.25500000920E-02 0.  1.
</event>
<event>
 5   0  0.2244093E-08  0.3302384E+04  0.7818609E-02  0.8162289E-01
        1   -1    0    0  501    0  0.00000000000E+00  0.00000000000E+00  0.20136928047E+04  0.20136928047E+04  0.50400001928E-02 0. -1.
       -1   -1    0    0    0  501  0.00000000000E+00  0.00000000000E+00 -0.13539481373E+04  0.13539481373E+04  0.50400001928E-02 0.  1.
    10030    2    1    2    0    0  0.00000000000E+00  0.00000000000E+00  0.65974466741E+03  0.33676409420E+04  0.33023843640E+04 0.  0.
        1    1    3    3  502    0 -0.13113699002E+04 -0.41301493051E+03  0.12623613086E+04  0.18665016532E+04  0.50400001928E-02 0. -1.
       -1    1    3    3    0  502  0.13113699002E+04  0.41301493051E+03 -0.60261664122E+03  0.15011392887E+04  0.50400001928E-02 0.  1.
</event>
<event>
 5   0  0.7084130E-08  0.3299802E+04  0.7818609E-02  0.8162946E-01
        2   -1    0    0  501    0  0.00000000000E+00  0.00000000000E+00  0.13028685198E+04  0.13028685198E+04  0.25500000920E-02 0.  1.
       -2   -1    0    0    0  501  0.00000000000E+00  0.00000000000E+00 -0.20893686503E+04  0.20893686503E+04  0.25500000920E-02 0. -1.
    10030    2    1    2    0    0  0.00000000000E+00  0.00000000000E+00 -0.78650013052E+03  0.33922371701E+04  0.32998015944E+04 0.  0.
        3    1    3    3  502    0 -0.39569097076E+03  0.13689717228E+04  0.46161984980E+03  0.14979144896E+04  0.10100000352E+00 0.  1.
       -3    1    3    3    0  502  0.39569097076E+03 -0.13689717228E+04 -0.12481199803E+04  0.18943226805E+04  0.10100000352E+00 0. -1.
</event>
<event>
 5   0  0.6821287E-08  0.3299878E+04  0.7818609E-02  0.8162927E-01
       -2   -1    0    0    0  501  0.00000000000E+00  0.00000000000E+00  0.15691634563E+04  0.15691634563E+04  0.25500000920E-02 0. -1.
        2   -1    0    0  501    0  0.00000000000E+00  0.00000000000E+00 -0.17348722483E+04  0.17348722483E+04  0.25500000920E-02 0.  1.
    10030    2    1    2    0    0  0.00000000000E+00  0.00000000000E+00 -0.16570879199E+03  0.33040357047E+04  0.32998776544E+04 0.  0.
        5    1    3    3  502    0 -0.14799882944E+04  0.36742352993E+03  0.54794789934E+03  0.16203809405E+04  0.46999998093E+01 0. -1.
       -5    1    3    3    0  502  0.14799882944E+04 -0.36742352993E+03 -0.71365669133E+03  0.16836547642E+04  0.46999998093E+01 0.  1.
</event>
<event>
 5   0  0.2279938E-08  0.3300397E+04  0.7818609E-02  0.8162794E-01
       -1   -1    0    0    0  501  0.00000000000E+00  0.00000000000E+00  0.16376908832E+04  0.16376908832E+04  0.50400001928E-02 0. -1.
        1   -1    0    0  501    0  0.00000000000E+00  0.00000000000E+00 -0.16628015385E+04  0.16628015385E+04  0.50400001928E-02 0.  1.
    10030    2    1    2    0    0  0.00000000000E+00  0.00000000000E+00 -0.25110655322E+02  0.33004924217E+04  0.33003968975E+04 0.  0.
        3    1    3    3  502    0  0.11128210625E+04  0.97309667532E+03 -0.74597075495E+03  0.16558261485E+04  0.10100000352E+00 0.  1.
       -3    1    3    3    0  502 -0.11128210625E+04 -0.97309667532E+03  0.72086009963E+03  0.16446662732E+04  0.10100000352E+00 0. -1.
</event>
<event>
 5   0  0.2309822E-08  0.3300154E+04  0.7818609E-02  0.8162856E-01
        1   -1    0    0  501    0  0.00000000000E+00  0.00000000000E+00  0.25619568827E+04  0.25619568827E+04  0.50400001928E-02 0. -1.
       -1   -1    0    0    0  501  0.00000000000E+00  0.00000000000E+00 -0.10627635977E+04  0.10627635977E+04  0.50400001928E-02 0.  1.
    10030    2    1    2    0    0  0.00000000000E+00  0.00000000000E+00  0.14991932850E+04  0.36247204804E+04  0.33001542472E+04 0.  0.
        4    1    3    3  502    0  0.12900473817E+04  0.85492323606E+03  0.13782868505E+04  0.20723880529E+04  0.12699999809E+01 0. -1.
       -4    1    3    3    0  502 -0.12900473817E+04 -0.85492323606E+03  0.12090643450E+03  0.15523324275E+04  0.12699999809E+01 0.  1.
</event>
<event>
 5   0  0.2291682E-08  0.3300355E+04  0.7818609E-02  0.8162805E-01
       -1   -1    0    0    0  501  0.00000000000E+00  0.00000000000E+00  0.12298254127E+04  0.12298254127E+04  0.50400001928E-02 0.  1.
        1   -1    0    0  501    0  0.00000000000E+00  0.00000000000E+00 -0.22142055827E+04  0.22142055827E+04  0.50400001928E-02 0. -1.
    10030    2    1    2    0    0  0.00000000000E+00  0.00000000000E+00 -0.98438017007E+03  0.34440309954E+04  0.33003553109E+04 0.  0.
        2    1    3    3  502    0 -0.96214343903E+03  0.10105052063E+04 -0.14115930677E+04  0.19848011886E+04  0.25500000920E-02 0. -1.
       -2    1    3    3    0  502  0.96214343903E+03 -0.10105052063E+04  0.42721289768E+03  0.14592298068E+04  0.25500000920E-02 0.  1.
</event>
<event>
 5   0  0.6706080E-08  0.3299356E+04  0.7818609E-02  0.8163059E-01
        2   -1    0    0  501    0  0.00000000000E+00  0.00000000000E+00  0.30328243124E+04  0.30328243124E+04  0.25500000920E-02 0.  1.
       -2   -1    0    0    0  501  0.00000000000E+00  0.00000000000E+00 -0.89732756107E+03  0.89732756108E+03  0.25500000920E-02 0. -1.
    10030    2    1    2    0    0  0.00000000000E+00  0.00000000000E+00  0.21354967513E+04  0.39301518735E+04  0.32993555998E+04 0.  0.
        4    1    3    3  502    0 -0.88899841440E+03 -0.21069267828E+03  0.27039415771E+04  0.28541218003E+04  0.12699999809E+01 0.  1.
       -4    1    3    3    0  502  0.88899841440E+03  0.21069267828E+03 -0.56844482581E+03  0.10760300732E+04  0.12699999809E+01 0. -1.
</event>
<event>
 5   0  0.2383270E-08  0.3300706E+04  0.7818609E-02  0.8162716E-01
       -1   -1    0    0    0  501  0.00000000000E+00  0.00000000000E+00  0.14681800912E+04  0.14681800913E+04  0.50400001928E-02 0. -1.
        1   -1    0    0  501    0  0.00000000000E+00  0.00000000000E+00 -0.18551298469E+04  0.18551298469E+04  0.50400001928E-02 0.  1.
    10030    2    1    2    0    0  0.00000000000E+00  0.00000000000E+00 -0.38694975563E+03  0.33233099381E+04  0.33007058081E+04 0.  0.
        5    1    3    3  502    0  0.36694438157E+02 -0.75782571503E+03 -0.16691161570E+04  0.18334713338E+04  0.46999998093E+01 0.  1.
       -5    1    3    3    0  502 -0.36694438157E+02  0.75782571503E+03  0.12821664014E+04  0.14898386044E+04  0.46999998093E+01 0. -1.
</event>
<event>
 5   0  0.6821287E-08  0.3300026E+04  0.7818609E-02  0.8162889E-01
       -2   -1    0    0    0  501  0.00000000000E+00  0.00000000000E+00  0.14399641370E+04  0.14399641370E+04  0.25500000920E-02 0. -1.
        2   -1    0    0  501    0  0.00000000000E+00  0.00000000000E+00 -0.18907018950E+04  0.18907018950E+04  0.25500000920E-02 0.  1.
    10030    2    1    2    0    0  0.00000000000E+00  0.00000000000E+00 -0.45073775799E+03  0.33306660321E+04  0.33000260137E+04 0.  0.
        5    1    3    3  502    0  0.11310117102E+04 -0.22271410499E+03  0.96615657577E+03  0.15040843328E+04  0.46999998093E+01 0. -1.
       -5    1    3    3    0  502 -0.11310117102E+04  0.22271410499E+03 -0.14168943338E+04  0.18265816993E+04  0.46999998093E+01 0.  1.
</event>
<event>
 5   0  0.2291682E-08  0.3300181E+04  0.7818609E-02  0.8162849E-01
        1   -1    0    0  501    0  0.00000000000E+00  0.00000000000E+00  0.11407777686E+04  0.11407777686E+04  0.50400001928E-02 0. -1.
       -1   -1    0    0    0  501  0.00000000000E+00  0.00000000000E+00 -0.23867920536E+04  0.23867920536E+04  0.50400001928E-02 0.  1.
    10030    2    1    2    0    0  0.00000000000E+00  0.00000000000E+00 -0.12460142851E+04  0.35275698222E+04  0.33001813968E+04 0.  0.
        2    1    3    3  502    0 -0.56878055377E+03  0.28420616131E+03 -0.22505886545E+04  0.23386820545E+04  0.25500000920E-02 0.  1.
       -2    1    3    3    0  502  0.56878055377E+03 -0.28420616131E+03  0.10045743694E+04  0.11888877677E+04  0.25500000920E-02 0. -1.
</event>
<event>
 5   0  0.6603516E-08  0.3300075E+04  0.7818609E-02  0.8162876E-01
       -2   -1    0    0    0  501  0.00000000000E+00  0.00000000000E+00  0.10755809700E+04  0.10755809700E+04  0.25500000920E-02 0.  1.
        2   -1    0    0  501    0  0.00000000000E+00  0.00000000000E+00 -0.25313053419E+04  0.25313053419E+04  0.25500000920E-02 0. -1.
    10030    2    1    2    0    0  0.00000000000E+00  0.00000000000E+00 -0.14557243718E+04  0.36068863119E+04  0.33000750629E+04 0.  0.
        1    1    3    3  502    0 -0.11270111999E+03 -0.16412964741E+04 -0.86640761685E+03  0.18593595179E+04  0.50400001928E-02 0. -1.
       -1    1    3    3    0  502  0.11270111999E+03  0.16412964741E+04 -0.58931675499E+03  0.17475267941E+04  0.50400001928E-02 0.  1.
</event>
<event>
 5   0  0.2383270E-08  0.3297027E+04  0.7818609E-02  0.8163652E-01
        1   -1    0    0  501    0  0.00000000000E+00  0.00000000000E+00  0.26902582949E+04  0.26902582949E+04  0.50400001928E-02 0.  1.
       -1   -1    0    0    0  501  0.00000000000E+00  0.00000000000E+00 -0.10101621642E+04  0.10101621642E+04  0.50400001928E-02 0. -1.
    10030    2    1    2    0    0  0.00000000000E+00  0.00000000000E+00  0.16800961307E+04  0.37004204592E+04  0.32970272317E+04 0.  0.
        5    1    3    3  502    0  0.15656843322E+04  0.17940880795E+02  0.14187781630E+04  0.21129701534E+04  0.46999998093E+01 0.  1.
       -5    1    3    3    0  502 -0.15656843322E+04 -0.17940880795E+02  0.26131796772E+03  0.15874503058E+04  0.46999998093E+01 0. -1.
</event>
<event>
 5   0  0.2291682E-08  0.3299991E+04  0.7818609E-02  0.8162898E-01
        1   -1    0    0  501    0  0.00000000000E+00  0.00000000000E+00  0.24621710319E+04  0.24621710319E+04  0.50400001928E-02 0.  1.
       -1   -1    0    0    0  501  0.00000000000E+00  0.00000000000E+00 -0.11057256337E+04  0.11057256337E+04  0.50400001928E-02 0. -1.
    10030    2    1    2    0    0  0.00000000000E+00  0.00000000000E+00  0.13564453982E+04  0.35678966656E+04  0.32999912876E+04 0.  0.
        2    1    3    3  502    0 -0.13509145425E+04 -0.92335199755E+03  0.44903060249E+03  0.16968139246E+04  0.25500000920E-02 0. -1.
       -2    1    3    3    0  502  0.13509145425E+04  0.92335199755E+03  0.90741479568E+03  0.18710827411E+04  0.25500000920E-02 0.  1.
</event>
<event>
 5   0  0.6765252E-08  0.3299807E+04  0.7818609E-02  0.8162945E-01
       -2   -1    0    0    0  501  0.00000000000E+00  0.00000000000E+00  0.18562108413E+04  0.18562108413E+04  0.25500000920E-02 0.  1.
        2   -1    0    0  501    0  0.00000000000E+00  0.00000000000E+00 -0.14665257912E+04  0.14665257912E+04  0.25500000920E-02 0. -1.
    10030    2    1    2    0    0  0.00000000000E+00  0.00000000000E+00  0.38968505012E+03  0.33227366325E+04  0.32998067050E+04 0.  0.
        2    1    3    3  502    0 -0.94229618472E+03  0.11576392394E+04  0.90267126107E+03  0.17443812983E+04  0.25500000920E-02 0. -1.
       -2    1    3    3    0  502  0.94229618472E+03 -0.11576392394E+04 -0.51298621095E+03  0.15783553342E+04  0.25500000920E-02 0.  1.
</event>
<event>
 5   0  0.6765252E-08  0.3300985E+04  0.7818609E-02  0.8162645E-01
        2   -1    0    0  501    0  0.00000000000E+00  0.00000000000E+00  0.18387572020E+04  0.18387572020E+04  0.25500000920E-02 0.  1.
       -2   -1    0    0    0  501  0.00000000000E+00  0.00000000000E+00 -0.14815035040E+04  0.14815035040E+04  0.25500000920E-02 0. -1.
    10030    2    1    2    0    0  0.00000000000E+00  0.00000000000E+00  0.35725369798E+03  0.33202607059E+04  0.33009848456E+04 0.  0.
        2    1    3    3  502    0 -0.27547473247E+03 -0.16161830367E+04 -0.12724159275E+02  0.16395413507E+04  0.25500000920E-02 0. -1.
       -2    1    3    3    0  502  0.27547473247E+03  0.16161830367E+04  0.36997785726E+03  0.16807193553E+04  0.25500000920E-02 0.  1.
</event>
<event>
 5   0  0.6706080E-08  0.3300019E+04  0.7818609E-02  0.8162891E-01
        2   -1    0    0  501    0  0.00000000000E+00  0.00000000000E+00  0.10514513281E+04  0.10514513281E+04  0.25500000920E-02 0.  1.
       -2   -1    0    0    0  501  0.00000000000E+00  0.00000000000E+00 -0.25893077628E+04  0.25893077628E+04  0.25500000920E-02 0. -1.
    10030    2    1    2    0    0  0.00000000000E+00  0.00000000000E+00 -0.15378564347E+04  0.36407590909E+04  0.33000188400E+04 0.  0.
        4    1    3    3  502    0 -0.12931711380E+04 -0.48182748514E+03 -0.17667970367E+04  0.22418792785E+04  0.12699999809E+01 0. -1.
       -4    1    3    3    0  502  0.12931711380E+04  0.48182748514E+03  0.22894060202E+03  0.13988798125E+04  0.12699999809E+01 0.  1.
</event>
<event>
 5   0  0.6765252E-08  0.3301144E+04  0.7818609E-02  0.8162604E-01
       -2   -1    0    0    0  501  0.00000000000E+00  0.00000000000E+00  0.96415957039E+03  0.96415957039E+03  0.25500000920E-02 0.  1.
        2   -1    0    0  501    0  0.00000000000E+00  0.00000000000E+00 -0.28256607921E+04  0.28256607921E+04  0.25500000920E-02 0. -1.
    10030    2    1    2    0    0  0.00000000000E+00  0.00000000000E+00 -0.18615012217E+04  0.37898203625E+04  0.33011439807E+04 0.  0.
        2    1    3    3  502    0 -0.12246768353E+04 -0.10916014093E+04 -0.11391774964E+04  0.19972862479E+04  0.25500000920E-02 0. -1.
       -2    1    3    3    0  502  0.12246768353E+04  0.10916014093E+04 -0.72232372528E+03  0.17925341146E+04  0.25500000920E-02 0.  1.
</event>
<event>
 5   0  0.6765252E-08  0.3301018E+04  0.7818609E-02  0.8162637E-01
       -2   -1    0    0    0  501  0.00000000000E+00  0.00000000000E+00  0.11027080955E+04  0.11027080955E+04  0.25500000920E-02 0.  1.
        2   -1    0    0  501    0  0.00000000000E+00  0.00000000000E+00 -0.24704445168E+04  0.24704445168E+04  0.25500000920E-02 0. -1.
    10030    2    1    2    0    0  0.00000000000E+00  0.00000000000E+00 -0.13677364213E+04  0.35731526122E+04  0.33010175207E+04 0.  0.
        2    1    3    3  502    0 -0.14247258968E+04  0.60613800463E+03 -0.13027852739E+04  0.20234862568E+04  0.25500000920E-02 0. -1.
       -2    1    3    3    0  502  0.14247258968E+04 -0.60613800463E+03 -0.64951147392E+02  0.15496663554E+04  0.25500000920E-02 0.  1.
</event>
<event>
 5   0  0.7084130E-08  0.3297672E+04  0.7818609E-02  0.8163488E-01
       -2   -1    0    0    0  501  0.00000000000E+00  0.00000000000E+00  0.22886227016E+04  0.22886227016E+04  0.25500000920E-02 0. -1.
        2   -1    0    0  501    0  0.00000000000E+00  0.00000000000E+00 -0.11879023452E+04  0.11879023452E+04  0.25500000920E-02 0.  1.
    10030    2    1    2    0    0  0.00000000000E+00  0.00000000000E+00  0.11007203564E+04  0.34765250469E+04  0.32976720726E+04 0.  0.
        3    1    3    3  502    0  0.15721523035E+04  0.12888336402E+03  0.10563786710E+04  0.18984756237E+04  0.10100000352E+00 0. -1.
       -3    1    3    3    0  502 -0.15721523035E+04 -0.12888336402E+03  0.44341685357E+02  0.15780494232E+04  0.10100000352E+00 0.  1.
</event>
<event>
 5   0  0.2309822E-08  0.3321486E+04  0.7818609E-02  0.8157450E-01
        1   -1    0    0  501    0  0.00000000000E+00  0.00000000000E+00  0.96382639842E+03  0.96382639843E+03  0.50400001928E-02 0. -1.
       -1   -1    0    0    0  501  0.00000000000E+00  0.00000000000E+00 -0.28615808309E+04  0.28615808309E+04  0.50400001928E-02 0.  1.
    10030    2    1    2    0    0  0.00000000000E+00  0.00000000000E+00 -0.18977544325E+04  0.38254072293E+04  0.33214859001E+04 0.  0.
        4    1    3    3  502    0  0.88808667964E+02 -0.15140468318E+03 -0.28508668622E+04  0.28562657153E+04  0.12699999809E+01 0.  1.
       -4    1    3    3    0  502 -0.88808667964E+02  0.15140468318E+03  0.95311242972E+03  0.96914151401E+03  0.12699999809E+01 0. -1.
</event>
<event>
 5   0  0.2244093E-08  0.3297250E+04  0.7818609E-02  0.8163596E-01
        1   -1    0    0  501    0  0.00000000000E+00  0.00000000000E+00  0.19110420905E+04  0.19110420906E+04  0.50400001928E-02 0. -1.
       -1   -1    0    0    0  501  0.00000000000E+00  0.00000000000E+00 -0.14222417550E+04  0.14222417550E+04  0.50400001928E-02 0.  1.
    10030    2    1    2    0    0  0.00000000000E+00  0.00000000000E+00  0.48880033557E+03  0.33332838455E+04  0.32972496761E+04 0.  0.
        1    1    3    3  502    0  0.50628723184E+03 -0.11382828659E+04  0.13359920066E+04  0.18267154364E+04  0.50400001928E-02 0. -1.
       -1    1    3    3    0  502 -0.50628723184E+03  0.11382828659E+04 -0.84719167103E+03  0.15065684091E+04  0.50400001928E-02 0.  1.
</event>
<event>
 5   0  0.2279938E-08  0.3299299E+04  0.7818609E-02  0.8163074E-01
        1   -1    0    0  501    0  0.00000000000E+00  0.00000000000E+00  0.24346624376E+04  0.24346624376E+04  0.50400001928E-02 0. -1.
       -1   -1    0    0    0  501  0.00000000000E+00  0.00000000000E+00 -0.11177500238E+04  0.11177500238E+04  0.50400001928E-02 0.  1.
    10030    2    1    2    0    0  0.00000000000E+00  0.00000000000E+00  0.13169124138E+04  0.35524124614E+04  0.32992993181E+04 0.  0.
        3    1    3    3  502    0  0.49730094016E+03 -0.14562516869E+03 -0.10278456184E+04  0.11510784249E+04  0.10100000352E+00 0.  1.
       -3    1    3    3    0  502 -0.49730094016E+03  0.14562516869E+03  0.23447580322E+04  0.24013340365E+04  0.10100000352E+00 0. -1.
</event>
<event>
 5   0  0.2291682E-08  0.3301437E+04  0.7818609E-02  0.8162530E-01
        1   -1    0    0  501    0  0.00000000000E+00  0.00000000000E+00  0.13599231772E+04  0.13599231772E+04  0.50400001928E-02 0. -1.
       -1   -1    0    0    0  501  0.00000000000E+00  0.00000000000E+00 -0.20036956046E+04  0.20036956046E+04  0.50400001928E-02 0.  1.
    10030    2    1    2    0    0  0.00000000000E+00  0.00000000000E+00 -0.64377242743E+03  0.33636187819E+04  0.33014373190E+04 0.  0.
        2    1    3    3  502    0  0.13546144658E+04 -0.55620744614E+03  0.45438625400E+03  0.15332364273E+04  0.25500000920E-02 0. -1.
       -2    1    3    3    0  502 -0.13546144658E+04  0.55620744614E+03 -0.10981586814E+04  0.18303823545E+04  0.25500000920E-02 0.  1.
</event>
<event>
 5   0  0.2244093E-08  0.3300279E+04  0.7818609E-02  0.8162824E-01
        1   -1    0    0  501    0  0.00000000000E+00  0.00000000000E+00  0.20066999543E+04  0.20066999543E+04  0.50400001928E-02 0.  1.
       -1   -1    0    0    0  501  0.00000000000E+00  0.00000000000E+00 -0.13569342474E+04  0.13569342474E+04  0.50400001928E-02 0. -1.
    10030    2    1    2    0    0  0.00000000000E+00  0.00000000000E+00  0.64976570688E+03  0.33636342017E+04  0.33002787108E+04 0.  0.
        1    1    3    3  502    0  0.38827065158E+03  0.13723754233E+04 -0.52098404234E+03  0.15184178521E+04  0.50400001928E-02 0. -1.
       -1    1    3    3    0  502 -0.38827065158E+03 -0.13723754233E+04  0.11707497492E+04  0.18452163495E+04  0.50400001928E-02 0.  1.
</event>
<event>
 5   0  0.6706080E-08  0.3301995E+04  0.7818609E-02  0.8162388E-01
       -2   -1    0    0    0  501  0.00000000000E+00  0.00000000000E+00  0.11066912294E+04  0.11066912295E+04  0.25500000920E-02 0. -1.
        2   -1    0    0  501    0  0.00000000000E+00  0.00000000000E+00 -0.24630117085E+04  0.24630117085E+04  0.25500000920E-02 0.  1.
    10030    2    1    2    0    0  0.00000000000E+00  0.00000000000E+00 -0.13563204790E+04  0.35697029379E+04  0.33019954305E+04 0.  0.
        4    1    3    3  502    0  0.13142057316E+04  0.26759232308E+03  0.36273510862E+03  0.13893598267E+04  0.12699999809E+01 0. -1.
       -4    1    3    3    0  502 -0.13142057316E+04 -0.26759232308E+03 -0.17190555877E+04  0.21803431112E+04  0.12699999809E+01 0.  1.
</event>
<event>
 5   0  0.6706080E-08  0.3279782E+04  0.7818609E-02  0.8168059E-01
        2   -1    0    0  501    0  0.00000000000E+00  0.00000000000E+00  0.18576536221E+04  0.18576536221E+04  0.25500000920E-02 0. -1.
       -2   -1    0    0    0  501  0.00000000000E+00  0.00000000000E+00 -0.14476552788E+04  0.14476552788E+04  0.25500000920E-02 0.  1.
    10030    2    1    2    0    0  0.00000000000E+00  0.00000000000E+00  0.40999834329E+03  0.33053089009E+04  0.32797817440E+04 0.  0.
        4    1    3    3  502    0 -0.15817501739E+04 -0.22119095249E+03  0.57989100806E+03  0.16991569216E+04  0.12699999809E+01 0. -1.
       -4    1    3    3    0  502  0.15817501739E+04  0.22119095249E+03 -0.16989266477E+03  0.16061519793E+04  0.12699999809E+01 0.  1.
</event>
<event>
 5   0  0.6765252E-08  0.3300477E+04  0.7818609E-02  0.8162774E-01
        2   -1    0    0  501    0  0.00000000000E+00  0.00000000000E+00  0.25697902079E+04  0.25697902079E+04  0.25500000920E-02 0. -1.
       -2   -1    0    0    0  501  0.00000000000E+00  0.00000000000E+00 -0.10597314743E+04  0.10597314743E+04  0.25500000920E-02 0.  1.
    10030    2    1    2    0    0  0.00000000000E+00  0.00000000000E+00  0.15100587335E+04  0.36295216822E+04  0.33004772780E+04 0.  0.
        2    1    3    3  502    0 -0.97911566768E+03  0.53552889392E+03 -0.58182691908E+03  0.12585631691E+04  0.25500000920E-02 0.  1.
       -2    1    3    3    0  502  0.97911566768E+03 -0.53552889392E+03  0.20918856526E+04  0.23709585130E+04  0.25500000920E-02 0. -1.
</event>
<event>
 5   0  0.2200750E-08  0.3298660E+04  0.7818609E-02  0.8163236E-01
       -3   -1    0    0    0  501  0.00000000000E+00  0.00000000000E+00  0.29477417015E+04  0.29477417033E+04  0.10100000352E+00 0.  1.
        3   -1    0    0  501    0  0.00000000000E+00  0.00000000000E+00 -0.92283860767E+03  0.92283861320E+03  0.10100000352E+00 0. -1.
    10030    2    1    2    0    0  0.00000000000E+00  0.00000000000E+00  0.20249030939E+04  0.38705803165E+04  0.32986602503E+04 0.  0.
        4    1    3    3  502    0  0.10105899786E+03 -0.39694846840E+03  0.28871092813E+04  0.29160217116E+04  0.12699999809E+01 0.  1.
       -4    1    3    3    0  502 -0.10105899786E+03  0.39694846840E+03 -0.86220618741E+03  0.95455860487E+03  0.12699999809E+01 0. -1.
</event>
<event>
 5   0  0.2309822E-08  0.3294741E+04  0.7818609E-02  0.8164235E-01
       -1   -1    0    0    0  501  0.00000000000E+00  0.00000000000E+00  0.12803457383E+04  0.12803457383E+04  0.50400001928E-02 0.  1.
        1   -1    0    0  501    0  0.00000000000E+00  0.00000000000E+00 -0.21196064036E+04  0.21196064036E+04  0.50400001928E-02 0. -1.
    10030    2    1    2    0    0  0.00000000000E+00  0.00000000000E+00 -0.83926066528E+03  0.33999521419E+04  0.32947406731E+04 0.  0.
        4    1    3    3  502    0 -0.26698152287E+02  0.76243388405E+03  0.10870660032E+04  0.13280558449E+04  0.12699999809E+01 0.  1.
       -4    1    3    3    0  502  0.26698152287E+02 -0.76243388405E+03 -0.19263266685E+04  0.20718962970E+04  0.12699999809E+01 0. -1.
</event>
<event>
 5   0  0.2279938E-08  0.3301671E+04  0.7818609E-02  0.8162470E-01
        1   -1    0    0  501    0  0.00000000000E+00  0.00000000000E+00  0.28134968692E+04  0.28134968692E+04  0.50400001928E-02 0.  1.
       -1   -1    0    0    0  501  0.00000000000E+00  0.00000000000E+00 -0.96863711115E+03  0.96863711116E+03  0.50400001928E-02 0. -1.
    10030    2    1    2    0    0  0.00000000000E+00  0.00000000000E+00  0.18448597581E+04  0.37821339804E+04  0.33016707769E+04 0.  0.
        3    1    3    3  502    0 -0.12040661448E+04  0.10864003093E+04  0.12759054293E+04  0.20634862703E+04  0.10100000352E+00 0.  1.
       -3    1    3    3    0  502  0.12040661448E+04 -0.10864003093E+04  0.56895432876E+03  0.17186477101E+04  0.10100000352E+00 0. -1.
</event>
<event>
 5   0  0.2309822E-08  0.3300004E+04  0.7818609E-02  0.8162894E-01
       -1   -1    0    0    0  501  0.00000000000E+00  0.00000000000E+00  0.15534400465E+04  0.15534400465E+04  0.50400001928E-02 0.  1.
        1   -1    0    0  501    0  0.00000000000E+00  0.00000000000E+00 -0.17525665296E+04  0.17525665296E+04  0.50400001928E-02 0. -1.
    10030    2    1    2    0    0  0.00000000000E+00  0.00000000000E+00 -0.19912648316E+03  0.33060065761E+04  0.33000042614E+04 0.  0.
        4    1    3    3  502    0 -0.89956628497E+02 -0.20440296558E+03  0.15382291427E+04  0.15543562255E+04  0.12699999809E+01 0.  1.
       -4    1    3    3    0  502  0.89956628497E+02  0.20440296558E+03 -0.17373556258E+04  0.17516503506E+04  0.12699999809E+01 0. -1.
</event>
<event>
 5   0  0.2309822E-08  0.3299544E+04  0.7818609E-02  0.8163011E-01
        1   -1    0    0  501    0  0.00000000000E+00  0.00000000000E+00  0.15840775489E+04  0.15840775490E+04  0.50400001928E-02 0. -1.
       -1   -1    0    0    0  501  0.00000000000E+00  0.00000000000E+00 -0.17181909512E+04  0.17181909512E+04  0.50400001928E-02 0.  1.
    10030    2    1    2    0    0  0.00000000000E+00  0.00000000000E+00 -0.13411340225E+03  0.33022685001E+04  0.32995440355E+04 0.  0.
        4    1    3    3  502    0 -0.50728644489E+03 -0.14744738524E+04 -0.60632757842E+03  0.16730353923E+04  0.12699999809E+01 0.  1.
       -4    1    3    3    0  502  0.50728644489E+03  0.14744738524E+04  0.47221417618E+03  0.16292331078E+04  0.12699999809E+01 0. -1.
</event>
<event>
 5   0  0.6603516E-08  0.3299494E+04  0.7818609E-02  0.8163024E-01
       -2   -1    0    0    0  501  0.00000000000E+00  0.00000000000E+00  0.15923848552E+04  0.15923848552E+04  0.25500000920E-02 0.  1.
        2   -1    0    0  501    0  0.00000000000E+00  0.00000000000E+00 -0.17091750242E+04  0.17091750242E+04  0.25500000920E-02 0. -1.
    10030    2    1    2    0    0  0.00000000000E+00  0.00000000000E+00 -0.11679016899E+03  0.33015598794E+04  0.32994935511E+04 0.  0.
        1    1    3    3  502    0 -0.58257459850E+03 -0.10955126125E+04  0.10295407888E+04  0.16122950359E+04  0.50400001928E-02 0.  1.
       -1    1    3    3    0  502  0.58257459850E+03  0.10955126125E+04 -0.11463309578E+04  0.16892648436E+04  0.50400001928E-02 0. -1.
</event>
<event>
 5   0  0.6765252E-08  0.3300606E+04  0.7818609E-02  0.8162741E-01
       -2   -1    0    0    0  501  0.00000000000E+00  0.00000000000E+00  0.96502044511E+03  0.96502044512E+03  0.25500000920E-02 0. -1.
        2   -1    0    0  501    0  0.00000000000E+00  0.00000000000E+00 -0.28222198041E+04  0.28222198041E+04  0.25500000920E-02 0.  1.
    10030    2    1    2    0    0  0.00000000000E+00  0.00000000000E+00 -0.18571993590E+04  0.37872402492E+04  0.33006058908E+04 0.  0.
        2    1    3    3  502    0  0.12909707780E+04  0.98362870431E+03 -0.58557747662E+03  0.17254077659E+04  0.25500000920E-02 0.  1.
       -2    1    3    3    0  502 -0.12909707780E+04 -0.98362870431E+03 -0.12716218823E+04  0.20618324833E+04  0.25500000920E-02 0. -1.
</event>
<event>
 5   0  0.7084130E-08  0.3298660E+04  0.7818609E-02  0.8163236E-01
        2   -1    0    0  501    0  0.00000000000E+00  0.00000000000E+00  0.19769306234E+04  0.19769306234E+04  0.25500000920E-02 0.  1.
       -2   -1    0    0    0  501  0.00000000000E+00  0.00000000000E+00 -0.13760164669E+04  0.13760164669E+04  0.25500000920E-02 0. -1.
    10030    2    1    2    0    0  0.00000000000E+00  0.00000000000E+00  0.60091415647E+03  0.33529470903E+04  0.32986597835E+04 0.  0.
        3    1    3    3  502    0 -0.99051189891E+03  0.81507079328E+03 -0.75334741661E+03  0.14876110245E+04  0.10100000352E+00 0. -1.
       -3    1    3    3    0  502  0.99051189891E+03 -0.81507079328E+03  0.13542615731E+04  0.18653360658E+04  0.10100000352E+00 0.  1.
</event>
<event>
 5   0  0.6821287E-08  0.3300180E+04  0.7818609E-02  0.8162850E-01
       -2   -1    0    0    0  501  0.00000000000E+00  0.00000000000E+00  0.12499235318E+04  0.12499235318E+04  0.25500000920E-02 0.  1.
        2   -1    0    0  501    0  0.00000000000E+00  0.00000000000E+00 -0.21783709693E+04  0.21783709693E+04  0.25500000920E-02 0. -1.
    10030    2    1    2    0    0  0.00000000000E+00  0.00000000000E+00 -0.92844743747E+03  0.34282945011E+04  0.33001800773E+04 0.  0.
        5    1    3    3  502    0 -0.41382725303E+03 -0.18246762162E+03 -0.21127200128E+04  0.21605914401E+04  0.46999998093E+01 0. -1.
       -5    1    3    3    0  502  0.41382725303E+03  0.18246762162E+03  0.11842725754E+04  0.12677030611E+04  0.46999998093E+01 0.  1.
</event>
<event>
 5   0  0.2383270E-08  0.3299900E+04  0.7818609E-02  0.8162921E-01
       -1   -1    0    0    0  501  0.00000000000E+00  0.00000000000E+00  0.14345353095E+04  0.14345353095E+04  0.50400001928E-02 0.  1.
        1   -1    0    0  501    0  0.00000000000E+00  0.00000000000E+00 -0.18977116167E+04  0.18977116167E+04  0.50400001928E-02 0. -1.
    10030    2    1    2    0    0  0.00000000000E+00  0.00000000000E+00 -0.46317630718E+03  0.33322469262E+04  0.32998995872E+04 0.  0.
        5    1    3    3  502    0  0.77375588978E+03  0.10431187825E+04 -0.12591669214E+04  0.18089550568E+04  0.46999998093E+01 0. -1.
       -5    1    3    3    0  502 -0.77375588978E+03 -0.10431187825E+04  0.79599061425E+03  0.15232918694E+04  0.46999998093E+01 0.  1.
</event>
<event>
 5   0  0.2291682E-08  0.3299194E+04  0.7818609E-02  0.8163100E-01
        1   -1    0    0  501    0  0.00000000000E+00  0.00000000000E+00  0.19890094659E+04  0.19890094659E+04  0.50400001928E-02 0.  1.
       -1   -1    0    0    0  501  0.00000000000E+00  0.00000000000E+00 -0.13681035408E+04  0.13681035408E+04  0.50400001928E-02 0. -1.
    10030    2    1    2    0    0  0.00000000000E+00  0.00000000000E+00  0.62090592505E+03  0.33571130067E+04  0.32991943822E+04 0.  0.
        2    1    3    3  502    0  0.10297583099E+04 -0.12832339779E+04  0.18971379188E+03  0.16562255105E+04  0.25500000920E-02 0. -1.
       -2    1    3    3    0  502 -0.10297583099E+04  0.12832339779E+04  0.43119213317E+03  0.17008874962E+04  0.25500000920E-02 0.  1.
</event>
<event>
 5   0  0.2383270E-08  0.3300678E+04  0.7818609E-02  0.8162723E-01
        1   -1    0    0  501    0  0.00000000000E+00  0.00000000000E+00  0.25097080205E+04  0.25097080205E+04  0.50400001928E-02 0. -1.
       -1   -1    0    0    0  501  0.00000000000E+00  0.00000000000E+00 -0.10852334845E+04  0.10852334845E+04  0.50400001928E-02 0.  1.
    10030    2    1    2    0    0  0.00000000000E+00  0.00000000000E+00  0.14244745360E+04  0.35949415050E+04  0.33006782213E+04 0.  0.
        5    1    3    3  502    0 -0.77211723543E+03  0.14265199653E+04  0.10434414185E+04  0.19287084591E+04  0.46999998093E+01 0. -1.
       -5    1    3    3    0  502  0.77211723543E+03 -0.14265199653E+04  0.38103311749E+03  0.16662330459E+04  0.46999998093E+01 0.  1.
</event>
<event>
 5   0  0.6765252E-08  0.3281572E+04  0.7818609E-02  0.8167600E-01
        2   -1    0    0  501    0  0.00000000000E+00  0.00000000000E+00  0.21320131042E+04  0.21320131042E+04  0.25500000920E-02 0. -1.
       -2   -1    0    0    0  501  0.00000000000E+00  0.00000000000E+00 -0.12627398583E+04  0.12627398583E+04  0.25500000920E-02 0.  1.
    10030    2    1    2    0    0  0.00000000000E+00  0.00000000000E+00  0.86927324592E+03  0.33947529625E+04  0.32815715290E+04 0.  0.
        2    1    3    3  502    0  0.10636173049E+04 -0.12401968126E+04  0.27840458772E+03  0.16573711171E+04  0.25500000920E-02 0.  1.
       -2    1    3    3    0  502 -0.10636173049E+04  0.12401968126E+04  0.59086865820E+03  0.17373818454E+04  0.25500000920E-02 0. -1.
</event>
<event>
 5   0  0.6603516E-08  0.3300400E+04  0.7818609E-02  0.8162793E-01
        2   -1    0    0  501    0  0.00000000000E+00  0.00000000000E+00  0.18722502209E+04  0.18722502209E+04  0.25500000920E-02 0. -1.
       -2   -1    0    0    0  501  0.00000000000E+00  0.00000000000E+00 -0.14544854890E+04  0.14544854890E+04  0.25500000920E-02 0.  1.
    10030    2    1    2    0    0  0.00000000000E+00  0.00000000000E+00  0.41776473189E+03  0.33267357099E+04  0.33004004473E+04 0.  0.
        1    1    3    3  502    0  0.89802516346E+03  0.76645656189E+03 -0.95325098493E+03  0.15174295027E+04  0.50400001928E-02 0.  1.
       -1    1    3    3    0  502 -0.89802516346E+03 -0.76645656189E+03  0.13710157168E+04  0.18093062072E+04  0.50400001928E-02 0. -1.
</event>
<event>
 5   0  0.6603516E-08  0.3300903E+04  0.7818609E-02  0.8162666E-01
        2   -1    0    0  501    0  0.00000000000E+00  0.00000000000E+00  0.15402530977E+04  0.15402530977E+04  0.25500000920E-02 0.  1.
       -2   -1    0    0    0  501  0.00000000000E+00  0.00000000000E+00 -0.17685344142E+04  0.17685344142E+04  0.25500000920E-02 0. -1.
    10030    2    1    2    0    0  0.00000000000E+00  0.00000000000E+00 -0.22828131653E+03  0.33087875119E+04  0.33009032763E+04 0.  0.
        1    1    3    3  502    0 -0.16239861676E+04 -0.16479583396E+03  0.13037202332E+03  0.16375242300E+04  0.50400001928E-02 0.  1.
       -1    1    3    3    0  502  0.16239861676E+04  0.16479583396E+03 -0.35865333985E+03  0.16712632819E+04  0.50400001928E-02 0. -1.
</event>
<event>
 5   0  0.7084130E-08  0.3301754E+04  0.7818609E-02  0.8162449E-01
        2   -1    0    0  501    0  0.00000000000E+00  0.00000000000E+00  0.27055383041E+04  0.27055383041E+04  0.25500000920E-02 0.  1.
       -2   -1    0    0    0  501  0.00000000000E+00  0.00000000000E+00 -0.10073392571E+04  0.10073392571E+04  0.25500000920E-02 0. -1.
    10030    2    1    2    0    0  0.00000000000E+00  0.00000000000E+00  0.16981990470E+04  0.37128775612E+04  0.33017540461E+04 0.  0.
        3    1    3    3  502    0  0.11323266908E+04 -0.94233759132E+03  0.16870199685E+04  0.22396875351E+04  0.10100000352E+00 0.  1.
       -3    1    3    3    0  502 -0.11323266908E+04  0.94233759132E+03  0.11179078563E+02  0.14731900260E+04  0.10100000352E+00 0. -1.
</event>
<event>
 5   0  0.2309822E-08  0.3300316E+04  0.7818609E-02  0.8162815E-01
       -1   -1    0    0    0  501  0.00000000000E+00  0.00000000000E+00  0.15895676848E+04  0.15895676848E+04  0.50400001928E-02 0.  1.
        1   -1    0    0  501    0  0.00000000000E+00  0.00000000000E+00 -0.17130583648E+04  0.17130583648E+04  0.50400001928E-02 0. -1.
    10030    2    1    2    0    0  0.00000000000E+00  0.00000000000E+00 -0.12349067996E+03  0.33026260496E+04  0.33003164811E+04 0.  0.
        4    1    3    3  502    0  0.96421747154E+03 -0.45616769840E+03 -0.13216801622E+04  0.16984240830E+04  0.12699999809E+01 0. -1.
       -4    1    3    3    0  502 -0.96421747154E+03  0.45616769840E+03  0.11981894823E+04  0.16042019667E+04  0.12699999809E+01 0.  1.
</event>
<event>
 5   0  0.6603516E-08  0.3301307E+04  0.7818609E-02  0.8162563E-01
       -2   -1    0    0    0  501  0.00000000000E+00  0.00000000000E+00  0.13733896985E+04  0.13733896985E+04  0.25500000920E-02 0.  1.
        2   -1    0    0  501    0  0.00000000000E+00  0.00000000000E+00 -0.19838925911E+04  0.19838925911E+04  0.25500000920E-02 0. -1.
    10030    2    1    2    0    0  0.00000000000E+00  0.00000000000E+00 -0.61050289254E+03  0.33572822896E+04  0.33013074062E+04 0.  0.
        1    1    3    3  502    0 -0.82138539833E+03 -0.75672721773E+03 -0.15413219350E+04  0.19034136077E+04  0.50400001928E-02 0. -1.
       -1    1    3    3    0  502  0.82138539833E+03  0.75672721773E+03  0.93081904241E+03  0.14538686820E+04  0.50400001928E-02 0.  1.
</event>
<event>
 5   0  0.2291682E-08  0.3301447E+04  0.7818609E-02  0.8162527E-01
       -1   -1    0    0    0  501  0.00000000000E+00  0.00000000000E+00  0.14757491233E+04  0.14757491233E+04  0.50400001928E-02 0. -1.
        1   -1    0    0  501    0  0.00000000000E+00  0.00000000000E+00 -0.18464439210E+04  0.18464439210E+04  0.50400001928E-02 0.  1.
    10030    2    1    2    0    0  0.00000000000E+00  0.00000000000E+00 -0.37069479765E+03  0.33221930443E+04  0.33014469541E+04 0.  0.
        2    1    3    3  502    0  0.30169737087E+02  0.18552427069E+03  0.14649455377E+04  0.14769546021E+04  0.25500000920E-02 0. -1.
       -2    1    3    3    0  502 -0.30169737087E+02 -0.18552427069E+03 -0.18356403354E+04  0.18452384423E+04  0.25500000920E-02 0.  1.
</event>
<event>
 5   0  0.6821287E-08  0.3299840E+04  0.7818609E-02  0.8162936E-01
        2   -1    0    0  501    0  0.00000000000E+00  0.00000000000E+00  0.16139832271E+04  0.16139832271E+04  0.25500000920E-02 0.  1.
       -2   -1    0    0    0  501  0.00000000000E+00  0.00000000000E+00 -0.16866572863E+04  0.16866572863E+04  0.25500000920E-02 0. -1.
    10030    2    1    2    0    0  0.00000000000E+00  0.00000000000E+00 -0.72674059144E+02  0.33006405134E+04  0.32998403416E+04 0.  0.
        5    1    3    3  502    0 -0.15913939727E+04  0.38820494928E+03 -0.23380987876E+03  0.16546682472E+04  0.46999998093E+01 0. -1.
       -5    1    3    3    0  502  0.15913939727E+04 -0.38820494928E+03  0.16113581962E+03  0.16459722662E+04  0.46999998093E+01 0.  1.
</event>
<event>
 5   0  0.7084130E-08  0.3299673E+04  0.7818609E-02  0.8162979E-01
        2   -1    0    0  501    0  0.00000000000E+00  0.00000000000E+00  0.18707914199E+04  0.18707914199E+04  0.25500000920E-02 0. -1.
       -2   -1    0    0    0  501  0.00000000000E+00  0.00000000000E+00 -0.14549780261E+04  0.14549780261E+04  0.25500000920E-02 0.  1.
    10030    2    1    2    0    0  0.00000000000E+00  0.00000000000E+00  0.41581339379E+03  0.33257694460E+04  0.32996729580E+04 0.  0.
        3    1    3    3  502    0 -0.99829105557E+02 -0.64065873478E+03 -0.13211779813E+04  0.14717067416E+04  0.10100000352E+00 0.  1.
       -3    1    3    3    0  502  0.99829105557E+02  0.64065873478E+03  0.17369913751E+04  0.18540627044E+04  0.10100000352E+00 0. -1.
</event>
<event>
 5   0  0.2291682E-08  0.3304368E+04  0.7818609E-02  0.8161785E-01
        1   -1    0    0  501    0  0.00000000000E+00  0.00000000000E+00  0.22786029943E+04  0.22786029943E+04  0.50400001928E-02 0.  1.
       -1   -1    0    0    0  501  0.00000000000E+00  0.00000000000E+00 -0.11979762206E+04  0.11979762206E+04  0.50400001928E-02 0. -1.
    10030    2    1    2    0    0  0.00000000000E+00  0.00000000000E+00  0.10806267737E+04  0.34765792150E+04  0.33043681414E+04 0.  0.
        2    1    3    3  502    0 -0.53313235056E+03 -0.13638695953E+03  0.21793472138E+04  0.22477512728E+04  0.25500000920E-02 0.  1.
       -2    1    3    3    0  502  0.53313235056E+03  0.13638695953E+03 -0.10987204401E+04  0.12288279422E+04  0.25500000920E-02 0. -1.
</event>
<event>
 5   0  0.2291682E-08  0.3299182E+04  0.7818609E-02  0.8163103E-01
        1   -1    0    0  501    0  0.00000000000E+00  0.00000000000E+00  0.10921603778E+04  0.10921603778E+04  0.50400001928E-02 0. -1.
       -1   -1    0    0    0  501  0.00000000000E+00  0.00000000000E+00 -0.24915307809E+04  0.24915307809E+04  0.50400001928E-02 0.  1.
    10030    2    1    2    0    0  0.00000000000E+00  0.00000000000E+00 -0.13993704031E+04  0.35836911587E+04  0.32991824436E+04 0.  0.
        2    1    3    3  502    0  0.10183303870E+04  0.12906549205E+04 -0.55248398129E+03  0.17343660082E+04  0.25500000920E-02 0.  1.
       -2    1    3    3    0  502 -0.10183303870E+04 -0.12906549205E+04 -0.84688642183E+03  0.18493251505E+04  0.25500000920E-02 0. -1.
</event>
<event>
 5   0  0.2383270E-08  0.3298738E+04  0.7818609E-02  0.8163217E-01
       -1   -1    0    0    0  501  0.00000000000E+00  0.00000000000E+00  0.12431616426E+04  0.12431616426E+04  0.50400001928E-02 0.  1.
        1   -1    0    0  501    0  0.00000000000E+00  0.00000000000E+00 -0.21883053638E+04  0.21883053638E+04  0.50400001928E-02 0. -1.
    10030    2    1    2    0    0  0.00000000000E+00  0.00000000000E+00 -0.94514372124E+03  0.34314670064E+04  0.32987375103E+04 0.  0.
        5    1    3    3  502    0  0.24336096853E+03 -0.11669439631E+04 -0.16583558344E+04  0.20423390848E+04  0.46999998093E+01 0. -1.
       -5    1    3    3    0  502 -0.24336096853E+03  0.11669439631E+04  0.71321211314E+03  0.13891279215E+04  0.46999998093E+01 0.  1.
</event>
<event>
 5   0  0.6765252E-08  0.3298185E+04  0.7818609E-02  0.8163357E-01
        2   -1    0    0  501    0  0.00000000000E+00  0.00000000000E+00  0.22417173833E+04  0.22417173833E+04  0.25500000920E-02 0. -1.
       -2   -1    0    0    0  501  0.00000000000E+00  0.00000000000E+00 -0.12131352243E+04  0.12131352243E+04  0.25500000920E-02 0.  1.
    10030    2    1    2    0    0  0.00000000000E+00  0.00000000000E+00  0.10285821590E+04  0.34548526076E+04  0.32981851498E+04 0.  0.
        2    1    3    3  502    0  0.13153977228E+04  0.47794570752E+03 -0.39938155011E+03  0.14554067786E+04  0.25500000920E-02 0.  1.
       -2    1    3    3    0  502 -0.13153977228E+04 -0.47794570752E+03  0.14279637091E+04  0.19994458290E+04  0.25500000920E-02 0. -1.
</event>
<event>
 5   0  0.6765252E-08  0.3302559E+04  0.7818609E-02  0.8162245E-01
        2   -1    0    0  501    0  0.00000000000E+00  0.00000000000E+00  0.23440446516E+04  0.23440446516E+04  0.25500000920E-02 0.  1.
       -2   -1    0    0    0  501  0.00000000000E+00  0.00000000000E+00 -0.11632560059E+04  0.11632560059E+04  0.25500000920E-02 0. -1.
    10030    2    1    2    0    0  0.00000000000E+00  0.00000000000E+00  0.11807886457E+04  0.35073006575E+04  0.33025590194E+04 0.  0.
        2    1    3    3  502    0  0.18337560813E+03  0.53118604866E+03 -0.10585861056E+04  0.11984947955E+04  0.25500000920E-02 0. -1.
       -2    1    3    3    0  502 -0.18337560813E+03 -0.53118604866E+03  0.22393747512E+04  0.23088058620E+04  0.25500000920E-02 0.  1.
</event>
<event>
 5   0  0.2279938E-08  0.3300198E+04  0.7818609E-02  0.8162845E-01
        1   -1    0    0  501    0  0.00000000000E+00  0.00000000000E+00  0.12220747922E+04  0.12220747922E+04  0.50400001928E-02 0. -1.
       -1   -1    0    0    0  501  0.00000000000E+00  0.00000000000E+00 -0.22280364594E+04  0.22280364595E+04  0.50400001928E-02 0.  1.
    10030    2    1    2    0    0  0.00000000000E+00  0.00000000000E+00 -0.10059616672E+04  0.34501112517E+04  0.33001982930E+04 0.  0.
        3    1    3    3  502    0  0.13283306531E+04  0.73075324041E+03 -0.11840051490E+04  0.19236243982E+04  0.10100000352E+00 0. -1.
       -3    1    3    3    0  502 -0.13283306531E+04 -0.73075324041E+03  0.17804348178E+03  0.15264868535E+04  0.10100000352E+00 0.  1.
</event>
<event>
 5   0  0.6706080E-08  0.3299604E+04  0.7818609E-02  0.8162996E-01
        2   -1    0    0  501    0  0.00000000000E+00  0.00000000000E+00  0.17424442233E+04  0.17424442233E+04  0.25500000920E-02 0. -1.
       -2   -1    0    0    0  501  0.00000000000E+00  0.00000000000E+00 -0.15620850555E+04  0.15620850555E+04  0.25500000920E-02 0.  1.
    10030    2    1    2    0    0  0.00000000000E+00  0.00000000000E+00  0.18035916782E+03  0.33045292787E+04  0.32996036617E+04 0.  0.
        4    1    3    3  502    0 -0.63341816979E+03  0.11751268437E+04 -0.88065018715E+03  0.15992773498E+04  0.12699999809E+01 0.  1.
       -4    1    3    3    0  502  0.63341816979E+03 -0.11751268437E+04  0.10610093550E+04  0.17052519289E+04  0.12699999809E+01 0. -1.
</event>
<event>
 5   0  0.2244093E-08  0.3308924E+04  0.7818609E-02  0.8160628E-01
        1   -1    0    0  501    0  0.00000000000E+00  0.00000000000E+00  0.13588417334E+04  0.13588417335E+04  0.50400001928E-02 0.  1.
       -1   -1    0    0    0  501  0.00000000000E+00  0.00000000000E+00 -0.20143957398E+04  0.20143957398E+04  0.50400001928E-02 0. -1.
    10030    2    1    2    0    0  0.00000000000E+00  0.00000000000E+00 -0.65555400633E+03  0.33732374732E+04  0.33089242958E+04 0.  0.
        1    1    3    3  502    0  0.11270896552E+04 -0.10353006427E+04  0.31298268380E+03  0.15620936822E+04  0.50400001928E-02 0.  1.
       -1    1    3    3    0  502 -0.11270896552E+04  0.10353006427E+04 -0.96853669012E+03  0.18111437910E+04  0.50400001928E-02 0. -1.
</event>
<event>
 5   0  0.6765252E-08  0.3299445E+04  0.7818609E-02  0.8163037E-01
        2   -1    0    0  501    0  0.00000000000E+00  0.00000000000E+00  0.18828650759E+04  0.18828650759E+04  0.25500000920E-02 0. -1.
       -2   -1    0    0    0  501  0.00000000000E+00  0.00000000000E+00 -0.14454485343E+04  0.14454485343E+04  0.25500000920E-02 0.  1.
    10030    2    1    2    0    0  0.00000000000E+00  0.00000000000E+00  0.43741654161E+03  0.33283136103E+04  0.32994451439E+04 0.  0.
        2    1    3    3  502    0 -0.14014239679E+04  0.59633703689E+03 -0.42085606226E+03  0.15801034221E+04  0.25500000920E-02 0.  1.
       -2    1    3    3    0  502  0.14014239679E+04 -0.59633703689E+03  0.85827260386E+03  0.17482101882E+04  0.25500000920E-02 0. -1.
</event>
<event>
 5   0  0.2279938E-08  0.3296516E+04  0.7818609E-02  0.8163783E-01
       -1   -1    0    0    0  501  0.00000000000E+00  0.00000000000E+00  0.12172878032E+04  0.12172878032E+04  0.50400001928E-02 0. -1.
        1   -1    0    0  501    0  0.00000000000E+00  0.00000000000E+00 -0.22318088200E+04  0.22318088200E+04  0.50400001928E-02 0.  1.
    10030    2    1    2    0    0  0.00000000000E+00  0.00000000000E+00 -0.10145210168E+04  0.34490966233E+04  0.32965155275E+04 0.  0.
        3    1    3    3  502    0  0.15645640705E+03 -0.15070286178E+04 -0.11862504955E+04  0.19242671619E+04  0.10100000352E+00 0.  1.
       -3    1    3    3    0  502 -0.15645640705E+03  0.15070286178E+04  0.17172947873E+03  0.15248294613E+04  0.10100000352E+00 0. -1.
</event>
<event>
 5   0  0.6603516E-08  0.3303269E+04  0.7818609E-02  0.8162064E-01
        2   -1    0    0  501    0  0.00000000000E+00  0.00000000000E+00  0.18668298565E+04  0.18668298565E+04  0.25500000920E-02 0. -1.
       -2   -1    0    0    0  501  0.00000000000E+00  0.00000000000E+00 -0.14612454452E+04  0.14612454452E+04  0.25500000920E-02 0.  1.
    10030    2    1    2    0    0  0.00000000000E+00  0.00000000000E+00  0.40558441125E+03  0.33280753017E+04  0.33032690625E+04 0.  0.
        1    1    3    3  502    0  0.99144396885E+03  0.66908821003E+03 -0.94473268216E+03  0.15241915946E+04  0.50400001928E-02 0.  1.
       -1    1    3    3    0  502 -0.99144396885E+03 -0.66908821003E+03  0.13503170934E+04  0.18038837072E+04  0.50400001928E-02 0. -1.
</event>
<event>
 5   0  0.6821287E-08  0.3301473E+04  0.7818609E-02  0.8162521E-01
        2   -1    0    0  501    0  0.00000000000E+00  0.00000000000E+00  0.24987966708E+04  0.24987966708E+04  0.25500000920E-02 0. -1.
       -2   -1    0    0    0  501  0.00000000000E+00  0.00000000000E+00 -0.10904972646E+04  0.10904972646E+04  0.25500000920E-02 0.  1.
    10030    2    1    2    0    0  0.00000000000E+00  0.00000000000E+00  0.14082994062E+04  0.35892939353E+04  0.33014729647E+04 0.  0.
        5    1    3    3  502    0 -0.13125057250E+04 -0.78974584112E+03  0.35256725106E+02  0.15321993664E+04  0.46999998093E+01 0.  1.
       -5    1    3    3    0  502  0.13125057250E+04  0.78974584112E+03  0.13730426811E+04  0.20570945690E+04  0.46999998093E+01 0. -1.
</event>
<event>
 5   0  0.2244093E-08  0.3300916E+04  0.7818609E-02  0.8162662E-01
       -1   -1    0    0    0  501  0.00000000000E+00  0.00000000000E+00  0.14448624252E+04  0.14448624252E+04  0.50400001928E-02 0.  1.
        1   -1    0    0  501    0  0.00000000000E+00  0.00000000000E+00 -0.18853089190E+04  0.18853089190E+04  0.50400001928E-02 0. -1.
    10030    2    1    2    0    0  0.00000000000E+00  0.00000000000E+00 -0.44044649383E+03  0.33301713442E+04  0.33009162467E+04 0.  0.
        1    1    3    3  502    0 -0.54404767748E+03 -0.14859354280E+04 -0.69344336462E+03  0.17276734852E+04  0.50400001928E-02 0. -1.
       -1    1    3    3    0  502  0.54404767748E+03  0.14859354280E+04  0.25299687079E+03  0.16024978590E+04  0.50400001928E-02 0.  1.
</event>
<event>
 5   0  0.2309822E-08  0.3299315E+04  0.7818609E-02  0.8163070E-01
       -1   -1    0    0    0  501  0.00000000000E+00  0.00000000000E+00  0.27744950637E+04  0.27744950637E+04  0.50400001928E-02 0. -1.
        1   -1    0    0  501    0  0.00000000000E+00  0.00000000000E+00 -0.98085233312E+03  0.98085233313E+03  0.50400001928E-02 0.  1.
    10030    2    1    2    0    0  0.00000000000E+00  0.00000000000E+00  0.17936427306E+04  0.37553473969E+04  0.32993150541E+04 0.  0.
        4    1    3    3  502    0 -0.13771444577E+04 -0.34423698089E+03 -0.59786537514E+02  0.14207751403E+04  0.12699999809E+01 0.  1.
       -4    1    3    3    0  502  0.13771444577E+04  0.34423698089E+03  0.18534292681E+04  0.23345722566E+04  0.12699999809E+01 0. -1.
</event>
<event>
 5   0  0.2309822E-08  0.3296605E+04  0.7818609E-02  0.8163760E-01
       -1   -1    0    0    0  501  0.00000000000E+00  0.00000000000E+00  0.14786251829E+04  0.14786251829E+04  0.50400001928E-02 0. -1.
        1   -1    0    0  501    0  0.00000000000E+00  0.00000000000E+00 -0.18374513808E+04  0.18374513808E+04  0.50400001928E-02 0.  1.
    10030    2    1    2    0    0  0.00000000000E+00  0.00000000000E+00 -0.35882619784E+03  0.33160765637E+04  0.32966054565E+04 0.  0.
        4    1    3    3  502    0 -0.10026326750E+04  0.43643840091E+03 -0.14200466659E+04  0.17922848281E+04  0.12699999809E+01 0.  1.
       -4    1    3    3    0  502  0.10026326750E+04 -0.43643840091E+03  0.10612204680E+04  0.15237917356E+04  0.12699999809E+01 0. -1.
</event>
<event>
 5   0  0.6765252E-08  0.3300410E+04  0.7818609E-02  0.8162791E-01
       -2   -1    0    0    0  501  0.00000000000E+00  0.00000000000E+00  0.17027600615E+04  0.17027600615E+04  0.25500000920E-02 0.  1.
        2   -1    0    0  501    0  0.00000000000E+00  0.00000000000E+00 -0.15992721553E+04  0.15992721553E+04  0.25500000920E-02 0. -1.
    10030    2    1    2    0    0  0.00000000000E+00  0.00000000000E+00  0.10348790626E+03  0.33020322168E+04  0.33004101282E+04 0.  0.
        2    1    3    3  502    0 -0.18918370202E+03  0.16263123295E+04 -0.15449927248E+03  0.16445523073E+04  0.25500000920E-02 0. -1.
       -2    1    3    3    0  502  0.18918370202E+03 -0.16263123295E+04  0.25798717874E+03  0.16574799096E+04  0.25500000920E-02 0.  1.
</event>
<event>
 5   0  0.6765252E-08  0.3298620E+04  0.7818609E-02  0.8163247E-01
       -2   -1    0    0    0  501  0.00000000000E+00  0.00000000000E+00  0.98414109804E+03  0.98414109804E+03  0.25500000920E-02 0. -1.
        2   -1    0    0  501    0  0.00000000000E+00  0.00000000000E+00 -0.27640589873E+04  0.27640589873E+04  0.25500000920E-02 0.  1.
    10030    2    1    2    0    0  0.00000000000E+00  0.00000000000E+00 -0.17799178892E+04  0.37482000853E+04  0.32986203460E+04 0.  0.
        2    1    3    3  502    0  0.83275027687E+03  0.10034029714E+04  0.25760359014E+03  0.13291539250E+04  0.25500000920E-02 0. -1.
       -2    1    3    3    0  502 -0.83275027687E+03 -0.10034029714E+04 -0.20375214794E+04  0.24190461603E+04  0.25500000920E-02 0.  1.
</event>
<event>
 5   0  0.6706080E-08  0.3299473E+04  0.7818609E-02  0.8163029E-01
        2   -1    0    0  501    0  0.00000000000E+00  0.00000000000E+00  0.11949330867E+04  0.11949330867E+04  0.25500000920E-02 0.  1.
       -2   -1    0    0    0  501  0.00000000000E+00  0.00000000000E+00 -0.22776429308E+04  0.22776429308E+04  0.25500000920E-02 0. -1.
    10030    2    1    2    0    0  0.00000000000E+00  0.00000000000E+00 -0.10827098441E+04  0.34725760175E+04  0.32994732293E+04 0.  0.
        4    1    3    3  502    0  0.88534117949E+03  0.11390573331E+04 -0.13835552561E+04  0.19988765274E+04  0.12699999809E+01 0. -1.
       -4    1    3    3    0  502 -0.88534117949E+03 -0.11390573331E+04  0.30084541201E+03  0.14736994901E+04  0.12699999809E+01 0.  1.
</event>
<event>
 5   0  0.6821287E-08  0.3297804E+04  0.7818609E-02  0.8163454E-01
        2   -1    0    0  501    0  0.00000000000E+00  0.00000000000E+00  0.17980252800E+04  0.17980252800E+04  0.25500000920E-02 0. -1.
       -2   -1    0    0    0  501  0.00000000000E+00  0.00000000000E+00 -0.15121464941E+04  0.15121464941E+04  0.25500000920E-02 0.  1.
    10030    2    1    2    0    0  0.00000000000E+00  0.00000000000E+00  0.28587878588E+03  0.33101717741E+04  0.32978038896E+04 0.  0.
        5    1    3    3  502    0  0.12437102758E+04  0.95541350926E+03  0.65399058572E+03  0.16992221750E+04  0.46999998093E+01 0. -1.
       -5    1    3    3    0  502 -0.12437102758E+04 -0.95541350926E+03 -0.36811179984E+03  0.16109495991E+04  0.46999998093E+01 0.  1.
</event>
<event>
 5   0  0.6765252E-08  0.3275515E+04  0.7818609E-02  0.8169154E-01
        2   -1    0    0  501    0  0.00000000000E+00  0.00000000000E+00  0.14907219501E+04  0.14907219501E+04  0.25500000920E-02 0.  1.
       -2   -1    0    0    0  501  0.00000000000E+00  0.00000000000E+00 -0.17992958073E+04  0.17992958073E+04  0.25500000920E-02 0. -1.
    10030    2    1    2    0    0  0.00000000000E+00  0.00000000000E+00 -0.30857385717E+03  0.32900177574E+04  0.32755150769E+04 0.  0.
        2    1    3    3  502    0 -0.21128911553E+03  0.45096272278E+03  0.14128259256E+04  0.14980278915E+04  0.25500000920E-02 0.  1.
       -2    1    3    3    0  502  0.21128911553E+03 -0.45096272278E+03 -0.17213997827E+04  0.17919898660E+04  0.25500000920E-02 0. -1.
</event>
<event>
 5   0  0.6603516E-08  0.3301618E+04  0.7818609E-02  0.8162484E-01
       -2   -1    0    0    0  501  0.00000000000E+00  0.00000000000E+00  0.11374701619E+04  0.11374701619E+04  0.25500000920E-02 0.  1.
        2   -1    0    0  501    0  0.00000000000E+00  0.00000000000E+00 -0.23958176803E+04  0.23958176803E+04  0.25500000920E-02 0. -1.
    10030    2    1    2    0    0  0.00000000000E+00  0.00000000000E+00 -0.12583475184E+04  0.35332878422E+04  0.33016184666E+04 0.  0.
        1    1    3    3  502    0 -0.13792794521E+04  0.76038476147E+03 -0.99927774066E+02  0.15781578985E+04  0.50400001928E-02 0. -1.
       -1    1    3    3    0  502  0.13792794521E+04 -0.76038476147E+03 -0.11584197444E+04  0.19551299437E+04  0.50400001928E-02 0.  1.
</event>
<event>
 5   0  0.6706080E-08  0.3301199E+04  0.7818609E-02  0.8162590E-01
       -2   -1    0    0    0  501  0.00000000000E+00  0.00000000000E+00  0.17614832280E+04  0.17614832280E+04  0.25500000920E-02 0. -1.
        2   -1    0    0  501    0  0.00000000000E+00  0.00000000000E+00 -0.15466958890E+04  0.15466958890E+04  0.25500000920E-02 0.  1.
    10030    2    1    2    0    0  0.00000000000E+00  0.00000000000E+00  0.21478733897E+03  0.33081791170E+04  0.33011990956E+04 0.  0.
        4    1    3    3  502    0  0.11400897423E+04  0.10468009958E+04  0.68208710227E+03  0.16914021914E+04  0.12699999809E+01 0. -1.
       -4    1    3    3    0  502 -0.11400897423E+04 -0.10468009958E+04 -0.46729976329E+03  0.16167769255E+04  0.12699999809E+01 0.  1.
</event>
<event>
 5   0  0.6706080E-08  0.3301328E+04  0.7818609E-02  0.8162557E-01
        2   -1    0    0  501    0  0.00000000000E+00  0.00000000000E+00  0.11579878320E+04  0.11579878320E+04  0.25500000920E-02 0. -1.
       -2   -1    0    0    0  501  0.00000000000E+00  0.00000000000E+00 -0.23529540930E+04  0.23529540930E+04  0.25500000920E-02 0.  1.
    10030    2    1    2    0    0  0.00000000000E+00  0.00000000000E+00 -0.11949662610E+04  0.35109419251E+04  0.33013283442E+04 0.  0.
        4    1    3    3  502    0 -0.29985902565E+03  0.11617306244E+04 -0.18031103320E+04  0.21658120789E+04  0.12699999809E+01 0.  1.
       -4    1    3    3    0  502  0.29985902565E+03 -0.11617306244E+04  0.60814407106E+03  0.13451298461E+04  0.12699999809E+01 0. -1.
</event>
<event>
 5   0  0.6821287E-08  0.3309976E+04  0.7818609E-02  0.8160362E-01
        2   -1    0    0  501    0  0.00000000000E+00  0.00000000000E+00  0.25332583975E+04  0.25332583975E+04  0.25500000920E-02 0.  1.
       -2   -1    0    0    0  501  0.00000000000E+00  0.00000000000E+00 -0.10812102482E+04  0.10812102482E+04  0.25500000920E-02 0. -1.
    10030    2    1    2    0    0  0.00000000000E+00  0.00000000000E+00  0.14520481493E+04  0.36144686457E+04  0.33099757949E+04 0.  0.
        5    1    3    3  502    0  0.15877116109E+04 -0.15129245485E+03  0.12085380766E+04  0.20010756955E+04  0.46999998093E+01 0. -1.
       -5    1    3    3    0  502 -0.15877116109E+04  0.15129245485E+03  0.24351007268E+03  0.16133929502E+04  0.46999998093E+01 0.  1.
</event>
<event>
 5   0  0.2309822E-08  0.3299876E+04  0.7818609E-02  0.8162927E-01
       -1   -1    0    0    0  501  0.00000000000E+00  0.00000000000E+00  0.13008370536E+04  0.13008370536E+04  0.50400001928E-02 0. -1.
        1   -1    0    0  501    0  0.00000000000E+00  0.00000000000E+00 -0.20927257113E+04  0.20927257114E+04  0.50400001928E-02 0.  1.
    10030    2    1    2    0    0  0.00000000000E+00  0.00000000000E+00 -0.79188865774E+03  0.33935627650E+04  0.32998758452E+04 0.  0.
        4    1    3    3  502    0 -0.13592364992E+04  0.23559420892E+03 -0.13267745994E+04  0.19139908419E+04  0.12699999809E+01 0.  1.
       -4    1    3    3    0  502  0.13592364992E+04 -0.23559420892E+03  0.53488594170E+03  0.14795719231E+04  0.12699999809E+01 0. -1.
</event>
<event>
 5   0  0.6821287E-08  0.3300389E+04  0.7818609E-02  0.8162796E-01
       -2   -1    0    0    0  501  0.00000000000E+00  0.00000000000E+00  0.13143296193E+04  0.13143296193E+04  0.25500000920E-02 0. -1.
        2   -1    0    0  501    0  0.00000000000E+00  0.00000000000E+00 -0.20718869186E+04  0.20718869186E+04  0.25500000920E-02 0.  1.
    10030    2    1    2    0    0  0.00000000000E+00  0.00000000000E+00 -0.75755729929E+03  0.33862165379E+04  0.33003892770E+04 0.  0.
        5    1    3    3  502    0 -0.15111095348E+04  0.64125461909E+03 -0.55186892569E+03  0.17318316644E+04  0.46999998093E+01 0.  1.
       -5    1    3    3    0  502  0.15111095348E+04 -0.64125461909E+03 -0.20568837361E+03  0.16543848735E+04  0.46999998093E+01 0. -1.
</event>
<event>
 5   0  0.7084130E-08  0.3299497E+04  0.7818609E-02  0.8163024E-01
        2   -1    0    0  501    0  0.00000000000E+00  0.00000000000E+00  0.10060794162E+04  0.10060794162E+04  0.25500000920E-02 0. -1.
       -2   -1    0    0    0  501  0.00000000000E+00  0.00000000000E+00 -0.27052231880E+04  0.27052231880E+04  0.25500000920E-02 0.  1.
    10030    2    1    2    0    0  0.00000000000E+00  0.00000000000E+00 -0.16991437718E+04  0.37113026041E+04  0.32994965468E+04 0.  0.
        3    1    3    3  502    0  0.62353027469E+03  0.15115896209E+04 -0.10959439575E+04  0.19684477015E+04  0.10100000352E+00 0.  1.
       -3    1    3    3    0  502 -0.62353027469E+03 -0.15115896209E+04 -0.60319981430E+03  0.17428549026E+04  0.10100000352E+00 0. -1.
</event>
<event>
 5   0  0.6821287E-08  0.3302846E+04  0.7818609E-02  0.8162172E-01
        2   -1    0    0  501    0  0.00000000000E+00  0.00000000000E+00  0.19626816026E+04  0.19626816026E+04  0.25500000920E-02 0.  1.
       -2   -1    0    0    0  501  0.00000000000E+00  0.00000000000E+00 -0.13895265218E+04  0.13895265218E+04  0.25500000920E-02 0. -1.
    10030    2    1    2    0    0  0.00000000000E+00  0.00000000000E+00  0.57315508079E+03  0.33522081245E+04  0.33028461307E+04 0.  0.
        5    1    3    3  502    0 -0.36500145073E+03  0.97536620817E+03 -0.10142207670E+04  0.14536956880E+04  0.46999998093E+01 0.  1.
       -5    1    3    3    0  502  0.36500145073E+03 -0.97536620817E+03  0.15873758478E+04  0.18985124364E+04  0.46999998093E+01 0. -1.
</event>
<event>
 5   0  0.2244093E-08  0.3301444E+04  0.7818609E-02  0.8162528E-01
       -1   -1    0    0    0  501  0.00000000000E+00  0.00000000000E+00  0.13452090481E+04  0.13452090481E+04  0.50400001928E-02 0.  1.
        1   -1    0    0  501    0  0.00000000000E+00  0.00000000000E+00 -0.20256208983E+04  0.20256208983E+04  0.50400001928E-02 0. -1.
    10030    2    1    2    0    0  0.00000000000E+00  0.00000000000E+00 -0.68041185024E+03  0.33708299464E+04  0.33014442660E+04 0.  0.
        1    1    3    3  502    0 -0.75736572073E+03 -0.35587031803E+03  0.11125961873E+04  0.13921626321E+04  0.50400001928E-02 0.  1.
       -1    1    3    3    0  502  0.75736572073E+03  0.35587031803E+03 -0.17930080375E+04  0.19786673143E+04  0.50400001928E-02 0. -1.
</event>
<event>
 5   0  0.2383270E-08  0.3300330E+04  0.7818609E-02  0.8162812E-01
       -1   -1    0    0    0  501  0.00000000000E+00  0.00000000000E+00  0.25785606288E+04  0.25785606288E+04  0.50400001928E-02 0.  1.
        1   -1    0    0  501    0  0.00000000000E+00  0.00000000000E+00 -0.10560324575E+04  0.10560324575E+04  0.50400001928E-02 0. -1.
    10030    2    1    2    0    0  0.00000000000E+00  0.00000000000E+00  0.15225281713E+04  0.36345930864E+04  0.33003295094E+04 0.  0.
        5    1    3    3  502    0 -0.15425849685E+04  0.58322258368E+03  0.82457257083E+03  0.18438164176E+04  0.46999998093E+01 0. -1.
       -5    1    3    3    0  502  0.15425849685E+04 -0.58322258368E+03  0.69795560050E+03  0.17907766688E+04  0.46999998093E+01 0.  1.
</event>
<event>
 5   0  0.2383270E-08  0.3301416E+04  0.7818609E-02  0.8162535E-01
       -1   -1    0    0    0  501  0.00000000000E+00  0.00000000000E+00  0.11133177327E+04  0.11133177328E+04  0.50400001928E-02 0.  1.
        1   -1    0    0  501    0  0.00000000000E+00  0.00000000000E+00 -0.24474919685E+04  0.24474919685E+04  0.50400001928E-02 0. -1.
    10030    2    1    2    0    0  0.00000000000E+00  0.00000000000E+00 -0.13341742358E+04  0.35608097013E+04  0.33014155808E+04 0.  0.
        5    1    3    3  502    0 -0.45115194874E+03  0.82593905030E+03 -0.21297738621E+04  0.23284484511E+04  0.46999998093E+01 0. -1.
       -5    1    3    3    0  502  0.45115194874E+03 -0.82593905030E+03  0.79559962631E+03  0.12323612502E+04  0.46999998093E+01 0.  1.
</event>
<event>
 5   0  0.6603516E-08  0.3300318E+04  0.7818609E-02  0.8162815E-01
        2   -1    0    0  501    0  0.00000000000E+00  0.00000000000E+00  0.25566472103E+04  0.25566472103E+04  0.25500000920E-02 0.  1.
       -2   -1    0    0    0  501  0.00000000000E+00  0.00000000000E+00 -0.10650763809E+04  0.10650763809E+04  0.25500000920E-02 0. -1.
    10030    2    1    2    0    0  0.00000000000E+00  0.00000000000E+00  0.14915708294E+04  0.36217235912E+04  0.33003178986E+04 0.  0.
        1    1    3    3  502    0 -0.25817395896E+03 -0.15345271371E+04  0.14312425653E+03  0.15626617933E+04  0.50400001928E-02 0. -1.
       -1    1    3    3    0  502  0.25817395896E+03  0.15345271371E+04  0.13484465729E+04  0.20590617979E+04  0.50400001928E-02 0.  1.
</event>
<event>
 5   0  0.6603516E-08  0.3308710E+04  0.7818609E-02  0.8160683E-01
       -2   -1    0    0    0  501  0.00000000000E+00  0.00000000000E+00  0.14763741621E+04  0.14763741621E+04  0.25500000920E-02 0. -1.
        2   -1    0    0  501    0  0.00000000000E+00  0.00000000000E+00 -0.18537919839E+04  0.18537919839E+04  0.25500000920E-02 0.  1.
    10030    2    1    2    0    0  0.00000000000E+00  0.00000000000E+00 -0.37741782184E+03  0.33301661461E+04  0.33087100731E+04 0.  0.
        1    1    3    3  502    0  0.14926797835E+04  0.67901377592E+03 -0.40861590353E+03  0.16900057990E+04  0.50400001928E-02 0.  1.
       -1    1    3    3    0  502 -0.14926797835E+04 -0.67901377592E+03  0.31198081693E+02  0.16401603471E+04  0.50400001928E-02 0. -1.
</event>
<event>
 5   0  0.2309822E-08  0.3303464E+04  0.7818609E-02  0.8162014E-01
        1   -1    0    0  501    0  0.00000000000E+00  0.00000000000E+00  0.23454928481E+04  0.23454928481E+04  0.50400001928E-02 0. -1.
       -1   -1    0    0    0  501  0.00000000000E+00  0.00000000000E+00 -0.11631752011E+04  0.11631752011E+04  0.50400001928E-02 0.  1.
    10030    2    1    2    0    0  0.00000000000E+00  0.00000000000E+00  0.11823176471E+04  0.35086680492E+04  0.33034643120E+04 0.  0.
        4    1    3    3  502    0  0.38570754764E+03  0.16022607124E+04  0.47380659073E+03  0.17147897834E+04  0.12699999809E+01 0. -1.
       -4    1    3    3    0  502 -0.38570754764E+03 -0.16022607124E+04  0.70851105632E+03  0.17938782658E+04  0.12699999809E+01 0.  1.
</event>
<event>
 5   0  0.6765252E-08  0.3299527E+04  0.7818609E-02  0.8163016E-01
        2   -1    0    0  501    0  0.00000000000E+00  0.00000000000E+00  0.16088379956E+04  0.16088379956E+04  0.25500000920E-02 0.  1.
       -2   -1    0    0    0  501  0.00000000000E+00  0.00000000000E+00 -0.16917302608E+04  0.16917302608E+04  0.25500000920E-02 0. -1.
    10030    2    1    2    0    0  0.00000000000E+00  0.00000000000E+00 -0.82892265177E+02  0.33005682564E+04  0.32995271915E+04 0.  0.
        2    1    3    3  502    0  0.35632183434E+03 -0.11024331008E+04 -0.12162935781E+04  0.16797898855E+04  0.25500000920E-02 0. -1.
       -2    1    3    3    0  502 -0.35632183434E+03  0.11024331008E+04  0.11334013129E+04  0.16207783709E+04  0.25500000920E-02 0.  1.
</event>
<event>
 5   0  0.2200750E-08  0.3297669E+04  0.7818609E-02  0.8163489E-01
        3   -1    0    0  501    0  0.00000000000E+00  0.00000000000E+00  0.22085857377E+04  0.22085857400E+04  0.10100000352E+00 0. -1.
       -3   -1    0    0    0  501  0.00000000000E+00  0.00000000000E+00 -0.12309484131E+04  0.12309484173E+04  0.10100000352E+00 0.  1.
    10030    2    1    2    0    0  0.00000000000E+00  0.00000000000E+00  0.97763732458E+03  0.34395341573E+04  0.32976689465E+04 0.  0.
        5    1    3    3  502    0  0.68394658760E+02 -0.84872330267E+03  0.19615183473E+04  0.21383604446E+04  0.46999998093E+01 0. -1.
       -5    1    3    3    0  502 -0.68394658760E+02  0.84872330267E+03 -0.98388102276E+03  0.13011737128E+04  0.46999998093E+01 0.  1.
</event>
<event>
 5   0  0.6821287E-08  0.3299355E+04  0.7818609E-02  0.8163060E-01
       -2   -1    0    0    0  501  0.00000000000E+00  0.00000000000E+00  0.15467383895E+04  0.15467383895E+04  0.25500000920E-02 0.  1.
        2   -1    0    0  501    0  0.00000000000E+00  0.00000000000E+00 -0.17594672338E+04  0.17594672338E+04  0.25500000920E-02 0. -1.
    10030    2    1    2    0    0  0.00000000000E+00  0.00000000000E+00 -0.21272884429E+03  0.33062056233E+04  0.32993547948E+04 0.  0.
        5    1    3    3  502    0 -0.88764395265E+03  0.45896800094E+03  0.12089348377E+04  0.15684734439E+04  0.46999998093E+01 0.  1.
       -5    1    3    3    0  502  0.88764395265E+03 -0.45896800094E+03 -0.14216636819E+04  0.17377321793E+04  0.46999998093E+01 0. -1.
</event>
<event>
 5   0  0.6821287E-08  0.3295996E+04  0.7818609E-02  0.8163915E-01
       -2   -1    0    0    0  501  0.00000000000E+00  0.00000000000E+00  0.13227022601E+04  0.13227022601E+04  0.25500000920E-02 0.  1.
        2   -1    0    0  501    0  0.00000000000E+00  0.00000000000E+00 -0.20532944487E+04  0.20532944487E+04  0.25500000920E-02 0. -1.
    10030    2    1    2    0    0  0.00000000000E+00  0.00000000000E+00 -0.73059218864E+03  0.33759967088E+04  0.32959958786E+04 0.  0.
        5    1    3    3  502    0  0.15967040648E+04  0.39576920005E+03 -0.26401226852E+03  0.16660797394E+04  0.46999998093E+01 0. -1.
       -5    1    3    3    0  502 -0.15967040648E+04 -0.39576920005E+03 -0.46657992012E+03  0.17099169693E+04  0.46999998093E+01 0.  1.
</event>
<event>
 5   0  0.2244093E-08  0.3302557E+04  0.7818609E-02  0.8162245E-01
        1   -1    0    0  501    0  0.00000000000E+00  0.00000000000E+00  0.19838211106E+04  0.19838211106E+04  0.50400001928E-02 0.  1.
       -1   -1    0    0    0  501  0.00000000000E+00  0.00000000000E+00 -0.13744795294E+04  0.13744795294E+04  0.50400001928E-02 0. -1.
    10030    2    1    2    0    0  0.00000000000E+00  0.00000000000E+00  0.60934158120E+03  0.33583006399E+04  0.33025574977E+04 0.  0.
        1    1    3    3  502    0  0.39997979565E+03  0.25220023208E+03 -0.13041627906E+04  0.13872380395E+04  0.50400001928E-02 0. -1.
       -1    1    3    3    0  502 -0.39997979565E+03 -0.25220023208E+03  0.19135043718E+04  0.19710626004E+04  0.50400001928E-02 0.  1.
</event>
<event>
 5   0  0.2309822E-08  0.3299623E+04  0.7818609E-02  0.8162991E-01
       -1   -1    0    0    0  501  0.00000000000E+00  0.00000000000E+00  0.10533722039E+04  0.10533722039E+04  0.50400001928E-02 0.  1.
        1   -1    0    0  501    0  0.00000000000E+00  0.00000000000E+00 -0.25839657816E+04  0.25839657816E+04  0.50400001928E-02 0. -1.
    10030    2    1    2    0    0  0.00000000000E+00  0.00000000000E+00 -0.15305935777E+04  0.36373379855E+04  0.32996228452E+04 0.  0.
        4    1    3    3  502    0  0.19955599180E+03  0.10345040879E+04  0.63423354770E+03  0.12297459525E+04  0.12699999809E+01 0.  1.
       -4    1    3    3    0  502 -0.19955599180E+03 -0.10345040879E+04 -0.21648271255E+04  0.24075920331E+04  0.12699999809E+01 0. -1.
</event>
<event>
 5   0  0.7084130E-08  0.3296205E+04  0.7818609E-02  0.8163862E-01
       -2   -1    0    0    0  501  0.00000000000E+00  0.00000000000E+00  0.11924380829E+04  0.11924380829E+04  0.25500000920E-02 0.  1.
        2   -1    0    0  501    0  0.00000000000E+00  0.00000000000E+00 -0.22778890691E+04  0.22778890691E+04  0.25500000920E-02 0. -1.
    10030    2    1    2    0    0  0.00000000000E+00  0.00000000000E+00 -0.10854509862E+04  0.34703271520E+04  0.32962048932E+04 0.  0.
        3    1    3    3  502    0 -0.98433439715E+03  0.94800079620E+03 -0.15125950972E+04  0.20385199664E+04  0.10100000352E+00 0. -1.
       -3    1    3    3    0  502  0.98433439715E+03 -0.94800079620E+03  0.42714411095E+03  0.14318071856E+04  0.10100000352E+00 0.  1.
</event>
<event>
 5   0  0.6603516E-08  0.3299886E+04  0.7818609E-02  0.8162924E-01
        2   -1    0    0  501    0  0.00000000000E+00  0.00000000000E+00  0.20439640133E+04  0.20439640133E+04  0.25500000920E-02 0. -1.
       -2   -1    0    0    0  501  0.00000000000E+00  0.00000000000E+00 -0.13318785117E+04  0.13318785117E+04  0.25500000920E-02 0.  1.
    10030    2    1    2    0    0  0.00000000000E+00  0.00000000000E+00  0.71208550160E+03  0.33758425251E+04  0.32998859060E+04 0.  0.
        1    1    3    3  502    0 -0.17816872194E+03 -0.81769897474E+03  0.18107210568E+04  0.19947647612E+04  0.50400001928E-02 0. -1.
       -1    1    3    3    0  502  0.17816872194E+03  0.81769897474E+03 -0.10986355552E+04  0.13810777639E+04  0.50400001928E-02 0.  1.
</event>
<event>
 5   0  0.6821287E-08  0.3299903E+04  0.7818609E-02  0.8162920E-01
        2   -1    0    0  501    0  0.00000000000E+00  0.00000000000E+00  0.22135311739E+04  0.22135311739E+04  0.25500000920E-02 0.  1.
       -2   -1    0    0    0  501  0.00000000000E+00  0.00000000000E+00 -0.12298629464E+04  0.12298629464E+04  0.25500000920E-02 0. -1.
    10030    2    1    2    0    0  0.00000000000E+00  0.00000000000E+00  0.98366822746E+03  0.34433941203E+04  0.32999030116E+04 0.  0.
        5    1    3    3  502    0  0.55814636423E+03  0.15119793487E+04  0.12333673893E+03  0.16164290754E+04  0.46999998093E+01 0. -1.
       -5    1    3    3    0  502 -0.55814636423E+03 -0.15119793487E+04  0.86033148854E+03  0.18269650448E+04  0.46999998093E+01 0.  1.
</event>
<event>
 5   0  0.2200750E-08  0.3300518E+04  0.7818609E-02  0.8162764E-01
       -4   -1    0    0    0  501  0.00000000000E+00  0.00000000000E+00  0.20420739433E+04  0.20420743382E+04  0.12699999809E+01 0.  1.
        4   -1    0    0  501    0  0.00000000000E+00  0.00000000000E+00 -0.13336214564E+04  0.13336220611E+04  0.12699999809E+01 0. -1.
    10030    2    1    2    0    0  0.00000000000E+00  0.00000000000E+00  0.70845248686E+03  0.33756963993E+04  0.33005183312E+04 0.  0.
        3    1    3    3  502    0 -0.54881848879E+03  0.97396585702E+03  0.15957721923E+04  0.19484096397E+04  0.10100000352E+00 0.  1.
       -3    1    3    3    0  502  0.54881848879E+03 -0.97396585702E+03 -0.88731970544E+03  0.14272867596E+04  0.10100000352E+00 0. -1.
</event>
<event>
 5   0  0.7084130E-08  0.3300073E+04  0.7818609E-02  0.8162877E-01
       -2   -1    0    0    0  501  0.00000000000E+00  0.00000000000E+00  0.12844490670E+04  0.12844490670E+04  0.25500000920E-02 0. -1.
        2   -1    0    0  501    0  0.00000000000E+00  0.00000000000E+00 -0.21196802162E+04  0.21196802162E+04  0.25500000920E-02 0.  1.
    10030    2    1    2    0    0  0.00000000000E+00  0.00000000000E+00 -0.83523114921E+03  0.34041292833E+04  0.33000734999E+04 0.  0.
        3    1    3    3  502    0 -0.93060159517E+03 -0.12940603711E+04  0.22462459075E+02  0.15940878725E+04  0.10100000352E+00 0. -1.
       -3    1    3    3    0  502  0.93060159517E+03  0.12940603711E+04 -0.85769360828E+03  0.18100414108E+04  0.10100000352E+00 0.  1.
</event>
<event>
 5   0  0.6706080E-08  0.3299319E+04  0.7818609E-02  0.8163069E-01
        2   -1    0    0  501    0  0.00000000000E+00  0.00000000000E+00  0.18498506487E+04  0.18498506487E+04  0.25500000920E-02 0. -1.
       -2   -1    0    0    0  501  0.00000000000E+00  0.00000000000E+00 -0.14711328799E+04  0.14711328799E+04  0.25500000920E-02 0.  1.
    10030    2    1    2    0    0  0.00000000000E+00  0.00000000000E+00  0.37871776883E+03  0.33209835286E+04  0.32993187856E+04 0.  0.
        4    1    3    3  502    0  0.82707759579E+03 -0.43464996626E+03  0.15578438079E+04  0.18165508211E+04  0.12699999809E+01 0. -1.
       -4    1    3    3    0  502 -0.82707759579E+03  0.43464996626E+03 -0.11791260391E+04  0.15044327076E+04  0.12699999809E+01 0.  1.
</event>
<event>
 5   0  0.2200750E-08  0.3299722E+04  0.7818609E-02  0.8162966E-01
       -3   -1    0    0    0  501  0.00000000000E+00  0.00000000000E+00  0.11048732279E+04  0.11048732325E+04  0.10100000352E+00 0. -1.
        3   -1    0    0  501    0  0.00000000000E+00  0.00000000000E+00 -0.24636687308E+04  0.24636687329E+04  0.10100000352E+00 0.  1.
    10030    2    1    2    0    0  0.00000000000E+00  0.00000000000E+00 -0.13587955029E+04  0.35685419654E+04  0.32997221914E+04 0.  0.
        4    1    3    3  502    0 -0.40578178300E+03  0.12797303140E+04  0.35772411906E+03  0.13893655711E+04  0.12699999809E+01 0. -1.
       -4    1    3    3    0  502  0.40578178300E+03 -0.12797303140E+04 -0.17165196219E+04  0.21791763943E+04  0.12699999809E+01 0.  1.
</event>
<event>
 5   0  0.7084130E-08  0.3299151E+04  0.7818609E-02  0.8163111E-01
        2   -1    0    0  501    0  0.00000000000E+00  0.00000000000E+00  0.90798871819E+03  0.90798871819E+03  0.25500000920E-02 0. -1.
       -2   -1    0    0    0  501  0.00000000000E+00  0.00000000000E+00 -0.29968435711E+04  0.29968435711E+04  0.25500000920E-02 0.  1.
    10030    2    1    2    0    0  0.00000000000E+00  0.00000000000E+00 -0.20888548529E+04  0.39048322893E+04  0.32991514986E+04 0.  0.
        3    1    3    3  502    0  0.18658621875E+03 -0.80303912250E+03 -0.27355132931E+04  0.28570472933E+04  0.10100000352E+00 0.  1.
       -3    1    3    3    0  502 -0.18658621875E+03  0.80303912250E+03  0.64665844020E+03  0.10477849960E+04  0.10100000352E+00 0. -1.
</event>
<event>
 5   0  0.6706080E-08  0.3300183E+04  0.7818609E-02  0.8162849E-01
       -2   -1    0    0    0  501  0.00000000000E+00  0.00000000000E+00  0.15107867240E+04  0.15107867240E+04  0.25500000920E-02 0. -1.
        2   -1    0    0  501    0  0.00000000000E+00  0.00000000000E+00 -0.18022410079E+04  0.18022410079E+04  0.25500000920E-02 0.  1.
    10030    2    1    2    0    0  0.00000000000E+00  0.00000000000E+00 -0.29145428393E+03  0.33130277319E+04  0.33001828969E+04 0.  0.
        4    1    3    3  502    0 -0.68837197259E+03  0.75029356274E+03 -0.14492430419E+04  0.17711870061E+04  0.12699999809E+01 0.  1.
       -4    1    3    3    0  502  0.68837197259E+03 -0.75029356274E+03  0.11577887580E+04  0.15418407259E+04  0.12699999809E+01 0. -1.
</event>
<event>
 5   0  0.6603516E-08  0.3323902E+04  0.7818609E-02  0.8156840E-01
        2   -1    0    0  501    0  0.00000000000E+00  0.00000000000E+00  0.18039479296E+04  0.18039479296E+04  0.25500000920E-02 0. -1.
       -2   -1    0    0    0  501  0.00000000000E+00  0.00000000000E+00 -0.15311312366E+04  0.15311312367E+04  0.25500000920E-02 0.  1.
    10030    2    1    2    0    0  0.00000000000E+00  0.00000000000E+00  0.27281669294E+03  0.33350791662E+04  0.33239019386E+04 0.  0.
        1    1    3    3  502    0  0.19676968152E+03  0.16420912956E+04  0.30096867750E+03  0.16810009743E+04  0.50400001928E-02 0.  1.
       -1    1    3    3    0  502 -0.19676968152E+03 -0.16420912956E+04 -0.28151984557E+02  0.16540781919E+04  0.50400001928E-02 0. -1.
</event>
<event>
 5   0  0.2309822E-08  0.3299567E+04  0.7818609E-02  0.8163006E-01
        1   -1    0    0  501    0  0.00000000000E+00  0.00000000000E+00  0.24505268449E+04  0.24505268449E+04  0.50400001928E-02 0. -1.
       -1   -1    0    0    0  501  0.00000000000E+00  0.00000000000E+00 -0.11106940180E+04  0.11106940180E+04  0.50400001928E-02 0.  1.
    10030    2    1    2    0    0  0.00000000000E+00  0.00000000000E+00  0.13398328269E+04  0.35612208629E+04  0.32995669459E+04 0.  0.
        4    1    3    3  502    0 -0.73835613598E+03 -0.10819116105E+04  0.17524927254E+04  0.21879065067E+04  0.12699999809E+01 0. -1.
       -4    1    3    3    0  502  0.73835613598E+03  0.10819116105E+04 -0.41265989851E+03  0.13733143563E+04  0.12699999809E+01 0.  1.
</event>
<event>
 5   0  0.7084130E-08  0.3300122E+04  0.7818609E-02  0.8162864E-01
       -2   -1    0    0    0  501  0.00000000000E+00  0.00000000000E+00  0.15229490807E+04  0.15229490807E+04  0.25500000920E-02 0. -1.
        2   -1    0    0  501    0  0.00000000000E+00  0.00000000000E+00 -0.17877821778E+04  0.17877821778E+04  0.25500000920E-02 0.  1.
    10030    2    1    2    0    0  0.00000000000E+00  0.00000000000E+00 -0.26483309712E+03  0.33107312585E+04  0.33001219518E+04 0.  0.
        3    1    3    3  502    0 -0.16043618330E+04 -0.29195946881E+02  0.25336086348E+03  0.16245063964E+04  0.10100000352E+00 0. -1.
       -3    1    3    3    0  502  0.16043618330E+04  0.29195946881E+02 -0.51819396060E+03  0.16862248621E+04  0.10100000352E+00 0.  1.
</event>
<event>
 5   0  0.6821287E-08  0.3300040E+04  0.7818609E-02  0.8162885E-01
        2   -1    0    0  501    0  0.00000000000E+00  0.00000000000E+00  0.11323439482E+04  0.11323439482E+04  0.25500000920E-02 0. -1.
       -2   -1    0    0    0  501  0.00000000000E+00  0.00000000000E+00 -0.24043635916E+04  0.24043635916E+04  0.25500000920E-02 0.  1.
    10030    2    1    2    0    0  0.00000000000E+00  0.00000000000E+00 -0.12720196434E+04  0.35367075398E+04  0.33000403404E+04 0.  0.
        5    1    3    3  502    0  0.94578478372E+03  0.10968181494E+04 -0.14832934000E+04  0.20730895568E+04  0.46999998093E+01 0.  1.
       -5    1    3    3    0  502 -0.94578478372E+03 -0.10968181494E+04  0.21127375661E+03  0.14636179830E+04  0.46999998093E+01 0. -1.
</event>
<event>
 5   0  0.2279938E-08  0.3296958E+04  0.7818609E-02  0.8163670E-01
        1   -1    0    0  501    0  0.00000000000E+00  0.00000000000E+00  0.10444749114E+04  0.10444749114E+04  0.50400001928E-02 0. -1.
       -1   -1    0    0    0  501  0.00000000000E+00  0.00000000000E+00 -0.26017688200E+04  0.26017688200E+04  0.50400001928E-02 0.  1.
    10030    2    1    2    0    0  0.00000000000E+00  0.00000000000E+00 -0.15572939086E+04  0.36462437314E+04  0.32969575416E+04 0.  0.
        3    1    3    3  502    0 -0.83880151177E+03 -0.13318982994E+04 -0.23691463391E+03  0.15917504861E+04  0.10100000352E+00 0. -1.
       -3    1    3    3    0  502  0.83880151177E+03  0.13318982994E+04 -0.13203792746E+04  0.20544932453E+04  0.10100000352E+00 0.  1.
</event>
<event>
 5   0  0.2309822E-08  0.3301366E+04  0.7818609E-02  0.8162548E-01
        1   -1    0    0  501    0  0.00000000000E+00  0.00000000000E+00  0.17979421026E+04  0.17979421026E+04  0.50400001928E-02 0. -1.
       -1   -1    0    0    0  501  0.00000000000E+00  0.00000000000E+00 -0.15154851554E+04  0.15154851554E+04  0.50400001928E-02 0.  1.
    10030    2    1    2    0    0  0.00000000000E+00  0.00000000000E+00  0.28245694718E+03  0.33134272580E+04  0.33013661213E+04 0.  0.
        4    1    3    3  502    0  0.63314689235E+03 -0.10160292075E+04 -0.99939284234E+03  0.15594800428E+04  0.12699999809E+01 0.  1.
       -4    1    3    3    0  502 -0.63314689235E+03  0.10160292075E+04  0.12818497895E+04  0.17539472152E+04  0.12699999809E+01 0. -1.
</event>
<event>
 5   0  0.6706080E-08  0.3299808E+04  0.7818609E-02  0.8162944E-01
       -2   -1    0    0    0  501  0.00000000000E+00  0.00000000000E+00  0.14292473658E+04  0.14292473658E+04  0.25500000920E-02 0.  1.
        2   -1    0    0  501    0  0.00000000000E+00  0.00000000000E+00 -0.19046270040E+04  0.19046270040E+04  0.25500000920E-02 0. -1.
    10030    2    1    2    0    0  0.00000000000E+00  0.00000000000E+00 -0.47537963820E+03  0.33338743698E+04  0.32998079509E+04 0.  0.
        4    1    3    3  502    0  0.12531044088E+04  0.77772273645E+03 -0.98495944894E+03  0.17734909199E+04  0.12699999809E+01 0. -1.
       -4    1    3    3    0  502 -0.12531044088E+04 -0.77772273645E+03  0.50957981075E+03  0.15603834499E+04  0.12699999809E+01 0.  1.
</event>
<event>
 5   0  0.2279938E-08  0.3300639E+04  0.7818609E-02  0.8162733E-01
       -1   -1    0    0    0  501  0.00000000000E+00  0.00000000000E+00  0.12403947119E+04  0.12403947119E+04  0.50400001928E-02 0. -1.
        1   -1    0    0  501    0  0.00000000000E+00  0.00000000000E+00 -0.21957165008E+04  0.21957165008E+04  0.50400001928E-02 0.  1.
    10030    2    1    2    0    0  0.00000000000E+00  0.00000000000E+00 -0.95532178889E+03  0.34361112128E+04  0.33006394147E+04 0.  0.
        3    1    3    3  502    0 -0.63042618486E+03 -0.11826205267E+04 -0.14802715747E+04  0.19968055563E+04  0.10100000352E+00 0.  1.
       -3    1    3    3    0  502  0.63042618486E+03  0.11826205267E+04  0.52494978583E+03  0.14393056564E+04  0.10100000352E+00 0. -1.
</event>
<event>
 5   0  0.6821287E-08  0.3294953E+04  0.7818609E-02  0.8164181E-01
        2   -1    0    0  501    0  0.00000000000E+00  0.00000000000E+00  0.13026379788E+04  0.13026379788E+04  0.25500000920E-02 0. -1.
       -2   -1    0    0    0  501  0.00000000000E+00  0.00000000000E+00 -0.20836022970E+04  0.20836022970E+04  0.25500000920E-02 0.  1.
    10030    2    1    2    0    0  0.00000000000E+00  0.00000000000E+00 -0.78096431817E+03  0.33862402757E+04  0.32949534047E+04 0.  0.
        5    1    3    3  502    0  0.28295701626E+03 -0.15997186814E+04 -0.10904693127E+03  0.16282130867E+04  0.46999998093E+01 0.  1.
       -5    1    3    3    0  502 -0.28295701626E+03  0.15997186814E+04 -0.67191738690E+03  0.17580271890E+04  0.46999998093E+01 0. -1.
</event>
<event>
 5   0  0.6765252E-08  0.3301265E+04  0.7818609E-02  0.8162574E-01
       -2   -1    0    0    0  501  0.00000000000E+00  0.00000000000E+00  0.16577271987E+04  0.16577271987E+04  0.25500000920E-02 0. -1.
        2   -1    0    0  501    0  0.00000000000E+00  0.00000000000E+00 -0.16435681629E+04  0.16435681629E+04  0.25500000920E-02 0.  1.
    10030    2    1    2    0    0  0.00000000000E+00  0.00000000000E+00  0.14159035826E+02  0.33012953615E+04  0.33012649978E+04 0.  0.
        2    1    3    3  502    0 -0.10683094334E+04 -0.89574790502E+03  0.89079477593E+03  0.16544378766E+04  0.25500000920E-02 0. -1.
       -2    1    3    3    0  502  0.10683094334E+04  0.89574790502E+03 -0.87663574010E+03  0.16468574849E+04  0.25500000920E-02 0.  1.
</event>
<event>
 5   0  0.6821287E-08  0.3300309E+04  0.7818609E-02  0.8162817E-01
       -2   -1    0    0    0  501  0.00000000000E+00  0.00000000000E+00  0.15535853083E+04  0.15535853083E+04  0.25500000920E-02 0.  1.
        2   -1    0    0  501    0  0.00000000000E+00  0.00000000000E+00 -0.17527263779E+04  0.17527263779E+04  0.25500000920E-02 0. -1.
    10030    2    1    2    0    0  0.00000000000E+00  0.00000000000E+00 -0.19914106955E+03  0.33063116862E+04  0.33003090462E+04 0.  0.
        5    1    3    3  502    0  0.11973301290E+04  0.98759991385E+03  0.46183681430E+03  0.16193419530E+04  0.46999998093E+01 0.  1.
       -5    1    3    3    0  502 -0.11973301290E+04 -0.98759991385E+03 -0.66097788385E+03  0.16869697332E+04  0.46999998093E+01 0. -1.
</event>
<event>
 5   0  0.2383270E-08  0.3299265E+04  0.7818609E-02  0.8163082E-01
        1   -1    0    0  501    0  0.00000000000E+00  0.00000000000E+00  0.18309567901E+04  0.18309567901E+04  0.50400001928E-02 0.  1.
       -1   -1    0    0    0  501  0.00000000000E+00  0.00000000000E+00 -0.14862656532E+04  0.14862656532E+04  0.50400001928E-02 0. -1.
    10030    2    1    2    0    0  0.00000000000E+00  0.00000000000E+00  0.34469113692E+03  0.33172224433E+04  0.32992654877E+04 0.  0.
        5    1    3    3  502    0 -0.12991429883E+04  0.16870826341E+03  0.11803143585E+04  0.17633488189E+04  0.46999998093E+01 0.  1.
       -5    1    3    3    0  502  0.12991429883E+04 -0.16870826341E+03 -0.83562322155E+03  0.15538736244E+04  0.46999998093E+01 0. -1.
</event>
<event>
 5   0  0.2309822E-08  0.3300160E+04  0.7818609E-02  0.8162855E-01
        1   -1    0    0  501    0  0.00000000000E+00  0.00000000000E+00  0.17253464830E+04  0.17253464830E+04  0.50400001928E-02 0. -1.
       -1   -1    0    0    0  501  0.00000000000E+00  0.00000000000E+00 -0.15780967713E+04  0.15780967714E+04  0.50400001928E-02 0.  1.
    10030    2    1    2    0    0  0.00000000000E+00  0.00000000000E+00  0.14724971161E+03  0.33034432543E+04  0.33001598229E+04 0.  0.
        4    1    3    3  502    0 -0.80638481390E+03 -0.14162371575E+04  0.33229625339E+03  0.16632518051E+04  0.12699999809E+01 0.  1.
       -4    1    3    3    0  502  0.80638481390E+03  0.14162371575E+04 -0.18504654177E+03  0.16401914492E+04  0.12699999809E+01 0. -1.
</event>
<event>
 5   0  0.7084130E-08  0.3300180E+04  0.7818609E-02  0.8162850E-01
       -2   -1    0    0    0  501  0.00000000000E+00  0.00000000000E+00  0.13761219515E+04  0.13761219515E+04  0.25500000920E-02 0.  1.
        2   -1    0    0  501    0  0.00000000000E+00  0.00000000000E+00 -0.19786014809E+04  0.19786014809E+04  0.25500000920E-02 0. -1.
    10030    2    1    2    0    0  0.00000000000E+00  0.00000000000E+00 -0.60247952941E+03  0.33547234325E+04  0.33001799534E+04 0.  0.
        3    1    3    3  502    0  0.72099860843E+03 -0.18396713830E+03  0.11958929173E+04  0.14084895389E+04  0.10100000352E+00 0.  1.
       -3    1    3    3    0  502 -0.72099860843E+03  0.18396713830E+03 -0.17983724467E+04  0.19462338936E+04  0.10100000352E+00 0. -1.
</event>
<event>
 5   0  0.2291682E-08  0.3279269E+04  0.7818609E-02  0.8168191E-01
        1   -1    0    0  501    0  0.00000000000E+00  0.00000000000E+00  0.27907883578E+04  0.27907883578E+04  0.50400001928E-02 0. -1.
       -1   -1    0    0    0  501  0.00000000000E+00  0.00000000000E+00 -0.96331236883E+03  0.96331236884E+03  0.50400001928E-02 0.  1.
    10030    2    1    2    0    0  0.00000000000E+00  0.00000000000E+00  0.18274759889E+04  0.37541007266E+04  0.32792687867E+04 0.  0.
        2    1    3    3  502    0  0.10681378802E+04 -0.77691584883E+03 -0.19847575222E+03  0.13356307093E+04  0.25500000920E-02 0.  1.
       -2    1    3    3    0  502 -0.10681378802E+04  0.77691584883E+03  0.20259517412E+04  0.24184700174E+04  0.25500000920E-02 0. -1.
</event>
<event>
 5   0  0.6706080E-08  0.3305318E+04  0.7818609E-02  0.8161544E-01
        2   -1    0    0  501    0  0.00000000000E+00  0.00000000000E+00  0.31079637113E+04  0.31079637113E+04  0.25500000920E-02 0.  1.
       -2   -1    0    0    0  501  0.00000000000E+00  0.00000000000E+00 -0.87880102609E+03  0.87880102610E+03  0.25500000920E-02 0. -1.
    10030    2    1    2    0    0  0.00000000000E+00  0.00000000000E+00  0.22291626852E+04  0.39867647374E+04  0.33053179566E+04 0.  0.
        4    1    3    3  502    0  0.10886759209E+04 -0.94555463851E+03  0.14065020890E+03  0.14488177695E+04  0.12699999809E+01 0. -1.
       -4    1    3    3    0  502 -0.10886759209E+04  0.94555463851E+03  0.20885124763E+04  0.25379469679E+04  0.12699999809E+01 0.  1.
</event>
<event>
 5   0  0.2309822E-08  0.3300850E+04  0.7818609E-02  0.8162679E-01
       -1   -1    0    0    0  501  0.00000000000E+00  0.00000000000E+00  0.17329702145E+04  0.17329702146E+04  0.50400001928E-02 0. -1.
        1   -1    0    0  501    0  0.00000000000E+00  0.00000000000E+00 -0.15718118738E+04  0.15718118738E+04  0.50400001928E-02 0.  1.
    10030    2    1    2    0    0  0.00000000000E+00  0.00000000000E+00  0.16115834079E+03  0.33047820883E+04  0.33008502905E+04 0.  0.
        4    1    3    3  502    0 -0.50024872364E+03  0.72803577566E+03 -0.13152179835E+04  0.15843247247E+04  0.12699999809E+01 0.  1.
       -4    1    3    3    0  502  0.50024872364E+03 -0.72803577566E+03  0.14763763243E+04  0.17204573636E+04  0.12699999809E+01 0. -1.
</event>
<event>
 5   0  0.2244093E-08  0.3297287E+04  0.7818609E-02  0.8163586E-01
        1   -1    0    0  501    0  0.00000000000E+00  0.00000000000E+00  0.13116022088E+04  0.13116022088E+04  0.50400001928E-02 0.  1.
       -1   -1    0    0    0  501  0.00000000000E+00  0.00000000000E+00 -0.20722935015E+04  0.20722935015E+04  0.50400001928E-02 0. -1.
    10030    2    1    2    0    0  0.00000000000E+00  0.00000000000E+00 -0.76069129272E+03  0.33838957103E+04  0.32972866020E+04 0.  0.
        1    1    3    3  502    0 -0.39664710139E+02 -0.13618902476E+04 -0.13330100340E+04  0.19061044269E+04  0.50400001928E-02 0. -1.
       -1    1    3    3    0  502  0.39664710139E+02  0.13618902476E+04  0.57231874125E+03  0.14777912834E+04  0.50400001928E-02 0.  1.
</event>
<event>
 5   0  0.2383270E-08  0.3300435E+04  0.7818609E-02  0.8162785E-01
       -1   -1    0    0    0  501  0.00000000000E+00  0.00000000000E+00  0.16904999047E+04  0.16904999047E+04  0.50400001928E-02 0. -1.
        1   -1    0    0  501    0  0.00000000000E+00  0.00000000000E+00 -0.16108952722E+04  0.16108952722E+04  0.50400001928E-02 0.  1.
    10030    2    1    2    0    0  0.00000000000E+00  0.00000000000E+00  0.79604632504E+02  0.33013951770E+04  0.33004353072E+04 0.  0.
        5    1    3    3  502    0  0.11339238810E+03 -0.76754478269E+03 -0.14170598587E+04  0.16155691134E+04  0.46999998093E+01 0.  1.
       -5    1    3    3    0  502 -0.11339238810E+03  0.76754478269E+03  0.14966644912E+04  0.16858260635E+04  0.46999998093E+01 0. -1.
</event>
<event>
 5   0  0.2279938E-08  0.3305095E+04  0.7818609E-02  0.8161600E-01
       -1   -1    0    0    0  501  0.00000000000E+00  0.00000000000E+00  0.13657176603E+04  0.13657176603E+04  0.50400001928E-02 0.  1.
        1   -1    0    0  501    0  0.00000000000E+00  0.00000000000E+00 -0.19996174119E+04  0.19996174119E+04  0.50400001928E-02 0. -1.
    10030    2    1    2    0    0  0.00000000000E+00  0.00000000000E+00 -0.63389975158E+03  0.33653350721E+04  0.33050947419E+04 0.  0.
        3    1    3    3  502    0 -0.78664341491E+03 -0.50831428394E+03 -0.17032799521E+04  0.19437988268E+04  0.10100000352E+00 0. -1.
       -3    1    3    3    0  502  0.78664341491E+03  0.50831428394E+03  0.10693802005E+04  0.14215362454E+04  0.10100000352E+00 0.  1.
</event>
<event>
 5   0  0.6765252E-08  0.3298534E+04  0.7818609E-02  0.8163269E-01
        2   -1    0    0  501    0  0.00000000000E+00  0.00000000000E+00  0.11424646551E+04  0.11424646551E+04  0.25500000920E-02 0. -1.
       -2   -1    0    0    0  501  0.00000000000E+00  0.00000000000E+00 -0.23808886018E+04  0.23808886018E+04  0.25500000920E-02 0.  1.
    10030    2    1    2    0    0  0.00000000000E+00  0.00000000000E+00 -0.12384239467E+04  0.35233532570E+04  0.32985336593E+04 0.  0.
        2    1    3    3  502    0  0.88406501257E+03 -0.64989690592E+03 -0.19344535050E+04  0.22239710650E+04  0.25500000920E-02 0.  1.
       -2    1    3    3    0  502 -0.88406501257E+03  0.64989690592E+03  0.69602955833E+03  0.12993821920E+04  0.25500000920E-02 0. -1.
</event>
<event>
 5   0  0.2309822E-08  0.3302667E+04  0.7818609E-02  0.8162217E-01
       -1   -1    0    0    0  501  0.00000000000E+00  0.00000000000E+00  0.24246047382E+04  0.24246047382E+04  0.50400001928E-02 0.  1.
        1   -1    0    0  501    0  0.00000000000E+00  0.00000000000E+00 -0.11246791618E+04  0.11246791618E+04  0.50400001928E-02 0. -1.
    10030    2    1    2    0    0  0.00000000000E+00  0.00000000000E+00  0.12999255764E+04  0.35492839000E+04  0.33026670584E+04 0.  0.
        4    1    3    3  502    0  0.70651910390E+03  0.12136837410E+04 -0.28364417380E+03  0.14327083086E+04  0.12699999809E+01 0. -1.
       -4    1    3    3    0  502 -0.70651910390E+03 -0.12136837410E+04  0.15835697502E+04  0.21165755914E+04  0.12699999809E+01 0.  1.
</event>
<event>
 5   0  0.7084130E-08  0.3300498E+04  0.7818609E-02  0.8162769E-01
        2   -1    0    0  501    0  0.00000000000E+00  0.00000000000E+00  0.18556796888E+04  0.18556796888E+04  0.25500000920E-02 0. -1.
       -2   -1    0    0    0  501  0.00000000000E+00  0.00000000000E+00 -0.14675603868E+04  0.14675603868E+04  0.25500000920E-02 0.  1.
    10030    2    1    2    0    0  0.00000000000E+00  0.00000000000E+00  0.38811930198E+03  0.33232400755E+04  0.33004981453E+04 0.  0.
        3    1    3    3  502    0 -0.78361712889E+02  0.38596921157E+03 -0.14195460597E+04  0.14731679525E+04  0.10100000352E+00 0.  1.
       -3    1    3    3    0  502  0.78361712889E+02 -0.38596921157E+03  0.18076653617E+04  0.18500721231E+04  0.10100000352E+00 0. -1.
</event>
<event>
 5   0  0.6706080E-08  0.3300045E+04  0.7818609E-02  0.8162884E-01
        2   -1    0    0  501    0  0.00000000000E+00  0.00000000000E+00  0.15139991081E+04  0.15139991082E+04  0.25500000920E-02 0. -1.
       -2   -1    0    0    0  501  0.00000000000E+00  0.00000000000E+00 -0.17982663034E+04  0.17982663034E+04  0.25500000920E-02 0.  1.
    10030    2    1    2    0    0  0.00000000000E+00  0.00000000000E+00 -0.28426719523E+03  0.33122654115E+04  0.33000445934E+04 0.  0.
        4    1    3    3  502    0 -0.11135233001E+04 -0.15306333679E+03  0.10703172361E+04  0.15520770354E+04  0.12699999809E+01 0. -1.
       -4    1    3    3    0  502  0.11135233001E+04  0.15306333679E+03 -0.13545844313E+04  0.17601883761E+04  0.12699999809E+01 0.  1.
</event>
<event>
 5   0  0.2244093E-08  0.3299935E+04  0.7818609E-02  0.8162912E-01
       -1   -1    0    0    0  501  0.00000000000E+00  0.00000000000E+00  0.12531612302E+04  0.12531612302E+04  0.50400001928E-02 0.  1.
        1   -1    0    0  501    0  0.00000000000E+00  0.00000000000E+00 -0.21724196066E+04  0.21724196066E+04  0.50400001928E-02 0. -1.
    10030    2    1    2    0    0  0.00000000000E+00  0.00000000000E+00 -0.91925837636E+03  0.34255808368E+04  0.32999345610E+04 0.  0.
        1    1    3    3  502    0 -0.27879216157E+03 -0.84017762518E+03 -0.19050419069E+04  0.21006685075E+04  0.50400001928E-02 0. -1.
       -1    1    3    3    0  502  0.27879216157E+03  0.84017762518E+03  0.98578353054E+03  0.13249123293E+04  0.50400001928E-02 0.  1.
</event>
<event>
 5   0  0.6821287E-08  0.3300564E+04  0.7818609E-02  0.8162752E-01
        2   -1    0    0  501    0  0.00000000000E+00  0.00000000000E+00  0.23585430136E+04  0.23585430136E+04  0.25500000920E-02 0.  1.
       -2   -1    0    0    0  501  0.00000000000E+00  0.00000000000E+00 -0.11547086122E+04  0.11547086122E+04  0.25500000920E-02 0. -1.
    10030    2    1    2    0    0  0.00000000000E+00  0.00000000000E+00  0.12038344014E+04  0.35132516257E+04  0.33005635458E+04 0.  0.
        5    1    3    3  502    0 -0.10888948387E+04  0.58635421277E+02  0.19203960028E+04  0.22084096042E+04  0.46999998093E+01 0.  1.
       -5    1    3    3    0  502  0.10888948387E+04 -0.58635421277E+02 -0.71656160145E+03  0.13048420215E+04  0.46999998093E+01 0. -1.
</event>
<event>
 5   0  0.6603516E-08  0.3284841E+04  0.7818609E-02  0.8166763E-01
        2   -1    0    0  501    0  0.00000000000E+00  0.00000000000E+00  0.18538933222E+04  0.18538933222E+04  0.25500000920E-02 0. -1.
       -2   -1    0    0    0  501  0.00000000000E+00  0.00000000000E+00 -0.14550705554E+04  0.14550705554E+04  0.25500000920E-02 0.  1.
    10030    2    1    2    0    0  0.00000000000E+00  0.00000000000E+00  0.39882276678E+03  0.33089638776E+04  0.32848412967E+04 0.  0.
        1    1    3    3  502    0  0.49530029235E+03 -0.10510192816E+04 -0.96996732672E+03  0.15135390728E+04  0.50400001928E-02 0.  1.
       -1    1    3    3    0  502 -0.49530029235E+03  0.10510192816E+04  0.13687900935E+04  0.17954248049E+04  0.50400001928E-02 0. -1.
</event>
<event>
 5   0  0.7084130E-08  0.3303811E+04  0.7818609E-02  0.8161926E-01
        2   -1    0    0  501    0  0.00000000000E+00  0.00000000000E+00  0.22501602946E+04  0.22501602946E+04  0.25500000920E-02 0.  1.
       -2   -1    0    0    0  501  0.00000000000E+00  0.00000000000E+00 -0.12127096701E+04  0.12127096701E+04  0.25500000920E-02 0. -1.
    10030    2    1    2    0    0  0.00000000000E+00  0.00000000000E+00  0.10374506245E+04  0.34628699647E+04  0.33038106171E+04 0.  0.
        3    1    3    3  502    0  0.61464360560E+03 -0.32251024379E+03 -0.10524395417E+04  0.12607254334E+04  0.10100000352E+00 0. -1.
       -3    1    3    3    0  502 -0.61464360560E+03  0.32251024379E+03  0.20898901663E+04  0.22021445312E+04  0.10100000352E+00 0.  1.
</event>
<event>
 5   0  0.2244093E-08  0.3300482E+04  0.7818609E-02  0.8162773E-01
        1   -1    0    0  501    0  0.00000000000E+00  0.00000000000E+00  0.22377917734E+04  0.22377917735E+04  0.50400001928E-02 0.  1.
       -1   -1    0    0    0  501  0.00000000000E+00  0.00000000000E+00 -0.12169565535E+04  0.12169565535E+04  0.50400001928E-02 0. -1.
    10030    2    1    2    0    0  0.00000000000E+00  0.00000000000E+00  0.10208352199E+04  0.34547483270E+04  0.33004820036E+04 0.  0.
        1    1    3    3  502    0 -0.30059055151E+03  0.76378462994E+03  0.20089661622E+04  0.21701766475E+04  0.50400001928E-02 0.  1.
       -1    1    3    3    0  502  0.30059055151E+03 -0.76378462994E+03 -0.98813094224E+03  0.12845716794E+04  0.50400001928E-02 0. -1.
</event>
<event>
 5   0  0.2291682E-08  0.3299018E+04  0.7818609E-02  0.8163145E-01
        1   -1    0    0  501    0  0.00000000000E+00  0.00000000000E+00  0.16833677113E+04  0.16833677113E+04  0.50400001928E-02 0.  1.
       -1   -1    0    0    0  501  0.00000000000E+00  0.00000000000E+00 -0.16163310551E+04  0.16163310551E+04  0.50400001928E-02 0. -1.
    10030    2    1    2    0    0  0.00000000000E+00  0.00000000000E+00  0.67036656212E+02  0.32996987664E+04  0.32990177380E+04 0.  0.
        2    1    3    3  502    0 -0.10791576610E+04  0.93637107334E+03 -0.79097426745E+03  0.16330989976E+04  0.25500000920E-02 0. -1.
       -2    1    3    3    0  502  0.10791576610E+04 -0.93637107334E+03  0.85801092366E+03  0.16665997688E+04  0.25500000920E-02 0.  1.
</event>
<event>
 5   0  0.6603516E-08  0.3298337E+04  0.7818609E-02  0.8163319E-01
       -2   -1    0    0    0  501  0.00000000000E+00  0.00000000000E+00  0.15198546515E+04  0.15198546515E+04  0.25500000920E-02 0.  1.
        2   -1    0    0  501    0  0.00000000000E+00  0.00000000000E+00 -0.17894850377E+04  0.17894850377E+04  0.25500000920E-02 0. -1.
    10030    2    1    2    0    0  0.00000000000E+00  0.00000000000E+00 -0.26963038628E+03  0.33093396892E+04  0.32983372528E+04 0.  0.
        1    1    3    3  502    0  0.14206303935E+04  0.60499034589E+03  0.44638658144E+03  0.16073160902E+04  0.50400001928E-02 0.  1.
       -1    1    3    3    0  502 -0.14206303935E+04 -0.60499034589E+03 -0.71601696772E+03  0.17020235990E+04  0.50400001928E-02 0. -1.
</event>
<event>
 5   0  0.7084130E-08  0.3296985E+04  0.7818609E-02  0.8163663E-01
       -2   -1    0    0    0  501  0.00000000000E+00  0.00000000000E+00  0.11147833795E+04  0.11147833795E+04  0.25500000920E-02 0.  1.
        2   -1    0    0  501    0  0.00000000000E+00  0.00000000000E+00 -0.24377181689E+04  0.24377181689E+04  0.25500000920E-02 0. -1.
    10030    2    1    2    0    0  0.00000000000E+00  0.00000000000E+00 -0.13229347894E+04  0.35525015484E+04  0.32969851068E+04 0.  0.
        3    1    3    3  502    0  0.92940366867E+03 -0.13155210037E+04 -0.28335699286E+03  0.16354442473E+04  0.10100000352E+00 0.  1.
       -3    1    3    3    0  502 -0.92940366867E+03  0.13155210037E+04 -0.10395777965E+04  0.19170573011E+04  0.10100000352E+00 0. -1.
</event>
<event>
 5   0  0.2383270E-08  0.3300130E+04  0.7818609E-02  0.8162862E-01
        1   -1    0    0  501    0  0.00000000000E+00  0.00000000000E+00  0.28635290498E+04  0.28635290498E+04  0.50400001928E-02 0.  1.
       -1   -1    0    0    0  501  0.00000000000E+00  0.00000000000E+00 -0.95082499213E+03  0.95082499214E+03  0.50400001928E-02 0. -1.
    10030    2    1    2    0    0  0.00000000000E+00  0.00000000000E+00  0.19127040576E+04  0.38143540419E+04  0.33001302921E+04 0.  0.
        5    1    3    3  502    0  0.11484729556E+04 -0.59035367927E+03 -0.23093105654E+03  0.13118150934E+04  0.46999998093E+01 0. -1.
       -5    1    3    3    0  502 -0.11484729556E+04  0.59035367927E+03  0.21436351142E+04  0.25025389485E+04  0.46999998093E+01 0.  1.
</event>
<event>
 5   0  0.7084130E-08  0.3298356E+04  0.7818609E-02  0.8163314E-01
       -2   -1    0    0    0  501  0.00000000000E+00  0.00000000000E+00  0.10520011693E+04  0.10520011693E+04  0.25500000920E-02 0.  1.
        2   -1    0    0  501    0  0.00000000000E+00  0.00000000000E+00 -0.25853468927E+04  0.25853468927E+04  0.25500000920E-02 0. -1.
    10030    2    1    2    0    0  0.00000000000E+00  0.00000000000E+00 -0.15333457234E+04  0.36373480620E+04  0.32983559263E+04 0.  0.
        3    1    3    3  502    0 -0.78612206915E+03 -0.24125522204E+03 -0.23431397727E+04  0.24832430397E+04  0.10100000352E+00 0. -1.
       -3    1    3    3    0  502  0.78612206915E+03  0.24125522204E+03  0.80979404935E+03  0.11541050222E+04  0.10100000352E+00 0.  1.
</event>
<event>
 5   0  0.2309822E-08  0.3300163E+04  0.7818609E-02  0.8162854E-01
       -1   -1    0    0    0  501  0.00000000000E+00  0.00000000000E+00  0.31463492015E+04  0.31463492016E+04  0.50400001928E-02 0. -1.
        1   -1    0    0  501    0  0.00000000000E+00  0.00000000000E+00 -0.86537421119E+03  0.86537421120E+03  0.50400001928E-02 0.  1.
    10030    2    1    2    0    0  0.00000000000E+00  0.00000000000E+00  0.22809749904E+04  0.40117234128E+04  0.33001633041E+04 0.  0.
        4    1    3    3  502    0 -0.43160573207E+03  0.35705385989E+03  0.30272345069E+04  0.30786232864E+04  0.12699999809E+01 0. -1.
       -4    1    3    3    0  502  0.43160573207E+03 -0.35705385989E+03 -0.74625951656E+03  0.93310012634E+03  0.12699999809E+01 0.  1.
</event>
<event>
 5   0  0.2309822E-08  0.3300378E+04  0.7818609E-02  0.8162799E-01
       -1   -1    0    0    0  501  0.00000000000E+00  0.00000000000E+00  0.10394825824E+04  0.10394825824E+04  0.50400001928E-02 0. -1.
        1   -1    0    0  501    0  0.00000000000E+00  0.00000000000E+00 -0.26196916649E+04  0.26196916649E+04  0.50400001928E-02 0.  1.
    10030    2    1    2    0    0  0.00000000000E+00  0.00000000000E+00 -0.15802090825E+04  0.36591742474E+04  0.33003780735E+04 0.  0.
        4    1    3    3  502    0 -0.70525421078E+03  0.10943347285E+04 -0.19143261099E+04  0.23150805748E+04  0.12699999809E+01 0.  1.
       -4    1    3    3    0  502  0.70525421078E+03 -0.10943347285E+04  0.33411702737E+03  0.13440936726E+04  0.12699999809E+01 0. -1.
</event>
<event>
 5   0  0.7084130E-08  0.3299559E+04  0.7818609E-02  0.8163008E-01
        2   -1    0    0  501    0  0.00000000000E+00  0.00000000000E+00  0.14229024275E+04  0.14229024275E+04  0.25500000920E-02 0. -1.
       -2   -1    0    0    0  501  0.00000000000E+00  0.00000000000E+00 -0.19128310051E+04  0.19128310051E+04  0.25500000920E-02 0.  1.
    10030    2    1    2    0    0  0.00000000000E+00  0.00000000000E+00 -0.48992857761E+03  0.33357334326E+04  0.32995586860E+04 0.  0.
        3    1    3    3  502    0  0.40784093541E+03 -0.14060662509E+03 -0.18548002542E+04  0.19043078651E+04  0.10100000352E+00 0.  1.
       -3    1    3    3    0  502 -0.40784093541E+03  0.14060662509E+03  0.13648716766E+04  0.14314255675E+04  0.10100000352E+00 0. -1.
</event>
<event>
 5   0  0.2279938E-08  0.3299653E+04  0.7818609E-02  0.8162984E-01
       -1   -1    0    0    0  501  0.00000000000E+00  0.00000000000E+00  0.12060130249E+04  0.12060130250E+04  0.50400001928E-02 0.  1.
        1   -1    0    0  501    0  0.00000000000E+00  0.00000000000E+00 -0.22569631733E+04  0.22569631733E+04  0.50400001928E-02 0. -1.
    10030    2    1    2    0    0  0.00000000000E+00  0.00000000000E+00 -0.10509501484E+04  0.34629761983E+04  0.32996526992E+04 0.  0.
        3    1    3    3  502    0  0.71901664712E+03 -0.86836343957E+03 -0.17896234932E+04  0.21151340997E+04  0.10100000352E+00 0. -1.
       -3    1    3    3    0  502 -0.71901664712E+03  0.86836343957E+03  0.73867334487E+03  0.13478420986E+04  0.10100000352E+00 0.  1.
</event>
<event>
 5   0  0.2244093E-08  0.3298045E+04  0.7818609E-02  0.8163393E-01
        1   -1    0    0  501    0  0.00000000000E+00  0.00000000000E+00  0.15120028024E+04  0.15120028024E+04  0.50400001928E-02 0. -1.
       -1   -1    0    0    0  501  0.00000000000E+00  0.00000000000E+00 -0.17984594577E+04  0.17984594577E+04  0.50400001928E-02 0.  1.
    10030    2    1    2    0    0  0.00000000000E+00  0.00000000000E+00 -0.28645665536E+03  0.33104622601E+04  0.32980453242E+04 0.  0.
        1    1    3    3  502    0  0.30074000246E+03  0.86924160413E+03  0.12305919368E+04  0.15363534849E+04  0.50400001928E-02 0. -1.
       -1    1    3    3    0  502 -0.30074000246E+03 -0.86924160413E+03 -0.15170485922E+04  0.17741087753E+04  0.50400001928E-02 0.  1.
</event>
<event>
 5   0  0.2309822E-08  0.3302994E+04  0.7818609E-02  0.8162134E-01
       -1   -1    0    0    0  501  0.00000000000E+00  0.00000000000E+00  0.10286002180E+04  0.10286002180E+04  0.50400001928E-02 0.  1.
        1   -1    0    0  501    0  0.00000000000E+00  0.00000000000E+00 -0.26516058319E+04  0.26516058319E+04  0.50400001928E-02 0. -1.
    10030    2    1    2    0    0  0.00000000000E+00  0.00000000000E+00 -0.16230056139E+04  0.36802060500E+04  0.33029939975E+04 0.  0.
        4    1    3    3  502    0  0.15432021623E+04  0.89588332153E+02 -0.14592197672E+04  0.21257523197E+04  0.12699999809E+01 0. -1.
       -4    1    3    3    0  502 -0.15432021623E+04 -0.89588332153E+02 -0.16378584669E+03  0.15544537302E+04  0.12699999809E+01 0.  1.
</event>
<event>
 5   0  0.6765252E-08  0.3299130E+04  0.7818609E-02  0.8163117E-01
       -2   -1    0    0    0  501  0.00000000000E+00  0.00000000000E+00  0.11475397594E+04  0.11475397594E+04  0.25500000920E-02 0.  1.
        2   -1    0    0  501    0  0.00000000000E+00  0.00000000000E+00 -0.23712156105E+04  0.23712156105E+04  0.25500000920E-02 0. -1.
    10030    2    1    2    0    0  0.00000000000E+00  0.00000000000E+00 -0.12236758510E+04  0.35187553699E+04  0.32991296981E+04 0.  0.
        2    1    3    3  502    0 -0.12957609953E+04  0.90128250134E+03 -0.10059828365E+03  0.15815899339E+04  0.25500000920E-02 0.  1.
       -2    1    3    3    0  502  0.12957609953E+04 -0.90128250134E+03 -0.11230775674E+04  0.19371654360E+04  0.25500000920E-02 0. -1.
</event>
<event>
 5   0  0.6765252E-08  0.3298785E+04  0.7818609E-02  0.8163205E-01
       -2   -1    0    0    0  501  0.00000000000E+00  0.00000000000E+00  0.16300538557E+04  0.16300538557E+04  0.25500000920E-02 0. -1.
        2   -1    0    0  501    0  0.00000000000E+00  0.00000000000E+00 -0.16689603531E+04  0.16689603531E+04  0.25500000920E-02 0.  1.
    10030    2    1    2    0    0  0.00000000000E+00  0.00000000000E+00 -0.38906497328E+02  0.32990142088E+04  0.32987847815E+04 0.  0.
        2    1    3    3  502    0  0.41513688634E+02  0.12438927731E+04  0.10629817843E+04  0.16367415469E+04  0.25500000920E-02 0. -1.
       -2    1    3    3    0  502 -0.41513688634E+02 -0.12438927731E+04 -0.11018882817E+04  0.16622726620E+04  0.25500000920E-02 0.  1.
</event>
<event>
 5   0  0.6765252E-08  0.3300216E+04  0.7818609E-02  0.8162840E-01
       -2   -1    0    0    0  501  0.00000000000E+00  0.00000000000E+00  0.10895638791E+04  0.10895638791E+04  0.25500000920E-02 0.  1.
        2   -1    0    0  501    0  0.00000000000E+00  0.00000000000E+00 -0.24990334926E+04  0.24990334926E+04  0.25500000920E-02 0. -1.
    10030    2    1    2    0    0  0.00000000000E+00  0.00000000000E+00 -0.14094696135E+04  0.35885973718E+04  0.33002161301E+04 0.  0.
        2    1    3    3  502    0 -0.52090482492E+03  0.15217539718E+04 -0.30405295079E+03  0.16369255280E+04  0.25500000920E-02 0.  1.
       -2    1    3    3    0  502  0.52090482492E+03 -0.15217539718E+04 -0.11054166627E+04  0.19516718437E+04  0.25500000920E-02 0. -1.
</event>
<event>
 5   0  0.2291682E-08  0.3306047E+04  0.7818609E-02  0.8161358E-01
       -1   -1    0    0    0  501  0.00000000000E+00  0.00000000000E+00  0.18441661372E+04  0.18441661372E+04  0.50400001928E-02 0.  1.
        1   -1    0    0  501    0  0.00000000000E+00  0.00000000000E+00 -0.14816921680E+04  0.14816921680E+04  0.50400001928E-02 0. -1.
    10030    2    1    2    0    0  0.00000000000E+00  0.00000000000E+00  0.36247396922E+03  0.33258583052E+04  0.33060468974E+04 0.  0.
        2    1    3    3  502    0  0.13126625714E+04 -0.31985812240E+02 -0.82896200841E+03  0.15528310049E+04  0.25500000920E-02 0. -1.
       -2    1    3    3    0  502 -0.13126625714E+04  0.31985812240E+02  0.11914359776E+04  0.17730273002E+04  0.25500000920E-02 0.  1.
</event>
<event>
 5   0  0.2309822E-08  0.3300634E+04  0.7818609E-02  0.8162734E-01
       -1   -1    0    0    0  501  0.00000000000E+00  0.00000000000E+00  0.19030097698E+04  0.19030097698E+04  0.50400001928E-02 0.  1.
        1   -1    0    0  501    0  0.00000000000E+00  0.00000000000E+00 -0.14311785296E+04  0.14311785296E+04  0.50400001928E-02 0. -1.
    10030    2    1    2    0    0  0.00000000000E+00  0.00000000000E+00  0.47183124017E+03  0.33341882994E+04  0.33006343173E+04 0.  0.
        4    1    3    3  502    0  0.31794971820E+03 -0.82289057987E+03 -0.11730048288E+04  0.14677134840E+04  0.12699999809E+01 0. -1.
       -4    1    3    3    0  502 -0.31794971820E+03  0.82289057987E+03  0.16448360690E+04  0.18664748154E+04  0.12699999809E+01 0.  1.
</event>
<event>
 5   0  0.2279938E-08  0.3299445E+04  0.7818609E-02  0.8163037E-01
       -1   -1    0    0    0  501  0.00000000000E+00  0.00000000000E+00  0.17504580204E+04  0.17504580204E+04  0.50400001928E-02 0.  1.
        1   -1    0    0  501    0  0.00000000000E+00  0.00000000000E+00 -0.15547845187E+04  0.15547845188E+04  0.50400001928E-02 0. -1.
    10030    2    1    2    0    0  0.00000000000E+00  0.00000000000E+00  0.19567350169E+03  0.33052425392E+04  0.32994454267E+04 0.  0.
        3    1    3    3  502    0  0.30618609040E+03  0.42186587482E+03  0.16657910387E+04  0.17454456546E+04  0.10100000352E+00 0.  1.
       -3    1    3    3    0  502 -0.30618609040E+03 -0.42186587482E+03 -0.14701175370E+04  0.15597968846E+04  0.10100000352E+00 0. -1.
</event>
<event>
 5   0  0.6821287E-08  0.3299165E+04  0.7818609E-02  0.8163108E-01
       -2   -1    0    0    0  501  0.00000000000E+00  0.00000000000E+00  0.14659205050E+04  0.14659205050E+04  0.25500000920E-02 0.  1.
        2   -1    0    0  501    0  0.00000000000E+00  0.00000000000E+00 -0.18562550827E+04  0.18562550827E+04  0.25500000920E-02 0. -1.
    10030    2    1    2    0    0  0.00000000000E+00  0.00000000000E+00 -0.39033457776E+03  0.33221755877E+04  0.32991649781E+04 0.  0.
        5    1    3    3  502    0 -0.73212791755E+03  0.10543377279E+04  0.84813864536E+03  0.15385059584E+04  0.46999998093E+01 0.  1.
       -5    1    3    3    0  502  0.73212791755E+03 -0.10543377279E+04 -0.12384732231E+04  0.17836696293E+04  0.46999998093E+01 0. -1.
</event>
<event>
 5   0  0.2309822E-08  0.3301077E+04  0.7818609E-02  0.8162621E-01
        1   -1    0    0  501    0  0.00000000000E+00  0.00000000000E+00  0.17552644060E+04  0.17552644060E+04  0.50400001928E-02 0.  1.
       -1   -1    0    0    0  501  0.00000000000E+00  0.00000000000E+00 -0.15520611514E+04  0.15520611514E+04  0.50400001928E-02 0. -1.
    10030    2    1    2    0    0  0.00000000000E+00  0.00000000000E+00  0.20320325455E+03  0.33073255574E+04  0.33010772151E+04 0.  0.
        4    1    3    3  502    0 -0.89403297270E+03  0.11694190581E+04 -0.64643076275E+03  0.16077034035E+04  0.12699999809E+01 0. -1.
       -4    1    3    3    0  502  0.89403297270E+03 -0.11694190581E+04  0.84963401730E+03  0.16996221539E+04  0.12699999809E+01 0.  1.
</event>
<event>
 5   0  0.6821287E-08  0.3300753E+04  0.7818609E-02  0.8162704E-01
       -2   -1    0    0    0  501  0.00000000000E+00  0.00000000000E+00  0.12437525315E+04  0.12437525315E+04  0.25500000920E-02 0.  1.
        2   -1    0    0  501    0  0.00000000000E+00  0.00000000000E+00 -0.21899398912E+04  0.21899398912E+04  0.25500000920E-02 0. -1.
    10030    2    1    2    0    0  0.00000000000E+00  0.00000000000E+00 -0.94618735972E+03  0.34336924227E+04  0.33007534192E+04 0.  0.
        5    1    3    3  502    0 -0.56294814919E+03  0.12593667271E+04 -0.14155659372E+04  0.19765536129E+04  0.46999998093E+01 0. -1.
       -5    1    3    3    0  502  0.56294814919E+03 -0.12593667271E+04  0.46937857753E+03  0.14571388098E+04  0.46999998093E+01 0.  1.
</event>
<event>
 5   0  0.2309822E-08  0.3300988E+04  0.7818609E-02  0.8162644E-01
       -1   -1    0    0    0  501  0.00000000000E+00  0.00000000000E+00  0.17286889524E+04  0.17286889524E+04  0.50400001928E-02 0.  1.
        1   -1    0    0  501    0  0.00000000000E+00  0.00000000000E+00 -0.15758362448E+04  0.15758362448E+04  0.50400001928E-02 0. -1.
    10030    2    1    2    0    0  0.00000000000E+00  0.00000000000E+00  0.15285270756E+03  0.33045251972E+04  0.33009881594E+04 0.  0.
        4    1    3    3  502    0 -0.11863545591E+04 -0.32589870795E+03 -0.10249716036E+04  0.16013168046E+04  0.12699999809E+01 0. -1.
       -4    1    3    3    0  502  0.11863545591E+04  0.32589870795E+03  0.11778243112E+04  0.17032083926E+04  0.12699999809E+01 0.  1.
</event>
<event>
 5   0  0.2383270E-08  0.3299161E+04  0.7818609E-02  0.8163109E-01
        1   -1    0    0  501    0  0.00000000000E+00  0.00000000000E+00  0.17305590944E+04  0.17305590944E+04  0.50400001928E-02 0. -1.
       -1   -1    0    0    0  501  0.00000000000E+00  0.00000000000E+00 -0.15723912091E+04  0.15723912091E+04  0.50400001928E-02 0.  1.
    10030    2    1    2    0    0  0.00000000000E+00  0.00000000000E+00  0.15816788534E+03  0.33029503035E+04  0.32991610491E+04 0.  0.
        5    1    3    3  502    0 -0.10961151041E+04 -0.11755556786E+04  0.45058202031E+03  0.16692650244E+04  0.46999998093E+01 0. -1.
       -5    1    3    3    0  502  0.10961151041E+04  0.11755556786E+04 -0.29241413497E+03  0.16336852791E+04  0.46999998093E+01 0.  1.
</event>
<event>
 5   0  0.2279938E-08  0.3299319E+04  0.7818609E-02  0.8163069E-01
        1   -1    0    0  501    0  0.00000000000E+00  0.00000000000E+00  0.19773519982E+04  0.19773519982E+04  0.50400001928E-02 0. -1.
       -1   -1    0    0    0  501  0.00000000000E+00  0.00000000000E+00 -0.13762728504E+04  0.13762728504E+04  0.50400001928E-02 0.  1.
    10030    2    1    2    0    0  0.00000000000E+00  0.00000000000E+00  0.60107914785E+03  0.33536248486E+04  0.32993186392E+04 0.  0.
        3    1    3    3  502    0  0.19014391178E+03  0.14947829289E+04  0.98304155889E+03  0.17991390798E+04  0.10100000352E+00 0. -1.
       -3    1    3    3    0  502 -0.19014391178E+03 -0.14947829289E+04 -0.38196241103E+03  0.15544857688E+04  0.10100000352E+00 0.  1.
</event>
<event>
 5   0  0.2279938E-08  0.3300157E+04  0.7818609E-02  0.8162855E-01
       -1   -1    0    0    0  501  0.00000000000E+00  0.00000000000E+00  0.15052043816E+04  0.15052043816E+04  0.50400001928E-02 0.  1.
        1   -1    0    0  501    0  0.00000000000E+00  0.00000000000E+00 -0.18088967047E+04  0.18088967047E+04  0.50400001928E-02 0. -1.
    10030    2    1    2    0    0  0.00000000000E+00  0.00000000000E+00 -0.30369232313E+03  0.33141010863E+04  0.33001571149E+04 0.  0.
        3    1    3    3  502    0  0.49905214957E+03 -0.94528513033E+03  0.11105022035E+04  0.15413734719E+04  0.10100000352E+00 0.  1.
       -3    1    3    3    0  502 -0.49905214957E+03  0.94528513033E+03 -0.14141945266E+04  0.17727276144E+04  0.10100000352E+00 0. -1.
</event>
<event>
 5   0  0.6706080E-08  0.3293792E+04  0.7818609E-02  0.8164477E-01
        2   -1    0    0  501    0  0.00000000000E+00  0.00000000000E+00  0.19514002106E+04  0.19514002106E+04  0.25500000920E-02 0.  1.
       -2   -1    0    0    0  501  0.00000000000E+00  0.00000000000E+00 -0.13899074458E+04  0.13899074458E+04  0.25500000920E-02 0. -1.
    10030    2    1    2    0    0  0.00000000000E+00  0.00000000000E+00  0.56149276481E+03  0.33413076564E+04  0.32937915431E+04 0.  0.
        4    1    3    3  502    0 -0.11718210572E+04 -0.41913393573E+03 -0.81343615636E+03  0.14867810328E+04  0.12699999809E+01 0. -1.
       -4    1    3    3    0  502  0.11718210572E+04  0.41913393573E+03  0.13749289212E+04  0.18545266235E+04  0.12699999809E+01 0.  1.
</event>
<event>
 5   0  0.6765252E-08  0.3300792E+04  0.7818609E-02  0.8162694E-01
       -2   -1    0    0    0  501  0.00000000000E+00  0.00000000000E+00  0.13969138295E+04  0.13969138295E+04  0.25500000920E-02 0.  1.
        2   -1    0    0  501    0  0.00000000000E+00  0.00000000000E+00 -0.19498742750E+04  0.19498742750E+04  0.25500000920E-02 0. -1.
    10030    2    1    2    0    0  0.00000000000E+00  0.00000000000E+00 -0.55296044551E+03  0.33467881045E+04  0.33007916266E+04 0.  0.
        2    1    3    3  502    0  0.13773480815E+04 -0.87375495344E+03 -0.21438014364E+02  0.16312556650E+04  0.25500000920E-02 0.  1.
       -2    1    3    3    0  502 -0.13773480815E+04  0.87375495344E+03 -0.53152243115E+03  0.17155324395E+04  0.25500000920E-02 0. -1.
</event>
<event>
 5   0  0.2279938E-08  0.3300990E+04  0.7818609E-02  0.8162643E-01
        1   -1    0    0  501    0  0.00000000000E+00  0.00000000000E+00  0.24113547302E+04  0.24113547302E+04  0.50400001928E-02 0.  1.
       -1   -1    0    0    0  501  0.00000000000E+00  0.00000000000E+00 -0.11297111867E+04  0.11297111867E+04  0.50400001928E-02 0. -1.
    10030    2    1    2    0    0  0.00000000000E+00  0.00000000000E+00  0.12816435435E+04  0.35410659169E+04  0.33009904052E+04 0.  0.
        3    1    3    3  502    0 -0.16285804127E+04  0.16852493662E+02  0.35382687190E+03  0.16666588231E+04  0.10100000352E+00 0. -1.
       -3    1    3    3    0  502  0.16285804127E+04 -0.16852493662E+02  0.92781667160E+03  0.18744070938E+04  0.10100000352E+00 0.  1.
</event>
<event>
 5   0  0.7084130E-08  0.3299591E+04  0.7818609E-02  0.8162999E-01
        2   -1    0    0  501    0  0.00000000000E+00  0.00000000000E+00  0.20064679245E+04  0.20064679245E+04  0.25500000920E-02 0.  1.
       -2   -1    0    0    0  501  0.00000000000E+00  0.00000000000E+00 -0.13565260360E+04  0.13565260360E+04  0.25500000920E-02 0. -1.
    10030    2    1    2    0    0  0.00000000000E+00  0.00000000000E+00  0.64994188853E+03  0.33629939605E+04  0.32995914777E+04 0.  0.
        3    1    3    3  502    0  0.59128623001E+03  0.12255826154E+04 -0.62577379030E+03  0.14977533174E+04  0.10100000352E+00 0. -1.
       -3    1    3    3    0  502 -0.59128623001E+03 -0.12255826154E+04  0.12757156788E+04  0.18652406430E+04  0.10100000352E+00 0.  1.
</event>
<event>
 5   0  0.2244093E-08  0.3293365E+04  0.7818609E-02  0.8164586E-01
        1   -1    0    0  501    0  0.00000000000E+00  0.00000000000E+00  0.19044100215E+04  0.19044100215E+04  0.50400001928E-02 0.  1.
       -1   -1    0    0    0  501  0.00000000000E+00  0.00000000000E+00 -0.14238335762E+04  0.14238335762E+04  0.50400001928E-02 0. -1.
    10030    2    1    2    0    0  0.00000000000E+00  0.00000000000E+00  0.48057644534E+03  0.33282435977E+04  0.32933648030E+04 0.  0.
        1    1    3    3  502    0  0.56201394641E+03  0.91754207676E+03  0.15000127639E+04  0.18460177221E+04  0.50400001928E-02 0.  1.
       -1    1    3    3    0  502 -0.56201394641E+03 -0.91754207676E+03 -0.10194363185E+04  0.14822258755E+04  0.50400001928E-02 0. -1.
</event>
<event>
 5   0  0.2309822E-08  0.3298260E+04  0.7818609E-02  0.8163338E-01
       -1   -1    0    0    0  501  0.00000000000E+00  0.00000000000E+00  0.11563143318E+04  0.11563143318E+04  0.50400001928E-02 0. -1.
        1   -1    0    0  501    0  0.00000000000E+00  0.00000000000E+00 -0.23519811780E+04  0.23519811780E+04  0.50400001928E-02 0.  1.
    10030    2    1    2    0    0  0.00000000000E+00  0.00000000000E+00 -0.11956668462E+04  0.35082955098E+04  0.32982598711E+04 0.  0.
        4    1    3    3  502    0  0.24262569008E+03  0.13642052306E+04  0.35337600603E+03  0.14299648077E+04  0.12699999809E+01 0. -1.
       -4    1    3    3    0  502 -0.24262569008E+03 -0.13642052306E+04 -0.15490428522E+04  0.20783307022E+04  0.12699999809E+01 0.  1.
</event>
<event>
 5   0  0.2383270E-08  0.3301844E+04  0.7818609E-02  0.8162426E-01
        1   -1    0    0  501    0  0.00000000000E+00  0.00000000000E+00  0.14624735455E+04  0.14624735455E+04  0.50400001928E-02 0. -1.
       -1   -1    0    0    0  501  0.00000000000E+00  0.00000000000E+00 -0.18636534722E+04  0.18636534723E+04  0.50400001928E-02 0.  1.
    10030    2    1    2    0    0  0.00000000000E+00  0.00000000000E+00 -0.40117992674E+03  0.33261270178E+04  0.33018442732E+04 0.  0.
        5    1    3    3  502    0 -0.71489262477E+03 -0.39582099589E+03 -0.16456347295E+04  0.18373571995E+04  0.46999998093E+01 0.  1.
       -5    1    3    3    0  502  0.71489262477E+03  0.39582099589E+03  0.12444548027E+04  0.14887698183E+04  0.46999998093E+01 0. -1.
</event>
<event>
 5   0  0.7084130E-08  0.3299849E+04  0.7818609E-02  0.8162934E-01
       -2   -1    0    0    0  501  0.00000000000E+00  0.00000000000E+00  0.12026804138E+04  0.12026804138E+04  0.25500000920E-02 0.  1.
        2   -1    0    0  501    0  0.00000000000E+00  0.00000000000E+00 -0.22634862190E+04  0.22634862190E+04  0.25500000920E-02 0. -1.
    10030    2    1    2    0    0  0.00000000000E+00  0.00000000000E+00 -0.10608058052E+04  0.34661666329E+04  0.32998488102E+04 0.  0.
        3    1    3    3  502    0 -0.70069994669E+03  0.94411688342E+03  0.68548563601E+03  0.13609657131E+04  0.10100000352E+00 0.  1.
       -3    1    3    3    0  502  0.70069994669E+03 -0.94411688342E+03 -0.17462914412E+04  0.21052009198E+04  0.10100000352E+00 0. -1.
</event>
<event>
 5   0  0.2244093E-08  0.3299183E+04  0.7818609E-02  0.8163103E-01
       -1   -1    0    0    0  501  0.00000000000E+00  0.00000000000E+00  0.10522170993E+04  0.10522170993E+04  0.50400001928E-02 0. -1.
        1   -1    0    0  501    0  0.00000000000E+00  0.00000000000E+00 -0.25861132605E+04  0.25861132605E+04  0.50400001928E-02 0.  1.
    10030    2    1    2    0    0  0.00000000000E+00  0.00000000000E+00 -0.15338961612E+04  0.36383303599E+04  0.32991832890E+04 0.  0.
        1    1    3    3  502    0  0.87573632582E+03 -0.59014207867E+03  0.63059276566E+03  0.12299711466E+04  0.50400001928E-02 0. -1.
       -1    1    3    3    0  502 -0.87573632582E+03  0.59014207867E+03 -0.21644889269E+04  0.24083592132E+04  0.50400001928E-02 0.  1.
</event>
<event>
 5   0  0.6603516E-08  0.3299172E+04  0.7818609E-02  0.8163106E-01
       -2   -1    0    0    0  501  0.00000000000E+00  0.00000000000E+00  0.10952859183E+04  0.10952859183E+04  0.25500000920E-02 0. -1.
        2   -1    0    0  501    0  0.00000000000E+00  0.00000000000E+00 -0.24844050398E+04  0.24844050398E+04  0.25500000920E-02 0.  1.
    10030    2    1    2    0    0  0.00000000000E+00  0.00000000000E+00 -0.13891191216E+04  0.35796909581E+04  0.32991719296E+04 0.  0.
        1    1    3    3  502    0  0.11778719954E+04 -0.11031778974E+04 -0.10652991187E+04  0.19337130405E+04  0.50400001928E-02 0.  1.
       -1    1    3    3    0  502 -0.11778719954E+04  0.11031778974E+04 -0.32382000284E+03  0.16459779175E+04  0.50400001928E-02 0. -1.
</event>
<event>
 5   0  0.2309822E-08  0.3299234E+04  0.7818609E-02  0.8163090E-01
       -1   -1    0    0    0  501  0.00000000000E+00  0.00000000000E+00  0.12295206652E+04  0.12295206652E+04  0.50400001928E-02 0.  1.
        1   -1    0    0  501    0  0.00000000000E+00  0.00000000000E+00 -0.22132502345E+04  0.22132502345E+04  0.50400001928E-02 0. -1.
    10030    2    1    2    0    0  0.00000000000E+00  0.00000000000E+00 -0.98372956930E+03  0.34427708997E+04  0.32992343964E+04 0.  0.
        4    1    3    3  502    0  0.31214969803E+03  0.66654722942E+03 -0.20324107059E+04  0.21615775566E+04  0.12699999809E+01 0. -1.
       -4    1    3    3    0  502 -0.31214969803E+03 -0.66654722942E+03  0.10486811366E+04  0.12811933430E+04  0.12699999809E+01 0.  1.
</event>
<event>
 5   0  0.2383270E-08  0.3301595E+04  0.7818609E-02  0.8162490E-01
       -1   -1    0    0    0  501  0.00000000000E+00  0.00000000000E+00  0.11697514112E+04  0.11697514112E+04  0.50400001928E-02 0.  1.
        1   -1    0    0  501    0  0.00000000000E+00  0.00000000000E+00 -0.23296674846E+04  0.23296674846E+04  0.50400001928E-02 0. -1.
    10030    2    1    2    0    0  0.00000000000E+00  0.00000000000E+00 -0.11599160734E+04  0.34994188958E+04  0.33015946618E+04 0.  0.
        5    1    3    3  502    0  0.85255434166E+02  0.88694392235E+03 -0.20528897949E+04  0.22379268555E+04  0.46999998093E+01 0. -1.
       -5    1    3    3    0  502 -0.85255434166E+02 -0.88694392235E+03  0.89297372155E+03  0.12614920403E+04  0.46999998093E+01 0.  1.
</event>
<event>
 5   0  0.2291682E-08  0.3299973E+04  0.7818609E-02  0.8162902E-01
       -1   -1    0    0    0  501  0.00000000000E+00  0.00000000000E+00  0.12115179819E+04  0.12115179819E+04  0.50400001928E-02 0.  1.
        1   -1    0    0  501    0  0.00000000000E+00  0.00000000000E+00 -0.22471438092E+04  0.22471438092E+04  0.50400001928E-02 0. -1.
    10030    2    1    2    0    0  0.00000000000E+00  0.00000000000E+00 -0.10356258272E+04  0.34586617911E+04  0.32999728076E+04 0.  0.
        2    1    3    3  502    0  0.54168493021E+03 -0.95914406354E+03 -0.18053305327E+04  0.21148518224E+04  0.25500000920E-02 0. -1.
       -2    1    3    3    0  502 -0.54168493021E+03  0.95914406354E+03  0.76970470550E+03  0.13438099687E+04  0.25500000920E-02 0.  1.
</event>
<event>
 5   0  0.2309822E-08  0.3299390E+04  0.7818609E-02  0.8163051E-01
        1   -1    0    0  501    0  0.00000000000E+00  0.00000000000E+00  0.14686612654E+04  0.14686612654E+04  0.50400001928E-02 0.  1.
       -1   -1    0    0    0  501  0.00000000000E+00  0.00000000000E+00 -0.18530441864E+04  0.18530441864E+04  0.50400001928E-02 0. -1.
    10030    2    1    2    0    0  0.00000000000E+00  0.00000000000E+00 -0.38438292103E+03  0.33217054518E+04  0.32993903799E+04 0.  0.
        4    1    3    3  502    0 -0.70958114307E+03 -0.12887436505E+04  0.55926621199E+03  0.15738951376E+04  0.12699999809E+01 0.  1.
       -4    1    3    3    0  502  0.70958114307E+03  0.12887436505E+04 -0.94364913302E+03  0.17478103142E+04  0.12699999809E+01 0. -1.
</event>
<event>
 5   0  0.2383270E-08  0.3301432E+04  0.7818609E-02  0.8162531E-01
        1   -1    0    0  501    0  0.00000000000E+00  0.00000000000E+00  0.12344492368E+04  0.12344492368E+04  0.50400001928E-02 0.  1.
       -1   -1    0    0    0  501  0.00000000000E+00  0.00000000000E+00 -0.22073515001E+04  0.22073515001E+04  0.50400001928E-02 0. -1.
    10030    2    1    2    0    0  0.00000000000E+00  0.00000000000E+00 -0.97290226338E+03  0.34418007369E+04  0.33014320375E+04 0.  0.
        5    1    3    3  502    0  0.10276585629E+03  0.11925270122E+04 -0.16715142243E+04  0.20558850620E+04  0.46999998093E+01 0. -1.
       -5    1    3    3    0  502 -0.10276585629E+03 -0.11925270122E+04  0.69861196092E+03  0.13859156749E+04  0.46999998093E+01 0.  1.
</event>
<event>
 5   0  0.6765252E-08  0.3300403E+04  0.7818609E-02  0.8162793E-01
        2   -1    0    0  501    0  0.00000000000E+00  0.00000000000E+00  0.26336365089E+04  0.26336365089E+04  0.25500000920E-02 0.  1.
       -2   -1    0    0    0  501  0.00000000000E+00  0.00000000000E+00 -0.10339939881E+04  0.10339939881E+04  0.25500000920E-02 0. -1.
    10030    2    1    2    0    0  0.00000000000E+00  0.00000000000E+00  0.15996425208E+04  0.36676304971E+04  0.33004025919E+04 0.  0.
        2    1    3    3  502    0 -0.42048309024E+03  0.23149073813E+03 -0.95470466113E+03  0.10685761466E+04  0.25500000920E-02 0. -1.
       -2    1    3    3    0  502  0.42048309024E+03 -0.23149073813E+03  0.25543471819E+04  0.25990543505E+04  0.25500000920E-02 0.  1.
</event>
<event>
 5   0  0.2244093E-08  0.3300254E+04  0.7818609E-02  0.8162831E-01
        1   -1    0    0  501    0  0.00000000000E+00  0.00000000000E+00  0.16508619480E+04  0.16508619480E+04  0.50400001928E-02 0. -1.
       -1   -1    0    0    0  501  0.00000000000E+00  0.00000000000E+00 -0.16493928379E+04  0.16493928379E+04  0.50400001928E-02 0.  1.
    10030    2    1    2    0    0  0.00000000000E+00  0.00000000000E+00  0.14691100742E+01  0.33002547859E+04  0.33002544589E+04 0.  0.
        1    1    3    3  502    0  0.54402510442E+03  0.12085261636E+04  0.98380182759E+03  0.16505650058E+04  0.50400001928E-02 0. -1.
       -1    1    3    3    0  502 -0.54402510442E+03 -0.12085261636E+04 -0.98233271752E+03  0.16496897800E+04  0.50400001928E-02 0.  1.
</event>
<event>
 5   0  0.2244093E-08  0.3293320E+04  0.7818609E-02  0.8164597E-01
        1   -1    0    0  501    0  0.00000000000E+00  0.00000000000E+00  0.99683737871E+03  0.99683737872E+03  0.50400001928E-02 0. -1.
       -1   -1    0    0    0  501  0.00000000000E+00  0.00000000000E+00 -0.27200920565E+04  0.27200920565E+04  0.50400001928E-02 0.  1.
    10030    2    1    2    0    0  0.00000000000E+00  0.00000000000E+00 -0.17232546778E+04  0.37169294353E+04  0.32933201700E+04 0.  0.
        1    1    3    3  502    0 -0.10573702129E+04 -0.11771319674E+04 -0.13761351142E+04  0.20970024531E+04  0.50400001928E-02 0. -1.
       -1    1    3    3    0  502  0.10573702129E+04  0.11771319674E+04 -0.34711956365E+03  0.16199269821E+04  0.50400001928E-02 0.  1.
</event>
<event>
 5   0  0.2244093E-08  0.3299962E+04  0.7818609E-02  0.8162905E-01
       -1   -1    0    0    0  501  0.00000000000E+00  0.00000000000E+00  0.16129849647E+04  0.16129849647E+04  0.50400001928E-02 0.  1.
        1   -1    0    0  501    0  0.00000000000E+00  0.00000000000E+00 -0.16878256773E+04  0.16878256773E+04  0.50400001928E-02 0. -1.
    10030    2    1    2    0    0  0.00000000000E+00  0.00000000000E+00 -0.74840712602E+02  0.33008106420E+04  0.32999620849E+04 0.  0.
        1    1    3    3  502    0  0.80190235313E+03 -0.14361478186E+04  0.92495679878E+02  0.16474596783E+04  0.50400001928E-02 0.  1.
       -1    1    3    3    0  502 -0.80190235313E+03  0.14361478186E+04 -0.16733639248E+03  0.16533509637E+04  0.50400001928E-02 0. -1.
</event>
<event>
 5   0  0.6706080E-08  0.3287067E+04  0.7818609E-02  0.8166194E-01
       -2   -1    0    0    0  501  0.00000000000E+00  0.00000000000E+00  0.15549272636E+04  0.15549272636E+04  0.25500000920E-02 0. -1.
        2   -1    0    0  501    0  0.00000000000E+00  0.00000000000E+00 -0.17371893767E+04  0.17371893767E+04  0.25500000920E-02 0.  1.
    10030    2    1    2    0    0  0.00000000000E+00  0.00000000000E+00 -0.18226211314E+03  0.32921166403E+04  0.32870674614E+04 0.  0.
        4    1    3    3  502    0 -0.58640313454E+03 -0.90900047481E+03  0.11481260756E+04  0.15774490793E+04  0.12699999809E+01 0. -1.
       -4    1    3    3    0  502  0.58640313454E+03  0.90900047481E+03 -0.13303881887E+04  0.17146675610E+04  0.12699999809E+01 0.  1.
</event>
<event>
 5   0  0.2279938E-08  0.3300253E+04  0.7818609E-02  0.8162831E-01
       -1   -1    0    0    0  501  0.00000000000E+00  0.00000000000E+00  0.27554700539E+04  0.27554700539E+04  0.50400001928E-02 0. -1.
        1   -1    0    0  501    0  0.00000000000E+00  0.00000000000E+00 -0.98818608191E+03  0.98818608192E+03  0.50400001928E-02 0.  1.
    10030    2    1    2    0    0  0.00000000000E+00  0.00000000000E+00  0.17672839720E+04  0.37436561359E+04  0.33002528124E+04 0.  0.
        3    1    3    3  502    0  0.88039626630E+03 -0.11268084016E+04  0.18177622255E+04  0.23128022566E+04  0.10100000352E+00 0. -1.
       -3    1    3    3    0  502 -0.88039626630E+03  0.11268084016E+04 -0.50478253450E+02  0.14308538793E+04  0.10100000352E+00 0.  1.
</event>
<event>
 5   0  0.6706080E-08  0.3298542E+04  0.7818609E-02  0.8163266E-01
        2   -1    0    0  501    0  0.00000000000E+00  0.00000000000E+00  0.28544075889E+04  0.28544075889E+04  0.25500000920E-02 0.  1.
       -2   -1    0    0    0  501  0.00000000000E+00  0.00000000000E+00 -0.95294561175E+03  0.95294561175E+03  0.25500000920E-02 0. -1.
    10030    2    1    2    0    0  0.00000000000E+00  0.00000000000E+00  0.19014619771E+04  0.38073532006E+04  0.32985422149E+04 0.  0.
        4    1    3    3  502    0  0.12691097526E+04  0.20349304178E+03 -0.24214641847E+03  0.13079317578E+04  0.12699999809E+01 0. -1.
       -4    1    3    3    0  502 -0.12691097526E+04 -0.20349304178E+03  0.21436083956E+04  0.24994214428E+04  0.12699999809E+01 0.  1.
</event>
<event>
 5   0  0.7084130E-08  0.3301935E+04  0.7818609E-02  0.8162403E-01
        2   -1    0    0  501    0  0.00000000000E+00  0.00000000000E+00  0.22508883507E+04  0.22508883507E+04  0.25500000920E-02 0. -1.
       -2   -1    0    0    0  501  0.00000000000E+00  0.00000000000E+00 -0.12109414723E+04  0.12109414723E+04  0.25500000920E-02 0.  1.
    10030    2    1    2    0    0  0.00000000000E+00  0.00000000000E+00  0.10399468784E+04  0.34618298230E+04  0.33019352225E+04 0.  0.
        3    1    3    3  502    0  0.70879400958E+03 -0.10738275432E+04 -0.56462640658E+03  0.14050969823E+04  0.10100000352E+00 0.  1.
       -3    1    3    3    0  502 -0.70879400958E+03  0.10738275432E+04  0.16045732850E+04  0.20567328406E+04  0.10100000352E+00 0. -1.
</event>
<event>
 5   0  0.6603516E-08  0.3300777E+04  0.7818609E-02  0.8162698E-01
        2   -1    0    0  501    0  0.00000000000E+00  0.00000000000E+00  0.23263994602E+04  0.23263994602E+04  0.25500000920E-02 0.  1.
       -2   -1    0    0    0  501  0.00000000000E+00  0.00000000000E+00 -0.11708143399E+04  0.11708143399E+04  0.25500000920E-02 0. -1.
    10030    2    1    2    0    0  0.00000000000E+00  0.00000000000E+00  0.11555851204E+04  0.34972138001E+04  0.33007767863E+04 0.  0.
        1    1    3    3  502    0 -0.63337131024E+03  0.10984734120E+04 -0.54147521029E+03  0.13787670060E+04  0.50400001928E-02 0. -1.
       -1    1    3    3    0  502  0.63337131024E+03 -0.10984734120E+04  0.16970603307E+04  0.21184467941E+04  0.50400001928E-02 0.  1.
</event>
<event>
 5   0  0.6706080E-08  0.3300683E+04  0.7818609E-02  0.8162722E-01
        2   -1    0    0  501    0  0.00000000000E+00  0.00000000000E+00  0.12230580460E+04  0.12230580460E+04  0.25500000920E-02 0.  1.
       -2   -1    0    0    0  501  0.00000000000E+00  0.00000000000E+00 -0.22268989856E+04  0.22268989856E+04  0.25500000920E-02 0. -1.
    10030    2    1    2    0    0  0.00000000000E+00  0.00000000000E+00 -0.10038409396E+04  0.34499570316E+04  0.33006827912E+04 0.  0.
        4    1    3    3  502    0 -0.13726457680E+03 -0.41710645082E+03  0.11608768038E+04  0.12411510472E+04  0.12699999809E+01 0.  1.
       -4    1    3    3    0  502  0.13726457680E+03  0.41710645082E+03 -0.21647177434E+04  0.22088059845E+04  0.12699999809E+01 0. -1.
</event>
<event>
 5   0  0.2279938E-08  0.3300574E+04  0.7818609E-02  0.8162749E-01
       -1   -1    0    0    0  501  0.00000000000E+00  0.00000000000E+00  0.15392748259E+04  0.15392748259E+04  0.50400001928E-02 0. -1.
        1   -1    0    0  501    0  0.00000000000E+00  0.00000000000E+00 -0.17693053086E+04  0.17693053086E+04  0.50400001928E-02 0.  1.
    10030    2    1    2    0    0  0.00000000000E+00  0.00000000000E+00 -0.23003048273E+03  0.33085801345E+04  0.33005739627E+04 0.  0.
        3    1    3    3  502    0 -0.11346376493E+02  0.26342383266E+03 -0.17480544568E+04  0.17678278338E+04  0.10100000352E+00 0.  1.
       -3    1    3    3    0  502  0.11346376493E+02 -0.26342383266E+03  0.15180239741E+04  0.15407523007E+04  0.10100000352E+00 0. -1.
</event>
<event>
 5   0  0.7084130E-08  0.3294394E+04  0.7818609E-02  0.8164323E-01
       -2   -1    0    0    0  501  0.00000000000E+00  0.00000000000E+00  0.11159675937E+04  0.11159675937E+04  0.25500000920E-02 0.  1.
        2   -1    0    0  501    0  0.00000000000E+00  0.00000000000E+00 -0.24313051259E+04  0.24313051259E+04  0.25500000920E-02 0. -1.
    10030    2    1    2    0    0  0.00000000000E+00  0.00000000000E+00 -0.13153375322E+04  0.35472727196E+04  0.32943938629E+04 0.  0.
        3    1    3    3  502    0 -0.70930317785E+03  0.31566703720E+03 -0.22219392273E+04  0.23536717309E+04  0.10100000352E+00 0. -1.
       -3    1    3    3    0  502  0.70930317785E+03 -0.31566703720E+03  0.90660169514E+03  0.11936009887E+04  0.10100000352E+00 0.  1.
</event>
<event>
 5   0  0.2279938E-08  0.3302944E+04  0.7818609E-02  0.8162147E-01
       -1   -1    0    0    0  501  0.00000000000E+00  0.00000000000E+00  0.30892848019E+04  0.30892848019E+04  0.50400001928E-02 0. -1.
        1   -1    0    0  501    0  0.00000000000E+00  0.00000000000E+00 -0.88284515419E+03  0.88284515421E+03  0.50400001928E-02 0.  1.
    10030    2    1    2    0    0  0.00000000000E+00  0.00000000000E+00  0.22064396477E+04  0.39721299561E+04  0.33029442123E+04 0.  0.
        3    1    3    3  502    0  0.48052357660E+03  0.15334487057E+04  0.15611451147E+04  0.22404334223E+04  0.10100000352E+00 0.  1.
       -3    1    3    3    0  502 -0.48052357660E+03 -0.15334487057E+04  0.64529453304E+03  0.17316965338E+04  0.10100000352E+00 0. -1.
</event>
<event>
 5   0  0.6706080E-08  0.3299848E+04  0.7818609E-02  0.8162934E-01
       -2   -1    0    0    0  501  0.00000000000E+00  0.00000000000E+00  0.14882582393E+04  0.14882582393E+04  0.25500000920E-02 0.  1.
        2   -1    0    0  501    0  0.00000000000E+00  0.00000000000E+00 -0.18291507470E+04  0.18291507470E+04  0.25500000920E-02 0. -1.
    10030    2    1    2    0    0  0.00000000000E+00  0.00000000000E+00 -0.34089250772E+03  0.33174089862E+04  0.32998476753E+04 0.  0.
        4    1    3    3  502    0  0.53272323270E+03 -0.16547866014E+03 -0.17314718277E+04  0.18191133920E+04  0.12699999809E+01 0. -1.
       -4    1    3    3    0  502 -0.53272323270E+03  0.16547866014E+03  0.13905793200E+04  0.14982955943E+04  0.12699999809E+01 0.  1.
</event>
<event>
 5   0  0.6765252E-08  0.3297295E+04  0.7818609E-02  0.8163584E-01
       -2   -1    0    0    0  501  0.00000000000E+00  0.00000000000E+00  0.12579320520E+04  0.12579320520E+04  0.25500000920E-02 0.  1.
        2   -1    0    0  501    0  0.00000000000E+00  0.00000000000E+00 -0.21607202124E+04  0.21607202124E+04  0.25500000920E-02 0. -1.
    10030    2    1    2    0    0  0.00000000000E+00  0.00000000000E+00 -0.90278816042E+03  0.34186522644E+04  0.32972953829E+04 0.  0.
        2    1    3    3  502    0 -0.64930317370E+03 -0.80522314435E+03  0.87962297548E+03  0.13578348584E+04  0.25500000920E-02 0.  1.
       -2    1    3    3    0  502  0.64930317370E+03  0.80522314435E+03 -0.17824111359E+04  0.20608174060E+04  0.25500000920E-02 0. -1.
</event>
<event>
 5   0  0.6603516E-08  0.3298684E+04  0.7818609E-02  0.8163230E-01
        2   -1    0    0  501    0  0.00000000000E+00  0.00000000000E+00  0.22288676124E+04  0.22288676124E+04  0.25500000920E-02 0.  1.
       -2   -1    0    0    0  501  0.00000000000E+00  0.00000000000E+00 -0.12204983332E+04  0.12204983332E+04  0.25500000920E-02 0. -1.
    10030    2    1    2    0    0  0.00000000000E+00  0.00000000000E+00  0.10083692792E+04  0.34493659456E+04  0.32986841048E+04 0.  0.
        1    1    3    3  502    0  0.12909608878E+04  0.14950756648E+03 -0.55778330577E+03  0.14142329166E+04  0.50400001928E-02 0. -1.
       -1    1    3    3    0  502 -0.12909608878E+04 -0.14950756648E+03  0.15661525850E+04  0.20351330290E+04  0.50400001928E-02 0.  1.
</event>
<event>
 5   0  0.6603516E-08  0.3298818E+04  0.7818609E-02  0.8163196E-01
       -2   -1    0    0    0  501  0.00000000000E+00  0.00000000000E+00  0.11073253783E+04  0.11073253783E+04  0.25500000920E-02 0.  1.
        2   -1    0    0  501    0  0.00000000000E+00  0.00000000000E+00 -0.24568658551E+04  0.24568658551E+04  0.25500000920E-02 0. -1.
    10030    2    1    2    0    0  0.00000000000E+00  0.00000000000E+00 -0.13495404768E+04  0.35641912334E+04  0.32988179171E+04 0.  0.
        1    1    3    3  502    0 -0.10439316780E+04  0.66726797555E+03  0.50163043969E+03  0.13366648786E+04  0.50400001928E-02 0.  1.
       -1    1    3    3    0  502  0.10439316780E+04 -0.66726797555E+03 -0.18511709165E+04  0.22275263549E+04  0.50400001928E-02 0. -1.
</event>
<event>
 5   0  0.6765252E-08  0.3300814E+04  0.7818609E-02  0.8162688E-01
        2   -1    0    0  501    0  0.00000000000E+00  0.00000000000E+00  0.18111136422E+04  0.18111136422E+04  0.25500000920E-02 0. -1.
       -2   -1    0    0    0  501  0.00000000000E+00  0.00000000000E+00 -0.15039603257E+04  0.15039603257E+04  0.25500000920E-02 0.  1.
    10030    2    1    2    0    0  0.00000000000E+00  0.00000000000E+00  0.30715331655E+03  0.33150739679E+04  0.33008138773E+04 0.  0.
        2    1    3    3  502    0  0.15694753854E+04 -0.47598331882E+03  0.33884571615E+03  0.16747028168E+04  0.25500000920E-02 0.  1.
       -2    1    3    3    0  502 -0.15694753854E+04  0.47598331882E+03 -0.31692399601E+02  0.16403711511E+04  0.25500000920E-02 0. -1.
</event>
<event>
 5   0  0.2291682E-08  0.3302077E+04  0.7818609E-02  0.8162367E-01
       -1   -1    0    0    0  501  0.00000000000E+00  0.00000000000E+00  0.22460374383E+04  0.22460374383E+04  0.50400001928E-02 0. -1.
        1   -1    0    0  501    0  0.00000000000E+00  0.00000000000E+00 -0.12136612953E+04  0.12136612953E+04  0.50400001928E-02 0.  1.
    10030    2    1    2    0    0  0.00000000000E+00  0.00000000000E+00  0.10323761430E+04  0.34596987337E+04  0.33020773502E+04 0.  0.
        2    1    3    3  502    0 -0.14496428895E+04  0.74398430236E+03  0.79527018756E+03  0.18131276349E+04  0.25500000920E-02 0.  1.
       -2    1    3    3    0  502  0.14496428895E+04 -0.74398430236E+03  0.23710595547E+03  0.16465710988E+04  0.25500000920E-02 0. -1.
</event>
<event>
 5   0  0.2291682E-08  0.3298632E+04  0.7818609E-02  0.8163244E-01
        1   -1    0    0  501    0  0.00000000000E+00  0.00000000000E+00  0.14421724955E+04  0.14421724955E+04  0.50400001928E-02 0. -1.
       -1   -1    0    0    0  501  0.00000000000E+00  0.00000000000E+00 -0.18862119703E+04  0.18862119703E+04  0.50400001928E-02 0.  1.
    10030    2    1    2    0    0  0.00000000000E+00  0.00000000000E+00 -0.44403947478E+03  0.33283844658E+04  0.32986318523E+04 0.  0.
        2    1    3    3  502    0 -0.21375498174E+03 -0.16235449559E+04 -0.42039826323E+03  0.16906578944E+04  0.25500000920E-02 0.  1.
       -2    1    3    3    0  502  0.21375498174E+03  0.16235449559E+04 -0.23641211545E+02  0.16377265715E+04  0.25500000920E-02 0. -1.
</event>
<event>
 5   0  0.2309822E-08  0.3301305E+04  0.7818609E-02  0.8162563E-01
        1   -1    0    0  501    0  0.00000000000E+00  0.00000000000E+00  0.24197271254E+04  0.24197271254E+04  0.50400001928E-02 0. -1.
       -1   -1    0    0    0  501  0.00000000000E+00  0.00000000000E+00 -0.11260168304E+04  0.11260168304E+04  0.50400001928E-02 0.  1.
    10030    2    1    2    0    0  0.00000000000E+00  0.00000000000E+00  0.12937102950E+04  0.35457439557E+04  0.33013048742E+04 0.  0.
        4    1    3    3  502    0  0.11648110303E+04  0.20472471186E+03 -0.58990680511E+03  0.13216234697E+04  0.12699999809E+01 0.  1.
       -4    1    3    3    0  502 -0.11648110303E+04 -0.20472471186E+03  0.18836171001E+04  0.22241204861E+04  0.12699999809E+01 0. -1.
</event>
<event>
 5   0  0.2383270E-08  0.3301956E+04  0.7818609E-02  0.8162398E-01
        1   -1    0    0  501    0  0.00000000000E+00  0.00000000000E+00  0.21576122409E+04  0.21576122409E+04  0.50400001928E-02 0. -1.
       -1   -1    0    0    0  501  0.00000000000E+00  0.00000000000E+00 -0.12633077537E+04  0.12633077538E+04  0.50400001928E-02 0.  1.
    10030    2    1    2    0    0  0.00000000000E+00  0.00000000000E+00  0.89430448716E+03  0.34209199947E+04  0.33019559498E+04 0.  0.
        5    1    3    3  502    0  0.10588903249E+04  0.11902627191E+04  0.89604328473E+03  0.18278100882E+04  0.46999998093E+01 0. -1.
       -5    1    3    3    0  502 -0.10588903249E+04 -0.11902627191E+04 -0.17387975706E+01  0.15931099064E+04  0.46999998093E+01 0.  1.
</event>
<event>
 5   0  0.2383270E-08  0.3298803E+04  0.7818609E-02  0.8163200E-01
       -1   -1    0    0    0  501  0.00000000000E+00  0.00000000000E+00  0.18464400003E+04  0.18464400003E+04  0.50400001928E-02 0.  1.
        1   -1    0    0  501    0  0.00000000000E+00  0.00000000000E+00 -0.14733890902E+04  0.14733890902E+04  0.50400001928E-02 0. -1.
    10030    2    1    2    0    0  0.00000000000E+00  0.00000000000E+00  0.37305091013E+03  0.33198290905E+04  0.32988025416E+04 0.  0.
        5    1    3    3  502    0  0.58816534885E+03 -0.48566102622E+03  0.16582755468E+04  0.18252958634E+04  0.46999998093E+01 0.  1.
       -5    1    3    3    0  502 -0.58816534885E+03  0.48566102622E+03 -0.12852246367E+04  0.14945332270E+04  0.46999998093E+01 0. -1.
</event>
<event>
 5   0  0.7084130E-08  0.3294434E+04  0.7818609E-02  0.8164313E-01
       -2   -1    0    0    0  501  0.00000000000E+00  0.00000000000E+00  0.20362977645E+04  0.20362977645E+04  0.25500000920E-02 0.  1.
        2   -1    0    0  501    0  0.00000000000E+00  0.00000000000E+00 -0.13324786912E+04  0.13324786912E+04  0.25500000920E-02 0. -1.
    10030    2    1    2    0    0  0.00000000000E+00  0.00000000000E+00  0.70381907325E+03  0.33687764557E+04  0.32944337178E+04 0.  0.
        3    1    3    3  502    0  0.91577346719E+03  0.40330924354E+03 -0.98606035558E+03  0.14048538800E+04  0.10100000352E+00 0. -1.
       -3    1    3    3    0  502 -0.91577346719E+03 -0.40330924354E+03  0.16898794288E+04  0.19639225757E+04  0.10100000352E+00 0.  1.
</event>
<event>
 5   0  0.7084130E-08  0.3300531E+04  0.7818609E-02  0.8162760E-01
        2   -1    0    0  501    0  0.00000000000E+00  0.00000000000E+00  0.25317350471E+04  0.25317350471E+04  0.25500000920E-02 0.  1.
       -2   -1    0    0    0  501  0.00000000000E+00  0.00000000000E+00 -0.10756952635E+04  0.10756952635E+04  0.25500000920E-02 0. -1.
    10030    2    1    2    0    0  0.00000000000E+00  0.00000000000E+00  0.14560397836E+04  0.36074303106E+04  0.33005305019E+04 0.  0.
        3    1    3    3  502    0 -0.11701159339E+04  0.78386459514E+03  0.16680888994E+04  0.21831480914E+04  0.10100000352E+00 0.  1.
       -3    1    3    3    0  502  0.11701159339E+04 -0.78386459514E+03 -0.21204911583E+03  0.14242822192E+04  0.10100000352E+00 0. -1.
</event>
<event>
 5   0  0.2383270E-08  0.3305531E+04  0.7818609E-02  0.8161489E-01
       -1   -1    0    0    0  501  0.00000000000E+00  0.00000000000E+00  0.13694058843E+04  0.13694058843E+04  0.50400001928E-02 0.  1.
        1   -1    0    0  501    0  0.00000000000E+00  0.00000000000E+00 -0.19947585471E+04  0.19947585471E+04  0.50400001928E-02 0. -1.
    10030    2    1    2    0    0  0.00000000000E+00  0.00000000000E+00 -0.62535266283E+03  0.33641644314E+04  0.33055311780E+04 0.  0.
        5    1    3    3  502    0  0.11773724110E+04  0.89941573620E+03 -0.10581007829E+04  0.18206465383E+04  0.46999998093E+01 0.  1.
       -5    1    3    3    0  502 -0.11773724110E+04 -0.89941573620E+03  0.43274812012E+03  0.15435178930E+04  0.46999998093E+01 0. -1.
</event>
<event>
 5   0  0.6603516E-08  0.3299257E+04  0.7818609E-02  0.8163084E-01
        2   -1    0    0  501    0  0.00000000000E+00  0.00000000000E+00  0.21452440395E+04  0.21452440395E+04  0.25500000920E-02 0.  1.
       -2   -1    0    0    0  501  0.00000000000E+00  0.00000000000E+00 -0.12685153138E+04  0.12685153138E+04  0.25500000920E-02 0. -1.
    10030    2    1    2    0    0  0.00000000000E+00  0.00000000000E+00  0.87672872570E+03  0.34137593533E+04  0.32992574413E+04 0.  0.
        1    1    3    3  502    0  0.93834018952E+02  0.30434015742E+03  0.21131324474E+04  0.21369970741E+04  0.50400001928E-02 0.  1.
       -1    1    3    3    0  502 -0.93834018952E+02 -0.30434015742E+03 -0.12364037217E+04  0.12767622792E+04  0.50400001928E-02 0. -1.
</event>
<event>
 5   0  0.2291682E-08  0.3300604E+04  0.7818609E-02  0.8162742E-01
       -1   -1    0    0    0  501  0.00000000000E+00  0.00000000000E+00  0.16689804720E+04  0.16689804720E+04  0.50400001928E-02 0. -1.
        1   -1    0    0  501    0  0.00000000000E+00  0.00000000000E+00 -0.16318324578E+04  0.16318324578E+04  0.50400001928E-02 0.  1.
    10030    2    1    2    0    0  0.00000000000E+00  0.00000000000E+00  0.37148014128E+02  0.33008129298E+04  0.33006038876E+04 0.  0.
        2    1    3    3  502    0 -0.18621730744E+03 -0.97796941920E+03  0.13348623049E+04  0.16652202388E+04  0.25500000920E-02 0. -1.
       -2    1    3    3    0  502  0.18621730744E+03  0.97796941920E+03 -0.12977142908E+04  0.16355926910E+04  0.25500000920E-02 0.  1.
</event>
<event>
 5   0  0.7084130E-08  0.3298703E+04  0.7818609E-02  0.8163226E-01
       -2   -1    0    0    0  501  0.00000000000E+00  0.00000000000E+00  0.15846101831E+04  0.15846101831E+04  0.25500000920E-02 0.  1.
        2   -1    0    0  501    0  0.00000000000E+00  0.00000000000E+00 -0.17167376906E+04  0.17167376906E+04  0.25500000920E-02 0. -1.
    10030    2    1    2    0    0  0.00000000000E+00  0.00000000000E+00 -0.13212750746E+03  0.33013478737E+04  0.32987027913E+04 0.  0.
        3    1    3    3  502    0  0.52325540069E+03 -0.15508293478E+04 -0.26992327316E+03  0.16588328620E+04  0.10100000352E+00 0. -1.
       -3    1    3    3    0  502 -0.52325540069E+03  0.15508293478E+04  0.13779576570E+03  0.16425150117E+04  0.10100000352E+00 0.  1.
</event>
<event>
 5   0  0.6706080E-08  0.3295568E+04  0.7818609E-02  0.8164024E-01
       -2   -1    0    0    0  501  0.00000000000E+00  0.00000000000E+00  0.15312947226E+04  0.15312947227E+04  0.25500000920E-02 0. -1.
        2   -1    0    0  501    0  0.00000000000E+00  0.00000000000E+00 -0.17731343959E+04  0.17731343959E+04  0.25500000920E-02 0.  1.
    10030    2    1    2    0    0  0.00000000000E+00  0.00000000000E+00 -0.24183967330E+03  0.33044291186E+04  0.32955675342E+04 0.  0.
        4    1    3    3  502    0  0.51525632351E+03 -0.13072036569E+04 -0.98400105125E+03  0.17153804713E+04  0.12699999809E+01 0. -1.
       -4    1    3    3    0  502 -0.51525632351E+03  0.13072036569E+04  0.74216137795E+03  0.15890486473E+04  0.12699999809E+01 0.  1.
</event>
<event>
 5   0  0.6821287E-08  0.3299857E+04  0.7818609E-02  0.8162932E-01
        2   -1    0    0  501    0  0.00000000000E+00  0.00000000000E+00  0.13570313314E+04  0.13570313314E+04  0.25500000920E-02 0.  1.
       -2   -1    0    0    0  501  0.00000000000E+00  0.00000000000E+00 -0.20060430491E+04  0.20060430491E+04  0.25500000920E-02 0. -1.
    10030    2    1    2    0    0  0.00000000000E+00  0.00000000000E+00 -0.64901171769E+03  0.33630743805E+04  0.32998565240E+04 0.  0.
        5    1    3    3  502    0 -0.23046739825E+02  0.18417486299E+03 -0.19953619785E+04  0.20039817982E+04  0.46999998093E+01 0. -1.
       -5    1    3    3    0  502  0.23046739825E+02 -0.18417486299E+03  0.13463502608E+04  0.13590925822E+04  0.46999998093E+01 0.  1.
</event>
<event>
 5   0  0.2244093E-08  0.3295050E+04  0.7818609E-02  0.8164156E-01
        1   -1    0    0  501    0  0.00000000000E+00  0.00000000000E+00  0.21401042725E+04  0.21401042726E+04  0.50400001928E-02 0. -1.
       -1   -1    0    0    0  501  0.00000000000E+00  0.00000000000E+00 -0.12683206253E+04  0.12683206253E+04  0.50400001928E-02 0.  1.
    10030    2    1    2    0    0  0.00000000000E+00  0.00000000000E+00  0.87178364728E+03  0.34084248978E+04  0.32950498564E+04 0.  0.
        1    1    3    3  502    0  0.74302294549E+03  0.13524271169E+04  0.10329845063E+04  0.18569327383E+04  0.50400001928E-02 0. -1.
       -1    1    3    3    0  502 -0.74302294549E+03 -0.13524271169E+04 -0.16120085906E+03  0.15514921595E+04  0.50400001928E-02 0.  1.
</event>
<event>
 5   0  0.2279938E-08  0.3300752E+04  0.7818609E-02  0.8162704E-01
       -1   -1    0    0    0  501  0.00000000000E+00  0.00000000000E+00  0.17592619942E+04  0.17592619942E+04  0.50400001928E-02 0.  1.
        1   -1    0    0  501    0  0.00000000000E+00  0.00000000000E+00 -0.15482297000E+04  0.15482297000E+04  0.50400001928E-02 0. -1.
    10030    2    1    2    0    0  0.00000000000E+00  0.00000000000E+00  0.21103229425E+03  0.33074916942E+04  0.33007524412E+04 0.  0.
        3    1    3    3  502    0  0.11771951812E+04  0.45934615609E+03 -0.95823234261E+03  0.15858740866E+04  0.10100000352E+00 0. -1.
       -3    1    3    3    0  502 -0.11771951812E+04 -0.45934615609E+03  0.11692646369E+04  0.17216176077E+04  0.10100000352E+00 0.  1.
</event>
<event>
 5   0  0.2309822E-08  0.3299785E+04  0.7818609E-02  0.8162950E-01
        1   -1    0    0  501    0  0.00000000000E+00  0.00000000000E+00  0.11211555338E+04  0.11211555338E+04  0.50400001928E-02 0. -1.
       -1   -1    0    0    0  501  0.00000000000E+00  0.00000000000E+00 -0.24279813198E+04  0.24279813198E+04  0.50400001928E-02 0.  1.
    10030    2    1    2    0    0  0.00000000000E+00  0.00000000000E+00 -0.13068257859E+04  0.35491368536E+04  0.32997846552E+04 0.  0.
        4    1    3    3  502    0  0.10224528977E+04 -0.73201559623E+03 -0.18022496791E+04  0.21975810065E+04  0.12699999809E+01 0.  1.
       -4    1    3    3    0  502 -0.10224528977E+04  0.73201559623E+03  0.49542389318E+03  0.13515558472E+04  0.12699999809E+01 0. -1.
</event>
<event>
 5   0  0.2383270E-08  0.3301089E+04  0.7818609E-02  0.8162618E-01
        1   -1    0    0  501    0  0.00000000000E+00  0.00000000000E+00  0.30719979122E+04  0.30719979122E+04  0.50400001928E-02 0.  1.
       -1   -1    0    0    0  501  0.00000000000E+00  0.00000000000E+00 -0.88681630185E+03  0.88681630186E+03  0.50400001928E-02 0. -1.
    10030    2    1    2    0    0  0.00000000000E+00  0.00000000000E+00  0.21851816103E+04  0.39588142140E+04  0.33010894128E+04 0.  0.
        5    1    3    3  502    0  0.60963950103E+03 -0.13712918680E+04  0.26853071520E+03  0.15245433885E+04  0.46999998093E+01 0. -1.
       -5    1    3    3    0  502 -0.60963950103E+03  0.13712918680E+04  0.19166508951E+04  0.24342708256E+04  0.46999998093E+01 0.  1.
</event>
<event>
 5   0  0.7084130E-08  0.3298517E+04  0.7818609E-02  0.8163273E-01
       -2   -1    0    0    0  501  0.00000000000E+00  0.00000000000E+00  0.19359214347E+04  0.19359214347E+04  0.25500000920E-02 0. -1.
        2   -1    0    0  501    0  0.00000000000E+00  0.00000000000E+00 -0.14050436112E+04  0.14050436112E+04  0.25500000920E-02 0.  1.
    10030    2    1    2    0    0  0.00000000000E+00  0.00000000000E+00  0.53087782348E+03  0.33409650459E+04  0.32985172691E+04 0.  0.
        3    1    3    3  502    0  0.88683087922E+03 -0.28176268813E+03  0.16446503514E+04  0.18896385923E+04  0.10100000352E+00 0. -1.
       -3    1    3    3    0  502 -0.88683087922E+03  0.28176268813E+03 -0.11137725280E+04  0.14513264536E+04  0.10100000352E+00 0.  1.
</event>
<event>
 5   0  0.2291682E-08  0.3299920E+04  0.7818609E-02  0.8162916E-01
       -1   -1    0    0    0  501  0.00000000000E+00  0.00000000000E+00  0.15102112280E+04  0.15102112280E+04  0.50400001928E-02 0. -1.
        1   -1    0    0  501    0  0.00000000000E+00  0.00000000000E+00 -0.18026400898E+04  0.18026400898E+04  0.50400001928E-02 0.  1.
    10030    2    1    2    0    0  0.00000000000E+00  0.00000000000E+00 -0.29242886178E+03  0.33128513178E+04  0.32999195770E+04 0.  0.
        2    1    3    3  502    0  0.11505351686E+04 -0.76895250056E+02  0.10385472580E+04  0.15518455015E+04  0.25500000920E-02 0. -1.
       -2    1    3    3    0  502 -0.11505351686E+04  0.76895250056E+02 -0.13309761197E+04  0.17610058163E+04  0.25500000920E-02 0.  1.
</event>
<event>
 5   0  0.2309822E-08  0.3298860E+04  0.7818609E-02  0.8163186E-01
        1   -1    0    0  501    0  0.00000000000E+00  0.00000000000E+00  0.24139676324E+04  0.24139676324E+04  0.50400001928E-02 0.  1.
       -1   -1    0    0    0  501  0.00000000000E+00  0.00000000000E+00 -0.11270321316E+04  0.11270321316E+04  0.50400001928E-02 0. -1.
    10030    2    1    2    0    0  0.00000000000E+00  0.00000000000E+00  0.12869355009E+04  0.35409997640E+04  0.32988598553E+04 0.  0.
        4    1    3    3  502    0 -0.10548841635E+04  0.47324034085E+03 -0.61926463701E+03  0.13115743678E+04  0.12699999809E+01 0. -1.
       -4    1    3    3    0  502  0.10548841635E+04 -0.47324034085E+03  0.19062001379E+04  0.22294253962E+04  0.12699999809E+01 0.  1.
</event>
<event>
 5   0  0.2279938E-08  0.3300746E+04  0.7818609E-02  0.8162706E-01
        1   -1    0    0  501    0  0.00000000000E+00  0.00000000000E+00  0.29006697981E+04  0.29006697981E+04  0.50400001928E-02 0. -1.
       -1   -1    0    0    0  501  0.00000000000E+00  0.00000000000E+00 -0.93900062911E+03  0.93900062913E+03  0.50400001928E-02 0.  1.
    10030    2    1    2    0    0  0.00000000000E+00  0.00000000000E+00  0.19616691690E+04  0.38396704272E+04  0.33007458341E+04 0.  0.
        3    1    3    3  502    0  0.13475555101E+04 -0.52309411310E+03  0.54444045223E+02  0.14465467390E+04  0.10100000352E+00 0.  1.
       -3    1    3    3    0  502 -0.13475555101E+04  0.52309411310E+03  0.19072251238E+04  0.23931236882E+04  0.10100000352E+00 0. -1.
</event>
<event>
 5   0  0.2309822E-08  0.3298652E+04  0.7818609E-02  0.8163238E-01
        1   -1    0    0  501    0  0.00000000000E+00  0.00000000000E+00  0.18147407648E+04  0.18147407648E+04  0.50400001928E-02 0. -1.
       -1   -1    0    0    0  501  0.00000000000E+00  0.00000000000E+00 -0.14989891022E+04  0.14989891022E+04  0.50400001928E-02 0.  1.
    10030    2    1    2    0    0  0.00000000000E+00  0.00000000000E+00  0.31575166268E+03  0.33137298670E+04  0.32986522277E+04 0.  0.
        4    1    3    3  502    0 -0.61550918737E+03 -0.14505644335E+04  0.64722278207E+03  0.17034927878E+04  0.12699999809E+01 0. -1.
       -4    1    3    3    0  502  0.61550918737E+03  0.14505644335E+04 -0.33147111939E+03  0.16102370792E+04  0.12699999809E+01 0.  1.
</event>
<event>
 5   0  0.6765252E-08  0.3300095E+04  0.7818609E-02  0.8162871E-01
       -2   -1    0    0    0  501  0.00000000000E+00  0.00000000000E+00  0.19852391656E+04  0.19852391656E+04  0.25500000920E-02 0. -1.
        2   -1    0    0  501    0  0.00000000000E+00  0.00000000000E+00 -0.13714503140E+04  0.13714503140E+04  0.25500000920E-02 0.  1.
    10030    2    1    2    0    0  0.00000000000E+00  0.00000000000E+00  0.61378885154E+03  0.33566894796E+04  0.33000950756E+04 0.  0.
        2    1    3    3  502    0 -0.91144874890E+03  0.12379462962E+04  0.91668119190E+03  0.17898475526E+04  0.25500000920E-02 0. -1.
       -2    1    3    3    0  502  0.91144874890E+03 -0.12379462962E+04 -0.30289234036E+03  0.15668419269E+04  0.25500000920E-02 0.  1.
</event>
<event>
 5   0  0.6821287E-08  0.3300138E+04  0.7818609E-02  0.8162860E-01
        2   -1    0    0  501    0  0.00000000000E+00  0.00000000000E+00  0.17047766411E+04  0.17047766411E+04  0.25500000920E-02 0. -1.
       -2   -1    0    0    0  501  0.00000000000E+00  0.00000000000E+00 -0.15971168152E+04  0.15971168152E+04  0.25500000920E-02 0.  1.
    10030    2    1    2    0    0  0.00000000000E+00  0.00000000000E+00  0.10765982590E+03  0.33018934563E+04  0.33001378394E+04 0.  0.
        5    1    3    3  502    0  0.10702544412E+03 -0.13411479786E+04 -0.90196515307E+03  0.16197825698E+04  0.46999998093E+01 0.  1.
       -5    1    3    3    0  502 -0.10702544412E+03  0.13411479786E+04  0.10096249790E+04  0.16821108865E+04  0.46999998093E+01 0. -1.
</event>
<event>
 5   0  0.7084130E-08  0.3298572E+04  0.7818609E-02  0.8163259E-01
        2   -1    0    0  501    0  0.00000000000E+00  0.00000000000E+00  0.10590102848E+04  0.10590102848E+04  0.25500000920E-02 0. -1.
       -2   -1    0    0    0  501  0.00000000000E+00  0.00000000000E+00 -0.25685727697E+04  0.25685727697E+04  0.25500000920E-02 0.  1.
    10030    2    1    2    0    0  0.00000000000E+00  0.00000000000E+00 -0.15095624850E+04  0.36275830545E+04  0.32985724065E+04 0.  0.
        3    1    3    3  502    0  0.16269287640E+03  0.36189968219E+03 -0.25152998458E+04  0.25464040678E+04  0.10100000352E+00 0.  1.
       -3    1    3    3    0  502 -0.16269287640E+03 -0.36189968219E+03  0.10057373608E+04  0.10811789867E+04  0.10100000352E+00 0. -1.
</event>
<event>
 5   0  0.6821287E-08  0.3280538E+04  0.7818609E-02  0.8167865E-01
        2   -1    0    0  501    0  0.00000000000E+00  0.00000000000E+00  0.18168149510E+04  0.18168149510E+04  0.25500000920E-02 0. -1.
       -2   -1    0    0    0  501  0.00000000000E+00  0.00000000000E+00 -0.14808783351E+04  0.14808783351E+04  0.25500000920E-02 0.  1.
    10030    2    1    2    0    0  0.00000000000E+00  0.00000000000E+00  0.33593661583E+03  0.32976932861E+04  0.32805376997E+04 0.  0.
        5    1    3    3  502    0  0.75258919603E+03  0.11821962232E+04  0.10247644007E+04  0.17361286171E+04  0.46999998093E+01 0. -1.
       -5    1    3    3    0  502 -0.75258919603E+03 -0.11821962232E+04 -0.68882778488E+03  0.15615646690E+04  0.46999998093E+01 0.  1.
</event>
<event>
 5   0  0.2309822E-08  0.3300371E+04  0.7818609E-02  0.8162801E-01
        1   -1    0    0  501    0  0.00000000000E+00  0.00000000000E+00  0.26842434002E+04  0.26842434002E+04  0.50400001928E-02 0. -1.
       -1   -1    0    0    0  501  0.00000000000E+00  0.00000000000E+00 -0.10144806565E+04  0.10144806566E+04  0.50400001928E-02 0.  1.
    10030    2    1    2    0    0  0.00000000000E+00  0.00000000000E+00  0.16697627437E+04  0.36987240568E+04  0.33003714985E+04 0.  0.
        4    1    3    3  502    0 -0.20245880562E+03  0.12675092780E+04 -0.32737731957E+03  0.13246685850E+04  0.12699999809E+01 0.  1.
       -4    1    3    3    0  502  0.20245880562E+03 -0.12675092780E+04  0.19971400633E+04  0.23740554718E+04  0.12699999809E+01 0. -1.
</event>
<event>
 5   0  0.2383270E-08  0.3300080E+04  0.7818609E-02  0.8162875E-01
       -1   -1    0    0    0  501  0.00000000000E+00  0.00000000000E+00  0.15537781248E+04  0.15537781248E+04  0.50400001928E-02 0. -1.
        1   -1    0    0  501    0  0.00000000000E+00  0.00000000000E+00 -0.17522655907E+04  0.17522655907E+04  0.50400001928E-02 0.  1.
    10030    2    1    2    0    0  0.00000000000E+00  0.00000000000E+00 -0.19848746585E+03  0.33060437155E+04  0.33000799649E+04 0.  0.
        5    1    3    3  502    0  0.16014512998E+04  0.81481032307E+02  0.29046366587E+03  0.16296246977E+04  0.46999998093E+01 0. -1.
       -5    1    3    3    0  502 -0.16014512998E+04 -0.81481032307E+02 -0.48895113172E+03  0.16764190178E+04  0.46999998093E+01 0.  1.
</event>
<event>
 5   0  0.2279938E-08  0.3299100E+04  0.7818609E-02  0.8163124E-01
       -1   -1    0    0    0  501  0.00000000000E+00  0.00000000000E+00  0.14056847100E+04  0.14056847100E+04  0.50400001928E-02 0. -1.
        1   -1    0    0  501    0  0.00000000000E+00  0.00000000000E+00 -0.19357226045E+04  0.19357226045E+04  0.50400001928E-02 0.  1.
    10030    2    1    2    0    0  0.00000000000E+00  0.00000000000E+00 -0.53003789454E+03  0.33414073145E+04  0.32991002821E+04 0.  0.
        3    1    3    3  502    0 -0.67003104090E+03 -0.86519639737E+03 -0.15151526125E+04  0.18690087884E+04  0.10100000352E+00 0. -1.
       -3    1    3    3    0  502  0.67003104090E+03  0.86519639737E+03  0.98511471797E+03  0.14723985261E+04  0.10100000352E+00 0.  1.
</event>
<event>
 5   0  0.2383270E-08  0.3300773E+04  0.7818609E-02  0.8162699E-01
        1   -1    0    0  501    0  0.00000000000E+00  0.00000000000E+00  0.16949725882E+04  0.16949725882E+04  0.50400001928E-02 0. -1.
       -1   -1    0    0    0  501  0.00000000000E+00  0.00000000000E+00 -0.16069729464E+04  0.16069729464E+04  0.50400001928E-02 0.  1.
    10030    2    1    2    0    0  0.00000000000E+00  0.00000000000E+00  0.87999641823E+02  0.33019455346E+04  0.33007726939E+04 0.  0.
        5    1    3    3  502    0  0.10494238945E+04 -0.67397381861E+03 -0.10372273178E+04  0.16221571494E+04  0.46999998093E+01 0.  1.
       -5    1    3    3    0  502 -0.10494238945E+04  0.67397381861E+03  0.11252269596E+04  0.16797883852E+04  0.46999998093E+01 0. -1.
</event>
<event>
 5   0  0.6765252E-08  0.3300999E+04  0.7818609E-02  0.8162641E-01
        2   -1    0    0  501    0  0.00000000000E+00  0.00000000000E+00  0.20770810777E+04  0.20770810777E+04  0.25500000920E-02 0. -1.
       -2   -1    0    0    0  501  0.00000000000E+00  0.00000000000E+00 -0.13115272981E+04  0.13115272981E+04  0.25500000920E-02 0.  1.
    10030    2    1    2    0    0  0.00000000000E+00  0.00000000000E+00  0.76555377956E+03  0.33886083758E+04  0.33009989602E+04 0.  0.
        2    1    3    3  502    0 -0.91515569751E+02 -0.89961184539E+03  0.18001728928E+04  0.20145220316E+04  0.25500000920E-02 0. -1.
       -2    1    3    3    0  502  0.91515569751E+02  0.89961184539E+03 -0.10346191132E+04  0.13740863442E+04  0.25500000920E-02 0.  1.
</event>
<event>
 5   0  0.7084130E-08  0.3303867E+04  0.7818609E-02  0.8161912E-01
       -2   -1    0    0    0  501  0.00000000000E+00  0.00000000000E+00  0.88355193160E+03  0.88355193160E+03  0.25500000920E-02 0. -1.
        2   -1    0    0  501    0  0.00000000000E+00  0.00000000000E+00 -0.30885388530E+04  0.30885388530E+04  0.25500000920E-02 0.  1.
    10030    2    1    2    0    0  0.00000000000E+00  0.00000000000E+00 -0.22049869214E+04  0.39720907846E+04  0.33038671096E+04 0.  0.
        3    1    3    3  502    0  0.73627545836E+03  0.43456272495E+03  0.59687523965E+03  0.10426918885E+04  0.10100000352E+00 0. -1.
       -3    1    3    3    0  502 -0.73627545836E+03 -0.43456272495E+03 -0.28018621611E+04  0.29293988961E+04  0.10100000352E+00 0.  1.
</event>
<event>
 5   0  0.7084130E-08  0.3299294E+04  0.7818609E-02  0.8163075E-01
       -2   -1    0    0    0  501  0.00000000000E+00  0.00000000000E+00  0.16973277196E+04  0.16973277196E+04  0.25500000920E-02 0. -1.
        2   -1    0    0  501    0  0.00000000000E+00  0.00000000000E+00 -0.16033058708E+04  0.16033058708E+04  0.25500000920E-02 0.  1.
    10030    2    1    2    0    0  0.00000000000E+00  0.00000000000E+00  0.94021848806E+02  0.33006335904E+04  0.32992941654E+04 0.  0.
        3    1    3    3  502    0  0.36805854429E+02  0.38666643463E+02 -0.16024415362E+04  0.16033304922E+04  0.10100000352E+00 0.  1.
       -3    1    3    3    0  502 -0.36805854429E+02 -0.38666643463E+02  0.16964633850E+04  0.16973030982E+04  0.10100000352E+00 0. -1.
</event>
<event>
 5   0  0.2291682E-08  0.3301046E+04  0.7818609E-02  0.8162629E-01
        1   -1    0    0  501    0  0.00000000000E+00  0.00000000000E+00  0.19929739200E+04  0.19929739200E+04  0.50400001928E-02 0.  1.
       -1   -1    0    0    0  501  0.00000000000E+00  0.00000000000E+00 -0.13669148146E+04  0.13669148146E+04  0.50400001928E-02 0. -1.
    10030    2    1    2    0    0  0.00000000000E+00  0.00000000000E+00  0.62605910539E+03  0.33598887347E+04  0.33010456383E+04 0.  0.
        2    1    3    3  502    0 -0.87526616517E+03 -0.11302283494E+04  0.11527934003E+04  0.18364203237E+04  0.25500000920E-02 0.  1.
       -2    1    3    3    0  502  0.87526616517E+03  0.11302283494E+04 -0.52673429492E+03  0.15234684109E+04  0.25500000920E-02 0. -1.
</event>
<event>
 5   0  0.6706080E-08  0.3300419E+04  0.7818609E-02  0.8162789E-01
        2   -1    0    0  501    0  0.00000000000E+00  0.00000000000E+00  0.15414488152E+04  0.15414488152E+04  0.25500000920E-02 0.  1.
       -2   -1    0    0    0  501  0.00000000000E+00  0.00000000000E+00 -0.17666445931E+04  0.17666445931E+04  0.25500000920E-02 0. -1.
    10030    2    1    2    0    0  0.00000000000E+00  0.00000000000E+00 -0.22519577787E+03  0.33080934083E+04  0.33004194976E+04 0.  0.
        4    1    3    3  502    0 -0.15978330057E+04  0.22835937261E+03 -0.45686744165E+03  0.16774825750E+04  0.12699999809E+01 0.  1.
       -4    1    3    3    0  502  0.15978330057E+04 -0.22835937261E+03  0.23167166377E+03  0.16306108334E+04  0.12699999809E+01 0. -1.
</event>
<event>
 5   0  0.7084130E-08  0.3298000E+04  0.7818609E-02  0.8163404E-01
        2   -1    0    0  501    0  0.00000000000E+00  0.00000000000E+00  0.26446214907E+04  0.26446214907E+04  0.25500000920E-02 0. -1.
       -2   -1    0    0    0  501  0.00000000000E+00  0.00000000000E+00 -0.10282005591E+04  0.10282005591E+04  0.25500000920E-02 0.  1.
    10030    2    1    2    0    0  0.00000000000E+00  0.00000000000E+00  0.16164209316E+04  0.36728220498E+04  0.32980001791E+04 0.  0.
        3    1    3    3  502    0  0.58913939498E+03 -0.58595435477E+03 -0.77801895049E+03  0.11383062989E+04  0.10100000352E+00 0.  1.
       -3    1    3    3    0  502 -0.58913939498E+03  0.58595435477E+03  0.23944398821E+04  0.25345157509E+04  0.10100000352E+00 0. -1.
</event>
<event>
 5   0  0.7084130E-08  0.3300594E+04  0.7818609E-02  0.8162744E-01
        2   -1    0    0  501    0  0.00000000000E+00  0.00000000000E+00  0.90983184127E+03  0.90983184127E+03  0.25500000920E-02 0.  1.
       -2   -1    0    0    0  501  0.00000000000E+00  0.00000000000E+00 -0.29933888515E+04  0.29933888515E+04  0.25500000920E-02 0. -1.
    10030    2    1    2    0    0  0.00000000000E+00  0.00000000000E+00 -0.20835570102E+04  0.39032206928E+04  0.33005941831E+04 0.  0.
        3    1    3    3  502    0 -0.70503931217E+03  0.38442884646E+03  0.66319625772E+03  0.10414870408E+04  0.10100000352E+00 0.  1.
       -3    1    3    3    0  502  0.70503931217E+03 -0.38442884646E+03 -0.27467532679E+04  0.28617336520E+04  0.10100000352E+00 0. -1.
</event>
<event>
 5   0  0.7084130E-08  0.3301221E+04  0.7818609E-02  0.8162585E-01
       -2   -1    0    0    0  501  0.00000000000E+00  0.00000000000E+00  0.97798488938E+03  0.97798488938E+03  0.25500000920E-02 0. -1.
        2   -1    0    0  501    0  0.00000000000E+00  0.00000000000E+00 -0.27858449035E+04  0.27858449035E+04  0.25500000920E-02 0.  1.
    10030    2    1    2    0    0  0.00000000000E+00  0.00000000000E+00 -0.18078600141E+04  0.37638297929E+04  0.33012205135E+04 0.  0.
        3    1    3    3  502    0 -0.39476787521E+03 -0.55911836946E+03  0.80857040498E+03  0.10593588327E+04  0.10100000352E+00 0. -1.
       -3    1    3    3    0  502  0.39476787521E+03  0.55911836946E+03 -0.26164304191E+04  0.27044709602E+04  0.10100000352E+00 0.  1.
</event>
<event>
 5   0  0.6821287E-08  0.3300256E+04  0.7818609E-02  0.8162830E-01
       -2   -1    0    0    0  501  0.00000000000E+00  0.00000000000E+00  0.13236813933E+04  0.13236813933E+04  0.25500000920E-02 0. -1.
        2   -1    0    0  501    0  0.00000000000E+00  0.00000000000E+00 -0.20570825845E+04  0.20570825845E+04  0.25500000920E-02 0.  1.
    10030    2    1    2    0    0  0.00000000000E+00  0.00000000000E+00 -0.73340119117E+03  0.33807639778E+04  0.33002557123E+04 0.  0.
        5    1    3    3  502    0  0.91514128359E+03  0.83462856010E+03 -0.14836249233E+04  0.19326803681E+04  0.46999998093E+01 0.  1.
       -5    1    3    3    0  502 -0.91514128359E+03 -0.83462856010E+03  0.75022373217E+03  0.14480836097E+04  0.46999998093E+01 0. -1.
</event>
<event>
 5   0  0.2279938E-08  0.3292638E+04  0.7818609E-02  0.8164771E-01
       -1   -1    0    0    0  501  0.00000000000E+00  0.00000000000E+00  0.16020243537E+04  0.16020243537E+04  0.50400001928E-02 0.  1.
        1   -1    0    0  501    0  0.00000000000E+00  0.00000000000E+00 -0.16918379360E+04  0.16918379360E+04  0.50400001928E-02 0. -1.
    10030    2    1    2    0    0  0.00000000000E+00  0.00000000000E+00 -0.89813582330E+02  0.32938622897E+04  0.32926375908E+04 0.  0.
        3    1    3    3  502    0 -0.93516054308E+03 -0.13496324094E+04 -0.16467050909E+03  0.16501967363E+04  0.10100000352E+00 0. -1.
       -3    1    3    3    0  502  0.93516054308E+03  0.13496324094E+04  0.74856926760E+02  0.16436655534E+04  0.10100000352E+00 0.  1.
</event>
<event>
 5   0  0.2291682E-08  0.3300252E+04  0.7818609E-02  0.8162831E-01
       -1   -1    0    0    0  501  0.00000000000E+00  0.00000000000E+00  0.13123603621E+04  0.13123603621E+04  0.50400001928E-02 0. -1.
        1   -1    0    0  501    0  0.00000000000E+00  0.00000000000E+00 -0.20748237525E+04  0.20748237525E+04  0.50400001928E-02 0.  1.
    10030    2    1    2    0    0  0.00000000000E+00  0.00000000000E+00 -0.76246339035E+03  0.33871841146E+04  0.33002523850E+04 0.  0.
        2    1    3    3  502    0  0.24045882405E+03 -0.44581459623E+03 -0.19930593196E+04  0.20564183796E+04  0.25500000920E-02 0.  1.
       -2    1    3    3    0  502 -0.24045882405E+03  0.44581459623E+03  0.12305959293E+04  0.13307657350E+04  0.25500000920E-02 0. -1.
</event>
<event>
 5   0  0.2309822E-08  0.3300160E+04  0.7818609E-02  0.8162855E-01
        1   -1    0    0  501    0  0.00000000000E+00  0.00000000000E+00  0.26121723031E+04  0.26121723031E+04  0.50400001928E-02 0.  1.
       -1   -1    0    0    0  501  0.00000000000E+00  0.00000000000E+00 -0.10423373617E+04  0.10423373617E+04  0.50400001928E-02 0. -1.
    10030    2    1    2    0    0  0.00000000000E+00  0.00000000000E+00  0.15698349414E+04  0.36545096648E+04  0.33001604729E+04 0.  0.
        4    1    3    3  502    0 -0.91252417661E+03 -0.12513902259E+04  0.14153283872E+04  0.20980547960E+04  0.12699999809E+01 0.  1.
       -4    1    3    3    0  502  0.91252417661E+03  0.12513902259E+04  0.15450655422E+03  0.15564548688E+04  0.12699999809E+01 0. -1.
</event>
<event>
 5   0  0.7084130E-08  0.3299587E+04  0.7818609E-02  0.8163000E-01
        2   -1    0    0  501    0  0.00000000000E+00  0.00000000000E+00  0.27461994899E+04  0.27461994899E+04  0.25500000920E-02 0.  1.
       -2   -1    0    0    0  501  0.00000000000E+00  0.00000000000E+00 -0.99112224416E+03  0.99112224417E+03  0.25500000920E-02 0. -1.
    10030    2    1    2    0    0  0.00000000000E+00  0.00000000000E+00  0.17550772457E+04  0.37373217341E+04  0.32995874902E+04 0.  0.
        3    1    3    3  502    0  0.86084326633E+03  0.12261514080E+04  0.16600778245E+04  0.22361477585E+04  0.10100000352E+00 0.  1.
       -3    1    3    3    0  502 -0.86084326633E+03 -0.12261514080E+04  0.94999421280E+02  0.15011739755E+04  0.10100000352E+00 0. -1.
</event>
<event>
 5   0  0.7084130E-08  0.3300045E+04  0.7818609E-02  0.8162884E-01
        2   -1    0    0  501    0  0.00000000000E+00  0.00000000000E+00  0.16375654763E+04  0.16375654763E+04  0.25500000920E-02 0. -1.
       -2   -1    0    0    0  501  0.00000000000E+00  0.00000000000E+00 -0.16625741321E+04  0.16625741321E+04  0.25500000920E-02 0.  1.
    10030    2    1    2    0    0  0.00000000000E+00  0.00000000000E+00 -0.25008655795E+02  0.33001396085E+04  0.33000448486E+04 0.  0.
        3    1    3    3  502    0 -0.12752586633E+04  0.78177004685E+03 -0.70903342760E+03  0.16553481435E+04  0.10100000352E+00 0.  1.
       -3    1    3    3    0  502  0.12752586633E+04 -0.78177004685E+03  0.68402477180E+03  0.16447914650E+04  0.10100000352E+00 0. -1.
</event>
<event>
 5   0  0.6603516E-08  0.3283644E+04  0.7818609E-02  0.8167070E-01
        2   -1    0    0  501    0  0.00000000000E+00  0.00000000000E+00  0.24398014648E+04  0.24398014648E+04  0.25500000920E-02 0. -1.
       -2   -1    0    0    0  501  0.00000000000E+00  0.00000000000E+00 -0.11048352562E+04  0.11048352562E+04  0.25500000920E-02 0.  1.
    10030    2    1    2    0    0  0.00000000000E+00  0.00000000000E+00  0.13349662086E+04  0.35446367210E+04  0.32836435108E+04 0.  0.
        1    1    3    3  502    0  0.27572549531E+03 -0.89137274829E+03  0.21257875715E+04  0.23215388699E+04  0.50400001928E-02 0. -1.
       -1    1    3    3    0  502 -0.27572549531E+03  0.89137274829E+03 -0.79082136298E+03  0.12230978511E+04  0.50400001928E-02 0.  1.
</event>
<event>
 5   0  0.2244093E-08  0.3303568E+04  0.7818609E-02  0.8161988E-01
       -1   -1    0    0    0  501  0.00000000000E+00  0.00000000000E+00  0.16430740834E+04  0.16430740834E+04  0.50400001928E-02 0.  1.
        1   -1    0    0  501    0  0.00000000000E+00  0.00000000000E+00 -0.16605402717E+04  0.16605402717E+04  0.50400001928E-02 0. -1.
    10030    2    1    2    0    0  0.00000000000E+00  0.00000000000E+00 -0.17466188311E+02  0.33036143550E+04  0.33035681829E+04 0.  0.
        1    1    3    3  502    0  0.90386153563E+03  0.59512927471E+03  0.12391810396E+04  0.16452094633E+04  0.50400001928E-02 0.  1.
       -1    1    3    3    0  502 -0.90386153563E+03 -0.59512927471E+03 -0.12566472280E+04  0.16584048917E+04  0.50400001928E-02 0. -1.
</event>
<event>
 5   0  0.6765252E-08  0.3299898E+04  0.7818609E-02  0.8162921E-01
        2   -1    0    0  501    0  0.00000000000E+00  0.00000000000E+00  0.17594264388E+04  0.17594264388E+04  0.25500000920E-02 0.  1.
       -2   -1    0    0    0  501  0.00000000000E+00  0.00000000000E+00 -0.15472836079E+04  0.15472836079E+04  0.25500000920E-02 0. -1.
    10030    2    1    2    0    0  0.00000000000E+00  0.00000000000E+00  0.21214283092E+03  0.33067100467E+04  0.32998979912E+04 0.  0.
        2    1    3    3  502    0 -0.38533321344E+02 -0.14414866548E+04  0.90957648845E+03  0.17049040973E+04  0.25500000920E-02 0.  1.
       -2    1    3    3    0  502  0.38533321344E+02  0.14414866548E+04 -0.69743365753E+03  0.16018059494E+04  0.25500000920E-02 0. -1.
</event>
<event>
 5   0  0.7084130E-08  0.3299598E+04  0.7818609E-02  0.8162998E-01
       -2   -1    0    0    0  501  0.00000000000E+00  0.00000000000E+00  0.99806731691E+03  0.99806731691E+03  0.25500000920E-02 0. -1.
        2   -1    0    0  501    0  0.00000000000E+00  0.00000000000E+00 -0.27271067395E+04  0.27271067395E+04  0.25500000920E-02 0.  1.
    10030    2    1    2    0    0  0.00000000000E+00  0.00000000000E+00 -0.17290394226E+04  0.37251740564E+04  0.32995976157E+04 0.  0.
        3    1    3    3  502    0  0.68675474735E+03  0.61987141413E+03  0.67766770144E+03  0.11467807885E+04  0.10100000352E+00 0. -1.
       -3    1    3    3    0  502 -0.68675474735E+03 -0.61987141413E+03 -0.24067071240E+04  0.25783932679E+04  0.10100000352E+00 0.  1.
</event>
<event>
 5   0  0.2244093E-08  0.3296397E+04  0.7818609E-02  0.8163813E-01
       -1   -1    0    0    0  501  0.00000000000E+00  0.00000000000E+00  0.16746872864E+04  0.16746872864E+04  0.50400001928E-02 0.  1.
        1   -1    0    0  501    0  0.00000000000E+00  0.00000000000E+00 -0.16221288980E+04  0.16221288980E+04  0.50400001928E-02 0. -1.
    10030    2    1    2    0    0  0.00000000000E+00  0.00000000000E+00  0.52558388396E+02  0.32968161844E+04  0.32963972105E+04 0.  0.
        1    1    3    3  502    0 -0.11071940201E+04 -0.11800419724E+04  0.33965747470E+03  0.16534040205E+04  0.50400001928E-02 0. -1.
       -1    1    3    3    0  502  0.11071940201E+04  0.11800419724E+04 -0.28709908630E+03  0.16434121638E+04  0.50400001928E-02 0.  1.
</event>
<event>
 5   0  0.6706080E-08  0.3299218E+04  0.7818609E-02  0.8163094E-01
        2   -1    0    0  501    0  0.00000000000E+00  0.00000000000E+00  0.17488628991E+04  0.17488628991E+04  0.25500000920E-02 0. -1.
       -2   -1    0    0    0  501  0.00000000000E+00  0.00000000000E+00 -0.15559879688E+04  0.15559879688E+04  0.25500000920E-02 0.  1.
    10030    2    1    2    0    0  0.00000000000E+00  0.00000000000E+00  0.19287493030E+03  0.33048508679E+04  0.32992178650E+04 0.  0.
        4    1    3    3  502    0  0.14547899401E+04  0.29761609152E+03 -0.62327301355E+03  0.16104222956E+04  0.12699999809E+01 0.  1.
       -4    1    3    3    0  502 -0.14547899401E+04 -0.29761609152E+03  0.81614794386E+03  0.16944285724E+04  0.12699999809E+01 0. -1.
</event>
<event>
 5   0  0.2200750E-08  0.3303113E+04  0.7818609E-02  0.8162104E-01
        3   -1    0    0  501    0  0.00000000000E+00  0.00000000000E+00  0.10202410448E+04  0.10202410498E+04  0.10100000352E+00 0.  1.
       -3   -1    0    0    0  501  0.00000000000E+00  0.00000000000E+00 -0.26735237666E+04  0.26735237685E+04  0.10100000352E+00 0. -1.
    10030    2    1    2    0    0  0.00000000000E+00  0.00000000000E+00 -0.16532827219E+04  0.36937648183E+04  0.33031128916E+04 0.  0.
        2    1    3    3  502    0  0.16463713349E+04  0.19329830051E+02 -0.97126793120E+03  0.19116154448E+04  0.25500000920E-02 0. -1.
       -2    1    3    3    0  502 -0.16463713349E+04 -0.19329830051E+02 -0.68201479066E+03  0.17821493735E+04  0.25500000920E-02 0.  1.
</event>
<event>
 5   0  0.6821287E-08  0.3300193E+04  0.7818609E-02  0.8162846E-01
        2   -1    0    0  501    0  0.00000000000E+00  0.00000000000E+00  0.26059736695E+04  0.26059736695E+04  0.25500000920E-02 0. -1.
       -2   -1    0    0    0  501  0.00000000000E+00  0.00000000000E+00 -0.10448372055E+04  0.10448372055E+04  0.25500000920E-02 0.  1.
    10030    2    1    2    0    0  0.00000000000E+00  0.00000000000E+00  0.15611364640E+04  0.36508108750E+04  0.33001928711E+04 0.  0.
        5    1    3    3  502    0  0.15127922776E+04 -0.34484932861E+03  0.14017745181E+04  0.20910417080E+04  0.46999998093E+01 0.  1.
       -5    1    3    3    0  502 -0.15127922776E+04  0.34484932861E+03  0.15936194582E+03  0.15597691671E+04  0.46999998093E+01 0. -1.
</event>
<event>
 5   0  0.6706080E-08  0.3298425E+04  0.7818609E-02  0.8163296E-01
        2   -1    0    0  501    0  0.00000000000E+00  0.00000000000E+00  0.20246428911E+04  0.20246428911E+04  0.25500000920E-02 0. -1.
       -2   -1    0    0    0  501  0.00000000000E+00  0.00000000000E+00 -0.13433982424E+04  0.13433982424E+04  0.25500000920E-02 0.  1.
    10030    2    1    2    0    0  0.00000000000E+00  0.00000000000E+00  0.68124464870E+03  0.33680411334E+04  0.32984248976E+04 0.  0.
        4    1    3    3  502    0  0.57938647480E+03  0.17571828093E+03  0.19070581832E+04  0.20008593475E+04  0.12699999809E+01 0. -1.
       -4    1    3    3    0  502 -0.57938647480E+03 -0.17571828093E+03 -0.12258135345E+04  0.13671817859E+04  0.12699999809E+01 0.  1.
</event>
<event>
 5   0  0.7084130E-08  0.3301615E+04  0.7818609E-02  0.8162485E-01
        2   -1    0    0  501    0  0.00000000000E+00  0.00000000000E+00  0.19844900800E+04  0.19844900800E+04  0.25500000920E-02 0.  1.
       -2   -1    0    0    0  501  0.00000000000E+00  0.00000000000E+00 -0.13732316537E+04  0.13732316537E+04  0.25500000920E-02 0. -1.
    10030    2    1    2    0    0  0.00000000000E+00  0.00000000000E+00  0.61125842631E+03  0.33577217337E+04  0.33016145107E+04 0.  0.
        3    1    3    3  502    0  0.12251132508E+04 -0.39454976251E+03 -0.74566534572E+03  0.14874773310E+04  0.10100000352E+00 0. -1.
       -3    1    3    3    0  502 -0.12251132508E+04  0.39454976251E+03  0.13569237720E+04  0.18702444027E+04  0.10100000352E+00 0.  1.
</event>
<event>
 5   0  0.7084130E-08  0.3301096E+04  0.7818609E-02  0.8162617E-01
        2   -1    0    0  501    0  0.00000000000E+00  0.00000000000E+00  0.17642427597E+04  0.17642427597E+04  0.25500000920E-02 0. -1.
       -2   -1    0    0    0  501  0.00000000000E+00  0.00000000000E+00 -0.15441797856E+04  0.15441797856E+04  0.25500000920E-02 0.  1.
    10030    2    1    2    0    0  0.00000000000E+00  0.00000000000E+00  0.22006297410E+03  0.33084225453E+04  0.33010955796E+04 0.  0.
        3    1    3    3  502    0  0.15214025470E+04  0.49242853148E+03  0.51978662981E+03  0.16814665383E+04  0.10100000352E+00 0. -1.
       -3    1    3    3    0  502 -0.15214025470E+04 -0.49242853148E+03 -0.29972365570E+03  0.16269560070E+04  0.10100000352E+00 0.  1.
</event>
<event>
 5   0  0.6706080E-08  0.3298899E+04  0.7818609E-02  0.8163176E-01
        2   -1    0    0  501    0  0.00000000000E+00  0.00000000000E+00  0.20212747263E+04  0.20212747263E+04  0.25500000920E-02 0.  1.
       -2   -1    0    0    0  501  0.00000000000E+00  0.00000000000E+00 -0.13460236229E+04  0.13460236229E+04  0.25500000920E-02 0. -1.
    10030    2    1    2    0    0  0.00000000000E+00  0.00000000000E+00  0.67525110342E+03  0.33672983492E+04  0.32988989254E+04 0.  0.
        4    1    3    3  502    0 -0.77812348556E+03 -0.73603891634E+03  0.16180070872E+04  0.19404066564E+04  0.12699999809E+01 0.  1.
       -4    1    3    3    0  502  0.77812348556E+03  0.73603891634E+03 -0.94275598375E+03  0.14268916928E+04  0.12699999809E+01 0. -1.
</event>
<event>
 5   0  0.7084130E-08  0.3300463E+04  0.7818609E-02  0.8162778E-01
        2   -1    0    0  501    0  0.00000000000E+00  0.00000000000E+00  0.16688733189E+04  0.16688733189E+04  0.25500000920E-02 0. -1.
       -2   -1    0    0    0  501  0.00000000000E+00  0.00000000000E+00 -0.16317977563E+04  0.16317977563E+04  0.25500000920E-02 0.  1.
    10030    2    1    2    0    0  0.00000000000E+00  0.00000000000E+00  0.37075562534E+02  0.33006710752E+04  0.33004628386E+04 0.  0.
        3    1    3    3  502    0  0.66480681372E+03 -0.55468799585E+03  0.14234811630E+04  0.16661168939E+04  0.10100000352E+00 0. -1.
       -3    1    3    3    0  502 -0.66480681372E+03  0.55468799585E+03 -0.13864056005E+04  0.16345541813E+04  0.10100000352E+00 0.  1.
</event>
<event>
 5   0  0.2383270E-08  0.3298535E+04  0.7818609E-02  0.8163268E-01
        1   -1    0    0  501    0  0.00000000000E+00  0.00000000000E+00  0.25734240855E+04  0.25734240855E+04  0.50400001928E-02 0.  1.
       -1   -1    0    0    0  501  0.00000000000E+00  0.00000000000E+00 -0.10569898873E+04  0.10569898873E+04  0.50400001928E-02 0. -1.
    10030    2    1    2    0    0  0.00000000000E+00  0.00000000000E+00  0.15164341982E+04  0.36304139728E+04  0.32985349682E+04 0.  0.
        5    1    3    3  502    0 -0.67147246793E+03  0.13470479496E+04  0.15003343929E+04  0.21251914818E+04  0.46999998093E+01 0.  1.
       -5    1    3    3    0  502  0.67147246793E+03 -0.13470479496E+04  0.16099805285E+02  0.15052224910E+04  0.46999998093E+01 0. -1.
</event>
<event>
 5   0  0.6603516E-08  0.3302190E+04  0.7818609E-02  0.8162338E-01
       -2   -1    0    0    0  501  0.00000000000E+00  0.00000000000E+00  0.10732484190E+04  0.10732484190E+04  0.25500000920E-02 0. -1.
        2   -1    0    0  501    0  0.00000000000E+00  0.00000000000E+00 -0.25400593798E+04  0.25400593798E+04  0.25500000920E-02 0.  1.
    10030    2    1    2    0    0  0.00000000000E+00  0.00000000000E+00 -0.14668109608E+04  0.36133077988E+04  0.33021900088E+04 0.  0.
        1    1    3    3  502    0  0.69045646660E+03 -0.60253616591E+03  0.76943291470E+03  0.11965813695E+04  0.50400001928E-02 0. -1.
       -1    1    3    3    0  502 -0.69045646660E+03  0.60253616591E+03 -0.22362438755E+04  0.24167264293E+04  0.50400001928E-02 0.  1.
</event>
<event>
 5   0  0.2279938E-08  0.3301178E+04  0.7818609E-02  0.8162596E-01
        1   -1    0    0  501    0  0.00000000000E+00  0.00000000000E+00  0.21160926044E+04  0.21160926044E+04  0.50400001928E-02 0. -1.
       -1   -1    0    0    0  501  0.00000000000E+00  0.00000000000E+00 -0.12874882473E+04  0.12874882474E+04  0.50400001928E-02 0.  1.
    10030    2    1    2    0    0  0.00000000000E+00  0.00000000000E+00  0.82860435704E+03  0.34035808517E+04  0.33011781887E+04 0.  0.
        3    1    3    3  502    0 -0.11957847567E+04 -0.11029395929E+04  0.12622953827E+03  0.16316589217E+04  0.10100000352E+00 0.  1.
       -3    1    3    3    0  502  0.11957847567E+04  0.11029395929E+04  0.70237481877E+03  0.17719219301E+04  0.10100000352E+00 0. -1.
</event>
<event>
 5   0  0.6706080E-08  0.3301322E+04  0.7818609E-02  0.8162559E-01
       -2   -1    0    0    0  501  0.00000000000E+00  0.00000000000E+00  0.16068851375E+04  0.16068851375E+04  0.25500000920E-02 0.  1.
        2   -1    0    0  501    0  0.00000000000E+00  0.00000000000E+00 -0.16956299294E+04  0.16956299294E+04  0.25500000920E-02 0. -1.
    10030    2    1    2    0    0  0.00000000000E+00  0.00000000000E+00 -0.88744791943E+02  0.33025150669E+04  0.33013224818E+04 0.  0.
        4    1    3    3  502    0 -0.81615516225E+03 -0.20027431353E+03 -0.14656114506E+04  0.16894489002E+04  0.12699999809E+01 0. -1.
       -4    1    3    3    0  502  0.81615516225E+03  0.20027431353E+03  0.13768666586E+04  0.16130661667E+04  0.12699999809E+01 0.  1.
</event>
<event>
 5   0  0.6706080E-08  0.3303952E+04  0.7818609E-02  0.8161891E-01
        2   -1    0    0  501    0  0.00000000000E+00  0.00000000000E+00  0.21856295283E+04  0.21856295283E+04  0.25500000920E-02 0. -1.
       -2   -1    0    0    0  501  0.00000000000E+00  0.00000000000E+00 -0.12486218443E+04  0.12486218443E+04  0.25500000920E-02 0.  1.
    10030    2    1    2    0    0  0.00000000000E+00  0.00000000000E+00  0.93700768391E+03  0.34342513726E+04  0.33039520412E+04 0.  0.
        4    1    3    3  502    0 -0.15090853916E+04  0.86989981256E+02  0.11612069471E+04  0.19061241205E+04  0.12699999809E+01 0. -1.
       -4    1    3    3    0  502  0.15090853916E+04 -0.86989981256E+02 -0.22419926320E+03  0.15281272521E+04  0.12699999809E+01 0.  1.
</event>
<event>
 5   0  0.6706080E-08  0.3299640E+04  0.7818609E-02  0.8162987E-01
        2   -1    0    0  501    0  0.00000000000E+00  0.00000000000E+00  0.23294609448E+04  0.23294609448E+04  0.25500000920E-02 0.  1.
       -2   -1    0    0    0  501  0.00000000000E+00  0.00000000000E+00 -0.11684700403E+04  0.11684700403E+04  0.25500000920E-02 0. -1.
    10030    2    1    2    0    0  0.00000000000E+00  0.00000000000E+00  0.11609909044E+04  0.34979309851E+04  0.32996395706E+04 0.  0.
        4    1    3    3  502    0 -0.78629258035E+03 -0.34269692568E+03 -0.91352634391E+03  0.12530878655E+04  0.12699999809E+01 0. -1.
       -4    1    3    3    0  502  0.78629258035E+03  0.34269692568E+03  0.20745172484E+04  0.22448431196E+04  0.12699999809E+01 0.  1.
</event>
<event>
 5   0  0.6603516E-08  0.3300480E+04  0.7818609E-02  0.8162773E-01
       -2   -1    0    0    0  501  0.00000000000E+00  0.00000000000E+00  0.91192058167E+03  0.91192058167E+03  0.25500000920E-02 0.  1.
        2   -1    0    0  501    0  0.00000000000E+00  0.00000000000E+00 -0.29863266250E+04  0.29863266250E+04  0.25500000920E-02 0. -1.
    10030    2    1    2    0    0  0.00000000000E+00  0.00000000000E+00 -0.20744060434E+04  0.38982472067E+04  0.33004803971E+04 0.  0.
        1    1    3    3  502    0 -0.89357817306E+03  0.11568201948E+04 -0.19417997847E+04  0.24304940482E+04  0.50400001928E-02 0. -1.
       -1    1    3    3    0  502  0.89357817306E+03 -0.11568201948E+04 -0.13260625870E+03  0.14677531585E+04  0.50400001928E-02 0.  1.
</event>
<event>
 5   0  0.2309822E-08  0.3299691E+04  0.7818609E-02  0.8162974E-01
        1   -1    0    0  501    0  0.00000000000E+00  0.00000000000E+00  0.15308650041E+04  0.15308650041E+04  0.50400001928E-02 0. -1.
       -1   -1    0    0    0  501  0.00000000000E+00  0.00000000000E+00 -0.17780733914E+04  0.17780733914E+04  0.50400001928E-02 0.  1.
    10030    2    1    2    0    0  0.00000000000E+00  0.00000000000E+00 -0.24720838734E+03  0.33089383955E+04  0.32996910944E+04 0.  0.
        4    1    3    3  502    0 -0.52380883123E+02 -0.13603793616E+04  0.81100176936E+03  0.15846454642E+04  0.12699999809E+01 0. -1.
       -4    1    3    3    0  502  0.52380883123E+02  0.13603793616E+04 -0.10582101567E+04  0.17242929313E+04  0.12699999809E+01 0.  1.
</event>
<event>
 5   0  0.2383270E-08  0.3299150E+04  0.7818609E-02  0.8163112E-01
        1   -1    0    0  501    0  0.00000000000E+00  0.00000000000E+00  0.15412815579E+04  0.15412815579E+04  0.50400001928E-02 0. -1.
       -1   -1    0    0    0  501  0.00000000000E+00  0.00000000000E+00 -0.17654772406E+04  0.17654772406E+04  0.50400001928E-02 0.  1.
    10030    2    1    2    0    0  0.00000000000E+00  0.00000000000E+00 -0.22419568268E+03  0.33067587985E+04  0.32991498977E+04 0.  0.
        5    1    3    3  502    0  0.10402639244E+04  0.11279903191E+04 -0.71893967352E+03  0.16945228050E+04  0.46999998093E+01 0.  1.
       -5    1    3    3    0  502 -0.10402639244E+04 -0.11279903191E+04  0.49474399084E+03  0.16122359935E+04  0.46999998093E+01 0. -1.
</event>
<event>
 5   0  0.6706080E-08  0.3300282E+04  0.7818609E-02  0.8162824E-01
        2   -1    0    0  501    0  0.00000000000E+00  0.00000000000E+00  0.13590874802E+04  0.13590874802E+04  0.25500000920E-02 0.  1.
       -2   -1    0    0    0  501  0.00000000000E+00  0.00000000000E+00 -0.20035249611E+04  0.20035249611E+04  0.25500000920E-02 0. -1.
    10030    2    1    2    0    0  0.00000000000E+00  0.00000000000E+00 -0.64443748092E+03  0.33626124413E+04  0.33002822248E+04 0.  0.
        4    1    3    3  502    0 -0.40563578435E+03  0.68853047698E+03  0.11487756052E+04  0.13993933011E+04  0.12699999809E+01 0.  1.
       -4    1    3    3    0  502  0.40563578435E+03 -0.68853047698E+03 -0.17932130861E+04  0.19632191402E+04  0.12699999809E+01 0. -1.
</event>
<event>
 5   0  0.6603516E-08  0.3298449E+04  0.7818609E-02  0.8163290E-01
        2   -1    0    0  501    0  0.00000000000E+00  0.00000000000E+00  0.23227302226E+04  0.23227302226E+04  0.25500000920E-02 0.  1.
       -2   -1    0    0    0  501  0.00000000000E+00  0.00000000000E+00 -0.11710104572E+04  0.11710104572E+04  0.25500000920E-02 0. -1.
    10030    2    1    2    0    0  0.00000000000E+00  0.00000000000E+00  0.11517197654E+04  0.34937406797E+04  0.32984489566E+04 0.  0.
        1    1    3    3  502    0 -0.10297274292E+04 -0.97761825027E+03  0.14644995480E+04  0.20398124786E+04  0.50400001928E-02 0.  1.
       -1    1    3    3    0  502  0.10297274292E+04  0.97761825027E+03 -0.31277978267E+03  0.14539282011E+04  0.50400001928E-02 0. -1.
</event>
<event>
 5   0  0.6765252E-08  0.3299151E+04  0.7818609E-02  0.8163111E-01
        2   -1    0    0  501    0  0.00000000000E+00  0.00000000000E+00  0.17047445050E+04  0.17047445050E+04  0.25500000920E-02 0.  1.
       -2   -1    0    0    0  501  0.00000000000E+00  0.00000000000E+00 -0.15961919870E+04  0.15961919870E+04  0.25500000920E-02 0. -1.
    10030    2    1    2    0    0  0.00000000000E+00  0.00000000000E+00  0.10855251802E+03  0.33009364920E+04  0.32991511143E+04 0.  0.
        2    1    3    3  502    0 -0.73975289443E+03  0.29826649269E+03 -0.13904242036E+04  0.16029587367E+04  0.25500000920E-02 0. -1.
       -2    1    3    3    0  502  0.73975289443E+03 -0.29826649269E+03  0.14989767217E+04  0.16979777553E+04  0.25500000920E-02 0.  1.
</event>
<event>
 5   0  0.6821287E-08  0.3298336E+04  0.7818609E-02  0.8163319E-01
       -2   -1    0    0    0  501  0.00000000000E+00  0.00000000000E+00  0.10121735150E+04  0.10121735151E+04  0.25500000920E-02 0. -1.
        2   -1    0    0  501    0  0.00000000000E+00  0.00000000000E+00 -0.26870443770E+04  0.26870443770E+04  0.25500000920E-02 0.  1.
    10030    2    1    2    0    0  0.00000000000E+00  0.00000000000E+00 -0.16748708619E+04  0.36992178920E+04  0.32983360363E+04 0.  0.
        5    1    3    3  502    0 -0.36099077583E+03  0.16026432477E+04 -0.99978146026E+03  0.19231133034E+04  0.46999998093E+01 0. -1.
       -5    1    3    3    0  502  0.36099077583E+03 -0.16026432477E+04 -0.67508940169E+03  0.17761045886E+04  0.46999998093E+01 0.  1.
</event>
<event>
 5   0  0.6765252E-08  0.3299525E+04  0.7818609E-02  0.8163016E-01
       -2   -1    0    0    0  501  0.00000000000E+00  0.00000000000E+00  0.14679699799E+04  0.14679699800E+04  0.25500000920E-02 0.  1.
        2   -1    0    0  501    0  0.00000000000E+00  0.00000000000E+00 -0.18540685641E+04  0.18540685641E+04  0.25500000920E-02 0. -1.
    10030    2    1    2    0    0  0.00000000000E+00  0.00000000000E+00 -0.38609858418E+03  0.33220385441E+04  0.32995254161E+04 0.  0.
        2    1    3    3  502    0 -0.10898295397E+04 -0.90681359517E+03  0.65631668191E+03  0.15623030785E+04  0.25500000920E-02 0.  1.
       -2    1    3    3    0  502  0.10898295397E+04  0.90681359517E+03 -0.10424152661E+04  0.17597354656E+04  0.25500000920E-02 0. -1.
</event>
<event>
 5   0  0.2279938E-08  0.3301653E+04  0.7818609E-02  0.8162475E-01
       -1   -1    0    0    0  501  0.00000000000E+00  0.00000000000E+00  0.99067787017E+03  0.99067787018E+03  0.50400001928E-02 0. -1.
        1   -1    0    0  501    0  0.00000000000E+00  0.00000000000E+00 -0.27508726906E+04  0.27508726906E+04  0.50400001928E-02 0.  1.
    10030    2    1    2    0    0  0.00000000000E+00  0.00000000000E+00 -0.17601948204E+04  0.37415505608E+04  0.33016533424E+04 0.  0.
        3    1    3    3  502    0  0.16433203717E+04  0.15350366644E+03 -0.91875167589E+03  0.18889599974E+04  0.10100000352E+00 0.  1.
       -3    1    3    3    0  502 -0.16433203717E+04 -0.15350366644E+03 -0.84144314453E+03  0.18525905634E+04  0.10100000352E+00 0. -1.
</event>
<event>
 5   0  0.6603516E-08  0.3300253E+04  0.7818609E-02  0.8162831E-01
       -2   -1    0    0    0  501  0.00000000000E+00  0.00000000000E+00  0.10948995649E+04  0.10948995649E+04  0.25500000920E-02 0.  1.
        2   -1    0    0  501    0  0.00000000000E+00  0.00000000000E+00 -0.24869106966E+04  0.24869106966E+04  0.25500000920E-02 0. -1.
    10030    2    1    2    0    0  0.00000000000E+00  0.00000000000E+00 -0.13920111317E+04  0.35818102615E+04  0.33002529840E+04 0.  0.
        1    1    3    3  502    0 -0.89556391830E+03 -0.33868510189E+03  0.76259128129E+03  0.12240456660E+04  0.50400001928E-02 0.  1.
       -1    1    3    3    0  502  0.89556391830E+03  0.33868510189E+03 -0.21546024130E+04  0.23577645956E+04  0.50400001928E-02 0. -1.
</event>
<event>
 5   0  0.2291682E-08  0.3298073E+04  0.7818609E-02  0.8163386E-01
        1   -1    0    0  501    0  0.00000000000E+00  0.00000000000E+00  0.21876262125E+04  0.21876262125E+04  0.50400001928E-02 0.  1.
       -1   -1    0    0    0  501  0.00000000000E+00  0.00000000000E+00 -0.12430468715E+04  0.12430468715E+04  0.50400001928E-02 0. -1.
    10030    2    1    2    0    0  0.00000000000E+00  0.00000000000E+00  0.94457934094E+03  0.34306730840E+04  0.32980733282E+04 0.  0.
        2    1    3    3  502    0  0.13615702967E+04  0.67582168682E+03 -0.19272068789E+03  0.15322368905E+04  0.25500000920E-02 0. -1.
       -2    1    3    3    0  502 -0.13615702967E+04 -0.67582168682E+03  0.11373000288E+04  0.18984361935E+04  0.25500000920E-02 0.  1.
</event>
<event>
 5   0  0.2309822E-08  0.3299546E+04  0.7818609E-02  0.8163011E-01
       -1   -1    0    0    0  501  0.00000000000E+00  0.00000000000E+00  0.22286604079E+04  0.22286604079E+04  0.50400001928E-02 0.  1.
        1   -1    0    0  501    0  0.00000000000E+00  0.00000000000E+00 -0.12212495836E+04  0.12212495836E+04  0.50400001928E-02 0. -1.
    10030    2    1    2    0    0  0.00000000000E+00  0.00000000000E+00  0.10074108244E+04  0.34499099915E+04  0.32995457840E+04 0.  0.
        4    1    3    3  502    0  0.57770319167E+03  0.68660756179E+03  0.19511997105E+04  0.21476388999E+04  0.12699999809E+01 0.  1.
       -4    1    3    3    0  502 -0.57770319167E+03 -0.68660756179E+03 -0.94378888610E+03  0.13022710916E+04  0.12699999809E+01 0. -1.
</event>
<event>
 5   0  0.7084130E-08  0.3301710E+04  0.7818609E-02  0.8162460E-01
       -2   -1    0    0    0  501  0.00000000000E+00  0.00000000000E+00  0.18170741473E+04  0.18170741473E+04  0.25500000920E-02 0.  1.
        2   -1    0    0  501    0  0.00000000000E+00  0.00000000000E+00 -0.14998409088E+04  0.14998409088E+04  0.25500000920E-02 0. -1.
    10030    2    1    2    0    0  0.00000000000E+00  0.00000000000E+00  0.31723323847E+03  0.33169150561E+04  0.33017099451E+04 0.  0.
        3    1    3    3  502    0  0.77809967088E+03  0.26336176186E+03  0.15971760862E+04  0.17960428658E+04  0.10100000352E+00 0.  1.
       -3    1    3    3    0  502 -0.77809967088E+03 -0.26336176186E+03 -0.12799428477E+04  0.15208721902E+04  0.10100000352E+00 0. -1.
</event>
<event>
 5   0  0.6821287E-08  0.3299598E+04  0.7818609E-02  0.8162998E-01
       -2   -1    0    0    0  501  0.00000000000E+00  0.00000000000E+00  0.13230943054E+04  0.13230943054E+04  0.25500000920E-02 0. -1.
        2   -1    0    0  501    0  0.00000000000E+00  0.00000000000E+00 -0.20571753683E+04  0.20571753683E+04  0.25500000920E-02 0.  1.
    10030    2    1    2    0    0  0.00000000000E+00  0.00000000000E+00 -0.73408106288E+03  0.33802696737E+04  0.32995981664E+04 0.  0.
        5    1    3    3  502    0  0.76824738758E+02 -0.10558184523E+04 -0.16633470341E+04  0.19716490790E+04  0.46999998093E+01 0.  1.
       -5    1    3    3    0  502 -0.76824738758E+02  0.10558184523E+04  0.92926597124E+03  0.14086205947E+04  0.46999998093E+01 0. -1.
</event>
<event>
 5   0  0.6821287E-08  0.3299791E+04  0.7818609E-02  0.8162948E-01
       -2   -1    0    0    0  501  0.00000000000E+00  0.00000000000E+00  0.17197936909E+04  0.17197936909E+04  0.25500000920E-02 0. -1.
        2   -1    0    0  501    0  0.00000000000E+00  0.00000000000E+00 -0.15828386097E+04  0.15828386097E+04  0.25500000920E-02 0.  1.
    10030    2    1    2    0    0  0.00000000000E+00  0.00000000000E+00  0.13695508115E+03  0.33026323006E+04  0.32997914204E+04 0.  0.
        5    1    3    3  502    0  0.48706034627E+03 -0.15632408507E+04 -0.13463565436E+03  0.16428933585E+04  0.46999998093E+01 0.  1.
       -5    1    3    3    0  502 -0.48706034627E+03  0.15632408507E+04  0.27159073552E+03  0.16597389420E+04  0.46999998093E+01 0. -1.
</event>
<event>
 5   0  0.6603516E-08  0.3299629E+04  0.7818609E-02  0.8162990E-01
        2   -1    0    0  501    0  0.00000000000E+00  0.00000000000E+00  0.17168075115E+04  0.17168075116E+04  0.25500000920E-02 0.  1.
       -2   -1    0    0    0  501  0.00000000000E+00  0.00000000000E+00 -0.15854357171E+04  0.15854357171E+04  0.25500000920E-02 0. -1.
    10030    2    1    2    0    0  0.00000000000E+00  0.00000000000E+00  0.13137179447E+03  0.33022432286E+04  0.32996290386E+04 0.  0.
        1    1    3    3  502    0 -0.37716596154E+03  0.14373878089E+04 -0.65150594134E+03  0.16225898641E+04  0.50400001928E-02 0.  1.
       -1    1    3    3    0  502  0.37716596154E+03 -0.14373878089E+04  0.78287773581E+03  0.16796533645E+04  0.50400001928E-02 0. -1.
</event>
<event>
 5   0  0.2309822E-08  0.3300826E+04  0.7818609E-02  0.8162685E-01
       -1   -1    0    0    0  501  0.00000000000E+00  0.00000000000E+00  0.99197835589E+03  0.99197835590E+03  0.50400001928E-02 0. -1.
        1   -1    0    0  501    0  0.00000000000E+00  0.00000000000E+00 -0.27458902849E+04  0.27458902849E+04  0.50400001928E-02 0.  1.
    10030    2    1    2    0    0  0.00000000000E+00  0.00000000000E+00 -0.17539119290E+04  0.37378686408E+04  0.33008263997E+04 0.  0.
        4    1    3    3  502    0 -0.89871556713E+02 -0.16191943661E+04 -0.52977706371E+03  0.17060283239E+04  0.12699999809E+01 0. -1.
       -4    1    3    3    0  502  0.89871556713E+02  0.16191943661E+04 -0.12241348653E+04  0.20318403169E+04  0.12699999809E+01 0.  1.
</event>
<event>
 5   0  0.2200750E-08  0.3299817E+04  0.7818609E-02  0.8162942E-01
       -3   -1    0    0    0  501  0.00000000000E+00  0.00000000000E+00  0.13129272562E+04  0.13129272600E+04  0.10100000352E+00 0. -1.
        3   -1    0    0  501    0  0.00000000000E+00  0.00000000000E+00 -0.20733809719E+04  0.20733809744E+04  0.10100000352E+00 0.  1.
    10030    2    1    2    0    0  0.00000000000E+00  0.00000000000E+00 -0.76045371576E+03  0.33863082344E+04  0.32998172078E+04 0.  0.
        2    1    3    3  502    0  0.68713859633E+01  0.16473327746E+04 -0.47453733808E+03  0.17143331565E+04  0.25500000920E-02 0.  1.
       -2    1    3    3    0  502 -0.68713859633E+01 -0.16473327746E+04 -0.28591637768E+03  0.16719750779E+04  0.25500000920E-02 0. -1.
</event>
<event>
 5   0  0.6821287E-08  0.3299442E+04  0.7818609E-02  0.8163037E-01
       -2   -1    0    0    0  501  0.00000000000E+00  0.00000000000E+00  0.12860946569E+04  0.12860946569E+04  0.25500000920E-02 0. -1.
        2   -1    0    0  501    0  0.00000000000E+00  0.00000000000E+00 -0.21161574200E+04  0.21161574200E+04  0.25500000920E-02 0.  1.
    10030    2    1    2    0    0  0.00000000000E+00  0.00000000000E+00 -0.83006276311E+03  0.34022520768E+04  0.32994416200E+04 0.  0.
        5    1    3    3  502    0  0.14530608513E+04 -0.76389052208E+03 -0.58334149587E+03  0.17421894151E+04  0.46999998093E+01 0.  1.
       -5    1    3    3    0  502 -0.14530608513E+04  0.76389052208E+03 -0.24672126725E+03  0.16600626617E+04  0.46999998093E+01 0. -1.
</event>
<event>
 5   0  0.6765252E-08  0.3299353E+04  0.7818609E-02  0.8163060E-01
        2   -1    0    0  501    0  0.00000000000E+00  0.00000000000E+00  0.26845772451E+04  0.26845772451E+04  0.25500000920E-02 0. -1.
       -2   -1    0    0    0  501  0.00000000000E+00  0.00000000000E+00 -0.10137285407E+04  0.10137285407E+04  0.25500000920E-02 0.  1.
    10030    2    1    2    0    0  0.00000000000E+00  0.00000000000E+00  0.16708487044E+04  0.36983057858E+04  0.32993530111E+04 0.  0.
        2    1    3    3  502    0 -0.16051361620E+04  0.21950847289E+03  0.48670067541E+03  0.16916038590E+04  0.25500000920E-02 0.  1.
       -2    1    3    3    0  502  0.16051361620E+04 -0.21950847289E+03  0.11841480290E+04  0.20067019268E+04  0.25500000920E-02 0. -1.
</event>
<event>
 5   0  0.7084130E-08  0.3301294E+04  0.7818609E-02  0.8162566E-01
        2   -1    0    0  501    0  0.00000000000E+00  0.00000000000E+00  0.35715151562E+04  0.35715151562E+04  0.25500000920E-02 0.  1.
       -2   -1    0    0    0  501  0.00000000000E+00  0.00000000000E+00 -0.76287953000E+03  0.76287953001E+03  0.25500000920E-02 0. -1.
    10030    2    1    2    0    0  0.00000000000E+00  0.00000000000E+00  0.28086356262E+04  0.43343946862E+04  0.33012941728E+04 0.  0.
        3    1    3    3  502    0 -0.46833319163E+03 -0.42086154920E+03  0.34076458789E+04  0.34653298354E+04  0.10100000352E+00 0.  1.
       -3    1    3    3    0  502  0.46833319163E+03  0.42086154920E+03 -0.59901025266E+03  0.86906485084E+03  0.10100000352E+00 0. -1.
</event>
<event>
 5   0  0.2244093E-08  0.3299553E+04  0.7818609E-02  0.8163009E-01
       -1   -1    0    0    0  501  0.00000000000E+00  0.00000000000E+00  0.19785345610E+04  0.19785345610E+04  0.50400001928E-02 0. -1.
        1   -1    0    0  501    0  0.00000000000E+00  0.00000000000E+00 -0.13756456452E+04  0.13756456452E+04  0.50400001928E-02 0.  1.
    10030    2    1    2    0    0  0.00000000000E+00  0.00000000000E+00  0.60288891576E+03  0.33541802062E+04  0.32995529714E+04 0.  0.
        1    1    3    3  502    0  0.71694511444E+02  0.10261380855E+04 -0.10097405144E+04  0.14414143678E+04  0.50400001928E-02 0.  1.
       -1    1    3    3    0  502 -0.71694511444E+02 -0.10261380855E+04  0.16126294301E+04  0.19127658384E+04  0.50400001928E-02 0. -1.
</event>
<event>
 5   0  0.7084130E-08  0.3299588E+04  0.7818609E-02  0.8163000E-01
        2   -1    0    0  501    0  0.00000000000E+00  0.00000000000E+00  0.18990436625E+04  0.18990436625E+04  0.25500000920E-02 0. -1.
       -2   -1    0    0    0  501  0.00000000000E+00  0.00000000000E+00 -0.14332584569E+04  0.14332584569E+04  0.25500000920E-02 0.  1.
    10030    2    1    2    0    0  0.00000000000E+00  0.00000000000E+00  0.46578520561E+03  0.33323021194E+04  0.32995880890E+04 0.  0.
        3    1    3    3  502    0  0.35223147796E+03 -0.13194770106E+04 -0.70188347250E+03  0.15354891777E+04  0.10100000352E+00 0.  1.
       -3    1    3    3    0  502 -0.35223147796E+03  0.13194770106E+04  0.11676686781E+04  0.17968129417E+04  0.10100000352E+00 0. -1.
</event>
<event>
 5   0  0.6821287E-08  0.3298277E+04  0.7818609E-02  0.8163334E-01
       -2   -1    0    0    0  501  0.00000000000E+00  0.00000000000E+00  0.10679823850E+04  0.10679823850E+04  0.25500000920E-02 0.  1.
        2   -1    0    0  501    0  0.00000000000E+00  0.00000000000E+00 -0.25465375434E+04  0.25465375434E+04  0.25500000920E-02 0. -1.
    10030    2    1    2    0    0  0.00000000000E+00  0.00000000000E+00 -0.14785551584E+04  0.36145199284E+04  0.32982766646E+04 0.  0.
        5    1    3    3  502    0 -0.14023953242E+04  0.80498731569E+03 -0.38431024544E+03  0.16620570624E+04  0.46999998093E+01 0. -1.
       -5    1    3    3    0  502  0.14023953242E+04 -0.80498731569E+03 -0.10942449130E+04  0.19524628661E+04  0.46999998093E+01 0.  1.
</event>
<event>
 5   0  0.2244093E-08  0.3295250E+04  0.7818609E-02  0.8164105E-01
       -1   -1    0    0    0  501  0.00000000000E+00  0.00000000000E+00  0.20405952166E+04  0.20405952166E+04  0.50400001928E-02 0. -1.
        1   -1    0    0  501    0  0.00000000000E+00  0.00000000000E+00 -0.13303311916E+04  0.13303311916E+04  0.50400001928E-02 0.  1.
    10030    2    1    2    0    0  0.00000000000E+00  0.00000000000E+00  0.71026402503E+03  0.33709264082E+04  0.32952495906E+04 0.  0.
        1    1    3    3  502    0  0.20988555159E+03 -0.14744772956E+04  0.10759650396E+04  0.18373448251E+04  0.50400001928E-02 0. -1.
       -1    1    3    3    0  502 -0.20988555159E+03  0.14744772956E+04 -0.36570101454E+03  0.15335815831E+04  0.50400001928E-02 0.  1.
</event>
<event>
 5   0  0.2291682E-08  0.3301493E+04  0.7818609E-02  0.8162516E-01
       -1   -1    0    0    0  501  0.00000000000E+00  0.00000000000E+00  0.98269469656E+03  0.98269469657E+03  0.50400001928E-02 0. -1.
        1   -1    0    0  501    0  0.00000000000E+00  0.00000000000E+00 -0.27729508270E+04  0.27729508270E+04  0.50400001928E-02 0.  1.
    10030    2    1    2    0    0  0.00000000000E+00  0.00000000000E+00 -0.17902561305E+04  0.37556455236E+04  0.33014930390E+04 0.  0.
        2    1    3    3  502    0  0.14639295322E+04  0.66443527584E+02 -0.30687712435E+02  0.14657578767E+04  0.25500000920E-02 0. -1.
       -2    1    3    3    0  502 -0.14639295322E+04 -0.66443527584E+02 -0.17595684180E+04  0.22898876469E+04  0.25500000920E-02 0.  1.
</event>
<event>
 5   0  0.6706080E-08  0.3316544E+04  0.7818609E-02  0.8158698E-01
        2   -1    0    0  501    0  0.00000000000E+00  0.00000000000E+00  0.11759805121E+04  0.11759805121E+04  0.25500000920E-02 0.  1.
       -2   -1    0    0    0  501  0.00000000000E+00  0.00000000000E+00 -0.23383605933E+04  0.23383605933E+04  0.25500000920E-02 0. -1.
    10030    2    1    2    0    0  0.00000000000E+00  0.00000000000E+00 -0.11623800813E+04  0.35143411054E+04  0.33165442786E+04 0.  0.
        4    1    3    3  502    0  0.10242803060E+04 -0.53109555411E+03 -0.18432967830E+04  0.21746165813E+04  0.12699999809E+01 0. -1.
       -4    1    3    3    0  502 -0.10242803060E+04  0.53109555411E+03  0.68091670169E+03  0.13397245241E+04  0.12699999809E+01 0.  1.
</event>
<event>
 5   0  0.6706080E-08  0.3299078E+04  0.7818609E-02  0.8163130E-01
        2   -1    0    0  501    0  0.00000000000E+00  0.00000000000E+00  0.24037516603E+04  0.24037516603E+04  0.25500000920E-02 0.  1.
       -2   -1    0    0    0  501  0.00000000000E+00  0.00000000000E+00 -0.11319718131E+04  0.11319718131E+04  0.25500000920E-02 0. -1.
    10030    2    1    2    0    0  0.00000000000E+00  0.00000000000E+00  0.12717798473E+04  0.35357234734E+04  0.32990781289E+04 0.  0.
        4    1    3    3  502    0  0.15127963326E+04 -0.52749774980E+03  0.21507911709E+03  0.16164984564E+04  0.12699999809E+01 0. -1.
       -4    1    3    3    0  502 -0.15127963326E+04  0.52749774980E+03  0.10567007302E+04  0.19192250170E+04  0.12699999809E+01 0.  1.
</event>
<event>
 5   0  0.6765252E-08  0.3300498E+04  0.7818609E-02  0.8162769E-01
        2   -1    0    0  501    0  0.00000000000E+00  0.00000000000E+00  0.14944793320E+04  0.14944793320E+04  0.25500000920E-02 0. -1.
       -2   -1    0    0    0  501  0.00000000000E+00  0.00000000000E+00 -0.18222544498E+04  0.18222544498E+04  0.25500000920E-02 0.  1.
    10030    2    1    2    0    0  0.00000000000E+00  0.00000000000E+00 -0.32777511780E+03  0.33167337819E+04  0.33004979097E+04 0.  0.
        2    1    3    3  502    0  0.23824835494E+03 -0.14034576776E+04  0.67500386229E+03  0.15754637240E+04  0.25500000920E-02 0. -1.
       -2    1    3    3    0  502 -0.23824835494E+03  0.14034576776E+04 -0.10027789801E+04  0.17412700579E+04  0.25500000920E-02 0.  1.
</event>
<event>
 5   0  0.6603516E-08  0.3301088E+04  0.7818609E-02  0.8162619E-01
       -2   -1    0    0    0  501  0.00000000000E+00  0.00000000000E+00  0.21313112135E+04  0.21313112135E+04  0.25500000920E-02 0.  1.
        2   -1    0    0  501    0  0.00000000000E+00  0.00000000000E+00 -0.12782250117E+04  0.12782250117E+04  0.25500000920E-02 0. -1.
    10030    2    1    2    0    0  0.00000000000E+00  0.00000000000E+00  0.85308620187E+03  0.34095362252E+04  0.33010878818E+04 0.  0.
        1    1    3    3  502    0  0.15113933994E+04 -0.36179748648E+03  0.10007642777E+04  0.18484416595E+04  0.50400001928E-02 0.  1.
       -1    1    3    3    0  502 -0.15113933994E+04  0.36179748648E+03 -0.14767807586E+03  0.15610945657E+04  0.50400001928E-02 0. -1.
</event>
<event>
 5   0  0.6706080E-08  0.3302792E+04  0.7818609E-02  0.8162185E-01
       -2   -1    0    0    0  501  0.00000000000E+00  0.00000000000E+00  0.10575094359E+04  0.10575094359E+04  0.25500000920E-02 0.  1.
        2   -1    0    0  501    0  0.00000000000E+00  0.00000000000E+00 -0.25788030465E+04  0.25788030465E+04  0.25500000920E-02 0. -1.
    10030    2    1    2    0    0  0.00000000000E+00  0.00000000000E+00 -0.15212936106E+04  0.36363124823E+04  0.33027918826E+04 0.  0.
        4    1    3    3  502    0 -0.30942861176E+02 -0.14290835228E+04 -0.16711190063E+04  0.21990628736E+04  0.12699999809E+01 0. -1.
       -4    1    3    3    0  502  0.30942861176E+02  0.14290835228E+04  0.14982539566E+03  0.14372496088E+04  0.12699999809E+01 0.  1.
</event>
<event>
 5   0  0.7084130E-08  0.3297563E+04  0.7818609E-02  0.8163516E-01
        2   -1    0    0  501    0  0.00000000000E+00  0.00000000000E+00  0.19698907175E+04  0.19698907175E+04  0.25500000920E-02 0. -1.
       -2   -1    0    0    0  501  0.00000000000E+00  0.00000000000E+00 -0.13800156566E+04  0.13800156566E+04  0.25500000920E-02 0.  1.
    10030    2    1    2    0    0  0.00000000000E+00  0.00000000000E+00  0.58987506086E+03  0.33499063741E+04  0.32975627557E+04 0.  0.
        3    1    3    3  502    0 -0.28268406045E+03 -0.10433188748E+04 -0.96983731576E+03  0.14522427420E+04  0.10100000352E+00 0.  1.
       -3    1    3    3    0  502  0.28268406045E+03  0.10433188748E+04  0.15597123766E+04  0.18976636321E+04  0.10100000352E+00 0. -1.
</event>
<event>
 5   0  0.2279938E-08  0.3299559E+04  0.7818609E-02  0.8163008E-01
        1   -1    0    0  501    0  0.00000000000E+00  0.00000000000E+00  0.26496104580E+04  0.26496104580E+04  0.50400001928E-02 0.  1.
       -1   -1    0    0    0  501  0.00000000000E+00  0.00000000000E+00 -0.10272351617E+04  0.10272351617E+04  0.50400001928E-02 0. -1.
    10030    2    1    2    0    0  0.00000000000E+00  0.00000000000E+00  0.16223752962E+04  0.36768456197E+04  0.32995593811E+04 0.  0.
        3    1    3    3  502    0 -0.57090976959E+03  0.14721492552E+04  0.27838227020E+03  0.16033271947E+04  0.10100000352E+00 0. -1.
       -3    1    3    3    0  502  0.57090976959E+03 -0.14721492552E+04  0.13439930260E+04  0.20735184250E+04  0.10100000352E+00 0.  1.
</event>
<event>
 5   0  0.2279938E-08  0.3300864E+04  0.7818609E-02  0.8162676E-01
       -1   -1    0    0    0  501  0.00000000000E+00  0.00000000000E+00  0.17662650038E+04  0.17662650038E+04  0.50400001928E-02 0.  1.
        1   -1    0    0  501    0  0.00000000000E+00  0.00000000000E+00 -0.15421950186E+04  0.15421950187E+04  0.50400001928E-02 0. -1.
    10030    2    1    2    0    0  0.00000000000E+00  0.00000000000E+00  0.22406998511E+03  0.33084600224E+04  0.33008635782E+04 0.  0.
        3    1    3    3  502    0  0.10687394704E+04  0.47021762570E+03  0.12811740459E+04  0.17334115544E+04  0.10100000352E+00 0.  1.
       -3    1    3    3    0  502 -0.10687394704E+04 -0.47021762570E+03 -0.10571040608E+04  0.15750484680E+04  0.10100000352E+00 0. -1.
</event>
<event>
 5   0  0.2309822E-08  0.3300449E+04  0.7818609E-02  0.8162781E-01
       -1   -1    0    0    0  501  0.00000000000E+00  0.00000000000E+00  0.15364487683E+04  0.15364487683E+04  0.50400001928E-02 0.  1.
        1   -1    0    0  501    0  0.00000000000E+00  0.00000000000E+00 -0.17724250095E+04  0.17724250095E+04  0.50400001928E-02 0. -1.
    10030    2    1    2    0    0  0.00000000000E+00  0.00000000000E+00 -0.23597624120E+03  0.33088737778E+04  0.33004485893E+04 0.  0.
        4    1    3    3  502    0  0.39378943298E+03  0.15000617368E+04  0.44735143023E+03  0.16141190312E+04  0.12699999809E+01 0.  1.
       -4    1    3    3    0  502 -0.39378943298E+03 -0.15000617368E+04 -0.68332767142E+03  0.16947547466E+04  0.12699999809E+01 0. -1.
</event>
<event>
 5   0  0.2244093E-08  0.3298189E+04  0.7818609E-02  0.8163356E-01
       -1   -1    0    0    0  501  0.00000000000E+00  0.00000000000E+00  0.20233474700E+04  0.20233474700E+04  0.50400001928E-02 0. -1.
        1   -1    0    0  501    0  0.00000000000E+00  0.00000000000E+00 -0.13440658916E+04  0.13440658916E+04  0.50400001928E-02 0.  1.
    10030    2    1    2    0    0  0.00000000000E+00  0.00000000000E+00  0.67928157841E+03  0.33674133617E+04  0.32981887887E+04 0.  0.
        1    1    3    3  502    0 -0.61180554021E+03  0.77686823076E+02  0.19011764651E+04  0.19987028826E+04  0.50400001928E-02 0. -1.
       -1    1    3    3    0  502  0.61180554021E+03 -0.77686823076E+02 -0.12218948867E+04  0.13687104791E+04  0.50400001928E-02 0.  1.
</event>
<event>
 5   0  0.6603516E-08  0.3300076E+04  0.7818609E-02  0.8162876E-01
        2   -1    0    0  501    0  0.00000000000E+00  0.00000000000E+00  0.15420368041E+04  0.15420368041E+04  0.25500000920E-02 0.  1.
       -2   -1    0    0    0  501  0.00000000000E+00  0.00000000000E+00 -0.17656036582E+04  0.17656036582E+04  0.25500000920E-02 0. -1.
    10030    2    1    2    0    0  0.00000000000E+00  0.00000000000E+00 -0.22356685411E+03  0.33076404624E+04  0.33000762552E+04 0.  0.
        1    1    3    3  502    0  0.45074190569E+03 -0.64591003232E+03 -0.15650233015E+04  0.17520462236E+04  0.50400001928E-02 0. -1.
       -1    1    3    3    0  502 -0.45074190569E+03  0.64591003232E+03  0.13414564474E+04  0.15555942388E+04  0.50400001928E-02 0.  1.
</event>
<event>
 5   0  0.6706080E-08  0.3300257E+04  0.7818609E-02  0.8162830E-01
        2   -1    0    0  501    0  0.00000000000E+00  0.00000000000E+00  0.24509260948E+04  0.24509260948E+04  0.25500000920E-02 0.  1.
       -2   -1    0    0    0  501  0.00000000000E+00  0.00000000000E+00 -0.11109773333E+04  0.11109773333E+04  0.25500000920E-02 0. -1.
    10030    2    1    2    0    0  0.00000000000E+00  0.00000000000E+00  0.13399487615E+04  0.35619034281E+04  0.33002565578E+04 0.  0.
        4    1    3    3  502    0  0.16230151843E+04 -0.20366413224E+03  0.90461398314E+03  0.18692205430E+04  0.12699999809E+01 0.  1.
       -4    1    3    3    0  502 -0.16230151843E+04  0.20366413224E+03  0.43533477840E+03  0.16926828850E+04  0.12699999809E+01 0. -1.
</event>
<event>
 5   0  0.6765252E-08  0.3298241E+04  0.7818609E-02  0.8163343E-01
       -2   -1    0    0    0  501  0.00000000000E+00  0.00000000000E+00  0.13263592720E+04  0.13263592720E+04  0.25500000920E-02 0.  1.
        2   -1    0    0  501    0  0.00000000000E+00  0.00000000000E+00 -0.20504233998E+04  0.20504233998E+04  0.25500000920E-02 0. -1.
    10030    2    1    2    0    0  0.00000000000E+00  0.00000000000E+00 -0.72406412789E+03  0.33767826718E+04  0.32982407964E+04 0.  0.
        2    1    3    3  502    0 -0.15482604241E+04 -0.36754953114E+03 -0.80523216831E+03  0.17834241906E+04  0.25500000920E-02 0.  1.
       -2    1    3    3    0  502  0.15482604241E+04  0.36754953114E+03  0.81168040413E+02  0.15933584812E+04  0.25500000920E-02 0. -1.
</event>
<event>
 5   0  0.2383270E-08  0.3300663E+04  0.7818609E-02  0.8162727E-01
        1   -1    0    0  501    0  0.00000000000E+00  0.00000000000E+00  0.16624822681E+04  0.16624822681E+04  0.50400001928E-02 0.  1.
       -1   -1    0    0    0  501  0.00000000000E+00  0.00000000000E+00 -0.16382698749E+04  0.16382698750E+04  0.50400001928E-02 0. -1.
    10030    2    1    2    0    0  0.00000000000E+00  0.00000000000E+00  0.24212393122E+02  0.33007521430E+04  0.33006633378E+04 0.  0.
        5    1    3    3  502    0 -0.14680352491E+04  0.50498733424E+02 -0.74017391366E+03  0.16448577833E+04  0.46999998093E+01 0. -1.
       -5    1    3    3    0  502  0.14680352491E+04 -0.50498733424E+02  0.76438630678E+03  0.16558943598E+04  0.46999998093E+01 0.  1.
</event>
<event>
 5   0  0.2279938E-08  0.3300699E+04  0.7818609E-02  0.8162717E-01
        1   -1    0    0  501    0  0.00000000000E+00  0.00000000000E+00  0.22960107971E+04  0.22960107971E+04  0.50400001928E-02 0.  1.
       -1   -1    0    0    0  501  0.00000000000E+00  0.00000000000E+00 -0.11862548274E+04  0.11862548274E+04  0.50400001928E-02 0. -1.
    10030    2    1    2    0    0  0.00000000000E+00  0.00000000000E+00  0.11097559698E+04  0.34822656245E+04  0.33006992543E+04 0.  0.
        3    1    3    3  502    0 -0.89181520007E+03 -0.41344163406E+01  0.20198978571E+04  0.22080169401E+04  0.10100000352E+00 0.  1.
       -3    1    3    3    0  502  0.89181520007E+03  0.41344163406E+01 -0.91014188734E+03  0.12742486844E+04  0.10100000352E+00 0. -1.
</event>
<event>
 5   0  0.6603516E-08  0.3300061E+04  0.7818609E-02  0.8162880E-01
       -2   -1    0    0    0  501  0.00000000000E+00  0.00000000000E+00  0.13073558367E+04  0.13073558367E+04  0.25500000920E-02 0. -1.
        2   -1    0    0  501    0  0.00000000000E+00  0.00000000000E+00 -0.20825250202E+04  0.20825250202E+04  0.25500000920E-02 0.  1.
    10030    2    1    2    0    0  0.00000000000E+00  0.00000000000E+00 -0.77516918346E+03  0.33898808568E+04  0.33000613571E+04 0.  0.
        1    1    3    3  502    0  0.53730476358E+03 -0.15593437383E+04 -0.43740132584E+03  0.17063320964E+04  0.50400001928E-02 0. -1.
       -1    1    3    3    0  502 -0.53730476358E+03  0.15593437383E+04 -0.33776785762E+03  0.16835487605E+04  0.50400001928E-02 0.  1.
</event>
<event>
 5   0  0.2309822E-08  0.3301012E+04  0.7818609E-02  0.8162638E-01
       -1   -1    0    0    0  501  0.00000000000E+00  0.00000000000E+00  0.29434661535E+04  0.29434661535E+04  0.50400001928E-02 0.  1.
        1   -1    0    0  501    0  0.00000000000E+00  0.00000000000E+00 -0.92549738489E+03  0.92549738490E+03  0.50400001928E-02 0. -1.
    10030    2    1    2    0    0  0.00000000000E+00  0.00000000000E+00  0.20179687687E+04  0.38689635384E+04  0.33010121040E+04 0.  0.
        4    1    3    3  502    0 -0.14267264548E+04  0.26397980977E+03  0.86901405134E+02  0.14535429763E+04  0.12699999809E+01 0. -1.
       -4    1    3    3    0  502  0.14267264548E+04 -0.26397980977E+03  0.19310673635E+04  0.24154205622E+04  0.12699999809E+01 0.  1.
</event>
<event>
 5   0  0.2279938E-08  0.3299026E+04  0.7818609E-02  0.8163143E-01
       -1   -1    0    0    0  501  0.00000000000E+00  0.00000000000E+00  0.17905621206E+04  0.17905621206E+04  0.50400001928E-02 0. -1.
        1   -1    0    0  501    0  0.00000000000E+00  0.00000000000E+00 -0.15195745272E+04  0.15195745272E+04  0.50400001928E-02 0.  1.
    10030    2    1    2    0    0  0.00000000000E+00  0.00000000000E+00  0.27098759344E+03  0.33101366479E+04  0.32990256670E+04 0.  0.
        3    1    3    3  502    0  0.88581421536E+03  0.27066744143E+03 -0.12340078636E+04  0.15429527231E+04  0.10100000352E+00 0.  1.
       -3    1    3    3    0  502 -0.88581421536E+03 -0.27066744143E+03  0.15049954571E+04  0.17671839248E+04  0.10100000352E+00 0. -1.
</event>
<event>
 5   0  0.2244093E-08  0.3301885E+04  0.7818609E-02  0.8162416E-01
        1   -1    0    0  501    0  0.00000000000E+00  0.00000000000E+00  0.13267545349E+04  0.13267545349E+04  0.50400001928E-02 0.  1.
       -1   -1    0    0    0  501  0.00000000000E+00  0.00000000000E+00 -0.20543447767E+04  0.20543447767E+04  0.50400001928E-02 0. -1.
    10030    2    1    2    0    0  0.00000000000E+00  0.00000000000E+00 -0.72759024172E+03  0.33810993116E+04  0.33018850669E+04 0.  0.
        1    1    3    3  502    0 -0.60420409667E+03  0.10514507763E+04  0.78334858039E+03  0.14436919075E+04  0.50400001928E-02 0.  1.
       -1    1    3    3    0  502  0.60420409667E+03 -0.10514507763E+04 -0.15109388221E+04  0.19374074041E+04  0.50400001928E-02 0. -1.
</event>
<event>
 5   0  0.2383270E-08  0.3299958E+04  0.7818609E-02  0.8162906E-01
       -1   -1    0    0    0  501  0.00000000000E+00  0.00000000000E+00  0.15450809038E+04  0.15450809038E+04  0.50400001928E-02 0.  1.
        1   -1    0    0  501    0  0.00000000000E+00  0.00000000000E+00 -0.17619990441E+04  0.17619990442E+04  0.50400001928E-02 0. -1.
    10030    2    1    2    0    0  0.00000000000E+00  0.00000000000E+00 -0.21691814034E+03  0.33070799480E+04  0.32999582274E+04 0.  0.
        5    1    3    3  502    0  0.37540503196E+02  0.93373397975E+03  0.12543066891E+04  0.15641533795E+04  0.46999998093E+01 0.  1.
       -5    1    3    3    0  502 -0.37540503196E+02 -0.93373397975E+03 -0.14712248294E+04  0.17429265685E+04  0.46999998093E+01 0. -1.
</event>
<event>
 5   0  0.2279938E-08  0.3301131E+04  0.7818609E-02  0.8162608E-01
        1   -1    0    0  501    0  0.00000000000E+00  0.00000000000E+00  0.17583061718E+04  0.17583061718E+04  0.50400001928E-02 0. -1.
       -1   -1    0    0    0  501  0.00000000000E+00  0.00000000000E+00 -0.15494263372E+04  0.15494263372E+04  0.50400001928E-02 0.  1.
    10030    2    1    2    0    0  0.00000000000E+00  0.00000000000E+00  0.20887983459E+03  0.33077325090E+04  0.33011306496E+04 0.  0.
        3    1    3    3  502    0 -0.10467111858E+04 -0.93970841701E+03  0.96971172736E+03  0.17085072607E+04  0.10100000352E+00 0. -1.
       -3    1    3    3    0  502  0.10467111858E+04  0.93970841701E+03 -0.76083189276E+03  0.15992252483E+04  0.10100000352E+00 0.  1.
</event>
<event>
 5   0  0.6706080E-08  0.3298748E+04  0.7818609E-02  0.8163214E-01
        2   -1    0    0  501    0  0.00000000000E+00  0.00000000000E+00  0.32381570901E+04  0.32381570901E+04  0.25500000920E-02 0. -1.
       -2   -1    0    0    0  501  0.00000000000E+00  0.00000000000E+00 -0.84011796902E+03  0.84011796903E+03  0.25500000920E-02 0.  1.
    10030    2    1    2    0    0  0.00000000000E+00  0.00000000000E+00  0.23980391210E+04  0.40782750591E+04  0.32987476156E+04 0.  0.
        4    1    3    3  502    0  0.89860959843E+03  0.12703314466E+04  0.18752610241E+04  0.24367697298E+04  0.12699999809E+01 0. -1.
       -4    1    3    3    0  502 -0.89860959843E+03 -0.12703314466E+04  0.52277809693E+03  0.16415053293E+04  0.12699999809E+01 0.  1.
</event>
<event>
 5   0  0.6603516E-08  0.3299013E+04  0.7818609E-02  0.8163147E-01
        2   -1    0    0  501    0  0.00000000000E+00  0.00000000000E+00  0.28430323374E+04  0.28430323374E+04  0.25500000920E-02 0. -1.
       -2   -1    0    0    0  501  0.00000000000E+00  0.00000000000E+00 -0.95703170856E+03  0.95703170857E+03  0.25500000920E-02 0.  1.
    10030    2    1    2    0    0  0.00000000000E+00  0.00000000000E+00  0.18860006288E+04  0.38000640459E+04  0.32990132436E+04 0.  0.
        1    1    3    3  502    0 -0.14357457607E+04  0.24034615751E+03  0.18365347062E+04  0.23434999236E+04  0.50400001928E-02 0. -1.
       -1    1    3    3    0  502  0.14357457607E+04 -0.24034615751E+03  0.49465922609E+02  0.14565641223E+04  0.50400001928E-02 0.  1.
</event>
<event>
 5   0  0.2309822E-08  0.3299576E+04  0.7818609E-02  0.8163003E-01
        1   -1    0    0  501    0  0.00000000000E+00  0.00000000000E+00  0.19071071029E+04  0.19071071029E+04  0.50400001928E-02 0. -1.
       -1   -1    0    0    0  501  0.00000000000E+00  0.00000000000E+00 -0.14271878391E+04  0.14271878391E+04  0.50400001928E-02 0.  1.
    10030    2    1    2    0    0  0.00000000000E+00  0.00000000000E+00  0.47991926380E+03  0.33342949421E+04  0.32995757699E+04 0.  0.
        4    1    3    3  502    0 -0.95169678693E+03 -0.88783141625E+03 -0.78452613786E+03  0.15196888734E+04  0.12699999809E+01 0.  1.
       -4    1    3    3    0  502  0.95169678693E+03  0.88783141625E+03  0.12644454017E+04  0.18146060687E+04  0.12699999809E+01 0. -1.
</event>
<event>
 5   0  0.6821287E-08  0.3308182E+04  0.7818609E-02  0.8160817E-01
        2   -1    0    0  501    0  0.00000000000E+00  0.00000000000E+00  0.17407157611E+04  0.17407157611E+04  0.25500000920E-02 0. -1.
       -2   -1    0    0    0  501  0.00000000000E+00  0.00000000000E+00 -0.15717771320E+04  0.15717771320E+04  0.25500000920E-02 0.  1.
    10030    2    1    2    0    0  0.00000000000E+00  0.00000000000E+00  0.16893862911E+03  0.33124928931E+04  0.33081821151E+04 0.  0.
        5    1    3    3  502    0  0.15964222892E+04 -0.58583507964E+02  0.51397929306E+03  0.16781516489E+04  0.46999998093E+01 0. -1.
       -5    1    3    3    0  502 -0.15964222892E+04  0.58583507964E+02 -0.34504066395E+03  0.16343412443E+04  0.46999998093E+01 0.  1.
</event>
<event>
 5   0  0.2309822E-08  0.3299950E+04  0.7818609E-02  0.8162908E-01
       -1   -1    0    0    0  501  0.00000000000E+00  0.00000000000E+00  0.13929659580E+04  0.13929659580E+04  0.50400001928E-02 0. -1.
        1   -1    0    0  501    0  0.00000000000E+00  0.00000000000E+00 -0.19544030185E+04  0.19544030185E+04  0.50400001928E-02 0.  1.
    10030    2    1    2    0    0  0.00000000000E+00  0.00000000000E+00 -0.56143706055E+03  0.33473689766E+04  0.32999496196E+04 0.  0.
        4    1    3    3  502    0 -0.70529088220E+03 -0.14173812175E+04  0.19072938990E+03  0.15946109423E+04  0.12699999809E+01 0. -1.
       -4    1    3    3    0  502  0.70529088220E+03  0.14173812175E+04 -0.75216645045E+03  0.17527580342E+04  0.12699999809E+01 0.  1.
</event>
<event>
 5   0  0.2244093E-08  0.3300285E+04  0.7818609E-02  0.8162823E-01
       -1   -1    0    0    0  501  0.00000000000E+00  0.00000000000E+00  0.12864032928E+04  0.12864032928E+04  0.50400001928E-02 0.  1.
        1   -1    0    0  501    0  0.00000000000E+00  0.00000000000E+00 -0.21167312323E+04  0.21167312323E+04  0.50400001928E-02 0. -1.
    10030    2    1    2    0    0  0.00000000000E+00  0.00000000000E+00 -0.83032793955E+03  0.34031345251E+04  0.33002848527E+04 0.  0.
        1    1    3    3  502    0 -0.12324413985E+04 -0.49544075950E+03 -0.14247553901E+04  0.19478966268E+04  0.50400001928E-02 0. -1.
       -1    1    3    3    0  502  0.12324413985E+04  0.49544075950E+03  0.59442745051E+03  0.14552378984E+04  0.50400001928E-02 0.  1.
</event>
<event>
 5   0  0.2244093E-08  0.3300630E+04  0.7818609E-02  0.8162735E-01
        1   -1    0    0  501    0  0.00000000000E+00  0.00000000000E+00  0.17288853807E+04  0.17288853807E+04  0.50400001928E-02 0. -1.
       -1   -1    0    0    0  501  0.00000000000E+00  0.00000000000E+00 -0.15753155654E+04  0.15753155654E+04  0.50400001928E-02 0.  1.
    10030    2    1    2    0    0  0.00000000000E+00  0.00000000000E+00  0.15356981534E+03  0.33042009461E+04  0.33006302738E+04 0.  0.
        1    1    3    3  502    0  0.75783564629E+03  0.14690650465E+03  0.15370073524E+04  0.17199674384E+04  0.50400001928E-02 0. -1.
       -1    1    3    3    0  502 -0.75783564629E+03 -0.14690650465E+03 -0.13834375371E+04  0.15842335077E+04  0.50400001928E-02 0.  1.
</event>
<event>
 5   0  0.2279938E-08  0.3296545E+04  0.7818609E-02  0.8163775E-01
        1   -1    0    0  501    0  0.00000000000E+00  0.00000000000E+00  0.19500170264E+04  0.19500170264E+04  0.50400001928E-02 0.  1.
       -1   -1    0    0    0  501  0.00000000000E+00  0.00000000000E+00 -0.13932197405E+04  0.13932197405E+04  0.50400001928E-02 0. -1.
    10030    2    1    2    0    0  0.00000000000E+00  0.00000000000E+00  0.55679728589E+03  0.33432367670E+04  0.32965449887E+04 0.  0.
        3    1    3    3  502    0 -0.51955496602E+03  0.11109236210E+04  0.13952290830E+04  0.18576202138E+04  0.10100000352E+00 0.  1.
       -3    1    3    3    0  502  0.51955496602E+03 -0.11109236210E+04 -0.83843179707E+03  0.14856165532E+04  0.10100000352E+00 0. -1.
</event>
<event>
 5   0  0.6821287E-08  0.3306250E+04  0.7818609E-02  0.8161307E-01
       -2   -1    0    0    0  501  0.00000000000E+00  0.00000000000E+00  0.18761539239E+04  0.18761539239E+04  0.25500000920E-02 0.  1.
        2   -1    0    0  501    0  0.00000000000E+00  0.00000000000E+00 -0.14566085809E+04  0.14566085809E+04  0.25500000920E-02 0. -1.
    10030    2    1    2    0    0  0.00000000000E+00  0.00000000000E+00  0.41954534297E+03  0.33327625048E+04  0.33062497816E+04 0.  0.
        5    1    3    3  502    0 -0.70113265290E+03 -0.95259322139E+03 -0.95438187618E+03  0.15198314703E+04  0.46999998093E+01 0. -1.
       -5    1    3    3    0  502  0.70113265290E+03  0.95259322139E+03  0.13739272192E+04  0.18129310345E+04  0.46999998093E+01 0.  1.
</event>
<event>
 5   0  0.6603516E-08  0.3299922E+04  0.7818609E-02  0.8162915E-01
       -2   -1    0    0    0  501  0.00000000000E+00  0.00000000000E+00  0.10624525632E+04  0.10624525632E+04  0.25500000920E-02 0.  1.
        2   -1    0    0  501    0  0.00000000000E+00  0.00000000000E+00 -0.25623463986E+04  0.25623463986E+04  0.25500000920E-02 0. -1.
    10030    2    1    2    0    0  0.00000000000E+00  0.00000000000E+00 -0.14998938354E+04  0.36247989619E+04  0.32999221198E+04 0.  0.
        1    1    3    3  502    0 -0.13771759162E+04  0.44881844275E+03 -0.16178752358E+04  0.21715367318E+04  0.50400001928E-02 0. -1.
       -1    1    3    3    0  502  0.13771759162E+04 -0.44881844275E+03  0.11798140041E+03  0.14532622301E+04  0.50400001928E-02 0.  1.
</event>
<event>
 5   0  0.2309822E-08  0.3300991E+04  0.7818609E-02  0.8162643E-01
       -1   -1    0    0    0  501  0.00000000000E+00  0.00000000000E+00  0.14444669765E+04  0.14444669765E+04  0.50400001928E-02 0. -1.
        1   -1    0    0  501    0  0.00000000000E+00  0.00000000000E+00 -0.18859103092E+04  0.18859103092E+04  0.50400001928E-02 0.  1.
    10030    2    1    2    0    0  0.00000000000E+00  0.00000000000E+00 -0.44144333276E+03  0.33303772857E+04  0.33009908587E+04 0.  0.
        4    1    3    3  502    0 -0.71720626431E+03  0.89850614943E+03  0.97406550427E+03  0.15068189492E+04  0.12699999809E+01 0. -1.
       -4    1    3    3    0  502  0.71720626431E+03 -0.89850614943E+03 -0.14155088370E+04  0.18235583365E+04  0.12699999809E+01 0.  1.
</event>
<event>
 5   0  0.2279938E-08  0.3300833E+04  0.7818609E-02  0.8162683E-01
        1   -1    0    0  501    0  0.00000000000E+00  0.00000000000E+00  0.17392157548E+04  0.17392157549E+04  0.50400001928E-02 0.  1.
       -1   -1    0    0    0  501  0.00000000000E+00  0.00000000000E+00 -0.15661512772E+04  0.15661512772E+04  0.50400001928E-02 0. -1.
    10030    2    1    2    0    0  0.00000000000E+00  0.00000000000E+00  0.17306447763E+03  0.33053670321E+04  0.33008332135E+04 0.  0.
        3    1    3    3  502    0  0.44092312027E+02 -0.15893814451E+04  0.52963007832E+03  0.16758835103E+04  0.10100000352E+00 0.  1.
       -3    1    3    3    0  502 -0.44092312027E+02  0.15893814451E+04 -0.35656560069E+03  0.16294835218E+04  0.10100000352E+00 0. -1.
</event>
<event>
 5   0  0.6821287E-08  0.3298447E+04  0.7818609E-02  0.8163291E-01
        2   -1    0    0  501    0  0.00000000000E+00  0.00000000000E+00  0.18893085179E+04  0.18893085179E+04  0.25500000920E-02 0. -1.
       -2   -1    0    0    0  501  0.00000000000E+00  0.00000000000E+00 -0.14396474132E+04  0.14396474132E+04  0.25500000920E-02 0.  1.
    10030    2    1    2    0    0  0.00000000000E+00  0.00000000000E+00  0.44966110466E+03  0.33289559311E+04  0.32984469803E+04 0.  0.
        5    1    3    3  502    0 -0.79161967360E+03 -0.33125068201E+03 -0.11965737657E+04  0.14724807601E+04  0.46999998093E+01 0.  1.
       -5    1    3    3    0  502  0.79161967360E+03  0.33125068201E+03  0.16462348704E+04  0.18564751710E+04  0.46999998093E+01 0. -1.
</event>
<event>
 5   0  0.2279938E-08  0.3300504E+04  0.7818609E-02  0.8162767E-01
       -1   -1    0    0    0  501  0.00000000000E+00  0.00000000000E+00  0.15597497330E+04  0.15597497330E+04  0.50400001928E-02 0. -1.
        1   -1    0    0  501    0  0.00000000000E+00  0.00000000000E+00 -0.17460059793E+04  0.17460059793E+04  0.50400001928E-02 0.  1.
    10030    2    1    2    0    0  0.00000000000E+00  0.00000000000E+00 -0.18625624623E+03  0.33057557123E+04  0.33005044221E+04 0.  0.
        3    1    3    3  502    0 -0.42063658581E+03 -0.73959253152E+03  0.13231230833E+04  0.15730819921E+04  0.10100000352E+00 0. -1.
       -3    1    3    3    0  502  0.42063658581E+03  0.73959253152E+03 -0.15093793295E+04  0.17326737202E+04  0.10100000352E+00 0.  1.
</event>
<event>
 5   0  0.2279938E-08  0.3298851E+04  0.7818609E-02  0.8163188E-01
       -1   -1    0    0    0  501  0.00000000000E+00  0.00000000000E+00  0.15012797361E+04  0.15012797361E+04  0.50400001928E-02 0. -1.
        1   -1    0    0  501    0  0.00000000000E+00  0.00000000000E+00 -0.18121905755E+04  0.18121905755E+04  0.50400001928E-02 0.  1.
    10030    2    1    2    0    0  0.00000000000E+00  0.00000000000E+00 -0.31091083940E+03  0.33134703115E+04  0.32988513085E+04 0.  0.
        3    1    3    3  502    0  0.14079974747E+03 -0.15930309581E+04 -0.56101793245E+03  0.16947900557E+04  0.10100000352E+00 0. -1.
       -3    1    3    3    0  502 -0.14079974747E+03  0.15930309581E+04  0.25010709305E+03  0.16186802558E+04  0.10100000352E+00 0.  1.
</event>
<event>
 5   0  0.6706080E-08  0.3303039E+04  0.7818609E-02  0.8162122E-01
       -2   -1    0    0    0  501  0.00000000000E+00  0.00000000000E+00  0.10190362587E+04  0.10190362587E+04  0.25500000920E-02 0. -1.
        2   -1    0    0  501    0  0.00000000000E+00  0.00000000000E+00 -0.26765652669E+04  0.26765652669E+04  0.25500000920E-02 0.  1.
    10030    2    1    2    0    0  0.00000000000E+00  0.00000000000E+00 -0.16575290082E+04  0.36956015256E+04  0.33030392403E+04 0.  0.
        4    1    3    3  502    0  0.12466455929E+03  0.13286045585E+04  0.25990707803E+03  0.13595163211E+04  0.12699999809E+01 0. -1.
       -4    1    3    3    0  502 -0.12466455929E+03 -0.13286045585E+04 -0.19174360862E+04  0.23360852045E+04  0.12699999809E+01 0.  1.
</event>
<event>
 5   0  0.6765252E-08  0.3300607E+04  0.7818609E-02  0.8162741E-01
       -2   -1    0    0    0  501  0.00000000000E+00  0.00000000000E+00  0.14109352895E+04  0.14109352895E+04  0.25500000920E-02 0. -1.
        2   -1    0    0  501    0  0.00000000000E+00  0.00000000000E+00 -0.19302805282E+04  0.19302805282E+04  0.25500000920E-02 0.  1.
    10030    2    1    2    0    0  0.00000000000E+00  0.00000000000E+00 -0.51934523863E+03  0.33412158177E+04  0.33006065600E+04 0.  0.
        2    1    3    3  502    0  0.49697460249E+03 -0.14812368760E+04 -0.79767599680E+03  0.17542330045E+04  0.25500000920E-02 0.  1.
       -2    1    3    3    0  502 -0.49697460249E+03  0.14812368760E+04  0.27833075817E+03  0.15869828132E+04  0.25500000920E-02 0. -1.
</event>
<event>
 5   0  0.2291682E-08  0.3301086E+04  0.7818609E-02  0.8162619E-01
        1   -1    0    0  501    0  0.00000000000E+00  0.00000000000E+00  0.17479765802E+04  0.17479765802E+04  0.50400001928E-02 0.  1.
       -1   -1    0    0    0  501  0.00000000000E+00  0.00000000000E+00 -0.15585406669E+04  0.15585406669E+04  0.50400001928E-02 0. -1.
    10030    2    1    2    0    0  0.00000000000E+00  0.00000000000E+00  0.18943591334E+03  0.33065172471E+04  0.33010862364E+04 0.  0.
        2    1    3    3  502    0 -0.56269262050E+03 -0.13221761890E+04 -0.71872633732E+03  0.16066550370E+04  0.25500000920E-02 0. -1.
       -2    1    3    3    0  502  0.56269262050E+03  0.13221761890E+04  0.90816225066E+03  0.16998622101E+04  0.25500000920E-02 0.  1.
</event>
<event>
 5   0  0.6765252E-08  0.3300979E+04  0.7818609E-02  0.8162646E-01
        2   -1    0    0  501    0  0.00000000000E+00  0.00000000000E+00  0.21269357952E+04  0.21269357952E+04  0.25500000920E-02 0. -1.
       -2   -1    0    0    0  501  0.00000000000E+00  0.00000000000E+00 -0.12807703498E+04  0.12807703498E+04  0.25500000920E-02 0.  1.
    10030    2    1    2    0    0  0.00000000000E+00  0.00000000000E+00  0.84616544539E+03  0.34077061450E+04  0.33009794318E+04 0.  0.
        2    1    3    3  502    0  0.32690365560E+03  0.83063299604E+03  0.18562400934E+04  0.20597195097E+04  0.25500000920E-02 0. -1.
       -2    1    3    3    0  502 -0.32690365560E+03 -0.83063299604E+03 -0.10100746481E+04  0.13479866352E+04  0.25500000920E-02 0.  1.
</event>
<event>
 5   0  0.2291682E-08  0.3292002E+04  0.7818609E-02  0.8164934E-01
        1   -1    0    0  501    0  0.00000000000E+00  0.00000000000E+00  0.86453692026E+03  0.86453692027E+03  0.50400001928E-02 0.  1.
       -1   -1    0    0    0  501  0.00000000000E+00  0.00000000000E+00 -0.31338378198E+04  0.31338378198E+04  0.50400001928E-02 0. -1.
    10030    2    1    2    0    0  0.00000000000E+00  0.00000000000E+00 -0.22693008995E+04  0.39983747400E+04  0.32920015172E+04 0.  0.
        2    1    3    3  502    0  0.81205022291E+03 -0.47982403272E+03  0.50374529400E+03  0.10693063116E+04  0.25500000920E-02 0.  1.
       -2    1    3    3    0  502 -0.81205022291E+03  0.47982403272E+03 -0.27730461935E+04  0.29290684284E+04  0.25500000920E-02 0. -1.
</event>
<event>
 5   0  0.2200750E-08  0.3300046E+04  0.7818609E-02  0.8162884E-01
       -3   -1    0    0    0  501  0.00000000000E+00  0.00000000000E+00  0.27307518809E+04  0.27307518828E+04  0.10100000352E+00 0. -1.
        3   -1    0    0  501    0  0.00000000000E+00  0.00000000000E+00 -0.99700572284E+03  0.99700572796E+03  0.10100000352E+00 0.  1.
    10030    2    1    2    0    0  0.00000000000E+00  0.00000000000E+00  0.17337461581E+04  0.37277576108E+04  0.33000456154E+04 0.  0.
        5    1    3    3  502    0  0.14246158536E+04  0.66244169155E+03  0.29735142279E+03  0.15989994633E+04  0.46999998093E+01 0.  1.
       -5    1    3    3    0  502 -0.14246158536E+04 -0.66244169155E+03  0.14363947353E+04  0.21287581475E+04  0.46999998093E+01 0. -1.
</event>
<event>
 5   0  0.2244093E-08  0.3299860E+04  0.7818609E-02  0.8162931E-01
       -1   -1    0    0    0  501  0.00000000000E+00  0.00000000000E+00  0.11059340477E+04  0.11059340477E+04  0.50400001928E-02 0.  1.
        1   -1    0    0  501    0  0.00000000000E+00  0.00000000000E+00 -0.24615116836E+04  0.24615116836E+04  0.50400001928E-02 0. -1.
    10030    2    1    2    0    0  0.00000000000E+00  0.00000000000E+00 -0.13555776359E+04  0.35674457313E+04  0.32998603484E+04 0.  0.
        1    1    3    3  502    0  0.15149171069E+04  0.58360764994E+03 -0.35946731406E+03  0.16627653111E+04  0.50400001928E-02 0.  1.
       -1    1    3    3    0  502 -0.15149171069E+04 -0.58360764994E+03 -0.99611032187E+03  0.19046804202E+04  0.50400001928E-02 0. -1.
</event>
<event>
 5   0  0.6765252E-08  0.3300758E+04  0.7818609E-02  0.8162702E-01
       -2   -1    0    0    0  501  0.00000000000E+00  0.00000000000E+00  0.10391552251E+04  0.10391552251E+04  0.25500000920E-02 0.  1.
        2   -1    0    0  501    0  0.00000000000E+00  0.00000000000E+00 -0.26211205371E+04  0.26211205371E+04  0.25500000920E-02 0. -1.
    10030    2    1    2    0    0  0.00000000000E+00  0.00000000000E+00 -0.15819653120E+04  0.36602757622E+04  0.33007581564E+04 0.  0.
        2    1    3    3  502    0  0.10196791370E+04  0.11418972496E+04 -0.10733007769E+03  0.15346643336E+04  0.25500000920E-02 0. -1.
       -2    1    3    3    0  502 -0.10196791370E+04 -0.11418972496E+04 -0.14746352343E+04  0.21256114286E+04  0.25500000920E-02 0.  1.
</event>
<event>
 5   0  0.6706080E-08  0.3300833E+04  0.7818609E-02  0.8162683E-01
       -2   -1    0    0    0  501  0.00000000000E+00  0.00000000000E+00  0.10282218097E+04  0.10282218097E+04  0.25500000920E-02 0. -1.
        2   -1    0    0  501    0  0.00000000000E+00  0.00000000000E+00 -0.26491125682E+04  0.26491125682E+04  0.25500000920E-02 0.  1.
    10030    2    1    2    0    0  0.00000000000E+00  0.00000000000E+00 -0.16208907585E+04  0.36773343779E+04  0.33008334214E+04 0.  0.
        4    1    3    3  502    0 -0.11096051119E+04  0.90531997741E+03 -0.17244152269E+04  0.22415256531E+04  0.12699999809E+01 0. -1.
       -4    1    3    3    0  502  0.11096051119E+04 -0.90531997741E+03  0.10352446834E+03  0.14358087248E+04  0.12699999809E+01 0.  1.
</event>
<event>
 5   0  0.6603516E-08  0.3302207E+04  0.7818609E-02  0.8162334E-01
        2   -1    0    0  501    0  0.00000000000E+00  0.00000000000E+00  0.14337369481E+04  0.14337369481E+04  0.25500000920E-02 0.  1.
       -2   -1    0    0    0  501  0.00000000000E+00  0.00000000000E+00 -0.19014246114E+04  0.19014246114E+04  0.25500000920E-02 0. -1.
    10030    2    1    2    0    0  0.00000000000E+00  0.00000000000E+00 -0.46768766323E+03  0.33351615595E+04  0.33022069708E+04 0.  0.
        1    1    3    3  502    0  0.62005118759E+03 -0.13500031254E+04  0.49388187792E+03  0.15655322491E+04  0.50400001928E-02 0.  1.
       -1    1    3    3    0  502 -0.62005118759E+03  0.13500031254E+04 -0.96156954115E+03  0.17696293104E+04  0.50400001928E-02 0. -1.
</event>
<event>
 5   0  0.6603516E-08  0.3299042E+04  0.7818609E-02  0.8163139E-01
       -2   -1    0    0    0  501  0.00000000000E+00  0.00000000000E+00  0.10820626004E+04  0.10820626004E+04  0.25500000920E-02 0. -1.
        2   -1    0    0  501    0  0.00000000000E+00  0.00000000000E+00 -0.25145671639E+04  0.25145671639E+04  0.25500000920E-02 0.  1.
    10030    2    1    2    0    0  0.00000000000E+00  0.00000000000E+00 -0.14325045635E+04  0.35966297642E+04  0.32990417301E+04 0.  0.
        1    1    3    3  502    0  0.14793288666E+04  0.67428078763E+03 -0.41206648676E+03  0.16771604770E+04  0.50400001928E-02 0. -1.
       -1    1    3    3    0  502 -0.14793288666E+04 -0.67428078763E+03 -0.10204380767E+04  0.19194692872E+04  0.50400001928E-02 0.  1.
</event>
<event>
 5   0  0.2291682E-08  0.3298426E+04  0.7818609E-02  0.8163296E-01
       -1   -1    0    0    0  501  0.00000000000E+00  0.00000000000E+00  0.11665224953E+04  0.11665224954E+04  0.50400001928E-02 0.  1.
        1   -1    0    0  501    0  0.00000000000E+00  0.00000000000E+00 -0.23316342458E+04  0.23316342459E+04  0.50400001928E-02 0. -1.
    10030    2    1    2    0    0  0.00000000000E+00  0.00000000000E+00 -0.11651117505E+04  0.34981567412E+04  0.32984261694E+04 0.  0.
        2    1    3    3  502    0 -0.27179025335E+03 -0.51004443373E+03 -0.22207206094E+04  0.22946928534E+04  0.25500000920E-02 0. -1.
       -2    1    3    3    0  502  0.27179025335E+03  0.51004443373E+03  0.10556088589E+04  0.12034638878E+04  0.25500000920E-02 0.  1.
</event>
<event>
 5   0  0.2200750E-08  0.3299368E+04  0.7818609E-02  0.8163056E-01
        4   -1    0    0  501    0  0.00000000000E+00  0.00000000000E+00  0.16927905645E+04  0.16927910409E+04  0.12699999809E+01 0. -1.
       -4   -1    0    0    0  501  0.00000000000E+00  0.00000000000E+00 -0.16076739424E+04  0.16076744441E+04  0.12699999809E+01 0.  1.
    10030    2    1    2    0    0  0.00000000000E+00  0.00000000000E+00  0.85116622060E+02  0.33004654850E+04  0.32993677543E+04 0.  0.
        5    1    3    3  502    0  0.15609527395E+04  0.50642755966E+03  0.21111504428E+03  0.16545796990E+04  0.46999998093E+01 0. -1.
       -5    1    3    3    0  502 -0.15609527395E+04 -0.50642755966E+03 -0.12599842223E+03  0.16458857860E+04  0.46999998093E+01 0.  1.
</event>
<event>
 5   0  0.6603516E-08  0.3300352E+04  0.7818609E-02  0.8162806E-01
        2   -1    0    0  501    0  0.00000000000E+00  0.00000000000E+00  0.10528421517E+04  0.10528421517E+04  0.25500000920E-02 0.  1.
       -2   -1    0    0    0  501  0.00000000000E+00  0.00000000000E+00 -0.25864099096E+04  0.25864099096E+04  0.25500000920E-02 0. -1.
    10030    2    1    2    0    0  0.00000000000E+00  0.00000000000E+00 -0.15335677579E+04  0.36392520613E+04  0.33003523293E+04 0.  0.
        1    1    3    3  502    0  0.56259792893E+03  0.54695457001E+03 -0.23675426882E+04  0.24941800480E+04  0.50400001928E-02 0. -1.
       -1    1    3    3    0  502 -0.56259792893E+03 -0.54695457001E+03  0.83397493027E+03  0.11450720133E+04  0.50400001928E-02 0.  1.
</event>
<event>
 5   0  0.6821287E-08  0.3299630E+04  0.7818609E-02  0.8162990E-01
       -2   -1    0    0    0  501  0.00000000000E+00  0.00000000000E+00  0.14370620811E+04  0.14370620811E+04  0.25500000920E-02 0. -1.
        2   -1    0    0  501    0  0.00000000000E+00  0.00000000000E+00 -0.18940655389E+04  0.18940655389E+04  0.25500000920E-02 0.  1.
    10030    2    1    2    0    0  0.00000000000E+00  0.00000000000E+00 -0.45700345779E+03  0.33311276200E+04  0.32996301399E+04 0.  0.
        5    1    3    3  502    0 -0.55138963577E+03 -0.12729402541E+04 -0.11300324548E+04  0.17892464502E+04  0.46999998093E+01 0.  1.
       -5    1    3    3    0  502  0.55138963577E+03  0.12729402541E+04  0.67302899697E+03  0.15418811697E+04  0.46999998093E+01 0. -1.
</event>
<event>
 5   0  0.6706080E-08  0.3300223E+04  0.7818609E-02  0.8162839E-01
        2   -1    0    0  501    0  0.00000000000E+00  0.00000000000E+00  0.16842929070E+04  0.16842929070E+04  0.25500000920E-02 0.  1.
       -2   -1    0    0    0  501  0.00000000000E+00  0.00000000000E+00 -0.16166233456E+04  0.16166233456E+04  0.25500000920E-02 0. -1.
    10030    2    1    2    0    0  0.00000000000E+00  0.00000000000E+00  0.67669561428E+02  0.33009162526E+04  0.33002225588E+04 0.  0.
        4    1    3    3  502    0  0.52425734878E+03  0.12648095844E+03  0.15936568640E+04  0.16824348468E+04  0.12699999809E+01 0.  1.
       -4    1    3    3    0  502 -0.52425734878E+03 -0.12648095844E+03 -0.15259873026E+04  0.16184814059E+04  0.12699999809E+01 0. -1.
</event>
<event>
 5   0  0.2244093E-08  0.3308214E+04  0.7818609E-02  0.8160809E-01
        1   -1    0    0  501    0  0.00000000000E+00  0.00000000000E+00  0.19618021360E+04  0.19618021360E+04  0.50400001928E-02 0. -1.
       -1   -1    0    0    0  501  0.00000000000E+00  0.00000000000E+00 -0.13946715834E+04  0.13946715834E+04  0.50400001928E-02 0.  1.
    10030    2    1    2    0    0  0.00000000000E+00  0.00000000000E+00  0.56713055259E+03  0.33564737195E+04  0.33082138331E+04 0.  0.
        1    1    3    3  502    0  0.58901862652E+02 -0.12242414920E+04  0.14105495975E+04  0.18686590987E+04  0.50400001928E-02 0. -1.
       -1    1    3    3    0  502 -0.58901862652E+02  0.12242414920E+04 -0.84341904494E+03  0.14878146207E+04  0.50400001928E-02 0.  1.
</event>
<event>
 5   0  0.7084130E-08  0.3299949E+04  0.7818609E-02  0.8162908E-01
        2   -1    0    0  501    0  0.00000000000E+00  0.00000000000E+00  0.87056984687E+03  0.87056984687E+03  0.25500000920E-02 0. -1.
       -2   -1    0    0    0  501  0.00000000000E+00  0.00000000000E+00 -0.31271661673E+04  0.31271661673E+04  0.25500000920E-02 0.  1.
    10030    2    1    2    0    0  0.00000000000E+00  0.00000000000E+00 -0.22565963204E+04  0.39977360142E+04  0.32999494368E+04 0.  0.
        3    1    3    3  502    0  0.16082294555E+04  0.32514482119E+03 -0.13391587179E+04  0.21178921640E+04  0.10100000352E+00 0.  1.
       -3    1    3    3    0  502 -0.16082294555E+04 -0.32514482119E+03 -0.91743760250E+03  0.18798438502E+04  0.10100000352E+00 0. -1.
</event>
<event>
 5   0  0.6603516E-08  0.3298074E+04  0.7818609E-02  0.8163386E-01
       -2   -1    0    0    0  501  0.00000000000E+00  0.00000000000E+00  0.10975750930E+04  0.10975750930E+04  0.25500000920E-02 0. -1.
        2   -1    0    0  501    0  0.00000000000E+00  0.00000000000E+00 -0.24775740203E+04  0.24775740203E+04  0.25500000920E-02 0.  1.
    10030    2    1    2    0    0  0.00000000000E+00  0.00000000000E+00 -0.13799989272E+04  0.35751491133E+04  0.32980743083E+04 0.  0.
        1    1    3    3  502    0 -0.71498312101E+03 -0.14856387545E+04 -0.72428170639E+03  0.18008074196E+04  0.50400001928E-02 0. -1.
       -1    1    3    3    0  502  0.71498312101E+03  0.14856387545E+04 -0.65571722086E+03  0.17743416937E+04  0.50400001928E-02 0.  1.
</event>
<event>
 5   0  0.2309822E-08  0.3300263E+04  0.7818609E-02  0.8162828E-01
        1   -1    0    0  501    0  0.00000000000E+00  0.00000000000E+00  0.22894426715E+04  0.22894426715E+04  0.50400001928E-02 0.  1.
       -1   -1    0    0    0  501  0.00000000000E+00  0.00000000000E+00 -0.11893437474E+04  0.11893437474E+04  0.50400001928E-02 0. -1.
    10030    2    1    2    0    0  0.00000000000E+00  0.00000000000E+00  0.11000989241E+04  0.34787864189E+04  0.33002632176E+04 0.  0.
        4    1    3    3  502    0 -0.38968086140E+03  0.15446437590E+04  0.96474068364E+02  0.15959587635E+04  0.12699999809E+01 0. -1.
       -4    1    3    3    0  502  0.38968086140E+03 -0.15446437590E+04  0.10036248558E+04  0.18828276554E+04  0.12699999809E+01 0.  1.
</event>
<event>
 5   0  0.7084130E-08  0.3300047E+04  0.7818609E-02  0.8162883E-01
        2   -1    0    0  501    0  0.00000000000E+00  0.00000000000E+00  0.79460371763E+03  0.79460371763E+03  0.25500000920E-02 0. -1.
       -2   -1    0    0    0  501  0.00000000000E+00  0.00000000000E+00 -0.34263341553E+04  0.34263341553E+04  0.25500000920E-02 0.  1.
    10030    2    1    2    0    0  0.00000000000E+00  0.00000000000E+00 -0.26317304377E+04  0.42209378729E+04  0.33000471861E+04 0.  0.
        3    1    3    3  502    0  0.10660371197E+04  0.12362968519E+04 -0.16231385618E+04  0.23020520949E+04  0.10100000352E+00 0.  1.
       -3    1    3    3    0  502 -0.10660371197E+04 -0.12362968519E+04 -0.10085918758E+04  0.19188857780E+04  0.10100000352E+00 0. -1.
</event>
<event>
 5   0  0.6603516E-08  0.3299567E+04  0.7818609E-02  0.8163006E-01
       -2   -1    0    0    0  501  0.00000000000E+00  0.00000000000E+00  0.10162060893E+04  0.10162060893E+04  0.25500000920E-02 0. -1.
        2   -1    0    0  501    0  0.00000000000E+00  0.00000000000E+00 -0.26783796452E+04  0.26783796452E+04  0.25500000920E-02 0.  1.
    10030    2    1    2    0    0  0.00000000000E+00  0.00000000000E+00 -0.16621735560E+04  0.36945857345E+04  0.32995670655E+04 0.  0.
        1    1    3    3  502    0  0.37581494410E+03 -0.86770931856E+02  0.96501250461E+03  0.10392377981E+04  0.50400001928E-02 0. -1.
       -1    1    3    3    0  502 -0.37581494410E+03  0.86770931856E+02 -0.26271860606E+04  0.26553479365E+04  0.50400001928E-02 0.  1.
</event>
<event>
 5   0  0.2291682E-08  0.3300516E+04  0.7818609E-02  0.8162764E-01
       -1   -1    0    0    0  501  0.00000000000E+00  0.00000000000E+00  0.19201758876E+04  0.19201758876E+04  0.50400001928E-02 0. -1.
        1   -1    0    0  501    0  0.00000000000E+00  0.00000000000E+00 -0.14182826860E+04  0.14182826860E+04  0.50400001928E-02 0.  1.
    10030    2    1    2    0    0  0.00000000000E+00  0.00000000000E+00  0.50189320164E+03  0.33384585736E+04  0.33005164538E+04 0.  0.
        2    1    3    3  502    0 -0.81004155834E+03 -0.14370569447E+04  0.29676888997E+03  0.16761180634E+04  0.25500000920E-02 0. -1.
       -2    1    3    3    0  502  0.81004155834E+03  0.14370569447E+04  0.20512431166E+03  0.16623405102E+04  0.25500000920E-02 0.  1.
</event>
<event>
 5   0  0.6821287E-08  0.3299246E+04  0.7818609E-02  0.8163087E-01
        2   -1    0    0  501    0  0.00000000000E+00  0.00000000000E+00  0.17848260110E+04  0.17848260110E+04  0.25500000920E-02 0.  1.
       -2   -1    0    0    0  501  0.00000000000E+00  0.00000000000E+00 -0.15246614730E+04  0.15246614730E+04  0.25500000920E-02 0. -1.
    10030    2    1    2    0    0  0.00000000000E+00  0.00000000000E+00  0.26016453797E+03  0.33094874841E+04  0.32992456441E+04 0.  0.
        5    1    3    3  502    0 -0.47532148221E+03  0.85887369499E+03 -0.11997930015E+04  0.15501999458E+04  0.46999998093E+01 0. -1.
       -5    1    3    3    0  502  0.47532148221E+03 -0.85887369499E+03  0.14599575395E+04  0.17592875383E+04  0.46999998093E+01 0.  1.
</event>
<event>
 5   0  0.2244093E-08  0.3300164E+04  0.7818609E-02  0.8162854E-01
       -1   -1    0    0    0  501  0.00000000000E+00  0.00000000000E+00  0.12414392670E+04  0.12414392670E+04  0.50400001928E-02 0.  1.
        1   -1    0    0  501    0  0.00000000000E+00  0.00000000000E+00 -0.21932372828E+04  0.21932372828E+04  0.50400001928E-02 0. -1.
    10030    2    1    2    0    0  0.00000000000E+00  0.00000000000E+00 -0.95179801587E+03  0.34346765498E+04  0.33001641685E+04 0.  0.
        1    1    3    3  502    0 -0.13001437627E+04 -0.79924528932E+03 -0.11288492373E+04  0.18982801260E+04  0.50400001928E-02 0. -1.
       -1    1    3    3    0  502  0.13001437627E+04  0.79924528932E+03  0.17705122146E+03  0.15363964238E+04  0.50400001928E-02 0.  1.
</event>
<event>
 5   0  0.6603516E-08  0.3304066E+04  0.7818609E-02  0.8161862E-01
        2   -1    0    0  501    0  0.00000000000E+00  0.00000000000E+00  0.16802898479E+04  0.16802898479E+04  0.25500000920E-02 0.  1.
       -2   -1    0    0    0  501  0.00000000000E+00  0.00000000000E+00 -0.16242515166E+04  0.16242515166E+04  0.25500000920E-02 0. -1.
    10030    2    1    2    0    0  0.00000000000E+00  0.00000000000E+00  0.56038331256E+02  0.33045413645E+04  0.33040661820E+04 0.  0.
        1    1    3    3  502    0  0.13521208798E+04 -0.21703541100E+03  0.95220730312E+03  0.16679430420E+04  0.50400001928E-02 0.  1.
       -1    1    3    3    0  502 -0.13521208798E+04  0.21703541100E+03 -0.89616897186E+03  0.16365983225E+04  0.50400001928E-02 0. -1.
</event>
<event>
 5   0  0.6765252E-08  0.3301850E+04  0.7818609E-02  0.8162425E-01
       -2   -1    0    0    0  501  0.00000000000E+00  0.00000000000E+00  0.13765560428E+04  0.13765560428E+04  0.25500000920E-02 0. -1.
        2   -1    0    0  501    0  0.00000000000E+00  0.00000000000E+00 -0.19799802308E+04  0.19799802308E+04  0.25500000920E-02 0.  1.
    10030    2    1    2    0    0  0.00000000000E+00  0.00000000000E+00 -0.60342418802E+03  0.33565362735E+04  0.33018502396E+04 0.  0.
        2    1    3    3  502    0 -0.94489734586E+03  0.11420082349E+04 -0.10407604965E+04  0.18111311973E+04  0.25500000920E-02 0.  1.
       -2    1    3    3    0  502  0.94489734586E+03 -0.11420082349E+04  0.43733630853E+03  0.15454050762E+04  0.25500000920E-02 0. -1.
</event>
<event>
 5   0  0.2383270E-08  0.3303809E+04  0.7818609E-02  0.8161927E-01
        1   -1    0    0  501    0  0.00000000000E+00  0.00000000000E+00  0.22407638299E+04  0.22407638299E+04  0.50400001928E-02 0.  1.
       -1   -1    0    0    0  501  0.00000000000E+00  0.00000000000E+00 -0.12177942365E+04  0.12177942365E+04  0.50400001928E-02 0. -1.
    10030    2    1    2    0    0  0.00000000000E+00  0.00000000000E+00  0.10229695935E+04  0.34585580664E+04  0.33038094845E+04 0.  0.
        5    1    3    3  502    0  0.47286162277E+03 -0.13363279159E+04 -0.37641574099E+03  0.14666565083E+04  0.46999998093E+01 0. -1.
       -5    1    3    3    0  502 -0.47286162277E+03  0.13363279159E+04  0.13993853344E+04  0.19919015582E+04  0.46999998093E+01 0.  1.
</event>
<event>
 5   0  0.2279938E-08  0.3299962E+04  0.7818609E-02  0.8162905E-01
        1   -1    0    0  501    0  0.00000000000E+00  0.00000000000E+00  0.21826067942E+04  0.21826067942E+04  0.50400001928E-02 0.  1.
       -1   -1    0    0    0  501  0.00000000000E+00  0.00000000000E+00 -0.12473331873E+04  0.12473331873E+04  0.50400001928E-02 0. -1.
    10030    2    1    2    0    0  0.00000000000E+00  0.00000000000E+00  0.93527360685E+03  0.34299399815E+04  0.32999623570E+04 0.  0.
        3    1    3    3  502    0  0.91393257040E+03  0.53230385119E+03  0.17839372907E+04  0.20738978761E+04  0.10100000352E+00 0.  1.
       -3    1    3    3    0  502 -0.91393257040E+03 -0.53230385119E+03 -0.84866368384E+03  0.13560421054E+04  0.10100000352E+00 0. -1.
</event>
<event>
 5   0  0.6603516E-08  0.3299816E+04  0.7818609E-02  0.8162942E-01
        2   -1    0    0  501    0  0.00000000000E+00  0.00000000000E+00  0.26017411480E+04  0.26017411480E+04  0.25500000920E-02 0.  1.
       -2   -1    0    0    0  501  0.00000000000E+00  0.00000000000E+00 -0.10462982367E+04  0.10462982367E+04  0.25500000920E-02 0. -1.
    10030    2    1    2    0    0  0.00000000000E+00  0.00000000000E+00  0.15554429112E+04  0.36480393847E+04  0.32998164649E+04 0.  0.
        1    1    3    3  502    0  0.49175643296E+03 -0.15330069308E+04  0.11767275216E+04  0.19941470105E+04  0.50400001928E-02 0.  1.
       -1    1    3    3    0  502 -0.49175643296E+03  0.15330069308E+04  0.37871538964E+03  0.16538923743E+04  0.50400001928E-02 0. -1.
</event>
<event>
 5   0  0.6821287E-08  0.3299230E+04  0.7818609E-02  0.8163091E-01
       -2   -1    0    0    0  501  0.00000000000E+00  0.00000000000E+00  0.19729562420E+04  0.19729562420E+04  0.25500000920E-02 0.  1.
        2   -1    0    0  501    0  0.00000000000E+00  0.00000000000E+00 -0.13792649144E+04  0.13792649144E+04  0.25500000920E-02 0. -1.
    10030    2    1    2    0    0  0.00000000000E+00  0.00000000000E+00  0.59369132763E+03  0.33522211564E+04  0.32992298024E+04 0.  0.
        5    1    3    3  502    0  0.13002102966E+03  0.13811937109E+03  0.19618310311E+04  0.19709859242E+04  0.46999998093E+01 0.  1.
       -5    1    3    3    0  502 -0.13002102966E+03 -0.13811937109E+03 -0.13681397034E+04  0.13812352323E+04  0.46999998093E+01 0. -1.
</event>
<event>
 5   0  0.2383270E-08  0.3300374E+04  0.7818609E-02  0.8162800E-01
       -1   -1    0    0    0  501  0.00000000000E+00  0.00000000000E+00  0.11232827969E+04  0.11232827969E+04  0.50400001928E-02 0. -1.
        1   -1    0    0  501    0  0.00000000000E+00  0.00000000000E+00 -0.24242492987E+04  0.24242492987E+04  0.50400001928E-02 0.  1.
    10030    2    1    2    0    0  0.00000000000E+00  0.00000000000E+00 -0.13009665018E+04  0.35475320956E+04  0.33003742410E+04 0.  0.
        5    1    3    3  502    0  0.29569732773E+02 -0.13912155647E+04 -0.16038913792E+04  0.21234040508E+04  0.46999998093E+01 0.  1.
       -5    1    3    3    0  502 -0.29569732773E+02  0.13912155647E+04  0.30292487740E+03  0.14241280448E+04  0.46999998093E+01 0. -1.
</event>
<event>
 5   0  0.6603516E-08  0.3309294E+04  0.7818609E-02  0.8160535E-01
        2   -1    0    0  501    0  0.00000000000E+00  0.00000000000E+00  0.20580984932E+04  0.20580984932E+04  0.25500000920E-02 0. -1.
       -2   -1    0    0    0  501  0.00000000000E+00  0.00000000000E+00 -0.13302845651E+04  0.13302845651E+04  0.25500000920E-02 0.  1.
    10030    2    1    2    0    0  0.00000000000E+00  0.00000000000E+00  0.72781392809E+03  0.33883830584E+04  0.33092939785E+04 0.  0.
        1    1    3    3  502    0 -0.80688702962E+02  0.10285091148E+04  0.16884679418E+04  0.19787030238E+04  0.50400001928E-02 0. -1.
       -1    1    3    3    0  502  0.80688702962E+02 -0.10285091148E+04 -0.96065401368E+03  0.14096800346E+04  0.50400001928E-02 0.  1.
</event>
<event>
 5   0  0.2244093E-08  0.3299601E+04  0.7818609E-02  0.8162997E-01
        1   -1    0    0  501    0  0.00000000000E+00  0.00000000000E+00  0.21768038073E+04  0.21768038073E+04  0.50400001928E-02 0.  1.
       -1   -1    0    0    0  501  0.00000000000E+00  0.00000000000E+00 -0.12503842080E+04  0.12503842080E+04  0.50400001928E-02 0. -1.
    10030    2    1    2    0    0  0.00000000000E+00  0.00000000000E+00  0.92641959934E+03  0.34271880153E+04  0.32996006453E+04 0.  0.
        1    1    3    3  502    0 -0.11946834315E+04 -0.10557251005E+04  0.22519542283E+02  0.15944689145E+04  0.50400001928E-02 0. -1.
       -1    1    3    3    0  502  0.11946834315E+04  0.10557251005E+04  0.90390005705E+03  0.18327191008E+04  0.50400001928E-02 0.  1.
</event>
<event>
 5   0  0.7084130E-08  0.3300611E+04  0.7818609E-02  0.8162740E-01
        2   -1    0    0  501    0  0.00000000000E+00  0.00000000000E+00  0.15949235644E+04  0.15949235644E+04  0.25500000920E-02 0. -1.
       -2   -1    0    0    0  501  0.00000000000E+00  0.00000000000E+00 -0.17076103849E+04  0.17076103849E+04  0.25500000920E-02 0.  1.
    10030    2    1    2    0    0  0.00000000000E+00  0.00000000000E+00 -0.11268682045E+03  0.33025339493E+04  0.33006108779E+04 0.  0.
        3    1    3    3  502    0  0.49557743182E+03  0.39676840726E+03 -0.15805450636E+04  0.17032747483E+04  0.10100000352E+00 0.  1.
       -3    1    3    3    0  502 -0.49557743182E+03 -0.39676840726E+03  0.14678582431E+04  0.15992592010E+04  0.10100000352E+00 0. -1.
</event>
<event>
 5   0  0.6706080E-08  0.3300827E+04  0.7818609E-02  0.8162685E-01
        2   -1    0    0  501    0  0.00000000000E+00  0.00000000000E+00  0.27076312404E+04  0.27076312404E+04  0.25500000920E-02 0.  1.
       -2   -1    0    0    0  501  0.00000000000E+00  0.00000000000E+00 -0.10059954892E+04  0.10059954892E+04  0.25500000920E-02 0. -1.
    10030    2    1    2    0    0  0.00000000000E+00  0.00000000000E+00  0.17016357512E+04  0.37136267296E+04  0.33008270565E+04 0.  0.
        4    1    3    3  502    0 -0.63148875675E+03 -0.15247287780E+04  0.86988771034E+03  0.18655514300E+04  0.12699999809E+01 0. -1.
       -4    1    3    3    0  502  0.63148875675E+03  0.15247287780E+04  0.83174804089E+03  0.18480752996E+04  0.12699999809E+01 0.  1.
</event>
<event>
 5   0  0.6765252E-08  0.3299358E+04  0.7818609E-02  0.8163059E-01
       -2   -1    0    0    0  501  0.00000000000E+00  0.00000000000E+00  0.12098628987E+04  0.12098628987E+04  0.25500000920E-02 0.  1.
        2   -1    0    0  501    0  0.00000000000E+00  0.00000000000E+00 -0.22493791465E+04  0.22493791465E+04  0.25500000920E-02 0. -1.
    10030    2    1    2    0    0  0.00000000000E+00  0.00000000000E+00 -0.10395162478E+04  0.34592420453E+04  0.32993577403E+04 0.  0.
        2    1    3    3  502    0 -0.22861437019E+02 -0.15891586715E+03 -0.22411683583E+04  0.22469117714E+04  0.25500000920E-02 0. -1.
       -2    1    3    3    0  502  0.22861437019E+02  0.15891586715E+03  0.12016521105E+04  0.12123302739E+04  0.25500000920E-02 0.  1.
</event>
<event>
 5   0  0.6765252E-08  0.3300876E+04  0.7818609E-02  0.8162673E-01
        2   -1    0    0  501    0  0.00000000000E+00  0.00000000000E+00  0.23600208417E+04  0.23600208417E+04  0.25500000920E-02 0. -1.
       -2   -1    0    0    0  501  0.00000000000E+00  0.00000000000E+00 -0.11542039956E+04  0.11542039956E+04  0.25500000920E-02 0.  1.
    10030    2    1    2    0    0  0.00000000000E+00  0.00000000000E+00  0.12058168461E+04  0.35142248373E+04  0.33008759353E+04 0.  0.
        2    1    3    3  502    0  0.56101080401E+03  0.97207459956E+03 -0.68537940139E+03  0.13150692275E+04  0.25500000920E-02 0.  1.
       -2    1    3    3    0  502 -0.56101080401E+03 -0.97207459956E+03  0.18911962475E+04  0.21991556097E+04  0.25500000920E-02 0. -1.
</event>
<event>
 5   0  0.6603516E-08  0.3297128E+04  0.7818609E-02  0.8163627E-01
       -2   -1    0    0    0  501  0.00000000000E+00  0.00000000000E+00  0.14009624473E+04  0.14009624473E+04  0.25500000920E-02 0. -1.
        2   -1    0    0  501    0  0.00000000000E+00  0.00000000000E+00 -0.19399256625E+04  0.19399256625E+04  0.25500000920E-02 0.  1.
    10030    2    1    2    0    0  0.00000000000E+00  0.00000000000E+00 -0.53896321522E+03  0.33408881098E+04  0.32971278433E+04 0.  0.
        1    1    3    3  502    0  0.91080239244E+03  0.14108675432E+03 -0.16544792942E+04  0.18938765021E+04  0.50400001928E-02 0.  1.
       -1    1    3    3    0  502 -0.91080239244E+03 -0.14108675432E+03  0.11155160790E+04  0.14470116077E+04  0.50400001928E-02 0. -1.
</event>
<event>
 5   0  0.2383270E-08  0.3300307E+04  0.7818609E-02  0.8162817E-01
        1   -1    0    0  501    0  0.00000000000E+00  0.00000000000E+00  0.18417643347E+04  0.18417643347E+04  0.50400001928E-02 0.  1.
       -1   -1    0    0    0  501  0.00000000000E+00  0.00000000000E+00 -0.14784769687E+04  0.14784769687E+04  0.50400001928E-02 0. -1.
    10030    2    1    2    0    0  0.00000000000E+00  0.00000000000E+00  0.36328736598E+03  0.33202413035E+04  0.33003067438E+04 0.  0.
        5    1    3    3  502    0  0.34427448671E+03 -0.76609376535E+03  0.16106314622E+04  0.18164747112E+04  0.46999998093E+01 0.  1.
       -5    1    3    3    0  502 -0.34427448671E+03  0.76609376535E+03 -0.12473440962E+04  0.15037665922E+04  0.46999998093E+01 0. -1.
</event>
<event>
 5   0  0.2244093E-08  0.3301178E+04  0.7818609E-02  0.8162596E-01
        1   -1    0    0  501    0  0.00000000000E+00  0.00000000000E+00  0.17711105432E+04  0.17711105432E+04  0.50400001928E-02 0. -1.
       -1   -1    0    0    0  501  0.00000000000E+00  0.00000000000E+00 -0.15382683718E+04  0.15382683718E+04  0.50400001928E-02 0.  1.
    10030    2    1    2    0    0  0.00000000000E+00  0.00000000000E+00  0.23284217137E+03  0.33093789150E+04  0.33011775666E+04 0.  0.
        1    1    3    3  502    0 -0.68375951983E+03 -0.15013054072E+04  0.61528089000E+02  0.16508272813E+04  0.50400001928E-02 0.  1.
       -1    1    3    3    0  502  0.68375951983E+03  0.15013054072E+04  0.17131408237E+03  0.16585516337E+04  0.50400001928E-02 0. -1.
</event>
<event>
 5   0  0.6603516E-08  0.3300833E+04  0.7818609E-02  0.8162683E-01
       -2   -1    0    0    0  501  0.00000000000E+00  0.00000000000E+00  0.16596597006E+04  0.16596597006E+04  0.25500000920E-02 0. -1.
        2   -1    0    0  501    0  0.00000000000E+00  0.00000000000E+00 -0.16412248203E+04  0.16412248203E+04  0.25500000920E-02 0.  1.
    10030    2    1    2    0    0  0.00000000000E+00  0.00000000000E+00  0.18434880375E+02  0.33008845209E+04  0.33008330426E+04 0.  0.
        1    1    3    3  502    0  0.14654500783E+04 -0.40723805605E+03 -0.63148586955E+03  0.16468640411E+04  0.50400001928E-02 0.  1.
       -1    1    3    3    0  502 -0.14654500783E+04  0.40723805605E+03  0.64992074992E+03  0.16540204798E+04  0.50400001928E-02 0. -1.
</event>
<event>
 5   0  0.2291682E-08  0.3304672E+04  0.7818609E-02  0.8161708E-01
       -1   -1    0    0    0  501  0.00000000000E+00  0.00000000000E+00  0.10520943157E+04  0.10520943158E+04  0.50400001928E-02 0. -1.
        1   -1    0    0  501    0  0.00000000000E+00  0.00000000000E+00 -0.25950287356E+04  0.25950287356E+04  0.50400001928E-02 0.  1.
    10030    2    1    2    0    0  0.00000000000E+00  0.00000000000E+00 -0.15429344199E+04  0.36471230514E+04  0.33046724388E+04 0.  0.
        2    1    3    3  502    0  0.17756535439E+03 -0.15614595186E+04 -0.13347813029E+04  0.20618744893E+04  0.25500000920E-02 0. -1.
       -2    1    3    3    0  502 -0.17756535439E+03  0.15614595186E+04 -0.20815311702E+03  0.15852485620E+04  0.25500000920E-02 0.  1.
</event>
<event>
 5   0  0.2279938E-08  0.3301031E+04  0.7818609E-02  0.8162633E-01
       -1   -1    0    0    0  501  0.00000000000E+00  0.00000000000E+00  0.11958701060E+04  0.11958701060E+04  0.50400001928E-02 0.  1.
        1   -1    0    0  501    0  0.00000000000E+00  0.00000000000E+00 -0.22780079073E+04  0.22780079073E+04  0.50400001928E-02 0. -1.
    10030    2    1    2    0    0  0.00000000000E+00  0.00000000000E+00 -0.10821378013E+04  0.34738780133E+04  0.33010310860E+04 0.  0.
        3    1    3    3  502    0  0.54096519099E+03  0.11947639277E+04  0.51344634731E+03  0.14084499787E+04  0.10100000352E+00 0. -1.
       -3    1    3    3    0  502 -0.54096519099E+03 -0.11947639277E+04 -0.15955841486E+04  0.20654280346E+04  0.10100000352E+00 0.  1.
</event>
<event>
 5   0  0.2309822E-08  0.3300024E+04  0.7818609E-02  0.8162889E-01
        1   -1    0    0  501    0  0.00000000000E+00  0.00000000000E+00  0.20699555729E+04  0.20699555729E+04  0.50400001928E-02 0. -1.
       -1   -1    0    0    0  501  0.00000000000E+00  0.00000000000E+00 -0.13152643529E+04  0.13152643529E+04  0.50400001928E-02 0.  1.
    10030    2    1    2    0    0  0.00000000000E+00  0.00000000000E+00  0.75469122003E+03  0.33852199259E+04  0.33000235013E+04 0.  0.
        4    1    3    3  502    0  0.75411849496E+03 -0.10626600814E+04  0.14157013935E+04  0.19240980229E+04  0.12699999809E+01 0. -1.
       -4    1    3    3    0  502 -0.75411849496E+03  0.10626600814E+04 -0.66101017347E+03  0.14611219030E+04  0.12699999809E+01 0.  1.
</event>
<event>
 5   0  0.6603516E-08  0.3299018E+04  0.7818609E-02  0.8163145E-01
        2   -1    0    0  501    0  0.00000000000E+00  0.00000000000E+00  0.23257186375E+04  0.23257186375E+04  0.25500000920E-02 0.  1.
       -2   -1    0    0    0  501  0.00000000000E+00  0.00000000000E+00 -0.11699096344E+04  0.11699096344E+04  0.25500000920E-02 0. -1.
    10030    2    1    2    0    0  0.00000000000E+00  0.00000000000E+00  0.11558090031E+04  0.34956282719E+04  0.32990184243E+04 0.  0.
        1    1    3    3  502    0  0.37860346589E+02  0.12013116851E+04 -0.61915697971E+03  0.13520127722E+04  0.50400001928E-02 0. -1.
       -1    1    3    3    0  502 -0.37860346589E+02 -0.12013116851E+04  0.17749659828E+04  0.21436154997E+04  0.50400001928E-02 0.  1.
</event>
<event>
 5   0  0.2291682E-08  0.3301284E+04  0.7818609E-02  0.8162569E-01
       -1   -1    0    0    0  501  0.00000000000E+00  0.00000000000E+00  0.15005593211E+04  0.15005593211E+04  0.50400001928E-02 0. -1.
        1   -1    0    0  501    0  0.00000000000E+00  0.00000000000E+00 -0.18157355508E+04  0.18157355508E+04  0.50400001928E-02 0.  1.
    10030    2    1    2    0    0  0.00000000000E+00  0.00000000000E+00 -0.31517622963E+03  0.33162948719E+04  0.33012839353E+04 0.  0.
        2    1    3    3  502    0  0.12632583552E+04 -0.85751669499E+03  0.47252983636E+03  0.15982618685E+04  0.25500000920E-02 0. -1.
       -2    1    3    3    0  502 -0.12632583552E+04  0.85751669499E+03 -0.78770606599E+03  0.17180330033E+04  0.25500000920E-02 0.  1.
</event>
<event>
 5   0  0.2383270E-08  0.3300913E+04  0.7818609E-02  0.8162663E-01
        1   -1    0    0  501    0  0.00000000000E+00  0.00000000000E+00  0.27211698889E+04  0.27211698889E+04  0.50400001928E-02 0. -1.
       -1   -1    0    0    0  501  0.00000000000E+00  0.00000000000E+00 -0.10010422613E+04  0.10010422613E+04  0.50400001928E-02 0.  1.
    10030    2    1    2    0    0  0.00000000000E+00  0.00000000000E+00  0.17201276276E+04  0.37222121502E+04  0.33009126369E+04 0.  0.
        5    1    3    3  502    0 -0.59779632300E+03  0.91548294472E+02 -0.87159097052E+03  0.10608649508E+04  0.46999998093E+01 0.  1.
       -5    1    3    3    0  502  0.59779632300E+03 -0.91548294472E+02  0.25917185981E+04  0.26613471994E+04  0.46999998093E+01 0. -1.
</event>
<event>
 5   0  0.2383270E-08  0.3300420E+04  0.7818609E-02  0.8162788E-01
        1   -1    0    0  501    0  0.00000000000E+00  0.00000000000E+00  0.18134545140E+04  0.18134545140E+04  0.50400001928E-02 0.  1.
       -1   -1    0    0    0  501  0.00000000000E+00  0.00000000000E+00 -0.15016608953E+04  0.15016608953E+04  0.50400001928E-02 0. -1.
    10030    2    1    2    0    0  0.00000000000E+00  0.00000000000E+00  0.31179361871E+03  0.33151154093E+04  0.33004204151E+04 0.  0.
        5    1    3    3  502    0  0.72917768532E+03  0.10392658130E+04  0.12148194030E+04  0.17571516152E+04  0.46999998093E+01 0.  1.
       -5    1    3    3    0  502 -0.72917768532E+03 -0.10392658130E+04 -0.90302578424E+03  0.15579637941E+04  0.46999998093E+01 0. -1.
</event>
<event>
 5   0  0.6603516E-08  0.3306091E+04  0.7818609E-02  0.8161347E-01
       -2   -1    0    0    0  501  0.00000000000E+00  0.00000000000E+00  0.25522464095E+04  0.25522464095E+04  0.25500000920E-02 0.  1.
        2   -1    0    0  501    0  0.00000000000E+00  0.00000000000E+00 -0.10706487745E+04  0.10706487745E+04  0.25500000920E-02 0. -1.
    10030    2    1    2    0    0  0.00000000000E+00  0.00000000000E+00  0.14815976350E+04  0.36228951840E+04  0.33060910397E+04 0.  0.
        1    1    3    3  502    0  0.52544774184E+03  0.14106500434E+04 -0.76826226066E+01  0.15053530805E+04  0.50400001928E-02 0. -1.
       -1    1    3    3    0  502 -0.52544774184E+03 -0.14106500434E+04  0.14892802576E+04  0.21175421035E+04  0.50400001928E-02 0.  1.
</event>
<event>
 5   0  0.2383270E-08  0.3306889E+04  0.7818609E-02  0.8161145E-01
       -1   -1    0    0    0  501  0.00000000000E+00  0.00000000000E+00  0.13443556078E+04  0.13443556078E+04  0.50400001928E-02 0.  1.
        1   -1    0    0  501    0  0.00000000000E+00  0.00000000000E+00 -0.20335975034E+04  0.20335975034E+04  0.50400001928E-02 0. -1.
    10030    2    1    2    0    0  0.00000000000E+00  0.00000000000E+00 -0.68924189561E+03  0.33779531112E+04  0.33068886934E+04 0.  0.
        5    1    3    3  502    0  0.62419498149E+03 -0.11310842792E+04 -0.13987296874E+04  0.19040582580E+04  0.46999998093E+01 0. -1.
       -5    1    3    3    0  502 -0.62419498149E+03  0.11310842792E+04  0.70948779178E+03  0.14738948532E+04  0.46999998093E+01 0.  1.
</event>
<event>
 5   0  0.6765252E-08  0.3300173E+04  0.7818609E-02  0.8162851E-01
       -2   -1    0    0    0  501  0.00000000000E+00  0.00000000000E+00  0.19353480456E+04  0.19353480457E+04  0.25500000920E-02 0. -1.
        2   -1    0    0  501    0  0.00000000000E+00  0.00000000000E+00 -0.14068713159E+04  0.14068713159E+04  0.25500000920E-02 0.  1.
    10030    2    1    2    0    0  0.00000000000E+00  0.00000000000E+00  0.52847672973E+03  0.33422193616E+04  0.33001731177E+04 0.  0.
        2    1    3    3  502    0 -0.13391608109E+04 -0.49508516119E+01  0.12405799186E+04  0.18254902691E+04  0.25500000920E-02 0. -1.
       -2    1    3    3    0  502  0.13391608109E+04  0.49508516119E+01 -0.71210318884E+03  0.15167290924E+04  0.25500000920E-02 0.  1.
</event>
<event>
 5   0  0.2291682E-08  0.3301727E+04  0.7818609E-02  0.8162456E-01
        1   -1    0    0  501    0  0.00000000000E+00  0.00000000000E+00  0.21113988727E+04  0.21113988727E+04  0.50400001928E-02 0. -1.
       -1   -1    0    0    0  501  0.00000000000E+00  0.00000000000E+00 -0.12907790982E+04  0.12907790982E+04  0.50400001928E-02 0.  1.
    10030    2    1    2    0    0  0.00000000000E+00  0.00000000000E+00  0.82061977448E+03  0.34021779709E+04  0.33017265380E+04 0.  0.
        2    1    3    3  502    0 -0.55009396441E+03  0.15368928992E+04  0.66419257906E+03  0.17623265689E+04  0.25500000920E-02 0. -1.
       -2    1    3    3    0  502  0.55009396441E+03 -0.15368928992E+04  0.15642719542E+03  0.16398514020E+04  0.25500000920E-02 0.  1.
</event>
<event>
 5   0  0.6821287E-08  0.3300409E+04  0.7818609E-02  0.8162791E-01
        2   -1    0    0  501    0  0.00000000000E+00  0.00000000000E+00  0.19193268537E+04  0.19193268537E+04  0.25500000920E-02 0.  1.
       -2   -1    0    0    0  501  0.00000000000E+00  0.00000000000E+00 -0.14188179405E+04  0.14188179405E+04  0.25500000920E-02 0. -1.
    10030    2    1    2    0    0  0.00000000000E+00  0.00000000000E+00  0.50050891319E+03  0.33381447942E+04  0.33004092920E+04 0.  0.
        5    1    3    3  502    0  0.13043109195E+04  0.79285166016E+03  0.88457134403E+03  0.17641794927E+04  0.46999998093E+01 0.  1.
       -5    1    3    3    0  502 -0.13043109195E+04 -0.79285166016E+03 -0.38406243084E+03  0.15739653015E+04  0.46999998093E+01 0. -1.
</event>
<event>
 5   0  0.6706080E-08  0.3299859E+04  0.7818609E-02  0.8162931E-01
        2   -1    0    0  501    0  0.00000000000E+00  0.00000000000E+00  0.18239069780E+04  0.18239069780E+04  0.25500000920E-02 0.  1.
       -2   -1    0    0    0  501  0.00000000000E+00  0.00000000000E+00 -0.14925470469E+04  0.14925470469E+04  0.25500000920E-02 0. -1.
    10030    2    1    2    0    0  0.00000000000E+00  0.00000000000E+00  0.33135993107E+03  0.33164540249E+04  0.32998587690E+04 0.  0.
        4    1    3    3  502    0 -0.14152914476E+04 -0.19614766238E+03  0.99489996014E+03  0.17410776349E+04  0.12699999809E+01 0.  1.
       -4    1    3    3    0  502  0.14152914476E+04  0.19614766238E+03 -0.66354002907E+03  0.15753763900E+04  0.12699999809E+01 0. -1.
</event>
<event>
 5   0  0.6706080E-08  0.3297916E+04  0.7818609E-02  0.8163426E-01
       -2   -1    0    0    0  501  0.00000000000E+00  0.00000000000E+00  0.13336804782E+04  0.13336804782E+04  0.25500000920E-02 0. -1.
        2   -1    0    0  501    0  0.00000000000E+00  0.00000000000E+00 -0.20387658342E+04  0.20387658342E+04  0.25500000920E-02 0.  1.
    10030    2    1    2    0    0  0.00000000000E+00  0.00000000000E+00 -0.70508535604E+03  0.33724463124E+04  0.32979158223E+04 0.  0.
        4    1    3    3  502    0 -0.12577654479E+04 -0.42809921896E+03 -0.13512498550E+04  0.18950252364E+04  0.12699999809E+01 0.  1.
       -4    1    3    3    0  502  0.12577654479E+04  0.42809921896E+03  0.64616449899E+03  0.14774210760E+04  0.12699999809E+01 0. -1.
</event>
<event>
 5   0  0.2383270E-08  0.3292720E+04  0.7818609E-02  0.8164750E-01
        1   -1    0    0  501    0  0.00000000000E+00  0.00000000000E+00  0.19992777246E+04  0.19992777246E+04  0.50400001928E-02 0.  1.
       -1   -1    0    0    0  501  0.00000000000E+00  0.00000000000E+00 -0.13557399438E+04  0.13557399438E+04  0.50400001928E-02 0. -1.
    10030    2    1    2    0    0  0.00000000000E+00  0.00000000000E+00  0.64353778084E+03  0.33550176684E+04  0.32927196480E+04 0.  0.
        5    1    3    3  502    0  0.14245766238E+04 -0.51316986290E+03  0.98030710723E+03  0.18038253739E+04  0.46999998093E+01 0.  1.
       -5    1    3    3    0  502 -0.14245766238E+04  0.51316986290E+03 -0.33676932639E+03  0.15511922945E+04  0.46999998093E+01 0. -1.
</event>
<event>
 5   0  0.2200750E-08  0.3298973E+04  0.7818609E-02  0.8163157E-01
       -3   -1    0    0    0  501  0.00000000000E+00  0.00000000000E+00  0.13289810436E+04  0.13289810475E+04  0.10100000352E+00 0.  1.
        3   -1    0    0  501    0  0.00000000000E+00  0.00000000000E+00 -0.20472869850E+04  0.20472869875E+04  0.10100000352E+00 0. -1.
    10030    2    1    2    0    0  0.00000000000E+00  0.00000000000E+00 -0.71830594138E+03  0.33762680350E+04  0.32989729339E+04 0.  0.
        4    1    3    3  502    0  0.20106048364E+03 -0.28949274891E+03  0.12899903549E+04  0.13372763733E+04  0.12699999809E+01 0.  1.
       -4    1    3    3    0  502 -0.20106048364E+03  0.28949274891E+03 -0.20082962963E+04  0.20389916617E+04  0.12699999809E+01 0. -1.
</event>
<event>
 5   0  0.2383270E-08  0.3301543E+04  0.7818609E-02  0.8162503E-01
        1   -1    0    0  501    0  0.00000000000E+00  0.00000000000E+00  0.23196783385E+04  0.23196783385E+04  0.50400001928E-02 0.  1.
       -1   -1    0    0    0  501  0.00000000000E+00  0.00000000000E+00 -0.11747517725E+04  0.11747517725E+04  0.50400001928E-02 0. -1.
    10030    2    1    2    0    0  0.00000000000E+00  0.00000000000E+00  0.11449265660E+04  0.34944301110E+04  0.33015428150E+04 0.  0.
        5    1    3    3  502    0 -0.39360806301E+03 -0.61111532647E+03  0.21411577510E+04  0.22611872665E+04  0.46999998093E+01 0.  1.
       -5    1    3    3    0  502  0.39360806301E+03  0.61111532647E+03 -0.99623118501E+03  0.12332428445E+04  0.46999998093E+01 0. -1.
</event>
<event>
 5   0  0.6706080E-08  0.3296459E+04  0.7818609E-02  0.8163797E-01
        2   -1    0    0  501    0  0.00000000000E+00  0.00000000000E+00  0.19012739538E+04  0.19012739538E+04  0.25500000920E-02 0. -1.
       -2   -1    0    0    0  501  0.00000000000E+00  0.00000000000E+00 -0.14288630529E+04  0.14288630529E+04  0.25500000920E-02 0.  1.
    10030    2    1    2    0    0  0.00000000000E+00  0.00000000000E+00  0.47241090089E+03  0.33301370067E+04  0.32964587703E+04 0.  0.
        4    1    3    3  502    0 -0.68787380441E+03 -0.44991262518E+03 -0.12070495048E+04  0.14603293673E+04  0.12699999809E+01 0.  1.
       -4    1    3    3    0  502  0.68787380441E+03  0.44991262518E+03  0.16794604057E+04  0.18698076394E+04  0.12699999809E+01 0. -1.
</event>
<event>
 5   0  0.6821287E-08  0.3300174E+04  0.7818609E-02  0.8162851E-01
       -2   -1    0    0    0  501  0.00000000000E+00  0.00000000000E+00  0.23805056216E+04  0.23805056216E+04  0.25500000920E-02 0.  1.
        2   -1    0    0  501    0  0.00000000000E+00  0.00000000000E+00 -0.11437849384E+04  0.11437849384E+04  0.25500000920E-02 0. -1.
    10030    2    1    2    0    0  0.00000000000E+00  0.00000000000E+00  0.12367206832E+04  0.35242905600E+04  0.33001736171E+04 0.  0.
        5    1    3    3  502    0 -0.10498772356E+04  0.41843698440E+03  0.19022681827E+04  0.22126857094E+04  0.46999998093E+01 0.  1.
       -5    1    3    3    0  502  0.10498772356E+04 -0.41843698440E+03 -0.66554749953E+03  0.13116048505E+04  0.46999998093E+01 0. -1.
</event>
<event>
 5   0  0.2279938E-08  0.3299776E+04  0.7818609E-02  0.8162952E-01
       -1   -1    0    0    0  501  0.00000000000E+00  0.00000000000E+00  0.11667727435E+04  0.11667727436E+04  0.50400001928E-02 0.  1.
        1   -1    0    0  501    0  0.00000000000E+00  0.00000000000E+00 -0.23330427960E+04  0.23330427960E+04  0.50400001928E-02 0. -1.
    10030    2    1    2    0    0  0.00000000000E+00  0.00000000000E+00 -0.11662700524E+04  0.34998155395E+04  0.32997762008E+04 0.  0.
        3    1    3    3  502    0  0.15882159147E+04  0.44283243865E+03 -0.64677565141E+03  0.17711152175E+04  0.10100000352E+00 0.  1.
       -3    1    3    3    0  502 -0.15882159147E+04 -0.44283243865E+03 -0.51949440102E+03  0.17287003220E+04  0.10100000352E+00 0. -1.
</event>
<event>
 5   0  0.6706080E-08  0.3300025E+04  0.7818609E-02  0.8162889E-01
        2   -1    0    0  501    0  0.00000000000E+00  0.00000000000E+00  0.17245598315E+04  0.17245598315E+04  0.25500000920E-02 0. -1.
       -2   -1    0    0    0  501  0.00000000000E+00  0.00000000000E+00 -0.15786875338E+04  0.15786875338E+04  0.25500000920E-02 0.  1.
    10030    2    1    2    0    0  0.00000000000E+00  0.00000000000E+00  0.14587229767E+03  0.33032473653E+04  0.33000249134E+04 0.  0.
        4    1    3    3  502    0 -0.81492171536E+02 -0.44236892952E+03  0.16620027258E+04  0.17217972928E+04  0.12699999809E+01 0. -1.
       -4    1    3    3    0  502  0.81492171536E+02  0.44236892952E+03 -0.15161304282E+04  0.15814500725E+04  0.12699999809E+01 0.  1.
</event>
<event>
 5   0  0.6603516E-08  0.3298926E+04  0.7818609E-02  0.8163169E-01
       -2   -1    0    0    0  501  0.00000000000E+00  0.00000000000E+00  0.13197421339E+04  0.13197421339E+04  0.25500000920E-02 0. -1.
        2   -1    0    0  501    0  0.00000000000E+00  0.00000000000E+00 -0.20615605472E+04  0.20615605472E+04  0.25500000920E-02 0.  1.
    10030    2    1    2    0    0  0.00000000000E+00  0.00000000000E+00 -0.74181841333E+03  0.33813026811E+04  0.32989260772E+04 0.  0.
        1    1    3    3  502    0  0.53684433291E+03 -0.10728821141E+04  0.78936963692E+03  0.14360996805E+04  0.50400001928E-02 0. -1.
       -1    1    3    3    0  502 -0.53684433291E+03  0.10728821141E+04 -0.15311880502E+04  0.19452030006E+04  0.50400001928E-02 0.  1.
</event>
<event>
 5   0  0.2279938E-08  0.3297408E+04  0.7818609E-02  0.8163555E-01
       -1   -1    0    0    0  501  0.00000000000E+00  0.00000000000E+00  0.23531088005E+04  0.23531088006E+04  0.50400001928E-02 0.  1.
        1   -1    0    0  501    0  0.00000000000E+00  0.00000000000E+00 -0.11551631288E+04  0.11551631288E+04  0.50400001928E-02 0. -1.
    10030    2    1    2    0    0  0.00000000000E+00  0.00000000000E+00  0.11979456717E+04  0.35082719294E+04  0.32974077846E+04 0.  0.
        3    1    3    3  502    0  0.12679313944E+04 -0.84025441743E+03  0.12756867187E+04  0.19852088357E+04  0.10100000352E+00 0.  1.
       -3    1    3    3    0  502 -0.12679313944E+04  0.84025441743E+03 -0.77741046954E+02  0.15230630937E+04  0.10100000352E+00 0. -1.
</event>
<event>
 5   0  0.7084130E-08  0.3300217E+04  0.7818609E-02  0.8162840E-01
        2   -1    0    0  501    0  0.00000000000E+00  0.00000000000E+00  0.16452283279E+04  0.16452283279E+04  0.25500000920E-02 0.  1.
       -2   -1    0    0    0  501  0.00000000000E+00  0.00000000000E+00 -0.16550034461E+04  0.16550034461E+04  0.25500000920E-02 0. -1.
    10030    2    1    2    0    0  0.00000000000E+00  0.00000000000E+00 -0.97751181504E+01  0.33002317740E+04  0.33002172973E+04 0.  0.
        3    1    3    3  502    0 -0.14835510402E+04 -0.11194208768E+03  0.70884088463E+03  0.16480018598E+04  0.10100000352E+00 0. -1.
       -3    1    3    3    0  502  0.14835510402E+04  0.11194208768E+03 -0.71861600278E+03  0.16522299142E+04  0.10100000352E+00 0.  1.
</event>
<event>
 5   0  0.2279938E-08  0.3299912E+04  0.7818609E-02  0.8162918E-01
       -1   -1    0    0    0  501  0.00000000000E+00  0.00000000000E+00  0.15145588167E+04  0.15145588168E+04  0.50400001928E-02 0. -1.
        1   -1    0    0  501    0  0.00000000000E+00  0.00000000000E+00 -0.17974567727E+04  0.17974567727E+04  0.50400001928E-02 0.  1.
    10030    2    1    2    0    0  0.00000000000E+00  0.00000000000E+00 -0.28289795591E+03  0.33120155894E+04  0.32999115157E+04 0.  0.
        3    1    3    3  502    0 -0.11645695428E+03 -0.10288346628E+04 -0.14307975513E+04  0.17661383379E+04  0.10100000352E+00 0.  1.
       -3    1    3    3    0  502  0.11645695428E+03  0.10288346628E+04  0.11478995954E+04  0.15458772515E+04  0.10100000352E+00 0. -1.
</event>
<event>
 5   0  0.2383270E-08  0.3300289E+04  0.7818609E-02  0.8162822E-01
        1   -1    0    0  501    0  0.00000000000E+00  0.00000000000E+00  0.11145785999E+04  0.11145785999E+04  0.50400001928E-02 0.  1.
       -1   -1    0    0    0  501  0.00000000000E+00  0.00000000000E+00 -0.24430548898E+04  0.24430548898E+04  0.50400001928E-02 0. -1.
    10030    2    1    2    0    0  0.00000000000E+00  0.00000000000E+00 -0.13284762899E+04  0.35576334897E+04  0.33002888955E+04 0.  0.
        5    1    3    3  502    0 -0.58015898513E+03 -0.11445310943E+04 -0.17826451292E+04  0.21964475001E+04  0.46999998093E+01 0. -1.
       -5    1    3    3    0  502  0.58015898513E+03  0.11445310943E+04  0.45416883929E+03  0.13611859896E+04  0.46999998093E+01 0.  1.
</event>
<event>
 5   0  0.2244093E-08  0.3299237E+04  0.7818609E-02  0.8163090E-01
       -1   -1    0    0    0  501  0.00000000000E+00  0.00000000000E+00  0.14232808929E+04  0.14232808929E+04  0.50400001928E-02 0. -1.
        1   -1    0    0  501    0  0.00000000000E+00  0.00000000000E+00 -0.19119496166E+04  0.19119496166E+04  0.50400001928E-02 0.  1.
    10030    2    1    2    0    0  0.00000000000E+00  0.00000000000E+00 -0.48866872365E+03  0.33352305095E+04  0.32992370982E+04 0.  0.
        1    1    3    3  502    0 -0.15156787787E+04 -0.42495386297E+03  0.25437657557E+03  0.15945455115E+04  0.50400001928E-02 0. -1.
       -1    1    3    3    0  502  0.15156787787E+04  0.42495386297E+03 -0.74304529922E+03  0.17406849981E+04  0.50400001928E-02 0.  1.
</event>
<event>
 5   0  0.2244093E-08  0.3303538E+04  0.7818609E-02  0.8161996E-01
        1   -1    0    0  501    0  0.00000000000E+00  0.00000000000E+00  0.92685772163E+03  0.92685772164E+03  0.50400001928E-02 0.  1.
       -1   -1    0    0    0  501  0.00000000000E+00  0.00000000000E+00 -0.29436455731E+04  0.29436455731E+04  0.50400001928E-02 0. -1.
    10030    2    1    2    0    0  0.00000000000E+00  0.00000000000E+00 -0.20167878515E+04  0.38705032948E+04  0.33035378788E+04 0.  0.
        1    1    3    3  502    0 -0.15133450183E+04 -0.60675654500E+03 -0.13183188035E+04  0.20967429783E+04  0.50400001928E-02 0. -1.
       -1    1    3    3    0  502  0.15133450183E+04  0.60675654500E+03 -0.69846904799E+03  0.17737603165E+04  0.50400001928E-02 0.  1.
</event>
<event>
 5   0  0.7084130E-08  0.3297689E+04  0.7818609E-02  0.8163484E-01
       -2   -1    0    0    0  501  0.00000000000E+00  0.00000000000E+00  0.18076990226E+04  0.18076990226E+04  0.25500000920E-02 0.  1.
        2   -1    0    0  501    0  0.00000000000E+00  0.00000000000E+00 -0.15039491451E+04  0.15039491451E+04  0.25500000920E-02 0. -1.
    10030    2    1    2    0    0  0.00000000000E+00  0.00000000000E+00  0.30374987759E+03  0.33116481677E+04  0.32976885236E+04 0.  0.
        3    1    3    3  502    0  0.30812743812E+03 -0.69084642894E+03 -0.13194126951E+04  0.15208751352E+04  0.10100000352E+00 0. -1.
       -3    1    3    3    0  502 -0.30812743812E+03  0.69084642894E+03  0.16231625727E+04  0.17907730326E+04  0.10100000352E+00 0.  1.
</event>
<event>
 5   0  0.2244093E-08  0.3285487E+04  0.7818609E-02  0.8166598E-01
        1   -1    0    0  501    0  0.00000000000E+00  0.00000000000E+00  0.91762358637E+03  0.91762358639E+03  0.50400001928E-02 0. -1.
       -1   -1    0    0    0  501  0.00000000000E+00  0.00000000000E+00 -0.29408642536E+04  0.29408642536E+04  0.50400001928E-02 0.  1.
    10030    2    1    2    0    0  0.00000000000E+00  0.00000000000E+00 -0.20232406672E+04  0.38584878400E+04  0.32854871197E+04 0.  0.
        1    1    3    3  502    0  0.13706065427E+04  0.20849330992E+03 -0.20465455559E+04  0.24719183780E+04  0.50400001928E-02 0.  1.
       -1    1    3    3    0  502 -0.13706065427E+04 -0.20849330992E+03  0.23304888659E+02  0.13865694620E+04  0.50400001928E-02 0. -1.
</event>
<event>
 5   0  0.2291682E-08  0.3299514E+04  0.7818609E-02  0.8163019E-01
       -1   -1    0    0    0  501  0.00000000000E+00  0.00000000000E+00  0.27831574184E+04  0.27831574184E+04  0.50400001928E-02 0. -1.
        1   -1    0    0  501    0  0.00000000000E+00  0.00000000000E+00 -0.97791740825E+03  0.97791740826E+03  0.50400001928E-02 0.  1.
    10030    2    1    2    0    0  0.00000000000E+00  0.00000000000E+00  0.18052400101E+04  0.37610748266E+04  0.32995139578E+04 0.  0.
        2    1    3    3  502    0 -0.14345416891E+04  0.52605672447E+03  0.19345552860E+03  0.15401527771E+04  0.25500000920E-02 0.  1.
       -2    1    3    3    0  502  0.14345416891E+04 -0.52605672447E+03  0.16117844815E+04  0.22209220495E+04  0.25500000920E-02 0. -1.
</event>
<event>
 5   0  0.2383270E-08  0.3298962E+04  0.7818609E-02  0.8163160E-01
        1   -1    0    0  501    0  0.00000000000E+00  0.00000000000E+00  0.12584882805E+04  0.12584882805E+04  0.50400001928E-02 0.  1.
       -1   -1    0    0    0  501  0.00000000000E+00  0.00000000000E+00 -0.21619490764E+04  0.21619490764E+04  0.50400001928E-02 0. -1.
    10030    2    1    2    0    0  0.00000000000E+00  0.00000000000E+00 -0.90346079589E+03  0.34204373569E+04  0.32989620039E+04 0.  0.
        5    1    3    3  502    0  0.69922490534E+02  0.56999171648E+03 -0.20549492962E+04  0.21336865777E+04  0.46999998093E+01 0. -1.
       -5    1    3    3    0  502 -0.69922490534E+02 -0.56999171648E+03  0.11514885004E+04  0.12867507793E+04  0.46999998093E+01 0.  1.
</event>
<event>
 5   0  0.6706080E-08  0.3300613E+04  0.7818609E-02  0.8162739E-01
        2   -1    0    0  501    0  0.00000000000E+00  0.00000000000E+00  0.17653468749E+04  0.17653468749E+04  0.25500000920E-02 0. -1.
       -2   -1    0    0    0  501  0.00000000000E+00  0.00000000000E+00 -0.15427631100E+04  0.15427631100E+04  0.25500000920E-02 0.  1.
    10030    2    1    2    0    0  0.00000000000E+00  0.00000000000E+00  0.22258376491E+03  0.33081099849E+04  0.33006132975E+04 0.  0.
        4    1    3    3  502    0 -0.52417187179E+03  0.15193048653E+04 -0.26434864713E+03  0.16287802937E+04  0.12699999809E+01 0. -1.
       -4    1    3    3    0  502  0.52417187179E+03 -0.15193048653E+04  0.48693241205E+03  0.16793296912E+04  0.12699999809E+01 0.  1.
</event>
<event>
 5   0  0.7084130E-08  0.3302152E+04  0.7818609E-02  0.8162348E-01
       -2   -1    0    0    0  501  0.00000000000E+00  0.00000000000E+00  0.13286908756E+04  0.13286908756E+04  0.25500000920E-02 0. -1.
        2   -1    0    0  501    0  0.00000000000E+00  0.00000000000E+00 -0.20516830278E+04  0.20516830278E+04  0.25500000920E-02 0.  1.
    10030    2    1    2    0    0  0.00000000000E+00  0.00000000000E+00 -0.72299215219E+03  0.33803739033E+04  0.33021523397E+04 0.  0.
        3    1    3    3  502    0  0.92267556646E+02  0.94942909101E+03 -0.17410552618E+04  0.19852461650E+04  0.10100000352E+00 0.  1.
       -3    1    3    3    0  502 -0.92267556646E+02 -0.94942909101E+03  0.10180631096E+04  0.13951277383E+04  0.10100000352E+00 0. -1.
</event>
<event>
 5   0  0.2309822E-08  0.3299269E+04  0.7818609E-02  0.8163081E-01
       -1   -1    0    0    0  501  0.00000000000E+00  0.00000000000E+00  0.16957227144E+04  0.16957227144E+04  0.50400001928E-02 0. -1.
        1   -1    0    0  501    0  0.00000000000E+00  0.00000000000E+00 -0.16047989992E+04  0.16047989992E+04  0.50400001928E-02 0.  1.
    10030    2    1    2    0    0  0.00000000000E+00  0.00000000000E+00  0.90923715200E+02  0.33005217135E+04  0.32992690796E+04 0.  0.
        4    1    3    3  502    0 -0.93244166261E+03  0.99003753937E+03  0.97944940504E+03  0.16759906126E+04  0.12699999809E+01 0.  1.
       -4    1    3    3    0  502  0.93244166261E+03 -0.99003753937E+03 -0.88852568984E+03  0.16245311009E+04  0.12699999809E+01 0. -1.
</event>
<event>
 5   0  0.2291682E-08  0.3300056E+04  0.7818609E-02  0.8162881E-01
       -1   -1    0    0    0  501  0.00000000000E+00  0.00000000000E+00  0.10867747372E+04  0.10867747372E+04  0.50400001928E-02 0. -1.
        1   -1    0    0  501    0  0.00000000000E+00  0.00000000000E+00 -0.25052036009E+04  0.25052036009E+04  0.50400001928E-02 0.  1.
    10030    2    1    2    0    0  0.00000000000E+00  0.00000000000E+00 -0.14184288638E+04  0.35919783381E+04  0.33000557480E+04 0.  0.
        2    1    3    3  502    0 -0.19881770366E+03  0.13252730400E+04  0.33860271109E+03  0.13822188342E+04  0.25500000920E-02 0. -1.
       -2    1    3    3    0  502  0.19881770366E+03 -0.13252730400E+04 -0.17570315748E+04  0.22097595038E+04  0.25500000920E-02 0.  1.
</event>
<event>
 5   0  0.2309822E-08  0.3299794E+04  0.7818609E-02  0.8162948E-01
        1   -1    0    0  501    0  0.00000000000E+00  0.00000000000E+00  0.25420170285E+04  0.25420170285E+04  0.50400001928E-02 0.  1.
       -1   -1    0    0    0  501  0.00000000000E+00  0.00000000000E+00 -0.10708661081E+04  0.10708661081E+04  0.50400001928E-02 0. -1.
    10030    2    1    2    0    0  0.00000000000E+00  0.00000000000E+00  0.14711509204E+04  0.36128831367E+04  0.32997938615E+04 0.  0.
        4    1    3    3  502    0  0.27171173378E+03 -0.93284236438E+03 -0.72441361634E+03  0.12119401155E+04  0.12699999809E+01 0. -1.
       -4    1    3    3    0  502 -0.27171173378E+03  0.93284236438E+03  0.21955645368E+04  0.24009430212E+04  0.12699999809E+01 0.  1.
</event>
<event>
 5   0  0.2244093E-08  0.3300804E+04  0.7818609E-02  0.8162691E-01
        1   -1    0    0  501    0  0.00000000000E+00  0.00000000000E+00  0.11199961958E+04  0.11199961958E+04  0.50400001928E-02 0.  1.
       -1   -1    0    0    0  501  0.00000000000E+00  0.00000000000E+00 -0.24319968495E+04  0.24319968495E+04  0.50400001928E-02 0. -1.
    10030    2    1    2    0    0  0.00000000000E+00  0.00000000000E+00 -0.13120006537E+04  0.35519930453E+04  0.33008042775E+04 0.  0.
        1    1    3    3  502    0 -0.11775121591E+03  0.51863705350E+03 -0.23372577679E+04  0.23970030487E+04  0.50400001928E-02 0. -1.
       -1    1    3    3    0  502  0.11775121591E+03 -0.51863705350E+03  0.10252571141E+04  0.11549899966E+04  0.50400001928E-02 0.  1.
</event>
<event>
 5   0  0.2244093E-08  0.3299633E+04  0.7818609E-02  0.8162989E-01
       -1   -1    0    0    0  501  0.00000000000E+00  0.00000000000E+00  0.94434936492E+03  0.94434936494E+03  0.50400001928E-02 0.  1.
        1   -1    0    0  501    0  0.00000000000E+00  0.00000000000E+00 -0.28822967200E+04  0.28822967200E+04  0.50400001928E-02 0. -1.
    10030    2    1    2    0    0  0.00000000000E+00  0.00000000000E+00 -0.19379473551E+04  0.38266460849E+04  0.32996333597E+04 0.  0.
        1    1    3    3  502    0  0.69031947721E+02  0.45416403123E+02  0.94194800730E+03  0.94556549639E+03  0.50400001928E-02 0.  1.
       -1    1    3    3    0  502 -0.69031947721E+02 -0.45416403123E+02 -0.28798953624E+04  0.28810805885E+04  0.50400001928E-02 0. -1.
</event>
<event>
 5   0  0.6706080E-08  0.3299750E+04  0.7818609E-02  0.8162959E-01
       -2   -1    0    0    0  501  0.00000000000E+00  0.00000000000E+00  0.12663234790E+04  0.12663234790E+04  0.25500000920E-02 0. -1.
        2   -1    0    0  501    0  0.00000000000E+00  0.00000000000E+00 -0.21495991003E+04  0.21495991003E+04  0.25500000920E-02 0.  1.
    10030    2    1    2    0    0  0.00000000000E+00  0.00000000000E+00 -0.88327562125E+03  0.34159225793E+04  0.32997501792E+04 0.  0.
        4    1    3    3  502    0  0.37446530415E+03 -0.11445233617E+04 -0.16091414889E+04  0.20098497291E+04  0.12699999809E+01 0.  1.
       -4    1    3    3    0  502 -0.37446530415E+03  0.11445233617E+04  0.72586586763E+03  0.14060728502E+04  0.12699999809E+01 0. -1.
</event>
<event>
 5   0  0.6706080E-08  0.3300112E+04  0.7818609E-02  0.8162867E-01
        2   -1    0    0  501    0  0.00000000000E+00  0.00000000000E+00  0.16099061449E+04  0.16099061449E+04  0.25500000920E-02 0.  1.
       -2   -1    0    0    0  501  0.00000000000E+00  0.00000000000E+00 -0.16912066604E+04  0.16912066605E+04  0.25500000920E-02 0. -1.
    10030    2    1    2    0    0  0.00000000000E+00  0.00000000000E+00 -0.81300515563E+02  0.33011128053E+04  0.33001115102E+04 0.  0.
        4    1    3    3  502    0  0.98239162173E+03 -0.61282327152E+02  0.12840753710E+04  0.16179307752E+04  0.12699999809E+01 0.  1.
       -4    1    3    3    0  502 -0.98239162173E+03  0.61282327152E+02 -0.13653758866E+04  0.16831820301E+04  0.12699999809E+01 0. -1.
</event>
<event>
 5   0  0.2244093E-08  0.3299121E+04  0.7818609E-02  0.8163119E-01
        1   -1    0    0  501    0  0.00000000000E+00  0.00000000000E+00  0.22569740706E+04  0.22569740706E+04  0.50400001928E-02 0. -1.
       -1   -1    0    0    0  501  0.00000000000E+00  0.00000000000E+00 -0.12056187611E+04  0.12056187612E+04  0.50400001928E-02 0.  1.
    10030    2    1    2    0    0  0.00000000000E+00  0.00000000000E+00  0.10513553094E+04  0.34625928317E+04  0.32991212666E+04 0.  0.
        1    1    3    3  502    0  0.87431858632E+02  0.29923929598E+03  0.22257743550E+04  0.22475008266E+04  0.50400001928E-02 0. -1.
       -1    1    3    3    0  502 -0.87431858632E+02 -0.29923929598E+03 -0.11744190456E+04  0.12150920051E+04  0.50400001928E-02 0.  1.
</event>
<event>
 5   0  0.2309822E-08  0.3299174E+04  0.7818609E-02  0.8163106E-01
        1   -1    0    0  501    0  0.00000000000E+00  0.00000000000E+00  0.19386161844E+04  0.19386161844E+04  0.50400001928E-02 0.  1.
       -1   -1    0    0    0  501  0.00000000000E+00  0.00000000000E+00 -0.14036494494E+04  0.14036494494E+04  0.50400001928E-02 0. -1.
    10030    2    1    2    0    0  0.00000000000E+00  0.00000000000E+00  0.53496673500E+03  0.33422656337E+04  0.32991741631E+04 0.  0.
        4    1    3    3  502    0 -0.10435688656E+04  0.72614678472E+03 -0.79734515519E+03  0.15006951855E+04  0.12699999809E+01 0.  1.
       -4    1    3    3    0  502  0.10435688656E+04 -0.72614678472E+03  0.13323118902E+04  0.18415704483E+04  0.12699999809E+01 0. -1.
</event>
<event>
 5   0  0.6706080E-08  0.3300488E+04  0.7818609E-02  0.8162771E-01
        2   -1    0    0  501    0  0.00000000000E+00  0.00000000000E+00  0.12173353456E+04  0.12173353456E+04  0.25500000920E-02 0.  1.
       -2   -1    0    0    0  501  0.00000000000E+00  0.00000000000E+00 -0.22371040935E+04  0.22371040935E+04  0.25500000920E-02 0. -1.
    10030    2    1    2    0    0  0.00000000000E+00  0.00000000000E+00 -0.10197687479E+04  0.34544394391E+04  0.33004883789E+04 0.  0.
        4    1    3    3  502    0 -0.15456426006E+03  0.95272036352E+03 -0.19108795379E+04  0.21408008835E+04  0.12699999809E+01 0. -1.
       -4    1    3    3    0  502  0.15456426006E+03 -0.95272036352E+03  0.89111079005E+03  0.13136385555E+04  0.12699999809E+01 0.  1.
</event>
<event>
 5   0  0.6706080E-08  0.3300914E+04  0.7818609E-02  0.8162663E-01
        2   -1    0    0  501    0  0.00000000000E+00  0.00000000000E+00  0.28815789222E+04  0.28815789222E+04  0.25500000920E-02 0. -1.
       -2   -1    0    0    0  501  0.00000000000E+00  0.00000000000E+00 -0.94531809612E+03  0.94531809612E+03  0.25500000920E-02 0.  1.
    10030    2    1    2    0    0  0.00000000000E+00  0.00000000000E+00  0.19362608260E+04  0.38268970183E+04  0.33009142373E+04 0.  0.
        4    1    3    3  502    0  0.56413683005E+02  0.25478078675E+03  0.28575104436E+04  0.28694012095E+04  0.12699999809E+01 0. -1.
       -4    1    3    3    0  502 -0.56413683005E+02 -0.25478078675E+03 -0.92124961760E+03  0.95749580874E+03  0.12699999809E+01 0.  1.
</event>
<event>
 5   0  0.6821287E-08  0.3299684E+04  0.7818609E-02  0.8162976E-01
       -2   -1    0    0    0  501  0.00000000000E+00  0.00000000000E+00  0.14357841643E+04  0.14357841643E+04  0.25500000920E-02 0.  1.
        2   -1    0    0  501    0  0.00000000000E+00  0.00000000000E+00 -0.18958128563E+04  0.18958128563E+04  0.25500000920E-02 0. -1.
    10030    2    1    2    0    0  0.00000000000E+00  0.00000000000E+00 -0.46002869202E+03  0.33315970206E+04  0.32996836682E+04 0.  0.
        5    1    3    3  502    0 -0.92731592859E+03 -0.70243334426E+03  0.95118434202E+03  0.15026979660E+04  0.46999998093E+01 0.  1.
       -5    1    3    3    0  502  0.92731592859E+03  0.70243334426E+03 -0.14112130340E+04  0.18288990546E+04  0.46999998093E+01 0. -1.
</event>
<event>
 5   0  0.6603516E-08  0.3300870E+04  0.7818609E-02  0.8162674E-01
        2   -1    0    0  501    0  0.00000000000E+00  0.00000000000E+00  0.24987122258E+04  0.24987122258E+04  0.25500000920E-02 0.  1.
       -2   -1    0    0    0  501  0.00000000000E+00  0.00000000000E+00 -0.10901356744E+04  0.10901356744E+04  0.25500000920E-02 0. -1.
    10030    2    1    2    0    0  0.00000000000E+00  0.00000000000E+00  0.14085765515E+04  0.35888479002E+04  0.33008697868E+04 0.  0.
        1    1    3    3  502    0  0.11688781816E+04  0.68688986511E+03 -0.31901569287E+03  0.13927903297E+04  0.50400001928E-02 0. -1.
       -1    1    3    3    0  502 -0.11688781816E+04 -0.68688986511E+03  0.17275922443E+04  0.21960575705E+04  0.50400001928E-02 0.  1.
</event>
<event>
 5   0  0.2383270E-08  0.3301408E+04  0.7818609E-02  0.8162537E-01
        1   -1    0    0  501    0  0.00000000000E+00  0.00000000000E+00  0.10986916756E+04  0.10986916756E+04  0.50400001928E-02 0.  1.
       -1   -1    0    0    0  501  0.00000000000E+00  0.00000000000E+00 -0.24800615629E+04  0.24800615629E+04  0.50400001928E-02 0. -1.
    10030    2    1    2    0    0  0.00000000000E+00  0.00000000000E+00 -0.13813698874E+04  0.35787532385E+04  0.33014075750E+04 0.  0.
        5    1    3    3  502    0  0.11552993175E+04  0.85807308916E+03  0.18581803500E+03  0.14510535385E+04  0.46999998093E+01 0.  1.
       -5    1    3    3    0  502 -0.11552993175E+04 -0.85807308916E+03 -0.15671879224E+04  0.21276997000E+04  0.46999998093E+01 0. -1.
</event>
<event>
 5   0  0.6821287E-08  0.3302490E+04  0.7818609E-02  0.8162262E-01
       -2   -1    0    0    0  501  0.00000000000E+00  0.00000000000E+00  0.18647596831E+04  0.18647596831E+04  0.25500000920E-02 0. -1.
        2   -1    0    0  501    0  0.00000000000E+00  0.00000000000E+00 -0.14621777708E+04  0.14621777708E+04  0.25500000920E-02 0.  1.
    10030    2    1    2    0    0  0.00000000000E+00  0.00000000000E+00  0.40258191231E+03  0.33269374539E+04  0.33024900645E+04 0.  0.
        5    1    3    3  502    0 -0.97868970697E+03  0.41873949391E+03 -0.10703576677E+04  0.15095906508E+04  0.46999998093E+01 0.  1.
       -5    1    3    3    0  502  0.97868970697E+03 -0.41873949391E+03  0.14729395800E+04  0.18173468031E+04  0.46999998093E+01 0. -1.
</event>
<event>
 5   0  0.2291682E-08  0.3299501E+04  0.7818609E-02  0.8163022E-01
       -1   -1    0    0    0  501  0.00000000000E+00  0.00000000000E+00  0.12734743894E+04  0.12734743894E+04  0.50400001928E-02 0. -1.
        1   -1    0    0  501    0  0.00000000000E+00  0.00000000000E+00 -0.21372052440E+04  0.21372052440E+04  0.50400001928E-02 0.  1.
    10030    2    1    2    0    0  0.00000000000E+00  0.00000000000E+00 -0.86373085456E+03  0.34106796334E+04  0.32995006550E+04 0.  0.
        2    1    3    3  502    0  0.13410448110E+04 -0.80119553291E+03 -0.98017320752E+03  0.18441949419E+04  0.25500000920E-02 0. -1.
       -2    1    3    3    0  502 -0.13410448110E+04  0.80119553291E+03  0.11644235295E+03  0.15664846915E+04  0.25500000920E-02 0.  1.
</event>
<event>
 5   0  0.6821287E-08  0.3299913E+04  0.7818609E-02  0.8162917E-01
        2   -1    0    0  501    0  0.00000000000E+00  0.00000000000E+00  0.19700544410E+04  0.19700544410E+04  0.25500000920E-02 0.  1.
       -2   -1    0    0    0  501  0.00000000000E+00  0.00000000000E+00 -0.13818689198E+04  0.13818689198E+04  0.25500000920E-02 0. -1.
    10030    2    1    2    0    0  0.00000000000E+00  0.00000000000E+00  0.58818552115E+03  0.33519233608E+04  0.32999133336E+04 0.  0.
        5    1    3    3  502    0  0.12372873416E+04  0.10897729907E+04  0.35711723573E+03  0.16870210274E+04  0.46999998093E+01 0. -1.
       -5    1    3    3    0  502 -0.12372873416E+04 -0.10897729907E+04  0.23106828542E+03  0.16649023333E+04  0.46999998093E+01 0.  1.
</event>
<event>
 5   0  0.2279938E-08  0.3302271E+04  0.7818609E-02  0.8162318E-01
        1   -1    0    0  501    0  0.00000000000E+00  0.00000000000E+00  0.14521883642E+04  0.14521883642E+04  0.50400001928E-02 0.  1.
       -1   -1    0    0    0  501  0.00000000000E+00  0.00000000000E+00 -0.18773384969E+04  0.18773384969E+04  0.50400001928E-02 0. -1.
    10030    2    1    2    0    0  0.00000000000E+00  0.00000000000E+00 -0.42515013268E+03  0.33295268610E+04  0.33022714127E+04 0.  0.
        3    1    3    3  502    0 -0.10355845005E+04  0.91243265616E+03  0.70114994692E+03  0.15480891021E+04  0.10100000352E+00 0.  1.
       -3    1    3    3    0  502  0.10355845005E+04 -0.91243265616E+03 -0.11263000796E+04  0.17814377590E+04  0.10100000352E+00 0. -1.
</event>
<event>
 5   0  0.2309822E-08  0.3301666E+04  0.7818609E-02  0.8162472E-01
        1   -1    0    0  501    0  0.00000000000E+00  0.00000000000E+00  0.26259522828E+04  0.26259522828E+04  0.50400001928E-02 0. -1.
       -1   -1    0    0    0  501  0.00000000000E+00  0.00000000000E+00 -0.10378138577E+04  0.10378138577E+04  0.50400001928E-02 0.  1.
    10030    2    1    2    0    0  0.00000000000E+00  0.00000000000E+00  0.15881384251E+04  0.36637661405E+04  0.33016660454E+04 0.  0.
        4    1    3    3  502    0  0.71605184678E+03  0.29319905154E+03 -0.82413235468E+03  0.11304387122E+04  0.12699999809E+01 0.  1.
       -4    1    3    3    0  502 -0.71605184678E+03 -0.29319905154E+03  0.24122707798E+04  0.25333274283E+04  0.12699999809E+01 0. -1.
</event>
<event>
 5   0  0.2279938E-08  0.3296215E+04  0.7818609E-02  0.8163859E-01
       -1   -1    0    0    0  501  0.00000000000E+00  0.00000000000E+00  0.11528812563E+04  0.11528812563E+04  0.50400001928E-02 0. -1.
        1   -1    0    0  501    0  0.00000000000E+00  0.00000000000E+00 -0.23560603764E+04  0.23560603764E+04  0.50400001928E-02 0.  1.
    10030    2    1    2    0    0  0.00000000000E+00  0.00000000000E+00 -0.12031791201E+04  0.35089416327E+04  0.32962147058E+04 0.  0.
        3    1    3    3  502    0  0.17387130067E+03 -0.12834696093E+04 -0.16865464556E+04  0.21264911061E+04  0.10100000352E+00 0.  1.
       -3    1    3    3    0  502 -0.17387130067E+03  0.12834696093E+04  0.48336733555E+03  0.13824505266E+04  0.10100000352E+00 0. -1.
</event>
<event>
 5   0  0.2279938E-08  0.3298855E+04  0.7818609E-02  0.8163187E-01
       -1   -1    0    0    0  501  0.00000000000E+00  0.00000000000E+00  0.18347427461E+04  0.18347427461E+04  0.50400001928E-02 0.  1.
        1   -1    0    0  501    0  0.00000000000E+00  0.00000000000E+00 -0.14828297717E+04  0.14828297717E+04  0.50400001928E-02 0. -1.
    10030    2    1    2    0    0  0.00000000000E+00  0.00000000000E+00  0.35191297438E+03  0.33175725178E+04  0.32988550543E+04 0.  0.
        3    1    3    3  502    0 -0.13871127181E+04 -0.77670541776E+03  0.61806218210E+03  0.17056828163E+04  0.10100000352E+00 0.  1.
       -3    1    3    3    0  502  0.13871127181E+04  0.77670541776E+03 -0.26614920771E+03  0.16118897015E+04  0.10100000352E+00 0. -1.
</event>
<event>
 5   0  0.6765252E-08  0.3300117E+04  0.7818609E-02  0.8162866E-01
        2   -1    0    0  501    0  0.00000000000E+00  0.00000000000E+00  0.22646101547E+04  0.22646101547E+04  0.25500000920E-02 0. -1.
       -2   -1    0    0    0  501  0.00000000000E+00  0.00000000000E+00 -0.12022786603E+04  0.12022786603E+04  0.25500000920E-02 0.  1.
    10030    2    1    2    0    0  0.00000000000E+00  0.00000000000E+00  0.10623314944E+04  0.34668888150E+04  0.33001166421E+04 0.  0.
        2    1    3    3  502    0  0.61574631118E+03  0.11679669828E+04  0.15708252618E+04  0.20520191022E+04  0.25500000920E-02 0. -1.
       -2    1    3    3    0  502 -0.61574631118E+03 -0.11679669828E+04 -0.50849376743E+03  0.14148697128E+04  0.25500000920E-02 0.  1.
</event>
<event>
 5   0  0.2383270E-08  0.3297397E+04  0.7818609E-02  0.8163558E-01
        1   -1    0    0  501    0  0.00000000000E+00  0.00000000000E+00  0.11680182614E+04  0.11680182614E+04  0.50400001928E-02 0. -1.
       -1   -1    0    0    0  501  0.00000000000E+00  0.00000000000E+00 -0.23271951037E+04  0.23271951037E+04  0.50400001928E-02 0.  1.
    10030    2    1    2    0    0  0.00000000000E+00  0.00000000000E+00 -0.11591768423E+04  0.34952133651E+04  0.32973967786E+04 0.  0.
        5    1    3    3  502    0 -0.79444449724E+02 -0.12513466355E+04 -0.17143265242E+04  0.21239391103E+04  0.46999998093E+01 0.  1.
       -5    1    3    3    0  502  0.79444449724E+02  0.12513466355E+04  0.55514968185E+03  0.13712742548E+04  0.46999998093E+01 0. -1.
</event>
<event>
 5   0  0.2291682E-08  0.3303055E+04  0.7818609E-02  0.8162119E-01
        1   -1    0    0  501    0  0.00000000000E+00  0.00000000000E+00  0.93832142649E+03  0.93832142651E+03  0.50400001928E-02 0.  1.
       -1   -1    0    0    0  501  0.00000000000E+00  0.00000000000E+00 -0.29068318140E+04  0.29068318140E+04  0.50400001928E-02 0. -1.
    10030    2    1    2    0    0  0.00000000000E+00  0.00000000000E+00 -0.19685103875E+04  0.38451532405E+04  0.33030546918E+04 0.  0.
        2    1    3    3  502    0  0.15589663928E+04  0.18191175912E+03 -0.15824754270E+04  0.22288330083E+04  0.25500000920E-02 0. -1.
       -2    1    3    3    0  502 -0.15589663928E+04 -0.18191175912E+03 -0.38603496053E+03  0.16163202322E+04  0.25500000920E-02 0.  1.
</event>
<event>
 5   0  0.2279938E-08  0.3299266E+04  0.7818609E-02  0.8163082E-01
        1   -1    0    0  501    0  0.00000000000E+00  0.00000000000E+00  0.12281426830E+04  0.12281426830E+04  0.50400001928E-02 0. -1.
       -1   -1    0    0    0  501  0.00000000000E+00  0.00000000000E+00 -0.22157759251E+04  0.22157759251E+04  0.50400001928E-02 0.  1.
    10030    2    1    2    0    0  0.00000000000E+00  0.00000000000E+00 -0.98763324212E+03  0.34439186081E+04  0.32992659726E+04 0.  0.
        3    1    3    3  502    0  0.15322167769E+04  0.92751555152E+02  0.13682222700E+03  0.15411072105E+04  0.10100000352E+00 0. -1.
       -3    1    3    3    0  502 -0.15322167769E+04 -0.92751555152E+02 -0.11244554691E+04  0.19028113975E+04  0.10100000352E+00 0.  1.
</event>
<event>
 5   0  0.6603516E-08  0.3298151E+04  0.7818609E-02  0.8163366E-01
       -2   -1    0    0    0  501  0.00000000000E+00  0.00000000000E+00  0.16445731849E+04  0.16445731849E+04  0.25500000920E-02 0. -1.
        2   -1    0    0  501    0  0.00000000000E+00  0.00000000000E+00 -0.16535905681E+04  0.16535905681E+04  0.25500000920E-02 0.  1.
    10030    2    1    2    0    0  0.00000000000E+00  0.00000000000E+00 -0.90173832197E+01  0.32981637531E+04  0.32981514260E+04 0.  0.
        1    1    3    3  502    0  0.13572994052E+03  0.16045741854E+04  0.35097790255E+03  0.16481099542E+04  0.50400001928E-02 0. -1.
       -1    1    3    3    0  502 -0.13572994052E+03 -0.16045741854E+04 -0.35999528577E+03  0.16500537988E+04  0.50400001928E-02 0.  1.
</event>
<event>
 5   0  0.6765252E-08  0.3300482E+04  0.7818609E-02  0.8162773E-01
       -2   -1    0    0    0  501  0.00000000000E+00  0.00000000000E+00  0.14289323231E+04  0.14289323231E+04  0.25500000920E-02 0.  1.
        2   -1    0    0  501    0  0.00000000000E+00  0.00000000000E+00 -0.19058249606E+04  0.19058249606E+04  0.25500000920E-02 0. -1.
    10030    2    1    2    0    0  0.00000000000E+00  0.00000000000E+00 -0.47689263758E+03  0.33347572837E+04  0.33004817153E+04 0.  0.
        2    1    3    3  502    0  0.31386982200E+03 -0.28489150623E+03 -0.18498813359E+04  0.18978246474E+04  0.25500000920E-02 0. -1.
       -2    1    3    3    0  502 -0.31386982200E+03  0.28489150623E+03  0.13729886983E+04  0.14369326363E+04  0.25500000920E-02 0.  1.
</event>
<event>
 5   0  0.2279938E-08  0.3300073E+04  0.7818609E-02  0.8162877E-01
       -1   -1    0    0    0  501  0.00000000000E+00  0.00000000000E+00  0.13274080939E+04  0.13274080939E+04  0.50400001928E-02 0.  1.
        1   -1    0    0  501    0  0.00000000000E+00  0.00000000000E+00 -0.20510797943E+04  0.20510797943E+04  0.50400001928E-02 0. -1.
    10030    2    1    2    0    0  0.00000000000E+00  0.00000000000E+00 -0.72367170043E+03  0.33784878883E+04  0.33000726782E+04 0.  0.
        3    1    3    3  502    0  0.66359157064E+03 -0.13012899336E+04  0.42380410911E+03  0.15209599591E+04  0.10100000352E+00 0. -1.
       -3    1    3    3    0  502 -0.66359157064E+03  0.13012899336E+04 -0.11474758095E+04  0.18575279292E+04  0.10100000352E+00 0.  1.
</event>
<event>
 5   0  0.6603516E-08  0.3299597E+04  0.7818609E-02  0.8162998E-01
       -2   -1    0    0    0  501  0.00000000000E+00  0.00000000000E+00  0.13708309835E+04  0.13708309835E+04  0.25500000920E-02 0. -1.
        2   -1    0    0  501    0  0.00000000000E+00  0.00000000000E+00 -0.19855365815E+04  0.19855365815E+04  0.25500000920E-02 0.  1.
    10030    2    1    2    0    0  0.00000000000E+00  0.00000000000E+00 -0.61470559797E+03  0.33563675650E+04  0.32995969844E+04 0.  0.
        1    1    3    3  502    0 -0.37531121827E+03 -0.54504484742E+03  0.12299075078E+04  0.13966405672E+04  0.50400001928E-02 0. -1.
       -1    1    3    3    0  502  0.37531121827E+03  0.54504484742E+03 -0.18446131057E+04  0.19597269978E+04  0.50400001928E-02 0.  1.
</event>
<event>
 5   0  0.2244093E-08  0.3303544E+04  0.7818609E-02  0.8161994E-01
       -1   -1    0    0    0  501  0.00000000000E+00  0.00000000000E+00  0.10129222377E+04  0.10129222377E+04  0.50400001928E-02 0.  1.
        1   -1    0    0  501    0  0.00000000000E+00  0.00000000000E+00 -0.26935436184E+04  0.26935436184E+04  0.50400001928E-02 0. -1.
    10030    2    1    2    0    0  0.00000000000E+00  0.00000000000E+00 -0.16806213807E+04  0.37064658561E+04  0.33035436908E+04 0.  0.
        1    1    3    3  502    0 -0.39733378830E+03 -0.10028792453E+04 -0.22437601642E+04  0.24895984806E+04  0.50400001928E-02 0. -1.
       -1    1    3    3    0  502  0.39733378830E+03  0.10028792453E+04  0.56313878354E+03  0.12168673755E+04  0.50400001928E-02 0.  1.
</event>
<event>
 5   0  0.2279938E-08  0.3299478E+04  0.7818609E-02  0.8163028E-01
       -1   -1    0    0    0  501  0.00000000000E+00  0.00000000000E+00  0.11988588784E+04  0.11988588784E+04  0.50400001928E-02 0. -1.
        1   -1    0    0  501    0  0.00000000000E+00  0.00000000000E+00 -0.22701916442E+04  0.22701916442E+04  0.50400001928E-02 0.  1.
    10030    2    1    2    0    0  0.00000000000E+00  0.00000000000E+00 -0.10713327658E+04  0.34690505225E+04  0.32994783880E+04 0.  0.
        3    1    3    3  502    0 -0.98061984644E+03 -0.10780893679E+04 -0.13485421848E+04  0.19855623896E+04  0.10100000352E+00 0.  1.
       -3    1    3    3    0  502  0.98061984644E+03  0.10780893679E+04  0.27720941897E+03  0.14834881330E+04  0.10100000352E+00 0. -1.
</event>
<event>
 5   0  0.6706080E-08  0.3299339E+04  0.7818609E-02  0.8163064E-01
        2   -1    0    0  501    0  0.00000000000E+00  0.00000000000E+00  0.19804891493E+04  0.19804891493E+04  0.25500000920E-02 0. -1.
       -2   -1    0    0    0  501  0.00000000000E+00  0.00000000000E+00 -0.13741097242E+04  0.13741097242E+04  0.25500000920E-02 0.  1.
    10030    2    1    2    0    0  0.00000000000E+00  0.00000000000E+00  0.60637942508E+03  0.33545988736E+04  0.32993389634E+04 0.  0.
        4    1    3    3  502    0 -0.42819215337E+03  0.86121304629E+03  0.16659256890E+04  0.19236284582E+04  0.12699999809E+01 0. -1.
       -4    1    3    3    0  502  0.42819215337E+03 -0.86121304629E+03 -0.10595462639E+04  0.14309704153E+04  0.12699999809E+01 0.  1.
</event>
<event>
 5   0  0.6821287E-08  0.3301167E+04  0.7818609E-02  0.8162598E-01
        2   -1    0    0  501    0  0.00000000000E+00  0.00000000000E+00  0.22300739300E+04  0.22300739300E+04  0.25500000920E-02 0.  1.
       -2   -1    0    0    0  501  0.00000000000E+00  0.00000000000E+00 -0.12216752515E+04  0.12216752515E+04  0.25500000920E-02 0. -1.
    10030    2    1    2    0    0  0.00000000000E+00  0.00000000000E+00  0.10083986785E+04  0.34517491815E+04  0.33011671447E+04 0.  0.
        5    1    3    3  502    0 -0.11718923940E+04  0.10013077435E+04 -0.11302792785E+03  0.15455569814E+04  0.46999998093E+01 0. -1.
       -5    1    3    3    0  502  0.11718923940E+04 -0.10013077435E+04  0.11214266064E+04  0.19061922001E+04  0.46999998093E+01 0.  1.
</event>
<event>
 5   0  0.6603516E-08  0.3299588E+04  0.7818609E-02  0.8163000E-01
       -2   -1    0    0    0  501  0.00000000000E+00  0.00000000000E+00  0.16029473628E+04  0.16029473628E+04  0.25500000920E-02 0.  1.
        2   -1    0    0  501    0  0.00000000000E+00  0.00000000000E+00 -0.16980101896E+04  0.16980101896E+04  0.25500000920E-02 0. -1.
    10030    2    1    2    0    0  0.00000000000E+00  0.00000000000E+00 -0.95062826852E+02  0.33009575524E+04  0.32995884322E+04 0.  0.
        1    1    3    3  502    0  0.13963122523E+04 -0.70946182303E+03 -0.56620287485E+03  0.16654157678E+04  0.50400001928E-02 0. -1.
       -1    1    3    3    0  502 -0.13963122523E+04  0.70946182303E+03  0.47114004800E+03  0.16355417846E+04  0.50400001928E-02 0.  1.
</event>
<event>
 5   0  0.6821287E-08  0.3312711E+04  0.7818609E-02  0.8159669E-01
       -2   -1    0    0    0  501  0.00000000000E+00  0.00000000000E+00  0.10551186794E+04  0.10551186794E+04  0.25500000920E-02 0. -1.
        2   -1    0    0  501    0  0.00000000000E+00  0.00000000000E+00 -0.26001936913E+04  0.26001936913E+04  0.25500000920E-02 0.  1.
    10030    2    1    2    0    0  0.00000000000E+00  0.00000000000E+00 -0.15450750119E+04  0.36553123707E+04  0.33127106326E+04 0.  0.
        5    1    3    3  502    0  0.60095862764E+03 -0.12673467713E+04  0.19958255569E+03  0.14167478242E+04  0.46999998093E+01 0. -1.
       -5    1    3    3    0  502 -0.60095862764E+03  0.12673467713E+04 -0.17446575675E+04  0.22385645465E+04  0.46999998093E+01 0.  1.
</event>
<event>
 5   0  0.6706080E-08  0.3297138E+04  0.7818609E-02  0.8163624E-01
       -2   -1    0    0    0  501  0.00000000000E+00  0.00000000000E+00  0.21560100598E+04  0.21560100598E+04  0.25500000920E-02 0.  1.
        2   -1    0    0  501    0  0.00000000000E+00  0.00000000000E+00 -0.12605600402E+04  0.12605600402E+04  0.25500000920E-02 0. -1.
    10030    2    1    2    0    0  0.00000000000E+00  0.00000000000E+00  0.89545001962E+03  0.34165701000E+04  0.32971382304E+04 0.  0.
        4    1    3    3  502    0  0.65461888521E+03  0.90719093398E+03 -0.80702805594E+03  0.13794263922E+04  0.12699999809E+01 0. -1.
       -4    1    3    3    0  502 -0.65461888521E+03 -0.90719093398E+03  0.17024780756E+04  0.20371437078E+04  0.12699999809E+01 0.  1.
</event>
<event>
 5   0  0.2279938E-08  0.3299862E+04  0.7818609E-02  0.8162930E-01
        1   -1    0    0  501    0  0.00000000000E+00  0.00000000000E+00  0.16706368119E+04  0.16706368119E+04  0.50400001928E-02 0. -1.
       -1   -1    0    0    0  501  0.00000000000E+00  0.00000000000E+00 -0.16294820011E+04  0.16294820011E+04  0.50400001928E-02 0.  1.
    10030    2    1    2    0    0  0.00000000000E+00  0.00000000000E+00  0.41154810787E+02  0.33001188130E+04  0.32998621883E+04 0.  0.
        3    1    3    3  502    0 -0.13643835313E+04  0.75285648721E+03  0.56277941035E+03  0.16568210482E+04  0.10100000352E+00 0.  1.
       -3    1    3    3    0  502  0.13643835313E+04 -0.75285648721E+03 -0.52162459956E+03  0.16432977648E+04  0.10100000352E+00 0. -1.
</event>
<event>
 5   0  0.2279938E-08  0.3301389E+04  0.7818609E-02  0.8162542E-01
        1   -1    0    0  501    0  0.00000000000E+00  0.00000000000E+00  0.18843526026E+04  0.18843526026E+04  0.50400001928E-02 0. -1.
       -1   -1    0    0    0  501  0.00000000000E+00  0.00000000000E+00 -0.14460097062E+04  0.14460097063E+04  0.50400001928E-02 0.  1.
    10030    2    1    2    0    0  0.00000000000E+00  0.00000000000E+00  0.43834289636E+03  0.33303623089E+04  0.33013888916E+04 0.  0.
        3    1    3    3  502    0 -0.13910691939E+03 -0.15709186245E+04  0.71094963904E+03  0.17299090899E+04  0.10100000352E+00 0. -1.
       -3    1    3    3    0  502  0.13910691939E+03  0.15709186245E+04 -0.27260674269E+03  0.16004532190E+04  0.10100000352E+00 0.  1.
</event>
<event>
 5   0  0.7084130E-08  0.3299657E+04  0.7818609E-02  0.8162983E-01
       -2   -1    0    0    0  501  0.00000000000E+00  0.00000000000E+00  0.11305318377E+04  0.11305318377E+04  0.25500000920E-02 0. -1.
        2   -1    0    0  501    0  0.00000000000E+00  0.00000000000E+00 -0.24076576848E+04  0.24076576848E+04  0.25500000920E-02 0.  1.
    10030    2    1    2    0    0  0.00000000000E+00  0.00000000000E+00 -0.12771258471E+04  0.35381895225E+04  0.32996567499E+04 0.  0.
        3    1    3    3  502    0  0.97309969473E+03  0.91722959831E+03 -0.16746973997E+04  0.21430922852E+04  0.10100000352E+00 0.  1.
       -3    1    3    3    0  502 -0.97309969473E+03 -0.91722959831E+03  0.39757155259E+03  0.13950972373E+04  0.10100000352E+00 0. -1.
</event>
<event>
 5   0  0.6706080E-08  0.3300083E+04  0.7818609E-02  0.8162874E-01
        2   -1    0    0  501    0  0.00000000000E+00  0.00000000000E+00  0.15926447862E+04  0.15926447862E+04  0.25500000920E-02 0. -1.
       -2   -1    0    0    0  501  0.00000000000E+00  0.00000000000E+00 -0.17095071173E+04  0.17095071173E+04  0.25500000920E-02 0.  1.
    10030    2    1    2    0    0  0.00000000000E+00  0.00000000000E+00 -0.11686233110E+03  0.33021519035E+04  0.33000833913E+04 0.  0.
        4    1    3    3  502    0  0.11944434512E+04  0.11122310650E+04 -0.30124122262E+03  0.16596689390E+04  0.12699999809E+01 0.  1.
       -4    1    3    3    0  502 -0.11944434512E+04 -0.11122310650E+04  0.18437889152E+03  0.16424829645E+04  0.12699999809E+01 0. -1.
</event>
<event>
 5   0  0.2291682E-08  0.3300666E+04  0.7818609E-02  0.8162726E-01
       -1   -1    0    0    0  501  0.00000000000E+00  0.00000000000E+00  0.13260062045E+04  0.13260062045E+04  0.50400001928E-02 0. -1.
        1   -1    0    0  501    0  0.00000000000E+00  0.00000000000E+00 -0.20539867058E+04  0.20539867058E+04  0.50400001928E-02 0.  1.
    10030    2    1    2    0    0  0.00000000000E+00  0.00000000000E+00 -0.72798050129E+03  0.33799929103E+04  0.33006660636E+04 0.  0.
        2    1    3    3  502    0  0.11267792282E+04  0.43066731381E+03  0.78935225792E+03  0.14415903549E+04  0.25500000920E-02 0. -1.
       -2    1    3    3    0  502 -0.11267792282E+04 -0.43066731381E+03 -0.15173327592E+04  0.19384025553E+04  0.25500000920E-02 0.  1.
</event>
<event>
 5   0  0.2244093E-08  0.3300551E+04  0.7818609E-02  0.8162755E-01
       -1   -1    0    0    0  501  0.00000000000E+00  0.00000000000E+00  0.11778008752E+04  0.11778008752E+04  0.50400001928E-02 0. -1.
        1   -1    0    0  501    0  0.00000000000E+00  0.00000000000E+00 -0.23122825924E+04  0.23122825924E+04  0.50400001928E-02 0.  1.
    10030    2    1    2    0    0  0.00000000000E+00  0.00000000000E+00 -0.11344817172E+04  0.34900834676E+04  0.33005505365E+04 0.  0.
        1    1    3    3  502    0 -0.78095452226E+02  0.18806614003E+03  0.11644645414E+04  0.11821359655E+04  0.50400001928E-02 0. -1.
       -1    1    3    3    0  502  0.78095452226E+02 -0.18806614003E+03 -0.22989462586E+04  0.23079475021E+04  0.50400001928E-02 0.  1.
</event>
<event>
 5   0  0.2291682E-08  0.3299650E+04  0.7818609E-02  0.8162984E-01
       -1   -1    0    0    0  501  0.00000000000E+00  0.00000000000E+00  0.20000251378E+04  0.20000251378E+04  0.50400001928E-02 0.  1.
        1   -1    0    0  501    0  0.00000000000E+00  0.00000000000E+00 -0.13609445147E+04  0.13609445147E+04  0.50400001928E-02 0. -1.
    10030    2    1    2    0    0  0.00000000000E+00  0.00000000000E+00  0.63908062315E+03  0.33609696525E+04  0.32996504303E+04 0.  0.
        2    1    3    3  502    0 -0.13679785576E+04  0.84001765317E+03 -0.68228772586E+02  0.16067514298E+04  0.25500000920E-02 0. -1.
       -2    1    3    3    0  502  0.13679785576E+04 -0.84001765317E+03  0.70730939573E+03  0.17542182227E+04  0.25500000920E-02 0.  1.
</event>
<event>
 5   0  0.6706080E-08  0.3299985E+04  0.7818609E-02  0.8162899E-01
        2   -1    0    0  501    0  0.00000000000E+00  0.00000000000E+00  0.17250985548E+04  0.17250985548E+04  0.25500000920E-02 0. -1.
       -2   -1    0    0    0  501  0.00000000000E+00  0.00000000000E+00 -0.15781562448E+04  0.15781562448E+04  0.25500000920E-02 0.  1.
    10030    2    1    2    0    0  0.00000000000E+00  0.00000000000E+00  0.14694230993E+03  0.33032547996E+04  0.32999848831E+04 0.  0.
        4    1    3    3  502    0 -0.72389772531E+03 -0.11622442371E+04 -0.84811145884E+03  0.16106316286E+04  0.12699999809E+01 0.  1.
       -4    1    3    3    0  502  0.72389772531E+03  0.11622442371E+04  0.99505376877E+03  0.16926231710E+04  0.12699999809E+01 0. -1.
</event>
<event>
 5   0  0.6706080E-08  0.3295065E+04  0.7818609E-02  0.8164152E-01
        2   -1    0    0  501    0  0.00000000000E+00  0.00000000000E+00  0.22632574347E+04  0.22632574347E+04  0.25500000920E-02 0. -1.
       -2   -1    0    0    0  501  0.00000000000E+00  0.00000000000E+00 -0.11993167932E+04  0.11993167932E+04  0.25500000920E-02 0.  1.
    10030    2    1    2    0    0  0.00000000000E+00  0.00000000000E+00  0.10639406415E+04  0.34625742278E+04  0.32950645813E+04 0.  0.
        4    1    3    3  502    0 -0.15431553364E+04 -0.27664793442E+03  0.10641737029E+04  0.18948165491E+04  0.12699999809E+01 0. -1.
       -4    1    3    3    0  502  0.15431553364E+04  0.27664793442E+03 -0.23306133373E+00  0.15677576787E+04  0.12699999809E+01 0.  1.
</event>
<event>
 5   0  0.6821287E-08  0.3298636E+04  0.7818609E-02  0.8163243E-01
       -2   -1    0    0    0  501  0.00000000000E+00  0.00000000000E+00  0.10980293670E+04  0.10980293670E+04  0.25500000920E-02 0.  1.
        2   -1    0    0  501    0  0.00000000000E+00  0.00000000000E+00 -0.24773924143E+04  0.24773924143E+04  0.25500000920E-02 0. -1.
    10030    2    1    2    0    0  0.00000000000E+00  0.00000000000E+00 -0.13793630473E+04  0.35754217813E+04  0.32986358541E+04 0.  0.
        5    1    3    3  502    0  0.65968862984E+03 -0.14526799936E+04 -0.11428013159E+04  0.19625201120E+04  0.46999998093E+01 0.  1.
       -5    1    3    3    0  502 -0.65968862984E+03  0.14526799936E+04 -0.23656173137E+03  0.16129016693E+04  0.46999998093E+01 0. -1.
</event>
<event>
 5   0  0.2279938E-08  0.3299516E+04  0.7818609E-02  0.8163019E-01
       -1   -1    0    0    0  501  0.00000000000E+00  0.00000000000E+00  0.18829028919E+04  0.18829028919E+04  0.50400001928E-02 0. -1.
        1   -1    0    0  501    0  0.00000000000E+00  0.00000000000E+00 -0.14454816761E+04  0.14454816761E+04  0.50400001928E-02 0.  1.
    10030    2    1    2    0    0  0.00000000000E+00  0.00000000000E+00  0.43742121582E+03  0.33283845680E+04  0.32995161027E+04 0.  0.
        3    1    3    3  502    0 -0.16048445698E+04  0.22416137285E+03  0.53114162278E+03  0.17052524294E+04  0.10100000352E+00 0. -1.
       -3    1    3    3    0  502  0.16048445698E+04 -0.22416137285E+03 -0.93720406954E+02  0.16231321386E+04  0.10100000352E+00 0.  1.
</event>
<event>
 5   0  0.2291682E-08  0.3301392E+04  0.7818609E-02  0.8162541E-01
        1   -1    0    0  501    0  0.00000000000E+00  0.00000000000E+00  0.17248685110E+04  0.17248685110E+04  0.50400001928E-02 0.  1.
       -1   -1    0    0    0  501  0.00000000000E+00  0.00000000000E+00 -0.15797132268E+04  0.15797132268E+04  0.50400001928E-02 0. -1.
    10030    2    1    2    0    0  0.00000000000E+00  0.00000000000E+00  0.14515528423E+03  0.33045817378E+04  0.33013921920E+04 0.  0.
        2    1    3    3  502    0  0.71805431532E+02 -0.26000776295E+03 -0.15575034604E+04  0.15806888011E+04  0.25500000920E-02 0. -1.
       -2    1    3    3    0  502 -0.71805431532E+02  0.26000776295E+03  0.17026587446E+04  0.17238929368E+04  0.25500000920E-02 0.  1.
</event>
<event>
 5   0  0.6603516E-08  0.3300553E+04  0.7818609E-02  0.8162755E-01
        2   -1    0    0  501    0  0.00000000000E+00  0.00000000000E+00  0.20623011727E+04  0.20623011727E+04  0.25500000920E-02 0.  1.
       -2   -1    0    0    0  501  0.00000000000E+00  0.00000000000E+00 -0.13205695784E+04  0.13205695784E+04  0.25500000920E-02 0. -1.
    10030    2    1    2    0    0  0.00000000000E+00  0.00000000000E+00  0.74173159429E+03  0.33828707512E+04  0.33005527963E+04 0.  0.
        1    1    3    3  502    0  0.72313904626E+03  0.93853612283E+03  0.15482688276E+04  0.19495939312E+04  0.50400001928E-02 0.  1.
       -1    1    3    3    0  502 -0.72313904626E+03 -0.93853612283E+03 -0.80653723327E+03  0.14332768200E+04  0.50400001928E-02 0. -1.
</event>
<event>
 5   0  0.2309822E-08  0.3297050E+04  0.7818609E-02  0.8163647E-01
       -1   -1    0    0    0  501  0.00000000000E+00  0.00000000000E+00  0.22477365634E+04  0.22477365634E+04  0.50400001928E-02 0. -1.
        1   -1    0    0  501    0  0.00000000000E+00  0.00000000000E+00 -0.12090536423E+04  0.12090536423E+04  0.50400001928E-02 0.  1.
    10030    2    1    2    0    0  0.00000000000E+00  0.00000000000E+00  0.10386829211E+04  0.34567902056E+04  0.32970496380E+04 0.  0.
        4    1    3    3  502    0  0.13030025204E+04 -0.11924234461E+03 -0.53203868723E+03  0.14124804716E+04  0.12699999809E+01 0.  1.
       -4    1    3    3    0  502 -0.13030025204E+04  0.11924234461E+03  0.15707216083E+04  0.20443097341E+04  0.12699999809E+01 0. -1.
</event>
<event>
 5   0  0.6706080E-08  0.3300907E+04  0.7818609E-02  0.8162665E-01
       -2   -1    0    0    0  501  0.00000000000E+00  0.00000000000E+00  0.13914588610E+04  0.13914588610E+04  0.25500000920E-02 0. -1.
        2   -1    0    0  501    0  0.00000000000E+00  0.00000000000E+00 -0.19576557160E+04  0.19576557160E+04  0.25500000920E-02 0.  1.
    10030    2    1    2    0    0  0.00000000000E+00  0.00000000000E+00 -0.56619685493E+03  0.33491145770E+04  0.33009073861E+04 0.  0.
        4    1    3    3  502    0 -0.94409361359E+03  0.72855618010E+03  0.87456851400E+03  0.14788436555E+04  0.12699999809E+01 0. -1.
       -4    1    3    3    0  502  0.94409361359E+03 -0.72855618010E+03 -0.14407653689E+04  0.18702709215E+04  0.12699999809E+01 0.  1.
</event>
<event>
 5   0  0.6765252E-08  0.3299300E+04  0.7818609E-02  0.8163074E-01
        2   -1    0    0  501    0  0.00000000000E+00  0.00000000000E+00  0.12530149066E+04  0.12530149066E+04  0.25500000920E-02 0.  1.
       -2   -1    0    0    0  501  0.00000000000E+00  0.00000000000E+00 -0.21718374560E+04  0.21718374560E+04  0.25500000920E-02 0. -1.
    10030    2    1    2    0    0  0.00000000000E+00  0.00000000000E+00 -0.91882254943E+03  0.34248523625E+04  0.32992997481E+04 0.  0.
        2    1    3    3  502    0 -0.10321263777E+02 -0.15889417496E+04  0.74345922666E+00  0.15889754450E+04  0.25500000920E-02 0.  1.
       -2    1    3    3    0  502  0.10321263777E+02  0.15889417496E+04 -0.91956600866E+03  0.18358769175E+04  0.25500000920E-02 0. -1.
</event>
<event>
 5   0  0.2309822E-08  0.3299070E+04  0.7818609E-02  0.8163132E-01
       -1   -1    0    0    0  501  0.00000000000E+00  0.00000000000E+00  0.33985523074E+04  0.33985523074E+04  0.50400001928E-02 0. -1.
        1   -1    0    0  501    0  0.00000000000E+00  0.00000000000E+00 -0.80062489946E+03  0.80062489947E+03  0.50400001928E-02 0.  1.
    10030    2    1    2    0    0  0.00000000000E+00  0.00000000000E+00  0.25979274079E+04  0.41991772068E+04  0.32990699292E+04 0.  0.
        4    1    3    3  502    0  0.14400713594E+04 -0.38803510130E+02  0.23217200552E+04  0.27323427421E+04  0.12699999809E+01 0.  1.
       -4    1    3    3    0  502 -0.14400713594E+04  0.38803510130E+02  0.27620735267E+03  0.14668344648E+04  0.12699999809E+01 0. -1.
</event>
<event>
 5   0  0.6706080E-08  0.3299157E+04  0.7818609E-02  0.8163110E-01
        2   -1    0    0  501    0  0.00000000000E+00  0.00000000000E+00  0.92505732066E+03  0.92505732067E+03  0.25500000920E-02 0. -1.
       -2   -1    0    0    0  501  0.00000000000E+00  0.00000000000E+00 -0.29415581955E+04  0.29415581955E+04  0.25500000920E-02 0.  1.
    10030    2    1    2    0    0  0.00000000000E+00  0.00000000000E+00 -0.20165008749E+04  0.38666155162E+04  0.32991574336E+04 0.  0.
        4    1    3    3  502    0  0.31032196970E+03 -0.14985110810E+04 -0.17300290279E+04  0.23097266580E+04  0.12699999809E+01 0.  1.
       -4    1    3    3    0  502 -0.31032196970E+03  0.14985110810E+04 -0.28647184700E+03  0.15568888582E+04  0.12699999809E+01 0. -1.
</event>
<event>
 5   0  0.2279938E-08  0.3303149E+04  0.7818609E-02  0.8162094E-01
        1   -1    0    0  501    0  0.00000000000E+00  0.00000000000E+00  0.14030014341E+04  0.14030014341E+04  0.50400001928E-02 0.  1.
       -1   -1    0    0    0  501  0.00000000000E+00  0.00000000000E+00 -0.19441883959E+04  0.19441883959E+04  0.50400001928E-02 0. -1.
    10030    2    1    2    0    0  0.00000000000E+00  0.00000000000E+00 -0.54118696181E+03  0.33471898300E+04  0.33031494714E+04 0.  0.
        3    1    3    3  502    0  0.88131551577E+02 -0.13220053813E+04 -0.12697590315E+04  0.18351439744E+04  0.10100000352E+00 0. -1.
       -3    1    3    3    0  502 -0.88131551577E+02  0.13220053813E+04  0.72857206968E+03  0.15120458556E+04  0.10100000352E+00 0.  1.
</event>
<event>
 5   0  0.6821287E-08  0.3303213E+04  0.7818609E-02  0.8162078E-01
       -2   -1    0    0    0  501  0.00000000000E+00  0.00000000000E+00  0.11053293326E+04  0.11053293326E+04  0.25500000920E-02 0. -1.
        2   -1    0    0  501    0  0.00000000000E+00  0.00000000000E+00 -0.24678650157E+04  0.24678650157E+04  0.25500000920E-02 0.  1.
    10030    2    1    2    0    0  0.00000000000E+00  0.00000000000E+00 -0.13625356830E+04  0.35731943483E+04  0.33032127335E+04 0.  0.
        5    1    3    3  502    0  0.39425760338E+03  0.28519523536E+03  0.10260229255E+04  0.11355705675E+04  0.46999998093E+01 0. -1.
       -5    1    3    3    0  502 -0.39425760338E+03 -0.28519523536E+03 -0.23885586086E+04  0.24376237808E+04  0.46999998093E+01 0.  1.
</event>
<event>
 5   0  0.6821287E-08  0.3297218E+04  0.7818609E-02  0.8163604E-01
        2   -1    0    0  501    0  0.00000000000E+00  0.00000000000E+00  0.11915703980E+04  0.11915703980E+04  0.25500000920E-02 0.  1.
       -2   -1    0    0    0  501  0.00000000000E+00  0.00000000000E+00 -0.22809495159E+04  0.22809495159E+04  0.25500000920E-02 0. -1.
    10030    2    1    2    0    0  0.00000000000E+00  0.00000000000E+00 -0.10893791179E+04  0.34725199139E+04  0.32972181744E+04 0.  0.
        5    1    3    3  502    0 -0.42409478519E+03  0.15188189048E+04 -0.38268005149E+02  0.15773882790E+04  0.46999998093E+01 0.  1.
       -5    1    3    3    0  502  0.42409478519E+03 -0.15188189048E+04 -0.10511111127E+04  0.18951316349E+04  0.46999998093E+01 0. -1.
</event>
<event>
 5   0  0.6603516E-08  0.3299197E+04  0.7818609E-02  0.8163100E-01
        2   -1    0    0  501    0  0.00000000000E+00  0.00000000000E+00  0.25973982929E+04  0.25973982929E+04  0.25500000920E-02 0.  1.
       -2   -1    0    0    0  501  0.00000000000E+00  0.00000000000E+00 -0.10476539758E+04  0.10476539758E+04  0.25500000920E-02 0. -1.
    10030    2    1    2    0    0  0.00000000000E+00  0.00000000000E+00  0.15497443171E+04  0.36450522688E+04  0.32991966588E+04 0.  0.
        1    1    3    3  502    0 -0.51440626066E+03 -0.10283699713E+04 -0.53192115874E+03  0.12669249063E+04  0.50400001928E-02 0. -1.
       -1    1    3    3    0  502  0.51440626066E+03  0.10283699713E+04  0.20816654758E+04  0.23781273625E+04  0.50400001928E-02 0.  1.
</event>
<event>
 5   0  0.2309822E-08  0.3288567E+04  0.7818609E-02  0.8165810E-01
        1   -1    0    0  501    0  0.00000000000E+00  0.00000000000E+00  0.16350994479E+04  0.16350994479E+04  0.50400001928E-02 0.  1.
       -1   -1    0    0    0  501  0.00000000000E+00  0.00000000000E+00 -0.16535196227E+04  0.16535196227E+04  0.50400001928E-02 0. -1.
    10030    2    1    2    0    0  0.00000000000E+00  0.00000000000E+00 -0.18420174836E+02  0.32886190706E+04  0.32885674827E+04 0.  0.
        4    1    3    3  502    0 -0.22619114401E+03  0.96553268914E+03  0.13023941111E+04  0.16369629931E+04  0.12699999809E+01 0.  1.
       -4    1    3    3    0  502  0.22619114401E+03 -0.96553268914E+03 -0.13208142859E+04  0.16516560774E+04  0.12699999809E+01 0. -1.
</event>
<event>
 5   0  0.2279938E-08  0.3300067E+04  0.7818609E-02  0.8162878E-01
        1   -1    0    0  501    0  0.00000000000E+00  0.00000000000E+00  0.29159402744E+04  0.29159402744E+04  0.50400001928E-02 0. -1.
       -1   -1    0    0    0  501  0.00000000000E+00  0.00000000000E+00 -0.93369886853E+03  0.93369886854E+03  0.50400001928E-02 0.  1.
    10030    2    1    2    0    0  0.00000000000E+00  0.00000000000E+00  0.19822414059E+04  0.38496391429E+04  0.33000667478E+04 0.  0.
        3    1    3    3  502    0 -0.10552304563E+04 -0.60086062193E+03  0.22943353595E+04  0.25958658584E+04  0.10100000352E+00 0. -1.
       -3    1    3    3    0  502  0.10552304563E+04  0.60086062193E+03 -0.31209395360E+03  0.12537732845E+04  0.10100000352E+00 0.  1.
</event>
<event>
 5   0  0.2279938E-08  0.3300760E+04  0.7818609E-02  0.8162702E-01
       -1   -1    0    0    0  501  0.00000000000E+00  0.00000000000E+00  0.11986674388E+04  0.11986674388E+04  0.50400001928E-02 0. -1.
        1   -1    0    0  501    0  0.00000000000E+00  0.00000000000E+00 -0.22723186999E+04  0.22723186999E+04  0.50400001928E-02 0.  1.
    10030    2    1    2    0    0  0.00000000000E+00  0.00000000000E+00 -0.10736512611E+04  0.34709861387E+04  0.33007601768E+04 0.  0.
        3    1    3    3  502    0  0.78094766559E+03  0.41041190644E+03 -0.20035466656E+04  0.21891816829E+04  0.10100000352E+00 0.  1.
       -3    1    3    3    0  502 -0.78094766559E+03 -0.41041190644E+03  0.92989540448E+03  0.12818044558E+04  0.10100000352E+00 0. -1.
</event>
<event>
 5   0  0.6706080E-08  0.3300245E+04  0.7818609E-02  0.8162833E-01
       -2   -1    0    0    0  501  0.00000000000E+00  0.00000000000E+00  0.13177682418E+04  0.13177682418E+04  0.25500000920E-02 0.  1.
        2   -1    0    0  501    0  0.00000000000E+00  0.00000000000E+00 -0.20662997862E+04  0.20662997862E+04  0.25500000920E-02 0. -1.
    10030    2    1    2    0    0  0.00000000000E+00  0.00000000000E+00 -0.74853154436E+03  0.33840680280E+04  0.33002449826E+04 0.  0.
        4    1    3    3  502    0  0.95863345994E+03 -0.10062889677E+04  0.53788245077E+03  0.14902733779E+04  0.12699999809E+01 0.  1.
       -4    1    3    3    0  502 -0.95863345994E+03  0.10062889677E+04 -0.12864139951E+04  0.18937946501E+04  0.12699999809E+01 0. -1.
</event>
<event>
 5   0  0.2383270E-08  0.3300420E+04  0.7818609E-02  0.8162789E-01
       -1   -1    0    0    0  501  0.00000000000E+00  0.00000000000E+00  0.27242780237E+04  0.27242780237E+04  0.50400001928E-02 0.  1.
        1   -1    0    0  501    0  0.00000000000E+00  0.00000000000E+00 -0.99960171039E+03  0.99960171041E+03  0.50400001928E-02 0. -1.
    10030    2    1    2    0    0  0.00000000000E+00  0.00000000000E+00  0.17246763133E+04  0.37238797341E+04  0.33004199564E+04 0.  0.
        5    1    3    3  502    0 -0.53999915323E+03 -0.52839948573E+03  0.25176677585E+04  0.26285886202E+04  0.46999998093E+01 0.  1.
       -5    1    3    3    0  502  0.53999915323E+03  0.52839948573E+03 -0.79299144522E+03  0.10952911139E+04  0.46999998093E+01 0. -1.
</event>
<event>
 5   0  0.2309822E-08  0.3299765E+04  0.7818609E-02  0.8162955E-01
       -1   -1    0    0    0  501  0.00000000000E+00  0.00000000000E+00  0.15348534777E+04  0.15348534777E+04  0.50400001928E-02 0.  1.
        1   -1    0    0  501    0  0.00000000000E+00  0.00000000000E+00 -0.17735319719E+04  0.17735319719E+04  0.50400001928E-02 0. -1.
    10030    2    1    2    0    0  0.00000000000E+00  0.00000000000E+00 -0.23867849415E+03  0.33083854496E+04  0.32997646673E+04 0.  0.
        4    1    3    3  502    0  0.10549164311E+04  0.11806899636E+04  0.34580450911E+03  0.16206356278E+04  0.12699999809E+01 0.  1.
       -4    1    3    3    0  502 -0.10549164311E+04 -0.11806899636E+04 -0.58448300326E+03  0.16877498217E+04  0.12699999809E+01 0. -1.
</event>
<event>
 5   0  0.2291682E-08  0.3300330E+04  0.7818609E-02  0.8162811E-01
        1   -1    0    0  501    0  0.00000000000E+00  0.00000000000E+00  0.20206262319E+04  0.20206262319E+04  0.50400001928E-02 0.  1.
       -1   -1    0    0    0  501  0.00000000000E+00  0.00000000000E+00 -0.13476242808E+04  0.13476242808E+04  0.50400001928E-02 0. -1.
    10030    2    1    2    0    0  0.00000000000E+00  0.00000000000E+00  0.67300195113E+03  0.33682505127E+04  0.33003302699E+04 0.  0.
        2    1    3    3  502    0  0.97899525157E+03 -0.13283785128E+04  0.34147956656E+03  0.16851200165E+04  0.25500000920E-02 0. -1.
       -2    1    3    3    0  502 -0.97899525157E+03  0.13283785128E+04  0.33152238458E+03  0.16831304962E+04  0.25500000920E-02 0.  1.
</event>
<event>
 5   0  0.7084130E-08  0.3299584E+04  0.7818609E-02  0.8163001E-01
        2   -1    0    0  501    0  0.00000000000E+00  0.00000000000E+00  0.31543322497E+04  0.31543322497E+04  0.25500000920E-02 0.  1.
       -2   -1    0    0    0  501  0.00000000000E+00  0.00000000000E+00 -0.86288107424E+03  0.86288107424E+03  0.25500000920E-02 0. -1.
    10030    2    1    2    0    0  0.00000000000E+00  0.00000000000E+00  0.22914511754E+04  0.40172133239E+04  0.32995839738E+04 0.  0.
        3    1    3    3  502    0  0.35569981414E+03  0.48588759730E+03 -0.72430409698E+03  0.94192650992E+03  0.10100000352E+00 0. -1.
       -3    1    3    3    0  502 -0.35569981414E+03 -0.48588759730E+03  0.30157552724E+04  0.30752868140E+04  0.10100000352E+00 0.  1.
</event>
<event>
 5   0  0.6706080E-08  0.3300879E+04  0.7818609E-02  0.8162672E-01
        2   -1    0    0  501    0  0.00000000000E+00  0.00000000000E+00  0.19573394159E+04  0.19573394159E+04  0.25500000920E-02 0.  1.
       -2   -1    0    0    0  501  0.00000000000E+00  0.00000000000E+00 -0.13916600505E+04  0.13916600505E+04  0.25500000920E-02 0. -1.
    10030    2    1    2    0    0  0.00000000000E+00  0.00000000000E+00  0.56567936536E+03  0.33489994664E+04  0.33008793195E+04 0.  0.
        4    1    3    3  502    0 -0.41568311749E+03 -0.39599658703E+03  0.18527638615E+04  0.19396755632E+04  0.12699999809E+01 0.  1.
       -4    1    3    3    0  502  0.41568311749E+03  0.39599658703E+03 -0.12870844961E+04  0.14093239032E+04  0.12699999809E+01 0. -1.
</event>
<event>
 5   0  0.6603516E-08  0.3300551E+04  0.7818609E-02  0.8162755E-01
        2   -1    0    0  501    0  0.00000000000E+00  0.00000000000E+00  0.23274632522E+04  0.23274632522E+04  0.25500000920E-02 0.  1.
       -2   -1    0    0    0  501  0.00000000000E+00  0.00000000000E+00 -0.11701187651E+04  0.11701187651E+04  0.25500000920E-02 0. -1.
    10030    2    1    2    0    0  0.00000000000E+00  0.00000000000E+00  0.11573444871E+04  0.34975820173E+04  0.33005505155E+04 0.  0.
        1    1    3    3  502    0 -0.15999128733E+04  0.39316476087E+03  0.47753535119E+03  0.17153249672E+04  0.50400001928E-02 0. -1.
       -1    1    3    3    0  502  0.15999128733E+04 -0.39316476087E+03  0.67980913595E+03  0.17822570501E+04  0.50400001928E-02 0.  1.
</event>
<event>
 5   0  0.7084130E-08  0.3300200E+04  0.7818609E-02  0.8162845E-01
        2   -1    0    0  501    0  0.00000000000E+00  0.00000000000E+00  0.30977801915E+04  0.30977801915E+04  0.25500000920E-02 0.  1.
       -2   -1    0    0    0  501  0.00000000000E+00  0.00000000000E+00 -0.87896145324E+03  0.87896145324E+03  0.25500000920E-02 0. -1.
    10030    2    1    2    0    0  0.00000000000E+00  0.00000000000E+00  0.22188187383E+04  0.39767416447E+04  0.33001996176E+04 0.  0.
        3    1    3    3  502    0  0.12656989882E+04 -0.10285528015E+04  0.14116569264E+04  0.21570095230E+04  0.10100000352E+00 0. -1.
       -3    1    3    3    0  502 -0.12656989882E+04  0.10285528015E+04  0.80716181181E+03  0.18197321217E+04  0.10100000352E+00 0.  1.
</event>
<event>
 5   0  0.2383270E-08  0.3295364E+04  0.7818609E-02  0.8164076E-01
        1   -1    0    0  501    0  0.00000000000E+00  0.00000000000E+00  0.17489950732E+04  0.17489950732E+04  0.50400001928E-02 0.  1.
       -1   -1    0    0    0  501  0.00000000000E+00  0.00000000000E+00 -0.15522376579E+04  0.15522376579E+04  0.50400001928E-02 0. -1.
    10030    2    1    2    0    0  0.00000000000E+00  0.00000000000E+00  0.19675741523E+03  0.33012327311E+04  0.32953640261E+04 0.  0.
        5    1    3    3  502    0 -0.48145531988E+03  0.45910113066E+03  0.16084652568E+04  0.17406193282E+04  0.46999998093E+01 0.  1.
       -5    1    3    3    0  502  0.48145531988E+03 -0.45910113066E+03 -0.14117078416E+04  0.15606134029E+04  0.46999998093E+01 0. -1.
</event>
<event>
 5   0  0.2309822E-08  0.3297776E+04  0.7818609E-02  0.8163462E-01
        1   -1    0    0  501    0  0.00000000000E+00  0.00000000000E+00  0.20381267300E+04  0.20381267300E+04  0.50400001928E-02 0. -1.
       -1   -1    0    0    0  501  0.00000000000E+00  0.00000000000E+00 -0.13339854235E+04  0.13339854236E+04  0.50400001928E-02 0.  1.
    10030    2    1    2    0    0  0.00000000000E+00  0.00000000000E+00  0.70414130646E+03  0.33721121536E+04  0.32977758257E+04 0.  0.
        4    1    3    3  502    0 -0.24020174304E+03 -0.12898103936E+04 -0.66920298864E+03  0.14728007271E+04  0.12699999809E+01 0.  1.
       -4    1    3    3    0  502  0.24020174304E+03  0.12898103936E+04  0.13733442951E+04  0.18993114265E+04  0.12699999809E+01 0. -1.
</event>
<event>
 5   0  0.2383270E-08  0.3300625E+04  0.7818609E-02  0.8162736E-01
        1   -1    0    0  501    0  0.00000000000E+00  0.00000000000E+00  0.17902498820E+04  0.17902498820E+04  0.50400001928E-02 0. -1.
       -1   -1    0    0    0  501  0.00000000000E+00  0.00000000000E+00 -0.15213136913E+04  0.15213136913E+04  0.50400001928E-02 0.  1.
    10030    2    1    2    0    0  0.00000000000E+00  0.00000000000E+00  0.26893619070E+03  0.33115635733E+04  0.33006251871E+04 0.  0.
        5    1    3    3  502    0 -0.73985910121E+03 -0.13606746798E+04 -0.43722944391E+03  0.16093535195E+04  0.46999998093E+01 0. -1.
       -5    1    3    3    0  502  0.73985910121E+03  0.13606746798E+04  0.70616563460E+03  0.17022100539E+04  0.46999998093E+01 0.  1.
</event>
<event>
 5   0  0.2244093E-08  0.3298132E+04  0.7818609E-02  0.8163371E-01
        1   -1    0    0  501    0  0.00000000000E+00  0.00000000000E+00  0.13712490471E+04  0.13712490471E+04  0.50400001928E-02 0. -1.
       -1   -1    0    0    0  501  0.00000000000E+00  0.00000000000E+00 -0.19831690950E+04  0.19831690950E+04  0.50400001928E-02 0.  1.
    10030    2    1    2    0    0  0.00000000000E+00  0.00000000000E+00 -0.61192004795E+03  0.33544181421E+04  0.32981320360E+04 0.  0.
        1    1    3    3  502    0  0.19171496259E+03 -0.16378727548E+04 -0.31214192088E+03  0.16783367858E+04  0.50400001928E-02 0. -1.
       -1    1    3    3    0  502 -0.19171496259E+03  0.16378727548E+04 -0.29977812707E+03  0.16760813564E+04  0.50400001928E-02 0.  1.
</event>
<event>
 5   0  0.6706080E-08  0.3298797E+04  0.7818609E-02  0.8163201E-01
        2   -1    0    0  501    0  0.00000000000E+00  0.00000000000E+00  0.18873198849E+04  0.18873198849E+04  0.25500000920E-02 0. -1.
       -2   -1    0    0    0  501  0.00000000000E+00  0.00000000000E+00 -0.14414705343E+04  0.14414705343E+04  0.25500000920E-02 0.  1.
    10030    2    1    2    0    0  0.00000000000E+00  0.00000000000E+00  0.44584935060E+03  0.33287904192E+04  0.32987973584E+04 0.  0.
        4    1    3    3  502    0  0.32560777076E+03  0.33790974812E+03 -0.13726892874E+04  0.14506829119E+04  0.12699999809E+01 0.  1.
       -4    1    3    3    0  502 -0.32560777076E+03 -0.33790974812E+03  0.18185386380E+04  0.18781075073E+04  0.12699999809E+01 0. -1.
</event>
<event>
 5   0  0.6603516E-08  0.3300507E+04  0.7818609E-02  0.8162766E-01
       -2   -1    0    0    0  501  0.00000000000E+00  0.00000000000E+00  0.15747065423E+04  0.15747065423E+04  0.25500000920E-02 0. -1.
        2   -1    0    0  501    0  0.00000000000E+00  0.00000000000E+00 -0.17294245083E+04  0.17294245083E+04  0.25500000920E-02 0.  1.
    10030    2    1    2    0    0  0.00000000000E+00  0.00000000000E+00 -0.15471796597E+03  0.33041310507E+04  0.33005066809E+04 0.  0.
        1    1    3    3  502    0  0.50710247245E+03  0.65893188850E+03 -0.15044038842E+04  0.17188877794E+04  0.50400001928E-02 0.  1.
       -1    1    3    3    0  502 -0.50710247245E+03 -0.65893188850E+03  0.13496859182E+04  0.15852432713E+04  0.50400001928E-02 0. -1.
</event>
<event>
 5   0  0.6765252E-08  0.3299132E+04  0.7818609E-02  0.8163116E-01
        2   -1    0    0  501    0  0.00000000000E+00  0.00000000000E+00  0.25025224422E+04  0.25025224422E+04  0.25500000920E-02 0.  1.
       -2   -1    0    0    0  501  0.00000000000E+00  0.00000000000E+00 -0.10873303357E+04  0.10873303357E+04  0.25500000920E-02 0. -1.
    10030    2    1    2    0    0  0.00000000000E+00  0.00000000000E+00  0.14151921064E+04  0.35898527779E+04  0.32991323509E+04 0.  0.
        2    1    3    3  502    0  0.22309511756E+03 -0.18617139087E+03 -0.10592637875E+04  0.10983947331E+04  0.25500000920E-02 0. -1.
       -2    1    3    3    0  502 -0.22309511756E+03  0.18617139087E+03  0.24744558939E+04  0.24914580448E+04  0.25500000920E-02 0.  1.
</event>
<event>
 5   0  0.2279938E-08  0.3299994E+04  0.7818609E-02  0.8162897E-01
        1   -1    0    0  501    0  0.00000000000E+00  0.00000000000E+00  0.16539994238E+04  0.16539994239E+04  0.50400001928E-02 0. -1.
       -1   -1    0    0    0  501  0.00000000000E+00  0.00000000000E+00 -0.16460041554E+04  0.16460041554E+04  0.50400001928E-02 0.  1.
    10030    2    1    2    0    0  0.00000000000E+00  0.00000000000E+00  0.79952684807E+01  0.33000035792E+04  0.32999938937E+04 0.  0.
        3    1    3    3  502    0  0.10849604866E+04 -0.63012251737E+03 -0.10675913777E+04  0.16474055373E+04  0.10100000352E+00 0.  1.
       -3    1    3    3    0  502 -0.10849604866E+04  0.63012251737E+03  0.10755866462E+04  0.16525980419E+04  0.10100000352E+00 0. -1.
</event>
<event>
 5   0  0.7084130E-08  0.3300710E+04  0.7818609E-02  0.8162715E-01
        2   -1    0    0  501    0  0.00000000000E+00  0.00000000000E+00  0.16682787074E+04  0.16682787074E+04  0.25500000920E-02 0.  1.
       -2   -1    0    0    0  501  0.00000000000E+00  0.00000000000E+00 -0.16326243506E+04  0.16326243506E+04  0.25500000920E-02 0. -1.
    10030    2    1    2    0    0  0.00000000000E+00  0.00000000000E+00  0.35654356810E+02  0.33009030580E+04  0.33007104940E+04 0.  0.
        3    1    3    3  502    0  0.11959295210E+04 -0.11280439103E+04  0.16254895241E+03  0.16520147260E+04  0.10100000352E+00 0.  1.
       -3    1    3    3    0  502 -0.11959295210E+04  0.11280439103E+04 -0.12689459560E+03  0.16488883320E+04  0.10100000352E+00 0. -1.
</event>
<event>
 5   0  0.6821287E-08  0.3302378E+04  0.7818609E-02  0.8162291E-01
       -2   -1    0    0    0  501  0.00000000000E+00  0.00000000000E+00  0.10616010215E+04  0.10616010215E+04  0.25500000920E-02 0.  1.
        2   -1    0    0  501    0  0.00000000000E+00  0.00000000000E+00 -0.25682203306E+04  0.25682203306E+04  0.25500000920E-02 0. -1.
    10030    2    1    2    0    0  0.00000000000E+00  0.00000000000E+00 -0.15066193091E+04  0.36298213521E+04  0.33023781288E+04 0.  0.
        5    1    3    3  502    0  0.67573567524E+03 -0.54736096048E+02 -0.24081799150E+04  0.25017928244E+04  0.46999998093E+01 0. -1.
       -5    1    3    3    0  502 -0.67573567524E+03  0.54736096048E+02  0.90156060597E+03  0.11280285277E+04  0.46999998093E+01 0.  1.
</event>
<event>
 5   0  0.6603516E-08  0.3300677E+04  0.7818609E-02  0.8162723E-01
        2   -1    0    0  501    0  0.00000000000E+00  0.00000000000E+00  0.18675904943E+04  0.18675904943E+04  0.25500000920E-02 0.  1.
       -2   -1    0    0    0  501  0.00000000000E+00  0.00000000000E+00 -0.14583588570E+04  0.14583588570E+04  0.25500000920E-02 0. -1.
    10030    2    1    2    0    0  0.00000000000E+00  0.00000000000E+00  0.40923163727E+03  0.33259493513E+04  0.33006769843E+04 0.  0.
        1    1    3    3  502    0 -0.82954136589E+03 -0.12990992382E+04  0.79889364482E+03  0.17360958396E+04  0.50400001928E-02 0.  1.
       -1    1    3    3    0  502  0.82954136589E+03  0.12990992382E+04 -0.38966200755E+03  0.15898535117E+04  0.50400001928E-02 0. -1.
</event>
<event>
 5   0  0.2279938E-08  0.3302639E+04  0.7818609E-02  0.8162224E-01
        1   -1    0    0  501    0  0.00000000000E+00  0.00000000000E+00  0.25945885491E+04  0.25945885491E+04  0.50400001928E-02 0.  1.
       -1   -1    0    0    0  501  0.00000000000E+00  0.00000000000E+00 -0.10509783230E+04  0.10509783230E+04  0.50400001928E-02 0. -1.
    10030    2    1    2    0    0  0.00000000000E+00  0.00000000000E+00  0.15436102261E+04  0.36455668721E+04  0.33026391399E+04 0.  0.
        3    1    3    3  502    0  0.96466607106E+03  0.13928794387E+03  0.22432104583E+04  0.24458076233E+04  0.10100000352E+00 0.  1.
       -3    1    3    3    0  502 -0.96466607106E+03 -0.13928794387E+03 -0.69960023215E+03  0.11997592488E+04  0.10100000352E+00 0. -1.
</event>
<event>
 5   0  0.2309822E-08  0.3299873E+04  0.7818609E-02  0.8162928E-01
       -1   -1    0    0    0  501  0.00000000000E+00  0.00000000000E+00  0.13684768520E+04  0.13684768520E+04  0.50400001928E-02 0. -1.
        1   -1    0    0  501    0  0.00000000000E+00  0.00000000000E+00 -0.19892851968E+04  0.19892851968E+04  0.50400001928E-02 0.  1.
    10030    2    1    2    0    0  0.00000000000E+00  0.00000000000E+00 -0.62080834482E+03  0.33577620488E+04  0.32998731756E+04 0.  0.
        4    1    3    3  502    0 -0.13048098693E+04 -0.93037588863E+03  0.89117171096E+02  0.16050145084E+04  0.12699999809E+01 0. -1.
       -4    1    3    3    0  502  0.13048098693E+04  0.93037588863E+03 -0.70992551592E+03  0.17527475404E+04  0.12699999809E+01 0.  1.
</event>
<event>
 5   0  0.2279938E-08  0.3300222E+04  0.7818609E-02  0.8162839E-01
       -1   -1    0    0    0  501  0.00000000000E+00  0.00000000000E+00  0.34350735051E+04  0.34350735051E+04  0.50400001928E-02 0.  1.
        1   -1    0    0  501    0  0.00000000000E+00  0.00000000000E+00 -0.79266594753E+03  0.79266594755E+03  0.50400001928E-02 0. -1.
    10030    2    1    2    0    0  0.00000000000E+00  0.00000000000E+00  0.26424075576E+04  0.42277394526E+04  0.33002216864E+04 0.  0.
        3    1    3    3  502    0 -0.85974667114E+03 -0.58336687591E+03 -0.32102893327E+03  0.10874469351E+04  0.10100000352E+00 0. -1.
       -3    1    3    3    0  502  0.85974667114E+03  0.58336687591E+03  0.29634364908E+04  0.31402925175E+04  0.10100000352E+00 0.  1.
</event>
<event>
 5   0  0.6706080E-08  0.3301751E+04  0.7818609E-02  0.8162450E-01
        2   -1    0    0  501    0  0.00000000000E+00  0.00000000000E+00  0.10934549449E+04  0.10934549449E+04  0.25500000920E-02 0.  1.
       -2   -1    0    0    0  501  0.00000000000E+00  0.00000000000E+00 -0.24924567510E+04  0.24924567510E+04  0.25500000920E-02 0. -1.
    10030    2    1    2    0    0  0.00000000000E+00  0.00000000000E+00 -0.13990018061E+04  0.35859116960E+04  0.33017505414E+04 0.  0.
        4    1    3    3  502    0  0.10429553222E+04 -0.12780731008E+04 -0.62944438936E+03  0.17656241127E+04  0.12699999809E+01 0. -1.
       -4    1    3    3    0  502 -0.10429553222E+04  0.12780731008E+04 -0.76955741673E+03  0.18202875832E+04  0.12699999809E+01 0.  1.
</event>
<event>
 5   0  0.6821287E-08  0.3298385E+04  0.7818609E-02  0.8163307E-01
        2   -1    0    0  501    0  0.00000000000E+00  0.00000000000E+00  0.11606537067E+04  0.11606537067E+04  0.25500000920E-02 0. -1.
       -2   -1    0    0    0  501  0.00000000000E+00  0.00000000000E+00 -0.23433648594E+04  0.23433648594E+04  0.25500000920E-02 0.  1.
    10030    2    1    2    0    0  0.00000000000E+00  0.00000000000E+00 -0.11827111526E+04  0.35040185661E+04  0.32983845199E+04 0.  0.
        5    1    3    3  502    0  0.59602747365E+03 -0.14653847439E+04 -0.10864714447E+04  0.19191257090E+04  0.46999998093E+01 0.  1.
       -5    1    3    3    0  502 -0.59602747365E+03  0.14653847439E+04 -0.96239707969E+02  0.15848928571E+04  0.46999998093E+01 0. -1.
</event>
<event>
 5   0  0.6765252E-08  0.3300375E+04  0.7818609E-02  0.8162800E-01
        2   -1    0    0  501    0  0.00000000000E+00  0.00000000000E+00  0.32121659231E+04  0.32121659231E+04  0.25500000920E-02 0.  1.
       -2   -1    0    0    0  501  0.00000000000E+00  0.00000000000E+00 -0.84775183545E+03  0.84775183546E+03  0.25500000920E-02 0. -1.
    10030    2    1    2    0    0  0.00000000000E+00  0.00000000000E+00  0.23644140876E+04  0.40599177585E+04  0.33003754678E+04 0.  0.
        2    1    3    3  502    0  0.24231249439E+03  0.63081439875E+02 -0.82424780598E+03  0.86144010741E+03  0.25500000920E-02 0. -1.
       -2    1    3    3    0  502 -0.24231249439E+03 -0.63081439875E+02  0.31886618936E+04  0.31984776511E+04  0.25500000920E-02 0.  1.
</event>
<event>
 5   0  0.7084130E-08  0.3299376E+04  0.7818609E-02  0.8163054E-01
       -2   -1    0    0    0  501  0.00000000000E+00  0.00000000000E+00  0.18904285892E+04  0.18904285892E+04  0.25500000920E-02 0.  1.
        2   -1    0    0  501    0  0.00000000000E+00  0.00000000000E+00 -0.14396048996E+04  0.14396048996E+04  0.25500000920E-02 0. -1.
    10030    2    1    2    0    0  0.00000000000E+00  0.00000000000E+00  0.45082368961E+03  0.33300334889E+04  0.32993758558E+04 0.  0.
        3    1    3    3  502    0  0.12524948157E+04 -0.96825078559E+03 -0.24281412891E+03  0.16016277840E+04  0.10100000352E+00 0. -1.
       -3    1    3    3    0  502 -0.12524948157E+04  0.96825078559E+03  0.69363781851E+03  0.17284057049E+04  0.10100000352E+00 0.  1.
</event>
<event>
 5   0  0.6765252E-08  0.3300109E+04  0.7818609E-02  0.8162868E-01
       -2   -1    0    0    0  501  0.00000000000E+00  0.00000000000E+00  0.15782400110E+04  0.15782400110E+04  0.25500000920E-02 0. -1.
        2   -1    0    0  501    0  0.00000000000E+00  0.00000000000E+00 -0.17251372277E+04  0.17251372277E+04  0.25500000920E-02 0.  1.
    10030    2    1    2    0    0  0.00000000000E+00  0.00000000000E+00 -0.14689721664E+03  0.33033772387E+04  0.33001094511E+04 0.  0.
        2    1    3    3  502    0 -0.72416500931E+03 -0.12670004478E+04 -0.84426014090E+03  0.16859656820E+04  0.25500000920E-02 0.  1.
       -2    1    3    3    0  502  0.72416500931E+03  0.12670004478E+04  0.69736292426E+03  0.16174115567E+04  0.25500000920E-02 0. -1.
</event>
<event>
 5   0  0.7084130E-08  0.3299153E+04  0.7818609E-02  0.8163111E-01
       -2   -1    0    0    0  501  0.00000000000E+00  0.00000000000E+00  0.18883190335E+04  0.18883190335E+04  0.25500000920E-02 0. -1.
        2   -1    0    0  501    0  0.00000000000E+00  0.00000000000E+00 -0.14410187692E+04  0.14410187692E+04  0.25500000920E-02 0.  1.
    10030    2    1    2    0    0  0.00000000000E+00  0.00000000000E+00  0.44730026431E+03  0.33293378028E+04  0.32991533275E+04 0.  0.
        3    1    3    3  502    0  0.44608251523E+03 -0.12577449075E+04  0.12021560927E+04  0.17961322736E+04  0.10100000352E+00 0. -1.
       -3    1    3    3    0  502 -0.44608251523E+03  0.12577449075E+04 -0.75485582840E+03  0.15332055292E+04  0.10100000352E+00 0.  1.
</event>
<event>
 5   0  0.7084130E-08  0.3300120E+04  0.7818609E-02  0.8162865E-01
       -2   -1    0    0    0  501  0.00000000000E+00  0.00000000000E+00  0.19377536779E+04  0.19377536779E+04  0.25500000920E-02 0.  1.
        2   -1    0    0  501    0  0.00000000000E+00  0.00000000000E+00 -0.14050794431E+04  0.14050794431E+04  0.25500000920E-02 0. -1.
    10030    2    1    2    0    0  0.00000000000E+00  0.00000000000E+00  0.53267423476E+03  0.33428331210E+04  0.33001199121E+04 0.  0.
        3    1    3    3  502    0 -0.34580820861E+03  0.26748620312E+03 -0.13453456939E+04  0.14145979048E+04  0.10100000352E+00 0. -1.
       -3    1    3    3    0  502  0.34580820861E+03 -0.26748620312E+03  0.18780199287E+04  0.19282352161E+04  0.10100000352E+00 0.  1.
</event>
<event>
 5   0  0.6706080E-08  0.3300263E+04  0.7818609E-02  0.8162828E-01
        2   -1    0    0  501    0  0.00000000000E+00  0.00000000000E+00  0.22095598460E+04  0.22095598460E+04  0.25500000920E-02 0.  1.
       -2   -1    0    0    0  501  0.00000000000E+00  0.00000000000E+00 -0.12323425106E+04  0.12323425106E+04  0.25500000920E-02 0. -1.
    10030    2    1    2    0    0  0.00000000000E+00  0.00000000000E+00  0.97721733535E+03  0.34419023566E+04  0.33002633398E+04 0.  0.
        4    1    3    3  502    0 -0.16252404656E+04 -0.55059752053E+02  0.78080200230E+03  0.18039100662E+04  0.12699999809E+01 0. -1.
       -4    1    3    3    0  502  0.16252404656E+04  0.55059752053E+02  0.19641533305E+03  0.16379922904E+04  0.12699999809E+01 0.  1.
</event>
<event>
 5   0  0.2383270E-08  0.3294958E+04  0.7818609E-02  0.8164179E-01
       -1   -1    0    0    0  501  0.00000000000E+00  0.00000000000E+00  0.95954110228E+03  0.95954110229E+03  0.50400001928E-02 0.  1.
        1   -1    0    0  501    0  0.00000000000E+00  0.00000000000E+00 -0.28286308950E+04  0.28286308950E+04  0.50400001928E-02 0. -1.
    10030    2    1    2    0    0  0.00000000000E+00  0.00000000000E+00 -0.18690897927E+04  0.37881719973E+04  0.32949583348E+04 0.  0.
        5    1    3    3  502    0  0.10706096894E+04 -0.12502240688E+04 -0.85406523848E+03  0.18543772137E+04  0.46999998093E+01 0. -1.
       -5    1    3    3    0  502 -0.10706096894E+04  0.12502240688E+04 -0.10150245543E+04  0.19337947836E+04  0.46999998093E+01 0.  1.
</event>
<event>
 5   0  0.2291682E-08  0.3299494E+04  0.7818609E-02  0.8163024E-01
       -1   -1    0    0    0  501  0.00000000000E+00  0.00000000000E+00  0.13291369334E+04  0.13291369334E+04  0.50400001928E-02 0.  1.
        1   -1    0    0  501    0  0.00000000000E+00  0.00000000000E+00 -0.20476934270E+04  0.20476934270E+04  0.50400001928E-02 0. -1.
    10030    2    1    2    0    0  0.00000000000E+00  0.00000000000E+00 -0.71855649357E+03  0.33768303604E+04  0.32994938777E+04 0.  0.
        2    1    3    3  502    0 -0.82124642787E+03 -0.10910400709E+04  0.58808062820E+03  0.14868264717E+04  0.25500000920E-02 0.  1.
       -2    1    3    3    0  502  0.82124642787E+03  0.10910400709E+04 -0.13066371218E+04  0.18900038888E+04  0.25500000920E-02 0. -1.
</event>
<event>
 5   0  0.2291682E-08  0.3299929E+04  0.7818609E-02  0.8162913E-01
        1   -1    0    0  501    0  0.00000000000E+00  0.00000000000E+00  0.13057834390E+04  0.13057834390E+04  0.50400001928E-02 0.  1.
       -1   -1    0    0    0  501  0.00000000000E+00  0.00000000000E+00 -0.20848654919E+04  0.20848654919E+04  0.50400001928E-02 0. -1.
    10030    2    1    2    0    0  0.00000000000E+00  0.00000000000E+00 -0.77908205284E+03  0.33906489309E+04  0.32999289883E+04 0.  0.
        2    1    3    3  502    0  0.92468126306E+03  0.13321413238E+04 -0.70245712156E+03  0.17672243639E+04  0.25500000920E-02 0. -1.
       -2    1    3    3    0  502 -0.92468126306E+03 -0.13321413238E+04 -0.76624931280E+02  0.16234245670E+04  0.25500000920E-02 0.  1.
</event>
<event>
 5   0  0.2279938E-08  0.3304450E+04  0.7818609E-02  0.8161764E-01
        1   -1    0    0  501    0  0.00000000000E+00  0.00000000000E+00  0.12409941151E+04  0.12409941151E+04  0.50400001928E-02 0. -1.
       -1   -1    0    0    0  501  0.00000000000E+00  0.00000000000E+00 -0.21997259780E+04  0.21997259780E+04  0.50400001928E-02 0.  1.
    10030    2    1    2    0    0  0.00000000000E+00  0.00000000000E+00 -0.95873186292E+03  0.34407200931E+04  0.33044497233E+04 0.  0.
        3    1    3    3  502    0 -0.60096146796E+03 -0.14450640292E+04 -0.10308117977E+04  0.18740164639E+04  0.10100000352E+00 0.  1.
       -3    1    3    3    0  502  0.60096146796E+03  0.14450640292E+04  0.72079934828E+02  0.15667036292E+04  0.10100000352E+00 0. -1.
</event>
<event>
 5   0  0.6603516E-08  0.3279661E+04  0.7818609E-02  0.8168090E-01
        2   -1    0    0  501    0  0.00000000000E+00  0.00000000000E+00  0.16929960177E+04  0.16929960177E+04  0.25500000920E-02 0. -1.
       -2   -1    0    0    0  501  0.00000000000E+00  0.00000000000E+00 -0.15883344938E+04  0.15883344938E+04  0.25500000920E-02 0.  1.
    10030    2    1    2    0    0  0.00000000000E+00  0.00000000000E+00  0.10466152399E+03  0.32813305115E+04  0.32796609415E+04 0.  0.
        1    1    3    3  502    0 -0.12401054911E+04 -0.10609154279E+04  0.21253972245E+03  0.16457752908E+04  0.50400001928E-02 0. -1.
       -1    1    3    3    0  502  0.12401054911E+04  0.10609154279E+04 -0.10787819846E+03  0.16355552207E+04  0.50400001928E-02 0.  1.
</event>
<event>
 5   0  0.2279938E-08  0.3299503E+04  0.7818609E-02  0.8163022E-01
        1   -1    0    0  501    0  0.00000000000E+00  0.00000000000E+00  0.11899166430E+04  0.11899166430E+04  0.50400001928E-02 0. -1.
       -1   -1    0    0    0  501  0.00000000000E+00  0.00000000000E+00 -0.22872863259E+04  0.22872863259E+04  0.50400001928E-02 0.  1.
    10030    2    1    2    0    0  0.00000000000E+00  0.00000000000E+00 -0.10973696829E+04  0.34772029689E+04  0.32995030332E+04 0.  0.
        3    1    3    3  502    0 -0.25415229836E+03  0.98004882989E+03  0.82399761648E+03  0.13053969442E+04  0.10100000352E+00 0. -1.
       -3    1    3    3    0  502  0.25415229836E+03 -0.98004882989E+03 -0.19213672994E+04  0.21718060247E+04  0.10100000352E+00 0.  1.
</event>
<event>
 5   0  0.7084130E-08  0.3302499E+04  0.7818609E-02  0.8162260E-01
       -2   -1    0    0    0  501  0.00000000000E+00  0.00000000000E+00  0.14837399851E+04  0.14837399851E+04  0.25500000920E-02 0.  1.
        2   -1    0    0  501    0  0.00000000000E+00  0.00000000000E+00 -0.18376705362E+04  0.18376705362E+04  0.25500000920E-02 0. -1.
    10030    2    1    2    0    0  0.00000000000E+00  0.00000000000E+00 -0.35393055108E+03  0.33214105213E+04  0.33024992076E+04 0.  0.
        3    1    3    3  502    0 -0.57758176346E+02  0.64870659592E+03 -0.17030432692E+04  0.18233246122E+04  0.10100000352E+00 0. -1.
       -3    1    3    3    0  502  0.57758176346E+02 -0.64870659592E+03  0.13491127182E+04  0.14980859091E+04  0.10100000352E+00 0.  1.
</event>
<event>
 5   0  0.2244093E-08  0.3295208E+04  0.7818609E-02  0.8164116E-01
        1   -1    0    0  501    0  0.00000000000E+00  0.00000000000E+00  0.14089990425E+04  0.14089990425E+04  0.50400001928E-02 0. -1.
       -1   -1    0    0    0  501  0.00000000000E+00  0.00000000000E+00 -0.19266149243E+04  0.19266149243E+04  0.50400001928E-02 0.  1.
    10030    2    1    2    0    0  0.00000000000E+00  0.00000000000E+00 -0.51761588175E+03  0.33356139668E+04  0.32952077832E+04 0.  0.
        1    1    3    3  502    0  0.14186377659E+04  0.22596876493E+03 -0.10755495297E+04  0.17945477939E+04  0.50400001928E-02 0.  1.
       -1    1    3    3    0  502 -0.14186377659E+04 -0.22596876493E+03  0.55793364795E+03  0.15410661729E+04  0.50400001928E-02 0. -1.
</event>
<event>
 5   0  0.6706080E-08  0.3299751E+04  0.7818609E-02  0.8162959E-01
       -2   -1    0    0    0  501  0.00000000000E+00  0.00000000000E+00  0.15613510772E+04  0.15613510772E+04  0.25500000920E-02 0.  1.
        2   -1    0    0  501    0  0.00000000000E+00  0.00000000000E+00 -0.17434193851E+04  0.17434193851E+04  0.25500000920E-02 0. -1.
    10030    2    1    2    0    0  0.00000000000E+00  0.00000000000E+00 -0.18206830797E+03  0.33047704623E+04  0.32997513451E+04 0.  0.
        4    1    3    3  502    0 -0.59878842437E+03 -0.15334830449E+04 -0.20060941845E+03  0.16584220144E+04  0.12699999809E+01 0.  1.
       -4    1    3    3    0  502  0.59878842437E+03  0.15334830449E+04  0.18541110485E+02  0.16463484479E+04  0.12699999809E+01 0. -1.
</event>
<event>
 5   0  0.6706080E-08  0.3300839E+04  0.7818609E-02  0.8162682E-01
       -2   -1    0    0    0  501  0.00000000000E+00  0.00000000000E+00  0.13893740311E+04  0.13893740311E+04  0.25500000920E-02 0. -1.
        2   -1    0    0  501    0  0.00000000000E+00  0.00000000000E+00 -0.19605123606E+04  0.19605123606E+04  0.25500000920E-02 0.  1.
    10030    2    1    2    0    0  0.00000000000E+00  0.00000000000E+00 -0.57113832951E+03  0.33498863917E+04  0.33008392639E+04 0.  0.
        4    1    3    3  502    0  0.93356749635E+03 -0.34275599809E+03 -0.16222788453E+04  0.19028452930E+04  0.12699999809E+01 0.  1.
       -4    1    3    3    0  502 -0.93356749635E+03  0.34275599809E+03  0.10511405158E+04  0.14470410987E+04  0.12699999809E+01 0. -1.
</event>
<event>
 5   0  0.2383270E-08  0.3300344E+04  0.7818609E-02  0.8162808E-01
        1   -1    0    0  501    0  0.00000000000E+00  0.00000000000E+00  0.17274373131E+04  0.17274373131E+04  0.50400001928E-02 0.  1.
       -1   -1    0    0    0  501  0.00000000000E+00  0.00000000000E+00 -0.15763627000E+04  0.15763627000E+04  0.50400001928E-02 0. -1.
    10030    2    1    2    0    0  0.00000000000E+00  0.00000000000E+00  0.15107461317E+03  0.33038000131E+04  0.33003440711E+04 0.  0.
        5    1    3    3  502    0  0.32896185128E+03  0.11805879832E+04 -0.10306273865E+04  0.16013178277E+04  0.46999998093E+01 0. -1.
       -5    1    3    3    0  502 -0.32896185128E+03 -0.11805879832E+04  0.11817019996E+04  0.17024821854E+04  0.46999998093E+01 0.  1.
</event>
<event>
 5   0  0.2279938E-08  0.3298965E+04  0.7818609E-02  0.8163159E-01
        1   -1    0    0  501    0  0.00000000000E+00  0.00000000000E+00  0.16348951260E+04  0.16348951260E+04  0.50400001928E-02 0.  1.
       -1   -1    0    0    0  501  0.00000000000E+00  0.00000000000E+00 -0.16642001477E+04  0.16642001477E+04  0.50400001928E-02 0. -1.
    10030    2    1    2    0    0  0.00000000000E+00  0.00000000000E+00 -0.29305021675E+02  0.32990952738E+04  0.32989651167E+04 0.  0.
        3    1    3    3  502    0 -0.28700262604E+03  0.14713740673E+04  0.67347386470E+03  0.16434351858E+04  0.10100000352E+00 0.  1.
       -3    1    3    3    0  502  0.28700262604E+03 -0.14713740673E+04 -0.70277888637E+03  0.16556600879E+04  0.10100000352E+00 0. -1.
</event>
<event>
 5   0  0.2291682E-08  0.3301885E+04  0.7818609E-02  0.8162416E-01
       -1   -1    0    0    0  501  0.00000000000E+00  0.00000000000E+00  0.11761488196E+04  0.11761488196E+04  0.50400001928E-02 0.  1.
        1   -1    0    0  501    0  0.00000000000E+00  0.00000000000E+00 -0.23174037551E+04  0.23174037551E+04  0.50400001928E-02 0. -1.
    10030    2    1    2    0    0  0.00000000000E+00  0.00000000000E+00 -0.11412549355E+04  0.34935525747E+04  0.33018853349E+04 0.  0.
        2    1    3    3  502    0  0.23736778583E+03 -0.68386433874E+03  0.99928083556E+03  0.12339270999E+04  0.25500000920E-02 0.  1.
       -2    1    3    3    0  502 -0.23736778583E+03  0.68386433874E+03 -0.21405357710E+04  0.22596254748E+04  0.25500000920E-02 0. -1.
</event>
<event>
 5   0  0.6706080E-08  0.3299990E+04  0.7818609E-02  0.8162898E-01
        2   -1    0    0  501    0  0.00000000000E+00  0.00000000000E+00  0.10296421205E+04  0.10296421205E+04  0.25500000920E-02 0.  1.
       -2   -1    0    0    0  501  0.00000000000E+00  0.00000000000E+00 -0.26441069963E+04  0.26441069963E+04  0.25500000920E-02 0. -1.
    10030    2    1    2    0    0  0.00000000000E+00  0.00000000000E+00 -0.16144648758E+04  0.36737491168E+04  0.32999902633E+04 0.  0.
        4    1    3    3  502    0 -0.85537779725E+03  0.51161950755E+03  0.65663396798E+03  0.11935641907E+04  0.12699999809E+01 0.  1.
       -4    1    3    3    0  502  0.85537779725E+03 -0.51161950755E+03 -0.22710988438E+04  0.24801849261E+04  0.12699999809E+01 0. -1.
</event>
<event>
 5   0  0.2279938E-08  0.3298184E+04  0.7818609E-02  0.8163358E-01
        1   -1    0    0  501    0  0.00000000000E+00  0.00000000000E+00  0.19737905554E+04  0.19737905554E+04  0.50400001928E-02 0.  1.
       -1   -1    0    0    0  501  0.00000000000E+00  0.00000000000E+00 -0.13778078129E+04  0.13778078129E+04  0.50400001928E-02 0. -1.
    10030    2    1    2    0    0  0.00000000000E+00  0.00000000000E+00  0.59598274252E+03  0.33515983683E+04  0.32981837719E+04 0.  0.
        3    1    3    3  502    0 -0.14688330064E+04 -0.45177395866E+02 -0.46245445309E+03  0.15405763627E+04  0.10100000352E+00 0. -1.
       -3    1    3    3    0  502  0.14688330064E+04  0.45177395866E+02  0.10584371956E+04  0.18110220057E+04  0.10100000352E+00 0.  1.
</event>
<event>
 5   0  0.6765252E-08  0.3297686E+04  0.7818609E-02  0.8163484E-01
        2   -1    0    0  501    0  0.00000000000E+00  0.00000000000E+00  0.23913596653E+04  0.23913596653E+04  0.25500000920E-02 0. -1.
       -2   -1    0    0    0  501  0.00000000000E+00  0.00000000000E+00 -0.11368775277E+04  0.11368775277E+04  0.25500000920E-02 0.  1.
    10030    2    1    2    0    0  0.00000000000E+00  0.00000000000E+00  0.12544821377E+04  0.35282371930E+04  0.32976858941E+04 0.  0.
        2    1    3    3  502    0  0.12347035132E+04 -0.57658872168E+03 -0.36595625598E+03  0.14109823885E+04  0.25500000920E-02 0.  1.
       -2    1    3    3    0  502 -0.12347035132E+04  0.57658872168E+03  0.16204383936E+04  0.21172548045E+04  0.25500000920E-02 0. -1.
</event>
<event>
 5   0  0.6706080E-08  0.3299655E+04  0.7818609E-02  0.8162983E-01
       -2   -1    0    0    0  501  0.00000000000E+00  0.00000000000E+00  0.23502009256E+04  0.23502009256E+04  0.25500000920E-02 0.  1.
        2   -1    0    0  501    0  0.00000000000E+00  0.00000000000E+00 -0.11581696885E+04  0.11581696885E+04  0.25500000920E-02 0. -1.
    10030    2    1    2    0    0  0.00000000000E+00  0.00000000000E+00  0.11920312371E+04  0.35083706142E+04  0.32996554208E+04 0.  0.
        4    1    3    3  502    0  0.48588656572E+03  0.13895561583E+04  0.13881058854E+04  0.20233120455E+04  0.12699999809E+01 0.  1.
       -4    1    3    3    0  502 -0.48588656572E+03 -0.13895561583E+04 -0.19607464828E+03  0.14850585686E+04  0.12699999809E+01 0. -1.
</event>
<event>
 5   0  0.2383270E-08  0.3313720E+04  0.7818609E-02  0.8159413E-01
        1   -1    0    0  501    0  0.00000000000E+00  0.00000000000E+00  0.22686307601E+04  0.22686307601E+04  0.50400001928E-02 0.  1.
       -1   -1    0    0    0  501  0.00000000000E+00  0.00000000000E+00 -0.12100624623E+04  0.12100624623E+04  0.50400001928E-02 0. -1.
    10030    2    1    2    0    0  0.00000000000E+00  0.00000000000E+00  0.10585682978E+04  0.34786932224E+04  0.33137199179E+04 0.  0.
        5    1    3    3  502    0 -0.37278410874E+03  0.38559406931E+03 -0.11164063481E+04  0.12385620703E+04  0.46999998093E+01 0. -1.
       -5    1    3    3    0  502  0.37278410874E+03 -0.38559406931E+03  0.21749746459E+04  0.22401311520E+04  0.46999998093E+01 0.  1.
</event>
<event>
 5   0  0.2291682E-08  0.3300835E+04  0.7818609E-02  0.8162683E-01
        1   -1    0    0  501    0  0.00000000000E+00  0.00000000000E+00  0.15359045915E+04  0.15359045915E+04  0.50400001928E-02 0.  1.
       -1   -1    0    0    0  501  0.00000000000E+00  0.00000000000E+00 -0.17734680555E+04  0.17734680555E+04  0.50400001928E-02 0. -1.
    10030    2    1    2    0    0  0.00000000000E+00  0.00000000000E+00 -0.23756346405E+03  0.33093726470E+04  0.33008348819E+04 0.  0.
        2    1    3    3  502    0 -0.25955788123E+03  0.15853276176E+04 -0.49823627783E+03  0.16819254851E+04  0.25500000920E-02 0. -1.
       -2    1    3    3    0  502  0.25955788123E+03 -0.15853276176E+04  0.26067281378E+03  0.16274471619E+04  0.25500000920E-02 0.  1.
</event>
<event>
 5   0  0.6765252E-08  0.3301222E+04  0.7818609E-02  0.8162585E-01
       -2   -1    0    0    0  501  0.00000000000E+00  0.00000000000E+00  0.13702941739E+04  0.13702941739E+04  0.25500000920E-02 0.  1.
        2   -1    0    0  501    0  0.00000000000E+00  0.00000000000E+00 -0.19882714504E+04  0.19882714504E+04  0.25500000920E-02 0. -1.
    10030    2    1    2    0    0  0.00000000000E+00  0.00000000000E+00 -0.61797727655E+03  0.33585656243E+04  0.33012220675E+04 0.  0.
        2    1    3    3  502    0  0.54333172054E+03  0.15164714509E+04 -0.67527273584E+03  0.17466792172E+04  0.25500000920E-02 0. -1.
       -2    1    3    3    0  502 -0.54333172054E+03 -0.15164714509E+04  0.57295459288E+02  0.16118864072E+04  0.25500000920E-02 0.  1.
</event>
<event>
 5   0  0.7084130E-08  0.3299457E+04  0.7818609E-02  0.8163034E-01
       -2   -1    0    0    0  501  0.00000000000E+00  0.00000000000E+00  0.21313407472E+04  0.21313407472E+04  0.25500000920E-02 0.  1.
        2   -1    0    0  501    0  0.00000000000E+00  0.00000000000E+00 -0.12769445680E+04  0.12769445680E+04  0.25500000920E-02 0. -1.
    10030    2    1    2    0    0  0.00000000000E+00  0.00000000000E+00  0.85439617921E+03  0.34082853153E+04  0.32994569188E+04 0.  0.
        3    1    3    3  502    0 -0.13156807475E+04  0.21308823089E+03  0.14314695025E+04  0.19558955418E+04  0.10100000352E+00 0.  1.
       -3    1    3    3    0  502  0.13156807475E+04 -0.21308823089E+03 -0.57707332326E+03  0.14523897735E+04  0.10100000352E+00 0. -1.
</event>
<event>
 5   0  0.6821287E-08  0.3299428E+04  0.7818609E-02  0.8163041E-01
       -2   -1    0    0    0  501  0.00000000000E+00  0.00000000000E+00  0.12485962899E+04  0.12485962899E+04  0.25500000920E-02 0. -1.
        2   -1    0    0  501    0  0.00000000000E+00  0.00000000000E+00 -0.21796933638E+04  0.21796933638E+04  0.25500000920E-02 0.  1.
    10030    2    1    2    0    0  0.00000000000E+00  0.00000000000E+00 -0.93109707382E+03  0.34282896537E+04  0.32994284640E+04 0.  0.
        5    1    3    3  502    0  0.16209896317E+04 -0.18925169814E+03 -0.71602639037E+03  0.17821726833E+04  0.46999998093E+01 0.  1.
       -5    1    3    3    0  502 -0.16209896317E+04  0.18925169814E+03 -0.21507068345E+03  0.16461169704E+04  0.46999998093E+01 0. -1.
</event>
<event>
 5   0  0.2291682E-08  0.3300882E+04  0.7818609E-02  0.8162671E-01
        1   -1    0    0  501    0  0.00000000000E+00  0.00000000000E+00  0.12978460612E+04  0.12978460612E+04  0.50400001928E-02 0.  1.
       -1   -1    0    0    0  501  0.00000000000E+00  0.00000000000E+00 -0.20988283407E+04  0.20988283408E+04  0.50400001928E-02 0. -1.
    10030    2    1    2    0    0  0.00000000000E+00  0.00000000000E+00 -0.80098227951E+03  0.33966744020E+04  0.33008823640E+04 0.  0.
        2    1    3    3  502    0 -0.12392355477E+04  0.39181655529E+03 -0.14472282715E+04  0.19451721326E+04  0.25500000920E-02 0. -1.
       -2    1    3    3    0  502  0.12392355477E+04 -0.39181655529E+03  0.64624599202E+03  0.14515022693E+04  0.25500000920E-02 0.  1.
</event>
<event>
 5   0  0.6765252E-08  0.3297922E+04  0.7818609E-02  0.8163424E-01
        2   -1    0    0  501    0  0.00000000000E+00  0.00000000000E+00  0.94079427005E+03  0.94079427006E+03  0.25500000920E-02 0. -1.
       -2   -1    0    0    0  501  0.00000000000E+00  0.00000000000E+00 -0.28901886988E+04  0.28901886988E+04  0.25500000920E-02 0.  1.
    10030    2    1    2    0    0  0.00000000000E+00  0.00000000000E+00 -0.19493944288E+04  0.38309829689E+04  0.32979223564E+04 0.  0.
        2    1    3    3  502    0 -0.16978959534E+03  0.49447929008E+03  0.84196618513E+03  0.99108290870E+03  0.25500000920E-02 0. -1.
       -2    1    3    3    0  502  0.16978959534E+03 -0.49447929008E+03 -0.27913606139E+04  0.28399000602E+04  0.25500000920E-02 0.  1.
</event>
<event>
 5   0  0.2291682E-08  0.3298151E+04  0.7818609E-02  0.8163366E-01
       -1   -1    0    0    0  501  0.00000000000E+00  0.00000000000E+00  0.92923398281E+03  0.92923398282E+03  0.50400001928E-02 0.  1.
        1   -1    0    0  501    0  0.00000000000E+00  0.00000000000E+00 -0.29265509810E+04  0.29265509810E+04  0.50400001928E-02 0. -1.
    10030    2    1    2    0    0  0.00000000000E+00  0.00000000000E+00 -0.19973169982E+04  0.38557849639E+04  0.32981513756E+04 0.  0.
        2    1    3    3  502    0 -0.74671671330E+03  0.10246675297E+04  0.23410348038E+03  0.12893152585E+04  0.25500000920E-02 0. -1.
       -2    1    3    3    0  502  0.74671671330E+03 -0.10246675297E+04 -0.22314204786E+04  0.25664697054E+04  0.25500000920E-02 0.  1.
</event>
<event>
 5   0  0.6821287E-08  0.3306992E+04  0.7818609E-02  0.8161118E-01
       -2   -1    0    0    0  501  0.00000000000E+00  0.00000000000E+00  0.16404169658E+04  0.16404169658E+04  0.25500000920E-02 0.  1.
        2   -1    0    0  501    0  0.00000000000E+00  0.00000000000E+00 -0.16666796087E+04  0.16666796087E+04  0.25500000920E-02 0. -1.
    10030    2    1    2    0    0  0.00000000000E+00  0.00000000000E+00 -0.26262642855E+02  0.33070965745E+04  0.33069922931E+04 0.  0.
        5    1    3    3  502    0 -0.52942891810E+03 -0.13549644315E+03 -0.15737487460E+04  0.16659416169E+04  0.46999998093E+01 0. -1.
       -5    1    3    3    0  502  0.52942891810E+03  0.13549644315E+03  0.15474861031E+04  0.16411549576E+04  0.46999998093E+01 0.  1.
</event>
<event>
 5   0  0.2244093E-08  0.3300909E+04  0.7818609E-02  0.8162664E-01
       -1   -1    0    0    0  501  0.00000000000E+00  0.00000000000E+00  0.15168927751E+04  0.15168927752E+04  0.50400001928E-02 0. -1.
        1   -1    0    0  501    0  0.00000000000E+00  0.00000000000E+00 -0.17957758202E+04  0.17957758202E+04  0.50400001928E-02 0.  1.
    10030    2    1    2    0    0  0.00000000000E+00  0.00000000000E+00 -0.27888304502E+03  0.33126685953E+04  0.33009085825E+04 0.  0.
        1    1    3    3  502    0  0.32179180157E+03 -0.16119055849E+04 -0.28900195445E+03  0.16689253153E+04  0.50400001928E-02 0.  1.
       -1    1    3    3    0  502 -0.32179180157E+03  0.16119055849E+04  0.10118909426E+02  0.16437432800E+04  0.50400001928E-02 0. -1.
</event>
<event>
 5   0  0.2291682E-08  0.3311061E+04  0.7818609E-02  0.8160087E-01
       -1   -1    0    0    0  501  0.00000000000E+00  0.00000000000E+00  0.25967444623E+04  0.25967444623E+04  0.50400001928E-02 0. -1.
        1   -1    0    0  501    0  0.00000000000E+00  0.00000000000E+00 -0.10554681233E+04  0.10554681233E+04  0.50400001928E-02 0.  1.
    10030    2    1    2    0    0  0.00000000000E+00  0.00000000000E+00  0.15412763390E+04  0.36522125855E+04  0.33110608597E+04 0.  0.
        2    1    3    3  502    0 -0.12167145289E+04 -0.11059203302E+04  0.98374645096E+03  0.19160404749E+04  0.25500000920E-02 0. -1.
       -2    1    3    3    0  502  0.12167145289E+04  0.11059203302E+04  0.55752988804E+03  0.17361721106E+04  0.25500000920E-02 0.  1.
</event>
<event>
 5   0  0.2244093E-08  0.3296426E+04  0.7818609E-02  0.8163805E-01
       -1   -1    0    0    0  501  0.00000000000E+00  0.00000000000E+00  0.15274484178E+04  0.15274484178E+04  0.50400001928E-02 0.  1.
        1   -1    0    0  501    0  0.00000000000E+00  0.00000000000E+00 -0.17785254370E+04  0.17785254370E+04  0.50400001928E-02 0. -1.
    10030    2    1    2    0    0  0.00000000000E+00  0.00000000000E+00 -0.25107701927E+03  0.33059738548E+04  0.32964258613E+04 0.  0.
        1    1    3    3  502    0  0.10105917013E+04 -0.58148602943E+03 -0.12938953664E+04  0.17417194976E+04  0.50400001928E-02 0. -1.
       -1    1    3    3    0  502 -0.10105917013E+04  0.58148602943E+03  0.10428183471E+04  0.15642543573E+04  0.50400001928E-02 0.  1.
</event>
<event>
 5   0  0.6821287E-08  0.3301582E+04  0.7818609E-02  0.8162493E-01
        2   -1    0    0  501    0  0.00000000000E+00  0.00000000000E+00  0.17732078043E+04  0.17732078043E+04  0.25500000920E-02 0.  1.
       -2   -1    0    0    0  501  0.00000000000E+00  0.00000000000E+00 -0.15368257581E+04  0.15368257581E+04  0.25500000920E-02 0. -1.
    10030    2    1    2    0    0  0.00000000000E+00  0.00000000000E+00  0.23638204617E+03  0.33100335623E+04  0.33015823043E+04 0.  0.
        5    1    3    3  502    0  0.37954227878E+03  0.70001403975E+03  0.15679275670E+04  0.17585479642E+04  0.46999998093E+01 0.  1.
       -5    1    3    3    0  502 -0.37954227878E+03 -0.70001403975E+03 -0.13315455208E+04  0.15514855981E+04  0.46999998093E+01 0. -1.
</event>
<event>
 5   0  0.2383270E-08  0.3302758E+04  0.7818609E-02  0.8162194E-01
        1   -1    0    0  501    0  0.00000000000E+00  0.00000000000E+00  0.21972783771E+04  0.21972783771E+04  0.50400001928E-02 0.  1.
       -1   -1    0    0    0  501  0.00000000000E+00  0.00000000000E+00 -0.12411046068E+04  0.12411046068E+04  0.50400001928E-02 0. -1.
    10030    2    1    2    0    0  0.00000000000E+00  0.00000000000E+00  0.95617377037E+03  0.34383829839E+04  0.33027578272E+04 0.  0.
        5    1    3    3  502    0 -0.31266688466E+03  0.38226163715E+03  0.21185958901E+04  0.21753977051E+04  0.46999998093E+01 0.  1.
       -5    1    3    3    0  502  0.31266688466E+03 -0.38226163715E+03 -0.11624221197E+04  0.12629852788E+04  0.46999998093E+01 0. -1.
</event>
<event>
 5   0  0.2279938E-08  0.3298131E+04  0.7818609E-02  0.8163371E-01
        1   -1    0    0  501    0  0.00000000000E+00  0.00000000000E+00  0.28818474513E+04  0.28818474513E+04  0.50400001928E-02 0.  1.
       -1   -1    0    0    0  501  0.00000000000E+00  0.00000000000E+00 -0.94363694225E+03  0.94363694227E+03  0.50400001928E-02 0. -1.
    10030    2    1    2    0    0  0.00000000000E+00  0.00000000000E+00  0.19382105091E+04  0.38254843936E+04  0.32981314207E+04 0.  0.
        3    1    3    3  502    0 -0.73863617758E+03  0.58247305093E+03 -0.60192436235E+03  0.11167681971E+04  0.10100000352E+00 0. -1.
       -3    1    3    3    0  502  0.73863617758E+03 -0.58247305093E+03  0.25401348714E+04  0.27087161965E+04  0.10100000352E+00 0.  1.
</event>
<event>
 5   0  0.6603516E-08  0.3299047E+04  0.7818609E-02  0.8163138E-01
        2   -1    0    0  501    0  0.00000000000E+00  0.00000000000E+00  0.26975594600E+04  0.26975594600E+04  0.25500000920E-02 0. -1.
       -2   -1    0    0    0  501  0.00000000000E+00  0.00000000000E+00 -0.10086625497E+04  0.10086625497E+04  0.25500000920E-02 0.  1.
    10030    2    1    2    0    0  0.00000000000E+00  0.00000000000E+00  0.16888969103E+04  0.37062220096E+04  0.32990466519E+04 0.  0.
        1    1    3    3  502    0 -0.63113839051E+03 -0.15146465747E+04  0.65500174614E+03  0.17667815943E+04  0.50400001928E-02 0. -1.
       -1    1    3    3    0  502  0.63113839051E+03  0.15146465747E+04  0.10338951641E+04  0.19394404154E+04  0.50400001928E-02 0.  1.
</event>
<event>
 5   0  0.2279938E-08  0.3297803E+04  0.7818609E-02  0.8163455E-01
       -1   -1    0    0    0  501  0.00000000000E+00  0.00000000000E+00  0.11854916519E+04  0.11854916519E+04  0.50400001928E-02 0. -1.
        1   -1    0    0  501    0  0.00000000000E+00  0.00000000000E+00 -0.22934588561E+04  0.22934588561E+04  0.50400001928E-02 0.  1.
    10030    2    1    2    0    0  0.00000000000E+00  0.00000000000E+00 -0.11079672042E+04  0.34789505080E+04  0.32978031038E+04 0.  0.
        3    1    3    3  502    0  0.40469642769E+03  0.39587110845E+02  0.11317696593E+04  0.12026008939E+04  0.10100000352E+00 0. -1.
       -3    1    3    3    0  502 -0.40469642769E+03 -0.39587110845E+02 -0.22397368635E+04  0.22763496142E+04  0.10100000352E+00 0.  1.
</event>
<event>
 5   0  0.7084130E-08  0.3282529E+04  0.7818609E-02  0.8167355E-01
        2   -1    0    0  501    0  0.00000000000E+00  0.00000000000E+00  0.18214342417E+04  0.18214342417E+04  0.25500000920E-02 0.  1.
       -2   -1    0    0    0  501  0.00000000000E+00  0.00000000000E+00 -0.14789165716E+04  0.14789165716E+04  0.25500000920E-02 0. -1.
    10030    2    1    2    0    0  0.00000000000E+00  0.00000000000E+00  0.34251767010E+03  0.33003508134E+04  0.32825290763E+04 0.  0.
        3    1    3    3  502    0  0.85394531294E+03  0.41823945023E+03 -0.11737644588E+04  0.15105859294E+04  0.10100000352E+00 0. -1.
       -3    1    3    3    0  502 -0.85394531294E+03 -0.41823945023E+03  0.15162821289E+04  0.17897648840E+04  0.10100000352E+00 0.  1.
</event>
<event>
 5   0  0.2244093E-08  0.3301603E+04  0.7818609E-02  0.8162488E-01
       -1   -1    0    0    0  501  0.00000000000E+00  0.00000000000E+00  0.16504751053E+04  0.16504751053E+04  0.50400001928E-02 0. -1.
        1   -1    0    0  501    0  0.00000000000E+00  0.00000000000E+00 -0.16511280881E+04  0.16511280881E+04  0.50400001928E-02 0.  1.
    10030    2    1    2    0    0  0.00000000000E+00  0.00000000000E+00 -0.65298281150E+00  0.33016031934E+04  0.33016031288E+04 0.  0.
        1    1    3    3  502    0 -0.11873978837E+04 -0.81873180257E+02  0.11435829911E+04  0.16505753571E+04  0.50400001928E-02 0. -1.
       -1    1    3    3    0  502  0.11873978837E+04  0.81873180257E+02 -0.11442359739E+04  0.16510278362E+04  0.50400001928E-02 0.  1.
</event>
<event>
 5   0  0.2244093E-08  0.3300828E+04  0.7818609E-02  0.8162685E-01
        1   -1    0    0  501    0  0.00000000000E+00  0.00000000000E+00  0.21877860859E+04  0.21877860859E+04  0.50400001928E-02 0. -1.
       -1   -1    0    0    0  501  0.00000000000E+00  0.00000000000E+00 -0.12450329588E+04  0.12450329588E+04  0.50400001928E-02 0.  1.
    10030    2    1    2    0    0  0.00000000000E+00  0.00000000000E+00  0.94275312705E+03  0.34328190447E+04  0.33008276439E+04 0.  0.
        1    1    3    3  502    0 -0.88167237748E+03 -0.65142956530E+03 -0.81171630376E+03  0.13640344635E+04  0.50400001928E-02 0.  1.
       -1    1    3    3    0  502  0.88167237748E+03  0.65142956530E+03  0.17544694308E+04  0.20687845812E+04  0.50400001928E-02 0. -1.
</event>
<event>
 5   0  0.6603516E-08  0.3296138E+04  0.7818609E-02  0.8163879E-01
        2   -1    0    0  501    0  0.00000000000E+00  0.00000000000E+00  0.13197796730E+04  0.13197796730E+04  0.25500000920E-02 0.  1.
       -2   -1    0    0    0  501  0.00000000000E+00  0.00000000000E+00 -0.20580188178E+04  0.20580188178E+04  0.25500000920E-02 0. -1.
    10030    2    1    2    0    0  0.00000000000E+00  0.00000000000E+00 -0.73823914478E+03  0.33777984909E+04  0.32961379841E+04 0.  0.
        1    1    3    3  502    0 -0.34111646424E+03 -0.74690627161E+03 -0.18334726310E+04  0.20089428337E+04  0.50400001928E-02 0. -1.
       -1    1    3    3    0  502  0.34111646424E+03  0.74690627161E+03  0.10952334862E+04  0.13688556571E+04  0.50400001928E-02 0.  1.
</event>
<event>
 5   0  0.2244093E-08  0.3301906E+04  0.7818609E-02  0.8162411E-01
       -1   -1    0    0    0  501  0.00000000000E+00  0.00000000000E+00  0.12064043326E+04  0.12064043326E+04  0.50400001928E-02 0. -1.
        1   -1    0    0  501    0  0.00000000000E+00  0.00000000000E+00 -0.22593137183E+04  0.22593137183E+04  0.50400001928E-02 0.  1.
    10030    2    1    2    0    0  0.00000000000E+00  0.00000000000E+00 -0.10529093857E+04  0.34657180509E+04  0.33019060305E+04 0.  0.
        1    1    3    3  502    0  0.11532512584E+04  0.74683860118E+03  0.43432074588E+03  0.14409687268E+04  0.50400001928E-02 0. -1.
       -1    1    3    3    0  502 -0.11532512584E+04 -0.74683860118E+03 -0.14872301316E+04  0.20247493241E+04  0.50400001928E-02 0.  1.
</event>
<event>
 5   0  0.2244093E-08  0.3305729E+04  0.7818609E-02  0.8161439E-01
        1   -1    0    0  501    0  0.00000000000E+00  0.00000000000E+00  0.88210234103E+03  0.88210234104E+03  0.50400001928E-02 0. -1.
       -1   -1    0    0    0  501  0.00000000000E+00  0.00000000000E+00 -0.30971026263E+04  0.30971026263E+04  0.50400001928E-02 0.  1.
    10030    2    1    2    0    0  0.00000000000E+00  0.00000000000E+00 -0.22150002853E+04  0.39792049674E+04  0.33057292552E+04 0.  0.
        1    1    3    3  502    0  0.13409702896E+02  0.13614214309E+04  0.20615884876E+02  0.13616435463E+04  0.50400001928E-02 0. -1.
       -1    1    3    3    0  502 -0.13409702896E+02 -0.13614214309E+04 -0.22356161702E+04  0.26175614210E+04  0.50400001928E-02 0.  1.
</event>
<event>
 5   0  0.7084130E-08  0.3299136E+04  0.7818609E-02  0.8163115E-01
        2   -1    0    0  501    0  0.00000000000E+00  0.00000000000E+00  0.28517533413E+04  0.28517533413E+04  0.25500000920E-02 0. -1.
       -2   -1    0    0    0  501  0.00000000000E+00  0.00000000000E+00 -0.95417594955E+03  0.95417594956E+03  0.25500000920E-02 0.  1.
    10030    2    1    2    0    0  0.00000000000E+00  0.00000000000E+00  0.18975773917E+04  0.38059292909E+04  0.32991359186E+04 0.  0.
        3    1    3    3  502    0 -0.11637531829E+04  0.26030751738E+03  0.22636014473E+04  0.25585099172E+04  0.10100000352E+00 0.  1.
       -3    1    3    3    0  502  0.11637531829E+04 -0.26030751738E+03 -0.36602405553E+03  0.12474193736E+04  0.10100000352E+00 0. -1.
</event>
<event>
 5   0  0.6821287E-08  0.3300316E+04  0.7818609E-02  0.8162815E-01
        2   -1    0    0  501    0  0.00000000000E+00  0.00000000000E+00  0.23358895252E+04  0.23358895252E+04  0.25500000920E-02 0. -1.
       -2   -1    0    0    0  501  0.00000000000E+00  0.00000000000E+00 -0.11657318324E+04  0.11657318324E+04  0.25500000920E-02 0.  1.
    10030    2    1    2    0    0  0.00000000000E+00  0.00000000000E+00  0.11701576928E+04  0.35016213576E+04  0.33003156070E+04 0.  0.
        5    1    3    3  502    0 -0.37816325443E+02 -0.37702108277E+03  0.22891002817E+04  0.23202536846E+04  0.46999998093E+01 0. -1.
       -5    1    3    3    0  502  0.37816325443E+02  0.37702108277E+03 -0.11189425889E+04  0.11813676729E+04  0.46999998093E+01 0.  1.
</event>
<event>
 5   0  0.6765252E-08  0.3299671E+04  0.7818609E-02  0.8162979E-01
       -2   -1    0    0    0  501  0.00000000000E+00  0.00000000000E+00  0.17910980034E+04  0.17910980034E+04  0.25500000920E-02 0.  1.
        2   -1    0    0  501    0  0.00000000000E+00  0.00000000000E+00 -0.15197141159E+04  0.15197141159E+04  0.25500000920E-02 0. -1.
    10030    2    1    2    0    0  0.00000000000E+00  0.00000000000E+00  0.27138388741E+03  0.33108121193E+04  0.32996708434E+04 0.  0.
        2    1    3    3  502    0 -0.11854425226E+04 -0.97477679647E+03 -0.47173890338E+03  0.16056155736E+04  0.25500000920E-02 0. -1.
       -2    1    3    3    0  502  0.11854425226E+04  0.97477679647E+03  0.74312279079E+03  0.17051965457E+04  0.25500000920E-02 0.  1.
</event>
<event>
 5   0  0.6765252E-08  0.3298589E+04  0.7818609E-02  0.8163255E-01
        2   -1    0    0  501    0  0.00000000000E+00  0.00000000000E+00  0.12125316618E+04  0.12125316618E+04  0.25500000920E-02 0. -1.
       -2   -1    0    0    0  501  0.00000000000E+00  0.00000000000E+00 -0.22433820126E+04  0.22433820126E+04  0.25500000920E-02 0.  1.
    10030    2    1    2    0    0  0.00000000000E+00  0.00000000000E+00 -0.10308503508E+04  0.34559136744E+04  0.32985886192E+04 0.  0.
        2    1    3    3  502    0  0.85597447205E+03  0.88704795025E+03  0.63256582924E+03  0.13855272972E+04  0.25500000920E-02 0. -1.
       -2    1    3    3    0  502 -0.85597447205E+03 -0.88704795025E+03 -0.16634161801E+04  0.20703863772E+04  0.25500000920E-02 0.  1.
</event>
<event>
 5   0  0.7084130E-08  0.3298495E+04  0.7818609E-02  0.8163278E-01
        2   -1    0    0  501    0  0.00000000000E+00  0.00000000000E+00  0.29124833994E+04  0.29124833994E+04  0.25500000920E-02 0.  1.
       -2   -1    0    0    0  501  0.00000000000E+00  0.00000000000E+00 -0.93391673523E+03  0.93391673523E+03  0.25500000920E-02 0. -1.
    10030    2    1    2    0    0  0.00000000000E+00  0.00000000000E+00  0.19785666641E+04  0.38464001346E+04  0.32984948008E+04 0.  0.
        3    1    3    3  502    0  0.14973539115E+04 -0.51468479758E+03  0.45104182648E+03  0.16463316545E+04  0.10100000352E+00 0. -1.
       -3    1    3    3    0  502 -0.14973539115E+04  0.51468479758E+03  0.15275248376E+04  0.22000684801E+04  0.10100000352E+00 0.  1.
</event>
<event>
 5   0  0.2291682E-08  0.3299443E+04  0.7818609E-02  0.8163037E-01
       -1   -1    0    0    0  501  0.00000000000E+00  0.00000000000E+00  0.85259336313E+03  0.85259336314E+03  0.50400001928E-02 0.  1.
        1   -1    0    0  501    0  0.00000000000E+00  0.00000000000E+00 -0.31921210104E+04  0.31921210104E+04  0.50400001928E-02 0. -1.
    10030    2    1    2    0    0  0.00000000000E+00  0.00000000000E+00 -0.23395276472E+04  0.40447143735E+04  0.32994430971E+04 0.  0.
        2    1    3    3  502    0 -0.39120587894E+03  0.81020902596E+03  0.52536446315E+03  0.10418678057E+04  0.25500000920E-02 0.  1.
       -2    1    3    3    0  502  0.39120587894E+03 -0.81020902596E+03 -0.28648921104E+04  0.30028465678E+04  0.25500000920E-02 0. -1.
</event>
<event>
 5   0  0.6603516E-08  0.3300655E+04  0.7818609E-02  0.8162729E-01
       -2   -1    0    0    0  501  0.00000000000E+00  0.00000000000E+00  0.13793921336E+04  0.13793921336E+04  0.25500000920E-02 0.  1.
        2   -1    0    0  501    0  0.00000000000E+00  0.00000000000E+00 -0.19744795487E+04  0.19744795487E+04  0.25500000920E-02 0. -1.
    10030    2    1    2    0    0  0.00000000000E+00  0.00000000000E+00 -0.59508741509E+03  0.33538716823E+04  0.33006554243E+04 0.  0.
        1    1    3    3  502    0 -0.28753817987E+03  0.34271456928E+03  0.13166052621E+04  0.13905325947E+04  0.50400001928E-02 0.  1.
       -1    1    3    3    0  502  0.28753817987E+03 -0.34271456928E+03 -0.19116926772E+04  0.19633390876E+04  0.50400001928E-02 0. -1.
</event>
<event>
 5   0  0.2279938E-08  0.3300239E+04  0.7818609E-02  0.8162835E-01
       -1   -1    0    0    0  501  0.00000000000E+00  0.00000000000E+00  0.12657080267E+04  0.12657080267E+04  0.50400001928E-02 0. -1.
        1   -1    0    0  501    0  0.00000000000E+00  0.00000000000E+00 -0.21512811483E+04  0.21512811483E+04  0.50400001928E-02 0.  1.
    10030    2    1    2    0    0  0.00000000000E+00  0.00000000000E+00 -0.88557312160E+03  0.34169891750E+04  0.33002386684E+04 0.  0.
        3    1    3    3  502    0  0.84479577342E+03 -0.14149004753E+04 -0.53107055662E+03  0.17313749450E+04  0.10100000352E+00 0.  1.
       -3    1    3    3    0  502 -0.84479577342E+03  0.14149004753E+04 -0.35450256498E+03  0.16856142300E+04  0.10100000352E+00 0. -1.
</event>
<event>
 5   0  0.2279938E-08  0.3299265E+04  0.7818609E-02  0.8163082E-01
       -1   -1    0    0    0  501  0.00000000000E+00  0.00000000000E+00  0.15598431745E+04  0.15598431745E+04  0.50400001928E-02 0. -1.
        1   -1    0    0  501    0  0.00000000000E+00  0.00000000000E+00 -0.17445906477E+04  0.17445906477E+04  0.50400001928E-02 0.  1.
    10030    2    1    2    0    0  0.00000000000E+00  0.00000000000E+00 -0.18474747313E+03  0.33044338222E+04  0.32992652601E+04 0.  0.
        3    1    3    3  502    0  0.16223838341E+04  0.27651110957E+03 -0.20524502441E+03  0.16585274279E+04  0.10100000352E+00 0.  1.
       -3    1    3    3    0  502 -0.16223838341E+04 -0.27651110957E+03  0.20497551271E+02  0.16459063943E+04  0.10100000352E+00 0. -1.
</event>
<event>
 5   0  0.2309822E-08  0.3298799E+04  0.7818609E-02  0.8163201E-01
       -1   -1    0    0    0  501  0.00000000000E+00  0.00000000000E+00  0.12330586328E+04  0.12330586328E+04  0.50400001928E-02 0. -1.
        1   -1    0    0  501    0  0.00000000000E+00  0.00000000000E+00 -0.22063174485E+04  0.22063174485E+04  0.50400001928E-02 0.  1.
    10030    2    1    2    0    0  0.00000000000E+00  0.00000000000E+00 -0.97325881567E+03  0.34393760813E+04  0.32987990400E+04 0.  0.
        4    1    3    3  502    0 -0.45103734891E+03 -0.14197685722E+04  0.25159745570E+03  0.15107880001E+04  0.12699999809E+01 0. -1.
       -4    1    3    3    0  502  0.45103734891E+03  0.14197685722E+04 -0.12248562714E+04  0.19285880812E+04  0.12699999809E+01 0.  1.
</event>
<event>
 5   0  0.6706080E-08  0.3297714E+04  0.7818609E-02  0.8163477E-01
       -2   -1    0    0    0  501  0.00000000000E+00  0.00000000000E+00  0.26223580684E+04  0.26223580684E+04  0.25500000920E-02 0. -1.
        2   -1    0    0  501    0  0.00000000000E+00  0.00000000000E+00 -0.10367499524E+04  0.10367499524E+04  0.25500000920E-02 0.  1.
    10030    2    1    2    0    0  0.00000000000E+00  0.00000000000E+00  0.15856081160E+04  0.36591080209E+04  0.32977141190E+04 0.  0.
        4    1    3    3  502    0 -0.32518595712E+03  0.37494275073E+03  0.25375074113E+04  0.25855895746E+04  0.12699999809E+01 0. -1.
       -4    1    3    3    0  502  0.32518595712E+03 -0.37494275073E+03 -0.95189929534E+03  0.10735184462E+04  0.12699999809E+01 0.  1.
</event>
<event>
 5   0  0.2279938E-08  0.3299182E+04  0.7818609E-02  0.8163103E-01
       -1   -1    0    0    0  501  0.00000000000E+00  0.00000000000E+00  0.10884431590E+04  0.10884431590E+04  0.50400001928E-02 0. -1.
        1   -1    0    0  501    0  0.00000000000E+00  0.00000000000E+00 -0.25000398070E+04  0.25000398070E+04  0.50400001928E-02 0.  1.
    10030    2    1    2    0    0  0.00000000000E+00  0.00000000000E+00 -0.14115966481E+04  0.35884829660E+04  0.32991824594E+04 0.  0.
        3    1    3    3  502    0 -0.15506043634E+04  0.50667804573E+03 -0.97234789477E+03  0.18990937240E+04  0.10100000352E+00 0.  1.
       -3    1    3    3    0  502  0.15506043634E+04 -0.50667804573E+03 -0.43924875331E+03  0.16893892421E+04  0.10100000352E+00 0. -1.
</event>
<event>
 5   0  0.6821287E-08  0.3298981E+04  0.7818609E-02  0.8163155E-01
       -2   -1    0    0    0  501  0.00000000000E+00  0.00000000000E+00  0.94062876313E+03  0.94062876313E+03  0.25500000920E-02 0.  1.
        2   -1    0    0  501    0  0.00000000000E+00  0.00000000000E+00 -0.28925538769E+04  0.28925538769E+04  0.25500000920E-02 0. -1.
    10030    2    1    2    0    0  0.00000000000E+00  0.00000000000E+00 -0.19519251138E+04  0.38331826400E+04  0.32989812825E+04 0.  0.
        5    1    3    3  502    0  0.10219590537E+04 -0.31132541071E+02  0.52801900624E+03  0.11507370262E+04  0.46999998093E+01 0.  1.
       -5    1    3    3    0  502 -0.10219590537E+04  0.31132541071E+02 -0.24799441200E+04  0.26824456138E+04  0.46999998093E+01 0. -1.
</event>
<event>
 5   0  0.2279938E-08  0.3300013E+04  0.7818609E-02  0.8162892E-01
        1   -1    0    0  501    0  0.00000000000E+00  0.00000000000E+00  0.25827675584E+04  0.25827675584E+04  0.50400001928E-02 0.  1.
       -1   -1    0    0    0  501  0.00000000000E+00  0.00000000000E+00 -0.10541099660E+04  0.10541099661E+04  0.50400001928E-02 0. -1.
    10030    2    1    2    0    0  0.00000000000E+00  0.00000000000E+00  0.15286575923E+04  0.36368775244E+04  0.33000127414E+04 0.  0.
        3    1    3    3  502    0 -0.86691945374E+03 -0.12102473124E+04 -0.19832661852E+02  0.14888388903E+04  0.10100000352E+00 0.  1.
       -3    1    3    3    0  502  0.86691945374E+03  0.12102473124E+04  0.15484902542E+04  0.21480386342E+04  0.10100000352E+00 0. -1.
</event>
<event>
 5   0  0.6603516E-08  0.3299211E+04  0.7818609E-02  0.8163096E-01
       -2   -1    0    0    0  501  0.00000000000E+00  0.00000000000E+00  0.19743441429E+04  0.19743441429E+04  0.25500000920E-02 0.  1.
        2   -1    0    0  501    0  0.00000000000E+00  0.00000000000E+00 -0.13782794593E+04  0.13782794593E+04  0.25500000920E-02 0. -1.
    10030    2    1    2    0    0  0.00000000000E+00  0.00000000000E+00  0.59606468364E+03  0.33526236021E+04  0.32992108012E+04 0.  0.
        1    1    3    3  502    0 -0.12221369154E+04  0.88741704220E+03  0.97215011509E+03  0.17961635485E+04  0.50400001928E-02 0.  1.
       -1    1    3    3    0  502  0.12221369154E+04 -0.88741704220E+03 -0.37608543145E+03  0.15564600536E+04  0.50400001928E-02 0. -1.
</event>
<event>
 5   0  0.2279938E-08  0.3298940E+04  0.7818609E-02  0.8163165E-01
        1   -1    0    0  501    0  0.00000000000E+00  0.00000000000E+00  0.25895384935E+04  0.25895384935E+04  0.50400001928E-02 0. -1.
       -1   -1    0    0    0  501  0.00000000000E+00  0.00000000000E+00 -0.10506700577E+04  0.10506700578E+04  0.50400001928E-02 0.  1.
    10030    2    1    2    0    0  0.00000000000E+00  0.00000000000E+00  0.15388684358E+04  0.36402085513E+04  0.32989395620E+04 0.  0.
        3    1    3    3  502    0  0.29387506501E+03 -0.11989883382E+04  0.19765958146E+04  0.23304219819E+04  0.10100000352E+00 0. -1.
       -3    1    3    3    0  502 -0.29387506501E+03  0.11989883382E+04 -0.43772737887E+03  0.13097865694E+04  0.10100000352E+00 0.  1.
</event>
<event>
 5   0  0.6821287E-08  0.3300831E+04  0.7818609E-02  0.8162684E-01
       -2   -1    0    0    0  501  0.00000000000E+00  0.00000000000E+00  0.11825759260E+04  0.11825759260E+04  0.25500000920E-02 0.  1.
        2   -1    0    0  501    0  0.00000000000E+00  0.00000000000E+00 -0.23033368100E+04  0.23033368100E+04  0.25500000920E-02 0. -1.
    10030    2    1    2    0    0  0.00000000000E+00  0.00000000000E+00 -0.11207608840E+04  0.34859127360E+04  0.33008305991E+04 0.  0.
        5    1    3    3  502    0  0.41757720553E+03 -0.15921997928E+04 -0.43375018030E+03  0.17022432880E+04  0.46999998093E+01 0.  1.
       -5    1    3    3    0  502 -0.41757720553E+03  0.15921997928E+04 -0.68701070367E+03  0.17836694480E+04  0.46999998093E+01 0. -1.
</event>
<event>
 5   0  0.7084130E-08  0.3300686E+04  0.7818609E-02  0.8162721E-01
       -2   -1    0    0    0  501  0.00000000000E+00  0.00000000000E+00  0.10736564997E+04  0.10736564997E+04  0.25500000920E-02 0.  1.
        2   -1    0    0  501    0  0.00000000000E+00  0.00000000000E+00 -0.25367811753E+04  0.25367811753E+04  0.25500000920E-02 0. -1.
    10030    2    1    2    0    0  0.00000000000E+00  0.00000000000E+00 -0.14631246756E+04  0.36104376750E+04  0.33006857452E+04 0.  0.
        3    1    3    3  502    0  0.50835096509E+03 -0.98771337335E+03  0.60348093506E+03  0.12641944711E+04  0.10100000352E+00 0.  1.
       -3    1    3    3    0  502 -0.50835096509E+03  0.98771337335E+03 -0.20666056107E+04  0.23462432039E+04  0.10100000352E+00 0. -1.
</event>
<event>
 5   0  0.7084130E-08  0.3291490E+04  0.7818609E-02  0.8165064E-01
       -2   -1    0    0    0  501  0.00000000000E+00  0.00000000000E+00  0.13249142343E+04  0.13249142343E+04  0.25500000920E-02 0. -1.
        2   -1    0    0  501    0  0.00000000000E+00  0.00000000000E+00 -0.20442650109E+04  0.20442650109E+04  0.25500000920E-02 0.  1.
    10030    2    1    2    0    0  0.00000000000E+00  0.00000000000E+00 -0.71935077655E+03  0.33691792452E+04  0.32914895179E+04 0.  0.
        3    1    3    3  502    0  0.48708230957E+03  0.14563641018E+04  0.24609557724E+03  0.15552519463E+04  0.10100000352E+00 0.  1.
       -3    1    3    3    0  502 -0.48708230957E+03 -0.14563641018E+04 -0.96544635379E+03  0.18139272988E+04  0.10100000352E+00 0. -1.
</event>
<event>
 5   0  0.2244093E-08  0.3301904E+04  0.7818609E-02  0.8162411E-01
       -1   -1    0    0    0  501  0.00000000000E+00  0.00000000000E+00  0.10995472597E+04  0.10995472597E+04  0.50400001928E-02 0. -1.
        1   -1    0    0  501    0  0.00000000000E+00  0.00000000000E+00 -0.24788766293E+04  0.24788766293E+04  0.50400001928E-02 0.  1.
    10030    2    1    2    0    0  0.00000000000E+00  0.00000000000E+00 -0.13793293695E+04  0.35784238890E+04  0.33019036963E+04 0.  0.
        1    1    3    3  502    0  0.19929443901E+03 -0.96055016580E+03  0.74942027887E+03  0.12345062369E+04  0.50400001928E-02 0. -1.
       -1    1    3    3    0  502 -0.19929443901E+03  0.96055016580E+03 -0.21287496484E+04  0.23439176521E+04  0.50400001928E-02 0.  1.
</event>
<event>
 5   0  0.2309822E-08  0.3302401E+04  0.7818609E-02  0.8162285E-01
       -1   -1    0    0    0  501  0.00000000000E+00  0.00000000000E+00  0.22599454708E+04  0.22599454708E+04  0.50400001928E-02 0.  1.
        1   -1    0    0  501    0  0.00000000000E+00  0.00000000000E+00 -0.12064285880E+04  0.12064285880E+04  0.50400001928E-02 0. -1.
    10030    2    1    2    0    0  0.00000000000E+00  0.00000000000E+00  0.10535168828E+04  0.34663740588E+04  0.33024008377E+04 0.  0.
        4    1    3    3  502    0 -0.24447621503E+03  0.99445624998E+03 -0.83283537511E+03  0.13199728133E+04  0.12699999809E+01 0. -1.
       -4    1    3    3    0  502  0.24447621503E+03 -0.99445624998E+03  0.18863522579E+04  0.21464012455E+04  0.12699999809E+01 0.  1.
</event>
<event>
 5   0  0.2244093E-08  0.3301757E+04  0.7818609E-02  0.8162448E-01
       -1   -1    0    0    0  501  0.00000000000E+00  0.00000000000E+00  0.95108911925E+03  0.95108911927E+03  0.50400001928E-02 0. -1.
        1   -1    0    0  501    0  0.00000000000E+00  0.00000000000E+00 -0.28655573919E+04  0.28655573919E+04  0.50400001928E-02 0.  1.
    10030    2    1    2    0    0  0.00000000000E+00  0.00000000000E+00 -0.19144682726E+04  0.38166465111E+04  0.33017573842E+04 0.  0.
        1    1    3    3  502    0  0.10391266099E+04  0.59527834757E+03 -0.22707751428E+04  0.25672086343E+04  0.50400001928E-02 0.  1.
       -1    1    3    3    0  502 -0.10391266099E+04 -0.59527834757E+03  0.35630687022E+03  0.12494378769E+04  0.50400001928E-02 0. -1.
</event>
<event>
 5   0  0.2200750E-08  0.3300126E+04  0.7818609E-02  0.8162863E-01
       -3   -1    0    0    0  501  0.00000000000E+00  0.00000000000E+00  0.29671993537E+04  0.29671993554E+04  0.10100000352E+00 0. -1.
        3   -1    0    0  501    0  0.00000000000E+00  0.00000000000E+00 -0.91760203186E+03  0.91760203742E+03  0.10100000352E+00 0.  1.
    10030    2    1    2    0    0  0.00000000000E+00  0.00000000000E+00  0.20495973218E+04  0.38848013928E+04  0.33001261612E+04 0.  0.
        4    1    3    3  502    0 -0.10706330087E+04  0.12365722805E+04  0.76867201799E+03  0.18072698549E+04  0.12699999809E+01 0.  1.
       -4    1    3    3    0  502  0.10706330087E+04 -0.12365722805E+04  0.12809253038E+04  0.20775315380E+04  0.12699999809E+01 0. -1.
</event>
<event>
 5   0  0.2279938E-08  0.3304192E+04  0.7818609E-02  0.8161830E-01
        1   -1    0    0  501    0  0.00000000000E+00  0.00000000000E+00  0.22551031166E+04  0.22551031166E+04  0.50400001928E-02 0. -1.
       -1   -1    0    0    0  501  0.00000000000E+00  0.00000000000E+00 -0.12103307465E+04  0.12103307465E+04  0.50400001928E-02 0.  1.
    10030    2    1    2    0    0  0.00000000000E+00  0.00000000000E+00  0.10447723701E+04  0.34654338631E+04  0.33041916642E+04 0.  0.
        3    1    3    3  502    0 -0.20569039893E+03  0.15631969781E+04  0.48196275516E+01  0.15766789691E+04  0.10100000352E+00 0.  1.
       -3    1    3    3    0  502  0.20569039893E+03 -0.15631969781E+04  0.10399527425E+04  0.18887548940E+04  0.10100000352E+00 0. -1.
</event>
<event>
 5   0  0.2309822E-08  0.3299267E+04  0.7818609E-02  0.8163082E-01
       -1   -1    0    0    0  501  0.00000000000E+00  0.00000000000E+00  0.15132638191E+04  0.15132638191E+04  0.50400001928E-02 0.  1.
        1   -1    0    0  501    0  0.00000000000E+00  0.00000000000E+00 -0.17982926411E+04  0.17982926411E+04  0.50400001928E-02 0. -1.
    10030    2    1    2    0    0  0.00000000000E+00  0.00000000000E+00 -0.28502882202E+03  0.33115564602E+04  0.32992673065E+04 0.  0.
        4    1    3    3  502    0  0.14895323359E+04 -0.12967332567E+03 -0.84208095835E+03  0.17159905899E+04  0.12699999809E+01 0. -1.
       -4    1    3    3    0  502 -0.14895323359E+04  0.12967332567E+03  0.55705213633E+03  0.15955658704E+04  0.12699999809E+01 0.  1.
</event>
<event>
 5   0  0.2291682E-08  0.3299876E+04  0.7818609E-02  0.8162927E-01
        1   -1    0    0  501    0  0.00000000000E+00  0.00000000000E+00  0.20659522100E+04  0.20659522100E+04  0.50400001928E-02 0. -1.
       -1   -1    0    0    0  501  0.00000000000E+00  0.00000000000E+00 -0.13176956135E+04  0.13176956135E+04  0.50400001928E-02 0.  1.
    10030    2    1    2    0    0  0.00000000000E+00  0.00000000000E+00  0.74825659655E+03  0.33836478235E+04  0.32998764612E+04 0.  0.
        2    1    3    3  502    0 -0.76224133747E+03 -0.92226350462E+03 -0.79080897233E+03  0.14342108141E+04  0.25500000920E-02 0.  1.
       -2    1    3    3    0  502  0.76224133747E+03  0.92226350462E+03  0.15390655689E+04  0.19494370095E+04  0.25500000920E-02 0. -1.
</event>
<event>
 5   0  0.6765252E-08  0.3311702E+04  0.7818609E-02  0.8159924E-01
        2   -1    0    0  501    0  0.00000000000E+00  0.00000000000E+00  0.17065314179E+04  0.17065314179E+04  0.25500000920E-02 0.  1.
       -2   -1    0    0    0  501  0.00000000000E+00  0.00000000000E+00 -0.16066760979E+04  0.16066760979E+04  0.25500000920E-02 0. -1.
    10030    2    1    2    0    0  0.00000000000E+00  0.00000000000E+00  0.99855319973E+02  0.33132075158E+04  0.33117024259E+04 0.  0.
        2    1    3    3  502    0 -0.10981838859E+04  0.91315454420E+03  0.88815339675E+03  0.16818666787E+04  0.25500000920E-02 0.  1.
       -2    1    3    3    0  502  0.10981838859E+04 -0.91315454420E+03 -0.78829807678E+03  0.16313408371E+04  0.25500000920E-02 0. -1.
</event>
<event>
 5   0  0.2383270E-08  0.3300072E+04  0.7818609E-02  0.8162877E-01
        1   -1    0    0  501    0  0.00000000000E+00  0.00000000000E+00  0.17799125014E+04  0.17799125014E+04  0.50400001928E-02 0.  1.
       -1   -1    0    0    0  501  0.00000000000E+00  0.00000000000E+00 -0.15296362433E+04  0.15296362433E+04  0.50400001928E-02 0. -1.
    10030    2    1    2    0    0  0.00000000000E+00  0.00000000000E+00  0.25027625813E+03  0.33095487447E+04  0.33000719217E+04 0.  0.
        5    1    3    3  502    0 -0.23716305472E+03  0.15550103828E+04  0.62485912281E+03  0.16925645094E+04  0.46999998093E+01 0.  1.
       -5    1    3    3    0  502  0.23716305472E+03 -0.15550103828E+04 -0.37458286468E+03  0.16169842354E+04  0.46999998093E+01 0. -1.
</event>
<event>
 5   0  0.2279938E-08  0.3300923E+04  0.7818609E-02  0.8162660E-01
       -1   -1    0    0    0  501  0.00000000000E+00  0.00000000000E+00  0.12433613751E+04  0.12433613751E+04  0.50400001928E-02 0.  1.
        1   -1    0    0  501    0  0.00000000000E+00  0.00000000000E+00 -0.21908544195E+04  0.21908544195E+04  0.50400001928E-02 0. -1.
    10030    2    1    2    0    0  0.00000000000E+00  0.00000000000E+00 -0.94749304437E+03  0.34342157946E+04  0.33009233639E+04 0.  0.
        3    1    3    3  502    0 -0.67962412993E+03  0.12896446659E+04  0.33142414170E+03  0.14949629742E+04  0.10100000352E+00 0. -1.
       -3    1    3    3    0  502  0.67962412993E+03 -0.12896446659E+04 -0.12789171861E+04  0.19392528204E+04  0.10100000352E+00 0.  1.
</event>
<event>
 5   0  0.6765252E-08  0.3300098E+04  0.7818609E-02  0.8162870E-01
       -2   -1    0    0    0  501  0.00000000000E+00  0.00000000000E+00  0.95496612597E+03  0.95496612597E+03  0.25500000920E-02 0. -1.
        2   -1    0    0  501    0  0.00000000000E+00  0.00000000000E+00 -0.28510555047E+04  0.28510555047E+04  0.25500000920E-02 0.  1.
    10030    2    1    2    0    0  0.00000000000E+00  0.00000000000E+00 -0.18960893787E+04  0.38060216307E+04  0.33000978351E+04 0.  0.
        2    1    3    3  502    0  0.15730350257E+04 -0.32534603825E+03 -0.13832127624E+04  0.21198034774E+04  0.25500000920E-02 0.  1.
       -2    1    3    3    0  502 -0.15730350257E+04  0.32534603825E+03 -0.51287661631E+03  0.16862181532E+04  0.25500000920E-02 0. -1.
</event>
<event>
 5   0  0.2291682E-08  0.3300164E+04  0.7818609E-02  0.8162854E-01
        1   -1    0    0  501    0  0.00000000000E+00  0.00000000000E+00  0.16567880494E+04  0.16567880494E+04  0.50400001928E-02 0. -1.
       -1   -1    0    0    0  501  0.00000000000E+00  0.00000000000E+00 -0.16434034450E+04  0.16434034450E+04  0.50400001928E-02 0.  1.
    10030    2    1    2    0    0  0.00000000000E+00  0.00000000000E+00  0.13384604346E+02  0.33001914944E+04  0.33001643523E+04 0.  0.
        2    1    3    3  502    0 -0.12997071020E+04  0.74563589565E+03  0.69775496468E+03  0.16528984938E+04  0.25500000920E-02 0. -1.
       -2    1    3    3    0  502  0.12997071020E+04 -0.74563589565E+03 -0.68437036033E+03  0.16472930007E+04  0.25500000920E-02 0.  1.
</event>
<event>
 5   0  0.2383270E-08  0.3301761E+04  0.7818609E-02  0.8162448E-01
        1   -1    0    0  501    0  0.00000000000E+00  0.00000000000E+00  0.13171085958E+04  0.13171085958E+04  0.50400001928E-02 0.  1.
       -1   -1    0    0    0  501  0.00000000000E+00  0.00000000000E+00 -0.20692340109E+04  0.20692340109E+04  0.50400001928E-02 0. -1.
    10030    2    1    2    0    0  0.00000000000E+00  0.00000000000E+00 -0.75212541517E+03  0.33863426067E+04  0.33017606833E+04 0.  0.
        5    1    3    3  502    0 -0.24944498123E+03  0.81493400760E+03  0.10740322216E+04  0.13710972024E+04  0.46999998093E+01 0.  1.
       -5    1    3    3    0  502  0.24944498123E+03 -0.81493400760E+03 -0.18261576368E+04  0.20152454043E+04  0.46999998093E+01 0. -1.
</event>
<event>
 5   0  0.6603516E-08  0.3298899E+04  0.7818609E-02  0.8163176E-01
        2   -1    0    0  501    0  0.00000000000E+00  0.00000000000E+00  0.20461517171E+04  0.20461517171E+04  0.25500000920E-02 0. -1.
       -2   -1    0    0    0  501  0.00000000000E+00  0.00000000000E+00 -0.13296590919E+04  0.13296590919E+04  0.25500000920E-02 0.  1.
    10030    2    1    2    0    0  0.00000000000E+00  0.00000000000E+00  0.71649262518E+03  0.33758108090E+04  0.32988993523E+04 0.  0.
        1    1    3    3  502    0  0.35034254106E+03  0.12017752145E+04 -0.74089072403E+03  0.14546211284E+04  0.50400001928E-02 0.  1.
       -1    1    3    3    0  502 -0.35034254106E+03 -0.12017752145E+04  0.14573833492E+04  0.19211896806E+04  0.50400001928E-02 0. -1.
</event>
<event>
 5   0  0.6765252E-08  0.3305415E+04  0.7818609E-02  0.8161519E-01
       -2   -1    0    0    0  501  0.00000000000E+00  0.00000000000E+00  0.14871692088E+04  0.14871692088E+04  0.25500000920E-02 0.  1.
        2   -1    0    0  501    0  0.00000000000E+00  0.00000000000E+00 -0.18366724740E+04  0.18366724740E+04  0.25500000920E-02 0. -1.
    10030    2    1    2    0    0  0.00000000000E+00  0.00000000000E+00 -0.34950326511E+03  0.33238416828E+04  0.33054154051E+04 0.  0.
        2    1    3    3  502    0 -0.84608130190E+03 -0.65534950451E+03  0.10916761092E+04  0.15287554644E+04  0.25500000920E-02 0.  1.
       -2    1    3    3    0  502  0.84608130190E+03  0.65534950451E+03 -0.14411793743E+04  0.17950862184E+04  0.25500000920E-02 0. -1.
</event>
<event>
 5   0  0.6706080E-08  0.3298089E+04  0.7818609E-02  0.8163382E-01
       -2   -1    0    0    0  501  0.00000000000E+00  0.00000000000E+00  0.11653447186E+04  0.11653447186E+04  0.25500000920E-02 0.  1.
        2   -1    0    0  501    0  0.00000000000E+00  0.00000000000E+00 -0.23335129560E+04  0.23335129560E+04  0.25500000920E-02 0. -1.
    10030    2    1    2    0    0  0.00000000000E+00  0.00000000000E+00 -0.11681682374E+04  0.34988576746E+04  0.32980885367E+04 0.  0.
        4    1    3    3  502    0  0.15601915160E+04 -0.44284302279E+03 -0.90064071268E+03  0.18551180058E+04  0.12699999809E+01 0. -1.
       -4    1    3    3    0  502 -0.15601915160E+04  0.44284302279E+03 -0.26752752472E+03  0.16437396688E+04  0.12699999809E+01 0.  1.
</event>
<event>
 5   0  0.6821287E-08  0.3303596E+04  0.7818609E-02  0.8161981E-01
        2   -1    0    0  501    0  0.00000000000E+00  0.00000000000E+00  0.19767681365E+04  0.19767681365E+04  0.25500000920E-02 0. -1.
       -2   -1    0    0    0  501  0.00000000000E+00  0.00000000000E+00 -0.13802508989E+04  0.13802508989E+04  0.25500000920E-02 0.  1.
    10030    2    1    2    0    0  0.00000000000E+00  0.00000000000E+00  0.59651723760E+03  0.33570190354E+04  0.33035956153E+04 0.  0.
        5    1    3    3  502    0  0.31956153493E+03 -0.36401161533E+03  0.19029697001E+04  0.19636547049E+04  0.46999998093E+01 0. -1.
       -5    1    3    3    0  502 -0.31956153493E+03  0.36401161533E+03 -0.13064524625E+04  0.13933643305E+04  0.46999998093E+01 0.  1.
</event>
<event>
 5   0  0.6706080E-08  0.3300617E+04  0.7818609E-02  0.8162738E-01
        2   -1    0    0  501    0  0.00000000000E+00  0.00000000000E+00  0.30967732779E+04  0.30967732779E+04  0.25500000920E-02 0. -1.
       -2   -1    0    0    0  501  0.00000000000E+00  0.00000000000E+00 -0.87946971840E+03  0.87946971840E+03  0.25500000920E-02 0.  1.
    10030    2    1    2    0    0  0.00000000000E+00  0.00000000000E+00  0.22173035595E+04  0.39762429963E+04  0.33006171075E+04 0.  0.
        4    1    3    3  502    0  0.39408550876E+03  0.73413379911E+03  0.28247680668E+04  0.29450928793E+04  0.12699999809E+01 0. -1.
       -4    1    3    3    0  502 -0.39408550876E+03 -0.73413379911E+03 -0.60746450736E+03  0.10311501170E+04  0.12699999809E+01 0.  1.
</event>
<event>
 5   0  0.6603516E-08  0.3298972E+04  0.7818609E-02  0.8163157E-01
        2   -1    0    0  501    0  0.00000000000E+00  0.00000000000E+00  0.16673820891E+04  0.16673820891E+04  0.25500000920E-02 0. -1.
       -2   -1    0    0    0  501  0.00000000000E+00  0.00000000000E+00 -0.16317815790E+04  0.16317815790E+04  0.25500000920E-02 0.  1.
    10030    2    1    2    0    0  0.00000000000E+00  0.00000000000E+00  0.35600510156E+02  0.32991636681E+04  0.32989715841E+04 0.  0.
        1    1    3    3  502    0  0.89140241863E+03 -0.60233833043E+03  0.12682304633E+04  0.16630749365E+04  0.50400001928E-02 0. -1.
       -1    1    3    3    0  502 -0.89140241863E+03  0.60233833043E+03 -0.12326299532E+04  0.16360887316E+04  0.50400001928E-02 0.  1.
</event>
<event>
 5   0  0.2291682E-08  0.3299702E+04  0.7818609E-02  0.8162971E-01
       -1   -1    0    0    0  501  0.00000000000E+00  0.00000000000E+00  0.16830869870E+04  0.16830869870E+04  0.50400001928E-02 0.  1.
        1   -1    0    0  501    0  0.00000000000E+00  0.00000000000E+00 -0.16172709496E+04  0.16172709496E+04  0.50400001928E-02 0. -1.
    10030    2    1    2    0    0  0.00000000000E+00  0.00000000000E+00  0.65816037484E+02  0.33003579366E+04  0.32997016167E+04 0.  0.
        2    1    3    3  502    0 -0.35056247333E+03 -0.10551243055E+03 -0.15761321873E+04  0.16180913425E+04  0.25500000920E-02 0. -1.
       -2    1    3    3    0  502  0.35056247333E+03  0.10551243055E+03  0.16419482248E+04  0.16822665941E+04  0.25500000920E-02 0.  1.
</event>
<event>
 5   0  0.6765252E-08  0.3318152E+04  0.7818609E-02  0.8158292E-01
        2   -1    0    0  501    0  0.00000000000E+00  0.00000000000E+00  0.17688464456E+04  0.17688464456E+04  0.25500000920E-02 0.  1.
       -2   -1    0    0    0  501  0.00000000000E+00  0.00000000000E+00 -0.15561181183E+04  0.15561181183E+04  0.25500000920E-02 0. -1.
    10030    2    1    2    0    0  0.00000000000E+00  0.00000000000E+00  0.21272832731E+03  0.33249645638E+04  0.33181524994E+04 0.  0.
        2    1    3    3  502    0 -0.13064637485E+04 -0.88202105731E+02 -0.91450449613E+03  0.15971679971E+04  0.25500000920E-02 0. -1.
       -2    1    3    3    0  502  0.13064637485E+04  0.88202105731E+02  0.11272328234E+04  0.17277965667E+04  0.25500000920E-02 0.  1.
</event>
<event>
 5   0  0.7084130E-08  0.3298916E+04  0.7818609E-02  0.8163171E-01
       -2   -1    0    0    0  501  0.00000000000E+00  0.00000000000E+00  0.25332016303E+04  0.25332016303E+04  0.25500000920E-02 0. -1.
        2   -1    0    0  501    0  0.00000000000E+00  0.00000000000E+00 -0.10740209792E+04  0.10740209792E+04  0.25500000920E-02 0.  1.
    10030    2    1    2    0    0  0.00000000000E+00  0.00000000000E+00  0.14591806511E+04  0.36072226095E+04  0.32989160011E+04 0.  0.
        3    1    3    3  502    0 -0.85114977626E+03  0.71483174834E+02  0.22725452144E+04  0.24277618391E+04  0.10100000352E+00 0. -1.
       -3    1    3    3    0  502  0.85114977626E+03 -0.71483174834E+02 -0.81336456329E+03  0.11794607704E+04  0.10100000352E+00 0.  1.
</event>
<event>
 5   0  0.6821287E-08  0.3300463E+04  0.7818609E-02  0.8162778E-01
       -2   -1    0    0    0  501  0.00000000000E+00  0.00000000000E+00  0.21071922916E+04  0.21071922916E+04  0.25500000920E-02 0. -1.
        2   -1    0    0  501    0  0.00000000000E+00  0.00000000000E+00 -0.12923660211E+04  0.12923660211E+04  0.25500000920E-02 0.  1.
    10030    2    1    2    0    0  0.00000000000E+00  0.00000000000E+00  0.81482627051E+03  0.33995583127E+04  0.33004628267E+04 0.  0.
        5    1    3    3  502    0 -0.12848853139E+04 -0.92378825326E+03 -0.74531262520E+02  0.15842638687E+04  0.46999998093E+01 0.  1.
       -5    1    3    3    0  502  0.12848853139E+04  0.92378825326E+03  0.88935753303E+03  0.18152944439E+04  0.46999998093E+01 0. -1.
</event>
<event>
 5   0  0.6603516E-08  0.3300320E+04  0.7818609E-02  0.8162814E-01
        2   -1    0    0  501    0  0.00000000000E+00  0.00000000000E+00  0.20439405650E+04  0.20439405650E+04  0.25500000920E-02 0.  1.
       -2   -1    0    0    0  501  0.00000000000E+00  0.00000000000E+00 -0.13322439830E+04  0.13322439830E+04  0.25500000920E-02 0. -1.
    10030    2    1    2    0    0  0.00000000000E+00  0.00000000000E+00  0.71169658199E+03  0.33761845481E+04  0.33003196933E+04 0.  0.
        1    1    3    3  502    0  0.44406407301E+03 -0.74548405023E+03 -0.10800146818E+04  0.13854136866E+04  0.50400001928E-02 0. -1.
       -1    1    3    3    0  502 -0.44406407301E+03  0.74548405023E+03  0.17917112638E+04  0.19907708615E+04  0.50400001928E-02 0.  1.
</event>
<event>
 5   0  0.2244093E-08  0.3300048E+04  0.7818609E-02  0.8162883E-01
        1   -1    0    0  501    0  0.00000000000E+00  0.00000000000E+00  0.31402347893E+04  0.31402347893E+04  0.50400001928E-02 0.  1.
       -1   -1    0    0    0  501  0.00000000000E+00  0.00000000000E+00 -0.86699854114E+03  0.86699854115E+03  0.50400001928E-02 0. -1.
    10030    2    1    2    0    0  0.00000000000E+00  0.00000000000E+00  0.22732362481E+04  0.40072333304E+04  0.33000478670E+04 0.  0.
        1    1    3    3  502    0 -0.50766258915E+03  0.99483323672E+03 -0.33822089510E+03  0.11669652297E+04  0.50400001928E-02 0. -1.
       -1    1    3    3    0  502  0.50766258915E+03 -0.99483323672E+03  0.26114571432E+04  0.28402681008E+04  0.50400001928E-02 0.  1.
</event>
<event>
 5   0  0.6765252E-08  0.3300034E+04  0.7818609E-02  0.8162887E-01
       -2   -1    0    0    0  501  0.00000000000E+00  0.00000000000E+00  0.15067685779E+04  0.15067685779E+04  0.25500000920E-02 0. -1.
        2   -1    0    0  501    0  0.00000000000E+00  0.00000000000E+00 -0.18068845272E+04  0.18068845272E+04  0.25500000920E-02 0.  1.
    10030    2    1    2    0    0  0.00000000000E+00  0.00000000000E+00 -0.30011594925E+03  0.33136531051E+04  0.33000344419E+04 0.  0.
        2    1    3    3  502    0 -0.15049497130E+04  0.67633972831E+03 -0.13425253190E+03  0.16553950613E+04  0.25500000920E-02 0. -1.
       -2    1    3    3    0  502  0.15049497130E+04 -0.67633972831E+03 -0.16586341735E+03  0.16582580438E+04  0.25500000920E-02 0.  1.
</event>
<event>
 5   0  0.2383270E-08  0.3299358E+04  0.7818609E-02  0.8163059E-01
       -1   -1    0    0    0  501  0.00000000000E+00  0.00000000000E+00  0.13815591710E+04  0.13815591710E+04  0.50400001928E-02 0.  1.
        1   -1    0    0  501    0  0.00000000000E+00  0.00000000000E+00 -0.19698331500E+04  0.19698331500E+04  0.50400001928E-02 0. -1.
    10030    2    1    2    0    0  0.00000000000E+00  0.00000000000E+00 -0.58827397898E+03  0.33513923210E+04  0.32993581520E+04 0.  0.
        5    1    3    3  502    0 -0.77754574414E+02  0.16291764849E+04 -0.42937066233E+02  0.16316027318E+04  0.46999998093E+01 0. -1.
       -5    1    3    3    0  502  0.77754574414E+02 -0.16291764849E+04 -0.54533691275E+03  0.17197895892E+04  0.46999998093E+01 0.  1.
</event>
<event>
 5   0  0.6821287E-08  0.3299007E+04  0.7818609E-02  0.8163148E-01
       -2   -1    0    0    0  501  0.00000000000E+00  0.00000000000E+00  0.10084354495E+04  0.10084354495E+04  0.25500000920E-02 0.  1.
        2   -1    0    0  501    0  0.00000000000E+00  0.00000000000E+00 -0.26981021750E+04  0.26981021750E+04  0.25500000920E-02 0. -1.
    10030    2    1    2    0    0  0.00000000000E+00  0.00000000000E+00 -0.16896667255E+04  0.37065376245E+04  0.32990070505E+04 0.  0.
        5    1    3    3  502    0 -0.79676513602E+03 -0.51247028550E+03  0.67229972803E+03  0.11616666862E+04  0.46999998093E+01 0.  1.
       -5    1    3    3    0  502  0.79676513602E+03  0.51247028550E+03 -0.23619664535E+04  0.25448709384E+04  0.46999998093E+01 0. -1.
</event>
<event>
 5   0  0.2309822E-08  0.3300348E+04  0.7818609E-02  0.8162807E-01
       -1   -1    0    0    0  501  0.00000000000E+00  0.00000000000E+00  0.10250271312E+04  0.10250271312E+04  0.50400001928E-02 0.  1.
        1   -1    0    0  501    0  0.00000000000E+00  0.00000000000E+00 -0.26565881187E+04  0.26565881187E+04  0.50400001928E-02 0. -1.
    10030    2    1    2    0    0  0.00000000000E+00  0.00000000000E+00 -0.16315609875E+04  0.36816152500E+04  0.33003484048E+04 0.  0.
        4    1    3    3  502    0  0.40652113130E+03  0.14332407891E+04 -0.24124632041E+02  0.14899738926E+04  0.12699999809E+01 0.  1.
       -4    1    3    3    0  502 -0.40652113130E+03 -0.14332407891E+04 -0.16074363555E+04  0.21916413574E+04  0.12699999809E+01 0. -1.
</event>
<event>
 5   0  0.6706080E-08  0.3301600E+04  0.7818609E-02  0.8162488E-01
        2   -1    0    0  501    0  0.00000000000E+00  0.00000000000E+00  0.18346723813E+04  0.18346723813E+04  0.25500000920E-02 0.  1.
       -2   -1    0    0    0  501  0.00000000000E+00  0.00000000000E+00 -0.14853550675E+04  0.14853550675E+04  0.25500000920E-02 0. -1.
    10030    2    1    2    0    0  0.00000000000E+00  0.00000000000E+00  0.34931731384E+03  0.33200274487E+04  0.33015995630E+04 0.  0.
        4    1    3    3  502    0  0.29301729954E+03 -0.88265022074E+03  0.15461655709E+04  0.18043170829E+04  0.12699999809E+01 0.  1.
       -4    1    3    3    0  502 -0.29301729954E+03  0.88265022074E+03 -0.11968482570E+04  0.15157103659E+04  0.12699999809E+01 0. -1.
</event>
<event>
 5   0  0.2244093E-08  0.3295412E+04  0.7818609E-02  0.8164064E-01
       -1   -1    0    0    0  501  0.00000000000E+00  0.00000000000E+00  0.23333090336E+04  0.23333090336E+04  0.50400001928E-02 0.  1.
        1   -1    0    0  501    0  0.00000000000E+00  0.00000000000E+00 -0.11635555312E+04  0.11635555312E+04  0.50400001928E-02 0. -1.
    10030    2    1    2    0    0  0.00000000000E+00  0.00000000000E+00  0.11697535024E+04  0.34968645648E+04  0.32954117388E+04 0.  0.
        1    1    3    3  502    0 -0.15832707341E+04  0.11745771185E+03  0.10527286905E+04  0.19049357541E+04  0.50400001928E-02 0. -1.
       -1    1    3    3    0  502  0.15832707341E+04 -0.11745771185E+03  0.11702481193E+03  0.15919288107E+04  0.50400001928E-02 0.  1.
</event>
<event>
 5   0  0.6603516E-08  0.3299970E+04  0.7818609E-02  0.8162903E-01
        2   -1    0    0  501    0  0.00000000000E+00  0.00000000000E+00  0.20103813137E+04  0.20103813137E+04  0.25500000920E-02 0. -1.
       -2   -1    0    0    0  501  0.00000000000E+00  0.00000000000E+00 -0.13541964562E+04  0.13541964562E+04  0.25500000920E-02 0.  1.
    10030    2    1    2    0    0  0.00000000000E+00  0.00000000000E+00  0.65618485755E+03  0.33645777699E+04  0.32999704548E+04 0.  0.
        1    1    3    3  502    0  0.10667022381E+04 -0.54509202745E+03 -0.82879062924E+03  0.14566649890E+04  0.50400001928E-02 0.  1.
       -1    1    3    3    0  502 -0.10667022381E+04  0.54509202745E+03  0.14849754868E+04  0.19079127809E+04  0.50400001928E-02 0. -1.
</event>
<event>
 5   0  0.2309822E-08  0.3302725E+04  0.7818609E-02  0.8162202E-01
        1   -1    0    0  501    0  0.00000000000E+00  0.00000000000E+00  0.23291033581E+04  0.23291033581E+04  0.50400001928E-02 0.  1.
       -1   -1    0    0    0  501  0.00000000000E+00  0.00000000000E+00 -0.11708357577E+04  0.11708357577E+04  0.50400001928E-02 0. -1.
    10030    2    1    2    0    0  0.00000000000E+00  0.00000000000E+00  0.11582676004E+04  0.34999391159E+04  0.33027246299E+04 0.  0.
        4    1    3    3  502    0  0.42954531656E+03 -0.14438473209E+04  0.12961385659E+04  0.19872546540E+04  0.12699999809E+01 0.  1.
       -4    1    3    3    0  502 -0.42954531656E+03  0.14438473209E+04 -0.13787096547E+03  0.15126844618E+04  0.12699999809E+01 0. -1.
</event>
<event>
 5   0  0.7084130E-08  0.3302293E+04  0.7818609E-02  0.8162312E-01
        2   -1    0    0  501    0  0.00000000000E+00  0.00000000000E+00  0.16516275772E+04  0.16516275772E+04  0.25500000920E-02 0.  1.
       -2   -1    0    0    0  501  0.00000000000E+00  0.00000000000E+00 -0.16506656448E+04  0.16506656448E+04  0.25500000920E-02 0. -1.
    10030    2    1    2    0    0  0.00000000000E+00  0.00000000000E+00  0.96193247134E+00  0.33022932220E+04  0.33022930819E+04 0.  0.
        3    1    3    3  502    0  0.53874849074E+03  0.42894727187E+02 -0.15597097920E+04  0.16506921395E+04  0.10100000352E+00 0. -1.
       -3    1    3    3    0  502 -0.53874849074E+03 -0.42894727187E+02  0.15606717245E+04  0.16516010825E+04  0.10100000352E+00 0.  1.
</event>
<event>
 5   0  0.2279938E-08  0.3299910E+04  0.7818609E-02  0.8162918E-01
       -1   -1    0    0    0  501  0.00000000000E+00  0.00000000000E+00  0.17920593659E+04  0.17920593659E+04  0.50400001928E-02 0. -1.
        1   -1    0    0  501    0  0.00000000000E+00  0.00000000000E+00 -0.15191188360E+04  0.15191188360E+04  0.50400001928E-02 0.  1.
    10030    2    1    2    0    0  0.00000000000E+00  0.00000000000E+00  0.27294052991E+03  0.33111782019E+04  0.32999097793E+04 0.  0.
        3    1    3    3  502    0 -0.83560105595E+03 -0.24840380787E+03 -0.12691765012E+04  0.15397215910E+04  0.10100000352E+00 0.  1.
       -3    1    3    3    0  502  0.83560105595E+03  0.24840380787E+03  0.15421170311E+04  0.17714566109E+04  0.10100000352E+00 0. -1.
</event>
<event>
 5   0  0.6603516E-08  0.3299465E+04  0.7818609E-02  0.8163032E-01
        2   -1    0    0  501    0  0.00000000000E+00  0.00000000000E+00  0.24818622422E+04  0.24818622422E+04  0.25500000920E-02 0.  1.
       -2   -1    0    0    0  501  0.00000000000E+00  0.00000000000E+00 -0.10966025955E+04  0.10966025955E+04  0.25500000920E-02 0. -1.
    10030    2    1    2    0    0  0.00000000000E+00  0.00000000000E+00  0.13852596467E+04  0.35784648376E+04  0.32994645483E+04 0.  0.
        1    1    3    3  502    0  0.12899006362E+04  0.32934672192E+03  0.17493399414E+04  0.21982955091E+04  0.50400001928E-02 0. -1.
       -1    1    3    3    0  502 -0.12899006362E+04 -0.32934672192E+03 -0.36408029469E+03  0.13801693286E+04  0.50400001928E-02 0.  1.
</event>
<event>
 5   0  0.2309822E-08  0.3302177E+04  0.7818609E-02  0.8162342E-01
       -1   -1    0    0    0  501  0.00000000000E+00  0.00000000000E+00  0.12086343995E+04  0.12086343995E+04  0.50400001928E-02 0.  1.
        1   -1    0    0  501    0  0.00000000000E+00  0.00000000000E+00 -0.22555153799E+04  0.22555153799E+04  0.50400001928E-02 0. -1.
    10030    2    1    2    0    0  0.00000000000E+00  0.00000000000E+00 -0.10468809804E+04  0.34641497794E+04  0.33021771465E+04 0.  0.
        4    1    3    3  502    0  0.54439739488E+03  0.10000155038E+04 -0.17777871795E+04  0.21111438606E+04  0.12699999809E+01 0. -1.
       -4    1    3    3    0  502 -0.54439739488E+03 -0.10000155038E+04  0.73090619911E+03  0.13530059188E+04  0.12699999809E+01 0.  1.
</event>
<event>
 5   0  0.7084130E-08  0.3304375E+04  0.7818609E-02  0.8161783E-01
       -2   -1    0    0    0  501  0.00000000000E+00  0.00000000000E+00  0.16293931767E+04  0.16293931767E+04  0.25500000920E-02 0.  1.
        2   -1    0    0  501    0  0.00000000000E+00  0.00000000000E+00 -0.16753007180E+04  0.16753007180E+04  0.25500000920E-02 0. -1.
    10030    2    1    2    0    0  0.00000000000E+00  0.00000000000E+00 -0.45907541315E+02  0.33046938948E+04  0.33043750144E+04 0.  0.
        3    1    3    3  502    0  0.10772703725E+04 -0.34252897800E+03 -0.12280123697E+04  0.16690871597E+04  0.10100000352E+00 0. -1.
       -3    1    3    3    0  502 -0.10772703725E+04  0.34252897800E+03  0.11821048284E+04  0.16356067351E+04  0.10100000352E+00 0.  1.
</event>
<event>
 5   0  0.2309822E-08  0.3300468E+04  0.7818609E-02  0.8162776E-01
        1   -1    0    0  501    0  0.00000000000E+00  0.00000000000E+00  0.12522594169E+04  0.12522594169E+04  0.50400001928E-02 0. -1.
       -1   -1    0    0    0  501  0.00000000000E+00  0.00000000000E+00 -0.21746865377E+04  0.21746865377E+04  0.50400001928E-02 0.  1.
    10030    2    1    2    0    0  0.00000000000E+00  0.00000000000E+00 -0.92242712079E+03  0.34269459547E+04  0.33004676613E+04 0.  0.
        4    1    3    3  502    0 -0.19201779308E+03  0.15058381791E+04  0.21077419441E+03  0.15325948024E+04  0.12699999809E+01 0. -1.
       -4    1    3    3    0  502  0.19201779308E+03 -0.15058381791E+04 -0.11332013152E+04  0.18943511523E+04  0.12699999809E+01 0.  1.
</event>
<event>
 5   0  0.2200750E-08  0.3299191E+04  0.7818609E-02  0.8163101E-01
       -3   -1    0    0    0  501  0.00000000000E+00  0.00000000000E+00  0.16542351120E+04  0.16542351151E+04  0.10100000352E+00 0. -1.
        3   -1    0    0  501    0  0.00000000000E+00  0.00000000000E+00 -0.16449689694E+04  0.16449689725E+04  0.10100000352E+00 0.  1.
    10030    2    1    2    0    0  0.00000000000E+00  0.00000000000E+00  0.92661426253E+01  0.32992040875E+04  0.32991910751E+04 0.  0.
        4    1    3    3  502    0 -0.18143000833E+03 -0.11395761684E+04 -0.11741901108E+04  0.16462912017E+04  0.12699999809E+01 0.  1.
       -4    1    3    3    0  502  0.18143000833E+03  0.11395761684E+04  0.11834562534E+04  0.16529128859E+04  0.12699999809E+01 0. -1.
</event>
<event>
 5   0  0.2309822E-08  0.3301384E+04  0.7818609E-02  0.8162543E-01
        1   -1    0    0  501    0  0.00000000000E+00  0.00000000000E+00  0.27405640592E+04  0.27405640592E+04  0.50400001928E-02 0.  1.
       -1   -1    0    0    0  501  0.00000000000E+00  0.00000000000E+00 -0.99424207283E+03  0.99424207284E+03  0.50400001928E-02 0. -1.
    10030    2    1    2    0    0  0.00000000000E+00  0.00000000000E+00  0.17463219863E+04  0.37348061320E+04  0.33013840073E+04 0.  0.
        4    1    3    3  502    0 -0.13349778196E+04 -0.17620578148E+03  0.19532675649E+04  0.23724396829E+04  0.12699999809E+01 0.  1.
       -4    1    3    3    0  502  0.13349778196E+04  0.17620578148E+03 -0.20694557852E+03  0.13623664491E+04  0.12699999809E+01 0. -1.
</event>
<event>
 5   0  0.2383270E-08  0.3299615E+04  0.7818609E-02  0.8162993E-01
        1   -1    0    0  501    0  0.00000000000E+00  0.00000000000E+00  0.17020948769E+04  0.17020948769E+04  0.50400001928E-02 0.  1.
       -1   -1    0    0    0  501  0.00000000000E+00  0.00000000000E+00 -0.15991267693E+04  0.15991267693E+04  0.50400001928E-02 0. -1.
    10030    2    1    2    0    0  0.00000000000E+00  0.00000000000E+00  0.10296810765E+03  0.33012216462E+04  0.32996154209E+04 0.  0.
        5    1    3    3  502    0 -0.19765633304E+03  0.12647225244E+04 -0.98981666874E+03  0.16181317059E+04  0.46999998093E+01 0. -1.
       -5    1    3    3    0  502  0.19765633304E+03 -0.12647225244E+04  0.10927847764E+04  0.16830899403E+04  0.46999998093E+01 0.  1.
</event>
<event>
 5   0  0.6765252E-08  0.3300505E+04  0.7818609E-02  0.8162767E-01
       -2   -1    0    0    0  501  0.00000000000E+00  0.00000000000E+00  0.21583759876E+04  0.21583759876E+04  0.25500000920E-02 0.  1.
        2   -1    0    0  501    0  0.00000000000E+00  0.00000000000E+00 -0.12617509157E+04  0.12617509157E+04  0.25500000920E-02 0. -1.
    10030    2    1    2    0    0  0.00000000000E+00  0.00000000000E+00  0.89662507196E+03  0.34201269033E+04  0.33005047364E+04 0.  0.
        2    1    3    3  502    0  0.42386191311E+03  0.14162628732E+04  0.12082920870E+04  0.19093007136E+04  0.25500000920E-02 0. -1.
       -2    1    3    3    0  502 -0.42386191311E+03 -0.14162628732E+04 -0.31166701507E+03  0.15108261897E+04  0.25500000920E-02 0.  1.
</event>
<event>
 5   0  0.6706080E-08  0.3312172E+04  0.7818609E-02  0.8159805E-01
        2   -1    0    0  501    0  0.00000000000E+00  0.00000000000E+00  0.11543513858E+04  0.11543513858E+04  0.25500000920E-02 0. -1.
       -2   -1    0    0    0  501  0.00000000000E+00  0.00000000000E+00 -0.23758976657E+04  0.23758976657E+04  0.25500000920E-02 0.  1.
    10030    2    1    2    0    0  0.00000000000E+00  0.00000000000E+00 -0.12215462800E+04  0.35302490515E+04  0.33121719538E+04 0.  0.
        4    1    3    3  502    0  0.17343073482E+03  0.24504558798E+03 -0.23466529069E+04  0.23657783155E+04  0.12699999809E+01 0.  1.
       -4    1    3    3    0  502 -0.17343073482E+03 -0.24504558798E+03  0.11251066269E+04  0.11644707359E+04  0.12699999809E+01 0. -1.
</event>
<event>
 5   0  0.6821287E-08  0.3300323E+04  0.7818609E-02  0.8162813E-01
        2   -1    0    0  501    0  0.00000000000E+00  0.00000000000E+00  0.18132775535E+04  0.18132775535E+04  0.25500000920E-02 0.  1.
       -2   -1    0    0    0  501  0.00000000000E+00  0.00000000000E+00 -0.15017185610E+04  0.15017185610E+04  0.25500000920E-02 0. -1.
    10030    2    1    2    0    0  0.00000000000E+00  0.00000000000E+00  0.31155899249E+03  0.33149961145E+04  0.33003227468E+04 0.  0.
        5    1    3    3  502    0  0.36389175493E+03  0.18985439990E+02 -0.14607960734E+04  0.15055646497E+04  0.46999998093E+01 0. -1.
       -5    1    3    3    0  502 -0.36389175493E+03 -0.18985439990E+02  0.17723550659E+04  0.18094314648E+04  0.46999998093E+01 0.  1.
</event>
<event>
 5   0  0.6821287E-08  0.3291978E+04  0.7818609E-02  0.8164939E-01
        2   -1    0    0  501    0  0.00000000000E+00  0.00000000000E+00  0.15296619104E+04  0.15296619104E+04  0.25500000920E-02 0.  1.
       -2   -1    0    0    0  501  0.00000000000E+00  0.00000000000E+00 -0.17711628791E+04  0.17711628791E+04  0.25500000920E-02 0. -1.
    10030    2    1    2    0    0  0.00000000000E+00  0.00000000000E+00 -0.24150096873E+03  0.33008247895E+04  0.32919783677E+04 0.  0.
        5    1    3    3  502    0 -0.11631683545E+04  0.10221011501E+04  0.43896722413E+03  0.16094613060E+04  0.46999998093E+01 0.  1.
       -5    1    3    3    0  502  0.11631683545E+04 -0.10221011501E+04 -0.68046819287E+03  0.16913634835E+04  0.46999998093E+01 0. -1.
</event>
<event>
 5   0  0.2309822E-08  0.3296996E+04  0.7818609E-02  0.8163660E-01
       -1   -1    0    0    0  501  0.00000000000E+00  0.00000000000E+00  0.11188684620E+04  0.11188684620E+04  0.50400001928E-02 0. -1.
        1   -1    0    0  501    0  0.00000000000E+00  0.00000000000E+00 -0.24288336316E+04  0.24288336316E+04  0.50400001928E-02 0.  1.
    10030    2    1    2    0    0  0.00000000000E+00  0.00000000000E+00 -0.13099651697E+04  0.35477020936E+04  0.32969958143E+04 0.  0.
        4    1    3    3  502    0  0.12962695497E+04  0.16649072539E+03 -0.17361277850E+04  0.21730566504E+04  0.12699999809E+01 0.  1.
       -4    1    3    3    0  502 -0.12962695497E+04 -0.16649072539E+03  0.42616261532E+03  0.13746454433E+04  0.12699999809E+01 0. -1.
</event>
<event>
 5   0  0.2244093E-08  0.3298236E+04  0.7818609E-02  0.8163344E-01
       -1   -1    0    0    0  501  0.00000000000E+00  0.00000000000E+00  0.19622436982E+04  0.19622436982E+04  0.50400001928E-02 0. -1.
        1   -1    0    0  501    0  0.00000000000E+00  0.00000000000E+00 -0.13859591538E+04  0.13859591538E+04  0.50400001928E-02 0.  1.
    10030    2    1    2    0    0  0.00000000000E+00  0.00000000000E+00  0.57628454446E+03  0.33482028520E+04  0.32982356589E+04 0.  0.
        1    1    3    3  502    0 -0.60463981230E+03  0.13751044007E+04 -0.40267301036E+03  0.15551999771E+04  0.50400001928E-02 0.  1.
       -1    1    3    3    0  502  0.60463981230E+03 -0.13751044007E+04  0.97895755482E+03  0.17930028749E+04  0.50400001928E-02 0. -1.
</event>
<event>
 5   0  0.7084130E-08  0.3299734E+04  0.7818609E-02  0.8162963E-01
       -2   -1    0    0    0  501  0.00000000000E+00  0.00000000000E+00  0.14793563232E+04  0.14793563232E+04  0.25500000920E-02 0.  1.
        2   -1    0    0  501    0  0.00000000000E+00  0.00000000000E+00 -0.18400304195E+04  0.18400304195E+04  0.25500000920E-02 0. -1.
    10030    2    1    2    0    0  0.00000000000E+00  0.00000000000E+00 -0.36067409630E+03  0.33193867427E+04  0.32997337080E+04 0.  0.
        3    1    3    3  502    0  0.68757127183E+03 -0.13742320538E+04 -0.78457471285E+03  0.17253479306E+04  0.10100000352E+00 0.  1.
       -3    1    3    3    0  502 -0.68757127183E+03  0.13742320538E+04  0.42390061654E+03  0.15940388121E+04  0.10100000352E+00 0. -1.
</event>
<event>
 5   0  0.6603516E-08  0.3299456E+04  0.7818609E-02  0.8163034E-01
       -2   -1    0    0    0  501  0.00000000000E+00  0.00000000000E+00  0.11872137352E+04  0.11872137352E+04  0.25500000920E-02 0. -1.
        2   -1    0    0  501    0  0.00000000000E+00  0.00000000000E+00 -0.22924287622E+04  0.22924287622E+04  0.25500000920E-02 0.  1.
    10030    2    1    2    0    0  0.00000000000E+00  0.00000000000E+00 -0.11052150270E+04  0.34796424974E+04  0.32994562664E+04 0.  0.
        1    1    3    3  502    0  0.46333114569E+03  0.12775175956E+04  0.43382071194E+03  0.14265088040E+04  0.50400001928E-02 0. -1.
       -1    1    3    3    0  502 -0.46333114569E+03 -0.12775175956E+04 -0.15390357389E+04  0.20531336935E+04  0.50400001928E-02 0.  1.
</event>
<event>
 5   0  0.6821287E-08  0.3302571E+04  0.7818609E-02  0.8162242E-01
       -2   -1    0    0    0  501  0.00000000000E+00  0.00000000000E+00  0.15733312374E+04  0.15733312374E+04  0.25500000920E-02 0.  1.
        2   -1    0    0  501    0  0.00000000000E+00  0.00000000000E+00 -0.17331021727E+04  0.17331021727E+04  0.25500000920E-02 0. -1.
    10030    2    1    2    0    0  0.00000000000E+00  0.00000000000E+00 -0.15977093533E+03  0.33064334101E+04  0.33025709899E+04 0.  0.
        5    1    3    3  502    0 -0.48527579791E+03  0.13125828188E+04  0.79769854729E+03  0.16108107644E+04  0.46999998093E+01 0.  1.
       -5    1    3    3    0  502  0.48527579791E+03 -0.13125828188E+04 -0.95746948262E+03  0.16956226457E+04  0.46999998093E+01 0. -1.
</event>
<event>
 5   0  0.2279938E-08  0.3299759E+04  0.7818609E-02  0.8162957E-01
       -1   -1    0    0    0  501  0.00000000000E+00  0.00000000000E+00  0.17476917429E+04  0.17476917429E+04  0.50400001928E-02 0. -1.
        1   -1    0    0  501    0  0.00000000000E+00  0.00000000000E+00 -0.15575413839E+04  0.15575413839E+04  0.50400001928E-02 0.  1.
    10030    2    1    2    0    0  0.00000000000E+00  0.00000000000E+00  0.19015035901E+03  0.33052331268E+04  0.32997589099E+04 0.  0.
        3    1    3    3  502    0  0.33070123792E+03 -0.14677900179E+04  0.77320005158E+03  0.16916291483E+04  0.10100000352E+00 0. -1.
       -3    1    3    3    0  502 -0.33070123792E+03  0.14677900179E+04 -0.58304969257E+03  0.16136039785E+04  0.10100000352E+00 0.  1.
</event>
<event>
 5   0  0.6765252E-08  0.3299803E+04  0.7818609E-02  0.8162946E-01
        2   -1    0    0  501    0  0.00000000000E+00  0.00000000000E+00  0.11088474381E+04  0.11088474382E+04  0.25500000920E-02 0. -1.
       -2   -1    0    0    0  501  0.00000000000E+00  0.00000000000E+00 -0.24549584064E+04  0.24549584064E+04  0.25500000920E-02 0.  1.
    10030    2    1    2    0    0  0.00000000000E+00  0.00000000000E+00 -0.13461109683E+04  0.35638058446E+04  0.32998026242E+04 0.  0.
        2    1    3    3  502    0 -0.12875093948E+04 -0.10315405722E+04 -0.65097614135E+03  0.17735631735E+04  0.25500000920E-02 0. -1.
       -2    1    3    3    0  502  0.12875093948E+04  0.10315405722E+04 -0.69513482691E+03  0.17902426711E+04  0.25500000920E-02 0.  1.
</event>
<event>
 5   0  0.2244093E-08  0.3299705E+04  0.7818609E-02  0.8162971E-01
       -1   -1    0    0    0  501  0.00000000000E+00  0.00000000000E+00  0.13618199210E+04  0.13618199210E+04  0.50400001928E-02 0. -1.
        1   -1    0    0  501    0  0.00000000000E+00  0.00000000000E+00 -0.19988051605E+04  0.19988051605E+04  0.50400001928E-02 0.  1.
    10030    2    1    2    0    0  0.00000000000E+00  0.00000000000E+00 -0.63698523948E+03  0.33606250815E+04  0.32997046448E+04 0.  0.
        1    1    3    3  502    0  0.69852417725E+02 -0.20748718137E+03 -0.19839456484E+04  0.19959886339E+04  0.50400001928E-02 0.  1.
       -1    1    3    3    0  502 -0.69852417725E+02  0.20748718137E+03  0.13469604090E+04  0.13646364476E+04  0.50400001928E-02 0. -1.
</event>
<event>
 5   0  0.7084130E-08  0.3299734E+04  0.7818609E-02  0.8162963E-01
        2   -1    0    0  501    0  0.00000000000E+00  0.00000000000E+00  0.12029680986E+04  0.12029680986E+04  0.25500000920E-02 0. -1.
       -2   -1    0    0    0  501  0.00000000000E+00  0.00000000000E+00 -0.22627871439E+04  0.22627871439E+04  0.25500000920E-02 0.  1.
    10030    2    1    2    0    0  0.00000000000E+00  0.00000000000E+00 -0.10598190453E+04  0.34657552426E+04  0.32997337760E+04 0.  0.
        3    1    3    3  502    0 -0.94559259153E+03  0.84456396088E+03 -0.16387875719E+04  0.20719696787E+04  0.10100000352E+00 0.  1.
       -3    1    3    3    0  502  0.94559259153E+03 -0.84456396088E+03  0.57896852659E+03  0.13937855639E+04  0.10100000352E+00 0. -1.
</event>
<event>
 5   0  0.6765252E-08  0.3295658E+04  0.7818609E-02  0.8164001E-01
        2   -1    0    0  501    0  0.00000000000E+00  0.00000000000E+00  0.25850975732E+04  0.25850975732E+04  0.25500000920E-02 0.  1.
       -2   -1    0    0    0  501  0.00000000000E+00  0.00000000000E+00 -0.10503824738E+04  0.10503824738E+04  0.25500000920E-02 0. -1.
    10030    2    1    2    0    0  0.00000000000E+00  0.00000000000E+00  0.15347150994E+04  0.36354800470E+04  0.32956584677E+04 0.  0.
        2    1    3    3  502    0 -0.11088137671E+04  0.35858131720E+03  0.20525149327E+04  0.23602682220E+04  0.25500000920E-02 0.  1.
       -2    1    3    3    0  502  0.11088137671E+04 -0.35858131720E+03 -0.51779983325E+03  0.12752118249E+04  0.25500000920E-02 0. -1.
</event>
<event>
 5   0  0.2244093E-08  0.3301418E+04  0.7818609E-02  0.8162535E-01
        1   -1    0    0  501    0  0.00000000000E+00  0.00000000000E+00  0.16546750500E+04  0.16546750500E+04  0.50400001928E-02 0. -1.
       -1   -1    0    0    0  501  0.00000000000E+00  0.00000000000E+00 -0.16467521776E+04  0.16467521776E+04  0.50400001928E-02 0.  1.
    10030    2    1    2    0    0  0.00000000000E+00  0.00000000000E+00  0.79228723779E+01  0.33014272276E+04  0.33014177208E+04 0.  0.
        1    1    3    3  502    0 -0.65760117919E+03 -0.93675291769E+03  0.11934581999E+04  0.16535682068E+04  0.50400001928E-02 0. -1.
       -1    1    3    3    0  502  0.65760117919E+03  0.93675291769E+03 -0.11855353275E+04  0.16478590208E+04  0.50400001928E-02 0.  1.
</event>
<event>
 5   0  0.6821287E-08  0.3299888E+04  0.7818609E-02  0.8162924E-01
        2   -1    0    0  501    0  0.00000000000E+00  0.00000000000E+00  0.29841063877E+04  0.29841063877E+04  0.25500000920E-02 0.  1.
       -2   -1    0    0    0  501  0.00000000000E+00  0.00000000000E+00 -0.91227161671E+03  0.91227161672E+03  0.25500000920E-02 0. -1.
    10030    2    1    2    0    0  0.00000000000E+00  0.00000000000E+00  0.20718347710E+04  0.38963780044E+04  0.32998882155E+04 0.  0.
        5    1    3    3  502    0  0.87578724371E+03 -0.42236920620E+03  0.26098736746E+04  0.27851143118E+04  0.46999998093E+01 0.  1.
       -5    1    3    3    0  502 -0.87578724371E+03  0.42236920620E+03 -0.53803890364E+03  0.11112636926E+04  0.46999998093E+01 0. -1.
</event>
<event>
 5   0  0.6765252E-08  0.3303356E+04  0.7818609E-02  0.8162042E-01
        2   -1    0    0  501    0  0.00000000000E+00  0.00000000000E+00  0.12003001879E+04  0.12003001879E+04  0.25500000920E-02 0.  1.
       -2   -1    0    0    0  501  0.00000000000E+00  0.00000000000E+00 -0.22727988984E+04  0.22727988984E+04  0.25500000920E-02 0. -1.
    10030    2    1    2    0    0  0.00000000000E+00  0.00000000000E+00 -0.10724987105E+04  0.34730990863E+04  0.33033564414E+04 0.  0.
        2    1    3    3  502    0 -0.12485813657E+04  0.84098750763E+03 -0.12507468404E+04  0.19571875418E+04  0.25500000920E-02 0. -1.
       -2    1    3    3    0  502  0.12485813657E+04 -0.84098750763E+03  0.17824812991E+03  0.15159115445E+04  0.25500000920E-02 0.  1.
</event>
<event>
 5   0  0.6821287E-08  0.3298917E+04  0.7818609E-02  0.8163171E-01
        2   -1    0    0  501    0  0.00000000000E+00  0.00000000000E+00  0.18162535644E+04  0.18162535644E+04  0.25500000920E-02 0.  1.
       -2   -1    0    0    0  501  0.00000000000E+00  0.00000000000E+00 -0.14979808886E+04  0.14979808886E+04  0.25500000920E-02 0. -1.
    10030    2    1    2    0    0  0.00000000000E+00  0.00000000000E+00  0.31827267578E+03  0.33142344530E+04  0.32989168698E+04 0.  0.
        5    1    3    3  502    0  0.39957431027E+03  0.11755864991E+04  0.12500085451E+04  0.17618759034E+04  0.46999998093E+01 0.  1.
       -5    1    3    3    0  502 -0.39957431027E+03 -0.11755864991E+04 -0.93173586933E+03  0.15523585496E+04  0.46999998093E+01 0. -1.
</event>
<event>
 5   0  0.2244093E-08  0.3302463E+04  0.7818609E-02  0.8162269E-01
       -1   -1    0    0    0  501  0.00000000000E+00  0.00000000000E+00  0.15419190898E+04  0.15419190898E+04  0.50400001928E-02 0.  1.
        1   -1    0    0  501    0  0.00000000000E+00  0.00000000000E+00 -0.17682936882E+04  0.17682936882E+04  0.50400001928E-02 0. -1.
    10030    2    1    2    0    0  0.00000000000E+00  0.00000000000E+00 -0.22637459843E+03  0.33102127781E+04  0.33024631985E+04 0.  0.
        1    1    3    3  502    0  0.70161178600E+03 -0.53836970760E+03 -0.15109001618E+04  0.17506913889E+04  0.50400001928E-02 0. -1.
       -1    1    3    3    0  502 -0.70161178600E+03  0.53836970760E+03  0.12845255633E+04  0.15595213892E+04  0.50400001928E-02 0.  1.
</event>
<event>
 5   0  0.6706080E-08  0.3299901E+04  0.7818609E-02  0.8162921E-01
        2   -1    0    0  501    0  0.00000000000E+00  0.00000000000E+00  0.14005985131E+04  0.14005985131E+04  0.25500000920E-02 0.  1.
       -2   -1    0    0    0  501  0.00000000000E+00  0.00000000000E+00 -0.19436947960E+04  0.19436947960E+04  0.25500000920E-02 0. -1.
    10030    2    1    2    0    0  0.00000000000E+00  0.00000000000E+00 -0.54309628293E+03  0.33442933091E+04  0.32999006295E+04 0.  0.
        4    1    3    3  502    0 -0.46662628601E+03  0.46568690164E+03 -0.18044201227E+04  0.19210772950E+04  0.12699999809E+01 0. -1.
       -4    1    3    3    0  502  0.46662628601E+03 -0.46568690164E+03  0.12613238398E+04  0.14232160141E+04  0.12699999809E+01 0.  1.
</event>
<event>
 5   0  0.7084130E-08  0.3299149E+04  0.7818609E-02  0.8163112E-01
       -2   -1    0    0    0  501  0.00000000000E+00  0.00000000000E+00  0.14367358157E+04  0.14367358157E+04  0.25500000920E-02 0. -1.
        2   -1    0    0  501    0  0.00000000000E+00  0.00000000000E+00 -0.18939427485E+04  0.18939427485E+04  0.25500000920E-02 0.  1.
    10030    2    1    2    0    0  0.00000000000E+00  0.00000000000E+00 -0.45720693276E+03  0.33306785642E+04  0.32991486051E+04 0.  0.
        3    1    3    3  502    0 -0.15207417286E+03 -0.31999242023E+03  0.13978720252E+04  0.14420707029E+04  0.10100000352E+00 0. -1.
       -3    1    3    3    0  502  0.15207417286E+03  0.31999242023E+03 -0.18550789580E+04  0.18886078613E+04  0.10100000352E+00 0.  1.
</event>
<event>
 5   0  0.6821287E-08  0.3297952E+04  0.7818609E-02  0.8163417E-01
        2   -1    0    0  501    0  0.00000000000E+00  0.00000000000E+00  0.22113364068E+04  0.22113364068E+04  0.25500000920E-02 0. -1.
       -2   -1    0    0    0  501  0.00000000000E+00  0.00000000000E+00 -0.12296280872E+04  0.12296280872E+04  0.25500000920E-02 0.  1.
    10030    2    1    2    0    0  0.00000000000E+00  0.00000000000E+00  0.98170831969E+03  0.34409644940E+04  0.32979517013E+04 0.  0.
        5    1    3    3  502    0  0.10635368734E+04  0.91904229838E+03  0.13904191107E+04  0.19771284280E+04  0.46999998093E+01 0. -1.
       -5    1    3    3    0  502 -0.10635368734E+04 -0.91904229838E+03 -0.40871079105E+03  0.14638360660E+04  0.46999998093E+01 0.  1.
</event>
<event>
 5   0  0.7084130E-08  0.3299867E+04  0.7818609E-02  0.8162929E-01
        2   -1    0    0  501    0  0.00000000000E+00  0.00000000000E+00  0.16445062635E+04  0.16445062635E+04  0.25500000920E-02 0.  1.
       -2   -1    0    0    0  501  0.00000000000E+00  0.00000000000E+00 -0.16553785504E+04  0.16553785504E+04  0.25500000920E-02 0. -1.
    10030    2    1    2    0    0  0.00000000000E+00  0.00000000000E+00 -0.10872286923E+02  0.32998848138E+04  0.32998669031E+04 0.  0.
        3    1    3    3  502    0  0.24464712128E+03  0.42643847451E+03 -0.15804298976E+04  0.16551316135E+04  0.10100000352E+00 0. -1.
       -3    1    3    3    0  502 -0.24464712128E+03 -0.42643847451E+03  0.15695576107E+04  0.16447532003E+04  0.10100000352E+00 0.  1.
</event>
<event>
 5   0  0.2279938E-08  0.3289363E+04  0.7818609E-02  0.8165607E-01
       -1   -1    0    0    0  501  0.00000000000E+00  0.00000000000E+00  0.20837036369E+04  0.20837036369E+04  0.50400001928E-02 0.  1.
        1   -1    0    0  501    0  0.00000000000E+00  0.00000000000E+00 -0.12981585438E+04  0.12981585438E+04  0.50400001928E-02 0. -1.
    10030    2    1    2    0    0  0.00000000000E+00  0.00000000000E+00  0.78554509314E+03  0.33818621807E+04  0.32893632691E+04 0.  0.
        3    1    3    3  502    0 -0.14285908266E+04 -0.71757399606E+03 -0.43449181737E+01  0.15986879240E+04  0.10100000352E+00 0. -1.
       -3    1    3    3    0  502  0.14285908266E+04  0.71757399606E+03  0.78989001132E+03  0.17831742567E+04  0.10100000352E+00 0.  1.
</event>
<event>
 5   0  0.2279938E-08  0.3301036E+04  0.7818609E-02  0.8162632E-01
        1   -1    0    0  501    0  0.00000000000E+00  0.00000000000E+00  0.13315631249E+04  0.13315631249E+04  0.50400001928E-02 0. -1.
       -1   -1    0    0    0  501  0.00000000000E+00  0.00000000000E+00 -0.20458734449E+04  0.20458734449E+04  0.50400001928E-02 0.  1.
    10030    2    1    2    0    0  0.00000000000E+00  0.00000000000E+00 -0.71431031996E+03  0.33774365699E+04  0.33010359814E+04 0.  0.
        3    1    3    3  502    0 -0.34036414762E+03 -0.65126518650E+03  0.11549593776E+04  0.13689139017E+04  0.10100000352E+00 0. -1.
       -3    1    3    3    0  502  0.34036414762E+03  0.65126518650E+03 -0.18692696976E+04  0.20085226682E+04  0.10100000352E+00 0.  1.
</event>
<event>
 5   0  0.6706080E-08  0.3299732E+04  0.7818609E-02  0.8162963E-01
       -2   -1    0    0    0  501  0.00000000000E+00  0.00000000000E+00  0.12831380946E+04  0.12831380946E+04  0.25500000920E-02 0. -1.
        2   -1    0    0  501    0  0.00000000000E+00  0.00000000000E+00 -0.21214072794E+04  0.21214072794E+04  0.25500000920E-02 0.  1.
    10030    2    1    2    0    0  0.00000000000E+00  0.00000000000E+00 -0.83826918486E+03  0.34045453740E+04  0.32997324100E+04 0.  0.
        4    1    3    3  502    0 -0.10464221186E+04 -0.11627037829E+04  0.12210168655E+03  0.15690091688E+04  0.12699999809E+01 0. -1.
       -4    1    3    3    0  502  0.10464221186E+04  0.11627037829E+04 -0.96037087141E+03  0.18355362052E+04  0.12699999809E+01 0.  1.
</event>
<event>
 5   0  0.2383270E-08  0.3300131E+04  0.7818609E-02  0.8162862E-01
        1   -1    0    0  501    0  0.00000000000E+00  0.00000000000E+00  0.13117819212E+04  0.13117819212E+04  0.50400001928E-02 0.  1.
       -1   -1    0    0    0  501  0.00000000000E+00  0.00000000000E+00 -0.20755858785E+04  0.20755858785E+04  0.50400001928E-02 0. -1.
    10030    2    1    2    0    0  0.00000000000E+00  0.00000000000E+00 -0.76380395730E+03  0.33873677997E+04  0.33001309255E+04 0.  0.
        5    1    3    3  502    0 -0.84892213485E+03 -0.13405190205E+04 -0.84667833562E+03  0.17984844535E+04  0.46999998093E+01 0. -1.
       -5    1    3    3    0  502  0.84892213485E+03  0.13405190205E+04  0.82874378315E+02  0.15888833462E+04  0.46999998093E+01 0.  1.
</event>
<event>
 5   0  0.2279938E-08  0.3300389E+04  0.7818609E-02  0.8162797E-01
        1   -1    0    0  501    0  0.00000000000E+00  0.00000000000E+00  0.21218141496E+04  0.21218141496E+04  0.50400001928E-02 0. -1.
       -1   -1    0    0    0  501  0.00000000000E+00  0.00000000000E+00 -0.12834023433E+04  0.12834023433E+04  0.50400001928E-02 0.  1.
    10030    2    1    2    0    0  0.00000000000E+00  0.00000000000E+00  0.83841180629E+03  0.34052164930E+04  0.33003886145E+04 0.  0.
        3    1    3    3  502    0 -0.93185235999E+03  0.13566571697E+04  0.29593839748E+03  0.16722580669E+04  0.10100000352E+00 0. -1.
       -3    1    3    3    0  502  0.93185235999E+03 -0.13566571697E+04  0.54247340881E+03  0.17329584261E+04  0.10100000352E+00 0.  1.
</event>
<event>
 5   0  0.2200750E-08  0.3297767E+04  0.7818609E-02  0.8163464E-01
       -3   -1    0    0    0  501  0.00000000000E+00  0.00000000000E+00  0.10935118276E+04  0.10935118323E+04  0.10100000352E+00 0. -1.
        3   -1    0    0  501    0  0.00000000000E+00  0.00000000000E+00 -0.24863162066E+04  0.24863162087E+04  0.10100000352E+00 0.  1.
    10030    2    1    2    0    0  0.00000000000E+00  0.00000000000E+00 -0.13928043790E+04  0.35798280409E+04  0.32977666328E+04 0.  0.
        3    1    3    3  502    0 -0.66971514165E+03 -0.15065142162E+04 -0.72538253934E+03  0.18011894107E+04  0.10100000352E+00 0. -1.
       -3    1    3    3    0  502  0.66971514165E+03  0.15065142162E+04 -0.66742183969E+03  0.17786386302E+04  0.10100000352E+00 0.  1.
</event>
<event>
 5   0  0.2279938E-08  0.3299260E+04  0.7818609E-02  0.8163084E-01
       -1   -1    0    0    0  501  0.00000000000E+00  0.00000000000E+00  0.14604650350E+04  0.14604650350E+04  0.50400001928E-02 0.  1.
        1   -1    0    0  501    0  0.00000000000E+00  0.00000000000E+00 -0.18632960428E+04  0.18632960428E+04  0.50400001928E-02 0. -1.
    10030    2    1    2    0    0  0.00000000000E+00  0.00000000000E+00 -0.40283100779E+03  0.33237610778E+04  0.32992597475E+04 0.  0.
        3    1    3    3  502    0 -0.77127608514E+03 -0.11480495825E+04  0.70436891976E+03  0.15521018744E+04  0.10100000352E+00 0.  1.
       -3    1    3    3    0  502  0.77127608514E+03  0.11480495825E+04 -0.11071999275E+04  0.17716592034E+04  0.10100000352E+00 0. -1.
</event>
<event>
 5   0  0.6603516E-08  0.3298844E+04  0.7818609E-02  0.8163190E-01
        2   -1    0    0  501    0  0.00000000000E+00  0.00000000000E+00  0.15450108995E+04  0.15450108995E+04  0.25500000920E-02 0.  1.
       -2   -1    0    0    0  501  0.00000000000E+00  0.00000000000E+00 -0.17608886646E+04  0.17608886646E+04  0.25500000920E-02 0. -1.
    10030    2    1    2    0    0  0.00000000000E+00  0.00000000000E+00 -0.21587776509E+03  0.33058995640E+04  0.32988435425E+04 0.  0.
        1    1    3    3  502    0  0.67861569180E+03  0.13856664364E+04  0.47640475675E+03  0.16147916963E+04  0.50400001928E-02 0.  1.
       -1    1    3    3    0  502 -0.67861569180E+03 -0.13856664364E+04 -0.69228252184E+03  0.16911078677E+04  0.50400001928E-02 0. -1.
</event>
<event>
 5   0  0.2291682E-08  0.3298156E+04  0.7818609E-02  0.8163365E-01
        1   -1    0    0  501    0  0.00000000000E+00  0.00000000000E+00  0.15115179215E+04  0.15115179215E+04  0.50400001928E-02 0.  1.
       -1   -1    0    0    0  501  0.00000000000E+00  0.00000000000E+00 -0.17991567276E+04  0.17991567276E+04  0.50400001928E-02 0. -1.
    10030    2    1    2    0    0  0.00000000000E+00  0.00000000000E+00 -0.28763880618E+03  0.33106746491E+04  0.32981556284E+04 0.  0.
        2    1    3    3  502    0  0.11757804806E+04 -0.11562821113E+04 -0.14692597623E+03  0.16556072306E+04  0.25500000920E-02 0.  1.
       -2    1    3    3    0  502 -0.11757804806E+04  0.11562821113E+04 -0.14071282995E+03  0.16550674185E+04  0.25500000920E-02 0. -1.
</event>
<event>
 5   0  0.2279938E-08  0.3298715E+04  0.7818609E-02  0.8163222E-01
        1   -1    0    0  501    0  0.00000000000E+00  0.00000000000E+00  0.95900122446E+03  0.95900122448E+03  0.50400001928E-02 0.  1.
       -1   -1    0    0    0  501  0.00000000000E+00  0.00000000000E+00 -0.28366804789E+04  0.28366804789E+04  0.50400001928E-02 0. -1.
    10030    2    1    2    0    0  0.00000000000E+00  0.00000000000E+00 -0.18776792544E+04  0.37956817034E+04  0.32987149332E+04 0.  0.
        3    1    3    3  502    0 -0.29168968873E+03 -0.15880776713E+04 -0.13261618092E+04  0.20894445958E+04  0.10100000352E+00 0. -1.
       -3    1    3    3    0  502  0.29168968873E+03  0.15880776713E+04 -0.55151744525E+03  0.17062371076E+04  0.10100000352E+00 0.  1.
</event>
<event>
 5   0  0.2291682E-08  0.3308812E+04  0.7818609E-02  0.8160657E-01
       -1   -1    0    0    0  501  0.00000000000E+00  0.00000000000E+00  0.15953229038E+04  0.15953229038E+04  0.50400001928E-02 0. -1.
        1   -1    0    0  501    0  0.00000000000E+00  0.00000000000E+00 -0.17156776804E+04  0.17156776804E+04  0.50400001928E-02 0.  1.
    10030    2    1    2    0    0  0.00000000000E+00  0.00000000000E+00 -0.12035477661E+03  0.33110005843E+04  0.33088124149E+04 0.  0.
        2    1    3    3  502    0 -0.85519882141E+03  0.56255378734E+03  0.12403852115E+04  0.16082248788E+04  0.25500000920E-02 0. -1.
       -2    1    3    3    0  502  0.85519882141E+03 -0.56255378734E+03 -0.13607399882E+04  0.17027757055E+04  0.25500000920E-02 0.  1.
</event>
<event>
 5   0  0.2279938E-08  0.3299576E+04  0.7818609E-02  0.8163003E-01
       -1   -1    0    0    0  501  0.00000000000E+00  0.00000000000E+00  0.15208045096E+04  0.15208045096E+04  0.50400001928E-02 0. -1.
        1   -1    0    0  501    0  0.00000000000E+00  0.00000000000E+00 -0.17897106182E+04  0.17897106182E+04  0.50400001928E-02 0.  1.
    10030    2    1    2    0    0  0.00000000000E+00  0.00000000000E+00 -0.26890610859E+03  0.33105151278E+04  0.32995757176E+04 0.  0.
        3    1    3    3  502    0 -0.12698320469E+04 -0.87578121452E+03  0.45257975155E+03  0.16075741366E+04  0.10100000352E+00 0. -1.
       -3    1    3    3    0  502  0.12698320469E+04  0.87578121452E+03 -0.72148586014E+03  0.17029409912E+04  0.10100000352E+00 0.  1.
</event>
<event>
 5   0  0.6821287E-08  0.3299476E+04  0.7818609E-02  0.8163029E-01
       -2   -1    0    0    0  501  0.00000000000E+00  0.00000000000E+00  0.15365471634E+04  0.15365471634E+04  0.25500000920E-02 0. -1.
        2   -1    0    0  501    0  0.00000000000E+00  0.00000000000E+00 -0.17712673225E+04  0.17712673225E+04  0.25500000920E-02 0.  1.
    10030    2    1    2    0    0  0.00000000000E+00  0.00000000000E+00 -0.23472015907E+03  0.33078144859E+04  0.32994761887E+04 0.  0.
        5    1    3    3  502    0  0.10354475814E+04  0.12406137729E+04  0.21565322007E+03  0.16302768565E+04  0.46999998093E+01 0. -1.
       -5    1    3    3    0  502 -0.10354475814E+04 -0.12406137729E+04 -0.45037337914E+03  0.16775376294E+04  0.46999998093E+01 0.  1.
</event>
<event>
 5   0  0.6603516E-08  0.3299907E+04  0.7818609E-02  0.8162919E-01
       -2   -1    0    0    0  501  0.00000000000E+00  0.00000000000E+00  0.21943601627E+04  0.21943601627E+04  0.25500000920E-02 0. -1.
        2   -1    0    0  501    0  0.00000000000E+00  0.00000000000E+00 -0.12406106791E+04  0.12406106791E+04  0.25500000920E-02 0.  1.
    10030    2    1    2    0    0  0.00000000000E+00  0.00000000000E+00  0.95374948366E+03  0.34349708418E+04  0.32999070603E+04 0.  0.
        1    1    3    3  502    0 -0.50862500902E+03 -0.37964588742E+03  0.20622061225E+04  0.21576664458E+04  0.50400001928E-02 0. -1.
       -1    1    3    3    0  502  0.50862500902E+03  0.37964588742E+03 -0.11084566389E+04  0.12773043960E+04  0.50400001928E-02 0.  1.
</event>
<event>
 5   0  0.2244093E-08  0.3302334E+04  0.7818609E-02  0.8162302E-01
        1   -1    0    0  501    0  0.00000000000E+00  0.00000000000E+00  0.22234766212E+04  0.22234766212E+04  0.50400001928E-02 0. -1.
       -1   -1    0    0    0  501  0.00000000000E+00  0.00000000000E+00 -0.12261663327E+04  0.12261663327E+04  0.50400001928E-02 0.  1.
    10030    2    1    2    0    0  0.00000000000E+00  0.00000000000E+00  0.99731028854E+03  0.34496429539E+04  0.33023338259E+04 0.  0.
        1    1    3    3  502    0  0.19817114206E+03 -0.57570001730E+03  0.21019320733E+04  0.21883374402E+04  0.50400001928E-02 0. -1.
       -1    1    3    3    0  502 -0.19817114206E+03  0.57570001730E+03 -0.11046217847E+04  0.12613055137E+04  0.50400001928E-02 0.  1.
</event>
<event>
 5   0  0.6765252E-08  0.3300493E+04  0.7818609E-02  0.8162770E-01
       -2   -1    0    0    0  501  0.00000000000E+00  0.00000000000E+00  0.15157311330E+04  0.15157311330E+04  0.25500000920E-02 0.  1.
        2   -1    0    0  501    0  0.00000000000E+00  0.00000000000E+00 -0.17966993366E+04  0.17966993366E+04  0.25500000920E-02 0. -1.
    10030    2    1    2    0    0  0.00000000000E+00  0.00000000000E+00 -0.28096820362E+03  0.33124304696E+04  0.33004927639E+04 0.  0.
        2    1    3    3  502    0 -0.21064173815E+03 -0.15394240764E+04 -0.69847769787E+03  0.17035455742E+04  0.25500000920E-02 0. -1.
       -2    1    3    3    0  502  0.21064173815E+03  0.15394240764E+04  0.41750949426E+03  0.16088848954E+04  0.25500000920E-02 0.  1.
</event>
<event>
 5   0  0.6821287E-08  0.3301081E+04  0.7818609E-02  0.8162620E-01
        2   -1    0    0  501    0  0.00000000000E+00  0.00000000000E+00  0.21791669852E+04  0.21791669853E+04  0.25500000920E-02 0. -1.
       -2   -1    0    0    0  501  0.00000000000E+00  0.00000000000E+00 -0.12501489733E+04  0.12501489733E+04  0.25500000920E-02 0.  1.
    10030    2    1    2    0    0  0.00000000000E+00  0.00000000000E+00  0.92901801191E+03  0.34293159586E+04  0.33010806530E+04 0.  0.
        5    1    3    3  502    0  0.15570745067E+04 -0.14490221776E+03 -0.84001539862E+02  0.15660638623E+04  0.46999998093E+01 0.  1.
       -5    1    3    3    0  502 -0.15570745067E+04  0.14490221776E+03  0.10130195518E+04  0.18632520963E+04  0.46999998093E+01 0. -1.
</event>
<event>
 5   0  0.2291682E-08  0.3299939E+04  0.7818609E-02  0.8162911E-01
       -1   -1    0    0    0  501  0.00000000000E+00  0.00000000000E+00  0.12397568949E+04  0.12397568949E+04  0.50400001928E-02 0. -1.
        1   -1    0    0  501    0  0.00000000000E+00  0.00000000000E+00 -0.21959142453E+04  0.21959142454E+04  0.50400001928E-02 0.  1.
    10030    2    1    2    0    0  0.00000000000E+00  0.00000000000E+00 -0.95615735049E+03  0.34356711402E+04  0.32999392880E+04 0.  0.
        2    1    3    3  502    0  0.95561265585E+03  0.85944738305E+03  0.59915525049E+03  0.14180382105E+04  0.25500000920E-02 0. -1.
       -2    1    3    3    0  502 -0.95561265585E+03 -0.85944738305E+03 -0.15553126010E+04  0.20176329297E+04  0.25500000920E-02 0.  1.
</event>
<event>
 5   0  0.6765252E-08  0.3304212E+04  0.7818609E-02  0.8161824E-01
       -2   -1    0    0    0  501  0.00000000000E+00  0.00000000000E+00  0.14961887522E+04  0.14961887522E+04  0.25500000920E-02 0.  1.
        2   -1    0    0  501    0  0.00000000000E+00  0.00000000000E+00 -0.18242716191E+04  0.18242716191E+04  0.25500000920E-02 0. -1.
    10030    2    1    2    0    0  0.00000000000E+00  0.00000000000E+00 -0.32808286691E+03  0.33204603712E+04  0.33042122676E+04 0.  0.
        2    1    3    3  502    0 -0.39057918595E+03 -0.16035374965E+04 -0.89041504129E+02  0.16528197096E+04  0.25500000920E-02 0.  1.
       -2    1    3    3    0  502  0.39057918595E+03  0.16035374965E+04 -0.23904136278E+03  0.16676406616E+04  0.25500000920E-02 0. -1.
</event>
<event>
 5   0  0.7084130E-08  0.3300229E+04  0.7818609E-02  0.8162837E-01
       -2   -1    0    0    0  501  0.00000000000E+00  0.00000000000E+00  0.19042195036E+04  0.19042195036E+04  0.25500000920E-02 0. -1.
        2   -1    0    0  501    0  0.00000000000E+00  0.00000000000E+00 -0.14299182844E+04  0.14299182844E+04  0.25500000920E-02 0.  1.
    10030    2    1    2    0    0  0.00000000000E+00  0.00000000000E+00  0.47430121915E+03  0.33341377880E+04  0.33002292561E+04 0.  0.
        3    1    3    3  502    0 -0.57188220372E+03  0.13548782919E+04 -0.51896000911E+03  0.15595075960E+04  0.10100000352E+00 0.  1.
       -3    1    3    3    0  502  0.57188220372E+03 -0.13548782919E+04  0.99326122826E+03  0.17746301920E+04  0.10100000352E+00 0. -1.
</event>
<event>
 5   0  0.2200750E-08  0.3300640E+04  0.7818609E-02  0.8162733E-01
        3   -1    0    0  501    0  0.00000000000E+00  0.00000000000E+00  0.10541653333E+04  0.10541653382E+04  0.10100000352E+00 0. -1.
       -3   -1    0    0    0  501  0.00000000000E+00  0.00000000000E+00 -0.25836136892E+04  0.25836136912E+04  0.10100000352E+00 0.  1.
    10030    2    1    2    0    0  0.00000000000E+00  0.00000000000E+00 -0.15294483559E+04  0.36377790294E+04  0.33006399369E+04 0.  0.
        4    1    3    3  502    0  0.37357432995E+02  0.14976863117E+04 -0.15275910682E+04  0.21396251893E+04  0.12699999809E+01 0.  1.
       -4    1    3    3    0  502 -0.37357432995E+02 -0.14976863117E+04 -0.18572877194E+01  0.14981538401E+04  0.12699999809E+01 0. -1.
</event>
<event>
 5   0  0.2383270E-08  0.3298036E+04  0.7818609E-02  0.8163395E-01
       -1   -1    0    0    0  501  0.00000000000E+00  0.00000000000E+00  0.17246127693E+04  0.17246127693E+04  0.50400001928E-02 0. -1.
        1   -1    0    0  501    0  0.00000000000E+00  0.00000000000E+00 -0.15767369314E+04  0.15767369314E+04  0.50400001928E-02 0.  1.
    10030    2    1    2    0    0  0.00000000000E+00  0.00000000000E+00  0.14787583796E+03  0.33013497007E+04  0.32980361707E+04 0.  0.
        5    1    3    3  502    0 -0.60884958442E+03  0.92759781826E+03  0.12950418118E+04  0.17053711951E+04  0.46999998093E+01 0. -1.
       -5    1    3    3    0  502  0.60884958442E+03 -0.92759781826E+03 -0.11471659738E+04  0.15959785056E+04  0.46999998093E+01 0.  1.
</event>
<event>
 5   0  0.6603516E-08  0.3300020E+04  0.7818609E-02  0.8162890E-01
        2   -1    0    0  501    0  0.00000000000E+00  0.00000000000E+00  0.19668023998E+04  0.19668023998E+04  0.25500000920E-02 0.  1.
       -2   -1    0    0    0  501  0.00000000000E+00  0.00000000000E+00 -0.13842429722E+04  0.13842429722E+04  0.25500000920E-02 0. -1.
    10030    2    1    2    0    0  0.00000000000E+00  0.00000000000E+00  0.58255942759E+03  0.33510453720E+04  0.33000196361E+04 0.  0.
        1    1    3    3  502    0  0.14896769606E+04  0.21597551484E+03  0.97756207744E+03  0.17948288178E+04  0.50400001928E-02 0.  1.
       -1    1    3    3    0  502 -0.14896769606E+04 -0.21597551484E+03 -0.39500264985E+03  0.15562165542E+04  0.50400001928E-02 0. -1.
</event>
<event>
 5   0  0.2309822E-08  0.3300274E+04  0.7818609E-02  0.8162826E-01
       -1   -1    0    0    0  501  0.00000000000E+00  0.00000000000E+00  0.16088011416E+04  0.16088011416E+04  0.50400001928E-02 0. -1.
        1   -1    0    0  501    0  0.00000000000E+00  0.00000000000E+00 -0.16925349505E+04  0.16925349505E+04  0.50400001928E-02 0.  1.
    10030    2    1    2    0    0  0.00000000000E+00  0.00000000000E+00 -0.83733808932E+02  0.33013360921E+04  0.33002740253E+04 0.  0.
        4    1    3    3  502    0 -0.11129586936E+04  0.97328489083E+03  0.69116494357E+03  0.16320757104E+04  0.12699999809E+01 0. -1.
       -4    1    3    3    0  502  0.11129586936E+04 -0.97328489083E+03 -0.77489875250E+03  0.16692603817E+04  0.12699999809E+01 0.  1.
</event>
<event>
 5   0  0.2291682E-08  0.3305213E+04  0.7818609E-02  0.8161570E-01
        1   -1    0    0  501    0  0.00000000000E+00  0.00000000000E+00  0.19086410807E+04  0.19086410807E+04  0.50400001928E-02 0.  1.
       -1   -1    0    0    0  501  0.00000000000E+00  0.00000000000E+00 -0.14309179818E+04  0.14309179818E+04  0.50400001928E-02 0. -1.
    10030    2    1    2    0    0  0.00000000000E+00  0.00000000000E+00  0.47772309895E+03  0.33395590625E+04  0.33052133627E+04 0.  0.
        2    1    3    3  502    0 -0.12035161529E+04 -0.93118858561E+02 -0.90157744181E+03  0.15066400153E+04  0.25500000920E-02 0. -1.
       -2    1    3    3    0  502  0.12035161529E+04  0.93118858561E+02  0.13793005408E+04  0.18329190473E+04  0.25500000920E-02 0.  1.
</event>
<event>
 5   0  0.6706080E-08  0.3299005E+04  0.7818609E-02  0.8163149E-01
       -2   -1    0    0    0  501  0.00000000000E+00  0.00000000000E+00  0.12682324234E+04  0.12682324234E+04  0.25500000920E-02 0. -1.
        2   -1    0    0  501    0  0.00000000000E+00  0.00000000000E+00 -0.21453943579E+04  0.21453943579E+04  0.25500000920E-02 0.  1.
    10030    2    1    2    0    0  0.00000000000E+00  0.00000000000E+00 -0.87716193451E+03  0.34136267814E+04  0.32990051141E+04 0.  0.
        4    1    3    3  502    0  0.60766611813E+03  0.71801034619E+03 -0.18406729155E+04  0.20670934577E+04  0.12699999809E+01 0.  1.
       -4    1    3    3    0  502 -0.60766611813E+03 -0.71801034619E+03  0.96351098095E+03  0.13465333236E+04  0.12699999809E+01 0. -1.
</event>
<event>
 5   0  0.6765252E-08  0.3298721E+04  0.7818609E-02  0.8163221E-01
       -2   -1    0    0    0  501  0.00000000000E+00  0.00000000000E+00  0.19603515031E+04  0.19603515031E+04  0.25500000920E-02 0.  1.
        2   -1    0    0  501    0  0.00000000000E+00  0.00000000000E+00 -0.13877055616E+04  0.13877055616E+04  0.25500000920E-02 0. -1.
    10030    2    1    2    0    0  0.00000000000E+00  0.00000000000E+00  0.57264594148E+03  0.33480570647E+04  0.32987213787E+04 0.  0.
        2    1    3    3  502    0  0.10986540759E+04  0.39681768794E+03 -0.89551719322E+03  0.14718886165E+04  0.25500000920E-02 0. -1.
       -2    1    3    3    0  502 -0.10986540759E+04 -0.39681768794E+03  0.14681631347E+04  0.18761684482E+04  0.25500000920E-02 0.  1.
</event>
<event>
 5   0  0.7084130E-08  0.3311130E+04  0.7818609E-02  0.8160069E-01
        2   -1    0    0  501    0  0.00000000000E+00  0.00000000000E+00  0.24478882490E+04  0.24478882490E+04  0.25500000920E-02 0. -1.
       -2   -1    0    0    0  501  0.00000000000E+00  0.00000000000E+00 -0.11196980351E+04  0.11196980351E+04  0.25500000920E-02 0.  1.
    10030    2    1    2    0    0  0.00000000000E+00  0.00000000000E+00  0.13281902139E+04  0.35675862842E+04  0.33111301169E+04 0.  0.
        3    1    3    3  502    0 -0.51867644200E+03 -0.15715016452E+04  0.61295320092E+03  0.17647533281E+04  0.10100000352E+00 0.  1.
       -3    1    3    3    0  502  0.51867644200E+03  0.15715016452E+04  0.71523701297E+03  0.18028329560E+04  0.10100000352E+00 0. -1.
</event>
<event>
 5   0  0.2291682E-08  0.3298942E+04  0.7818609E-02  0.8163165E-01
       -1   -1    0    0    0  501  0.00000000000E+00  0.00000000000E+00  0.19089599281E+04  0.19089599281E+04  0.50400001928E-02 0. -1.
        1   -1    0    0  501    0  0.00000000000E+00  0.00000000000E+00 -0.14252553688E+04  0.14252553688E+04  0.50400001928E-02 0.  1.
    10030    2    1    2    0    0  0.00000000000E+00  0.00000000000E+00  0.48370455926E+03  0.33342152969E+04  0.32989424890E+04 0.  0.
        2    1    3    3  502    0 -0.11314059574E+04 -0.64272047992E+03  0.12663902406E+04  0.18157404267E+04  0.25500000920E-02 0. -1.
       -2    1    3    3    0  502  0.11314059574E+04  0.64272047992E+03 -0.78268568131E+03  0.15184748702E+04  0.25500000920E-02 0.  1.
</event>
<event>
 5   0  0.6706080E-08  0.3299554E+04  0.7818609E-02  0.8163009E-01
        2   -1    0    0  501    0  0.00000000000E+00  0.00000000000E+00  0.21483037976E+04  0.21483037976E+04  0.25500000920E-02 0. -1.
       -2   -1    0    0    0  501  0.00000000000E+00  0.00000000000E+00 -0.12669364642E+04  0.12669364642E+04  0.25500000920E-02 0.  1.
    10030    2    1    2    0    0  0.00000000000E+00  0.00000000000E+00  0.88136733342E+03  0.34152402618E+04  0.32995541622E+04 0.  0.
        4    1    3    3  502    0  0.62772824292E+03 -0.15045064608E+04  0.70290444235E+03  0.17752911608E+04  0.12699999809E+01 0. -1.
       -4    1    3    3    0  502 -0.62772824292E+03  0.15045064608E+04  0.17846289107E+03  0.16399491010E+04  0.12699999809E+01 0.  1.
</event>
<event>
 5   0  0.7084130E-08  0.3297599E+04  0.7818609E-02  0.8163507E-01
       -2   -1    0    0    0  501  0.00000000000E+00  0.00000000000E+00  0.14381310618E+04  0.14381310618E+04  0.25500000920E-02 0.  1.
        2   -1    0    0  501    0  0.00000000000E+00  0.00000000000E+00 -0.18903280185E+04  0.18903280185E+04  0.25500000920E-02 0. -1.
    10030    2    1    2    0    0  0.00000000000E+00  0.00000000000E+00 -0.45219695671E+03  0.33284590804E+04  0.32975987873E+04 0.  0.
        3    1    3    3  502    0 -0.56697477256E+03 -0.54889275473E+03  0.12351359238E+04  0.14657095242E+04  0.10100000352E+00 0.  1.
       -3    1    3    3    0  502  0.56697477256E+03  0.54889275473E+03 -0.16873328805E+04  0.18627495561E+04  0.10100000352E+00 0. -1.
</event>
<event>
 5   0  0.2279938E-08  0.3301441E+04  0.7818609E-02  0.8162529E-01
       -1   -1    0    0    0  501  0.00000000000E+00  0.00000000000E+00  0.13635740853E+04  0.13635740853E+04  0.50400001928E-02 0. -1.
        1   -1    0    0  501    0  0.00000000000E+00  0.00000000000E+00 -0.19983348806E+04  0.19983348806E+04  0.50400001928E-02 0.  1.
    10030    2    1    2    0    0  0.00000000000E+00  0.00000000000E+00 -0.63476079528E+03  0.33619089659E+04  0.33014406898E+04 0.  0.
        3    1    3    3  502    0 -0.10052759153E+04 -0.57084300753E+03  0.88252061669E+03  0.14544016138E+04  0.10100000352E+00 0. -1.
       -3    1    3    3    0  502  0.10052759153E+04  0.57084300753E+03 -0.15172814120E+04  0.19075073521E+04  0.10100000352E+00 0.  1.
</event>
<event>
 5   0  0.6603516E-08  0.3300748E+04  0.7818609E-02  0.8162705E-01
        2   -1    0    0  501    0  0.00000000000E+00  0.00000000000E+00  0.15122662267E+04  0.15122662267E+04  0.25500000920E-02 0. -1.
       -2   -1    0    0    0  501  0.00000000000E+00  0.00000000000E+00 -0.18010949781E+04  0.18010949781E+04  0.25500000920E-02 0.  1.
    10030    2    1    2    0    0  0.00000000000E+00  0.00000000000E+00 -0.28882875141E+03  0.33133612047E+04  0.33007484644E+04 0.  0.
        1    1    3    3  502    0  0.11525218704E+04 -0.73895676616E+03 -0.10695494679E+04  0.17373254814E+04  0.50400001928E-02 0.  1.
       -1    1    3    3    0  502 -0.11525218704E+04  0.73895676616E+03  0.78072071652E+03  0.15760357233E+04  0.50400001928E-02 0. -1.
</event>
<event>
 5   0  0.2291682E-08  0.3300220E+04  0.7818609E-02  0.8162840E-01
        1   -1    0    0  501    0  0.00000000000E+00  0.00000000000E+00  0.10890970329E+04  0.10890970329E+04  0.50400001928E-02 0.  1.
       -1   -1    0    0    0  501  0.00000000000E+00  0.00000000000E+00 -0.25001098975E+04  0.25001098975E+04  0.50400001928E-02 0. -1.
    10030    2    1    2    0    0  0.00000000000E+00  0.00000000000E+00 -0.14110128646E+04  0.35892069304E+04  0.33002195511E+04 0.  0.
        2    1    3    3  502    0  0.15693759988E+04  0.34435526896E+03 -0.11143802255E+04  0.19553426461E+04  0.25500000920E-02 0.  1.
       -2    1    3    3    0  502 -0.15693759988E+04 -0.34435526896E+03 -0.29663263902E+03  0.16338642842E+04  0.25500000920E-02 0. -1.
</event>
<event>
 5   0  0.2244093E-08  0.3294371E+04  0.7818609E-02  0.8164329E-01
       -1   -1    0    0    0  501  0.00000000000E+00  0.00000000000E+00  0.14499337833E+04  0.14499337833E+04  0.50400001928E-02 0. -1.
        1   -1    0    0  501    0  0.00000000000E+00  0.00000000000E+00 -0.18712718639E+04  0.18712718639E+04  0.50400001928E-02 0.  1.
    10030    2    1    2    0    0  0.00000000000E+00  0.00000000000E+00 -0.42133808058E+03  0.33212056472E+04  0.32943711347E+04 0.  0.
        1    1    3    3  502    0  0.12275266952E+04 -0.66921608337E+03  0.66737211952E+03  0.15492118963E+04  0.50400001928E-02 0. -1.
       -1    1    3    3    0  502 -0.12275266952E+04  0.66921608337E+03 -0.10887102001E+04  0.17719937510E+04  0.50400001928E-02 0.  1.
</event>
<event>
 5   0  0.6706080E-08  0.3299524E+04  0.7818609E-02  0.8163016E-01
        2   -1    0    0  501    0  0.00000000000E+00  0.00000000000E+00  0.22277824248E+04  0.22277824248E+04  0.25500000920E-02 0. -1.
       -2   -1    0    0    0  501  0.00000000000E+00  0.00000000000E+00 -0.12217148797E+04  0.12217148797E+04  0.25500000920E-02 0.  1.
    10030    2    1    2    0    0  0.00000000000E+00  0.00000000000E+00  0.10060675452E+04  0.34494973045E+04  0.32995241700E+04 0.  0.
        4    1    3    3  502    0 -0.89761788208E+03 -0.10190902255E+04 -0.47626639115E+03  0.14391296113E+04  0.12699999809E+01 0.  1.
       -4    1    3    3    0  502  0.89761788208E+03  0.10190902255E+04  0.14823339363E+04  0.20103676931E+04  0.12699999809E+01 0. -1.
</event>
<event>
 5   0  0.6706080E-08  0.3299433E+04  0.7818609E-02  0.8163040E-01
       -2   -1    0    0    0  501  0.00000000000E+00  0.00000000000E+00  0.13594054893E+04  0.13594054893E+04  0.25500000920E-02 0. -1.
        2   -1    0    0  501    0  0.00000000000E+00  0.00000000000E+00 -0.20020251828E+04  0.20020251828E+04  0.25500000920E-02 0.  1.
    10030    2    1    2    0    0  0.00000000000E+00  0.00000000000E+00 -0.64261969353E+03  0.33614306721E+04  0.32994326926E+04 0.  0.
        4    1    3    3  502    0 -0.78196559924E+02 -0.13335915102E+03 -0.19946288245E+04  0.20006111880E+04  0.12699999809E+01 0.  1.
       -4    1    3    3    0  502  0.78196559924E+02  0.13335915102E+03  0.13520091310E+04  0.13608194841E+04  0.12699999809E+01 0. -1.
</event>
<event>
 5   0  0.6706080E-08  0.3299864E+04  0.7818609E-02  0.8162930E-01
        2   -1    0    0  501    0  0.00000000000E+00  0.00000000000E+00  0.30931375242E+04  0.30931375242E+04  0.25500000920E-02 0. -1.
       -2   -1    0    0    0  501  0.00000000000E+00  0.00000000000E+00 -0.88010163766E+03  0.88010163767E+03  0.25500000920E-02 0.  1.
    10030    2    1    2    0    0  0.00000000000E+00  0.00000000000E+00  0.22130358866E+04  0.39732391619E+04  0.32998638763E+04 0.  0.
        4    1    3    3  502    0 -0.97506932784E+03 -0.22735737911E+03  0.26855482285E+04  0.28661162699E+04  0.12699999809E+01 0. -1.
       -4    1    3    3    0  502  0.97506932784E+03  0.22735737911E+03 -0.47251234191E+03  0.11071228920E+04  0.12699999809E+01 0.  1.
</event>
<event>
 5   0  0.2244093E-08  0.3296089E+04  0.7818609E-02  0.8163891E-01
       -1   -1    0    0    0  501  0.00000000000E+00  0.00000000000E+00  0.15751207506E+04  0.15751207507E+04  0.50400001928E-02 0.  1.
        1   -1    0    0  501    0  0.00000000000E+00  0.00000000000E+00 -0.17243443856E+04  0.17243443856E+04  0.50400001928E-02 0. -1.
    10030    2    1    2    0    0  0.00000000000E+00  0.00000000000E+00 -0.14922363494E+03  0.32994651363E+04  0.32960889691E+04 0.  0.
        1    1    3    3  502    0  0.10997095162E+04  0.61844248910E+03  0.98676593467E+03  0.16017300466E+04  0.50400001928E-02 0.  1.
       -1    1    3    3    0  502 -0.10997095162E+04 -0.61844248910E+03 -0.11359895696E+04  0.16977350896E+04  0.50400001928E-02 0. -1.
</event>
<event>
 5   0  0.7084130E-08  0.3299151E+04  0.7818609E-02  0.8163111E-01
        2   -1    0    0  501    0  0.00000000000E+00  0.00000000000E+00  0.19216950648E+04  0.19216950648E+04  0.25500000920E-02 0. -1.
       -2   -1    0    0    0  501  0.00000000000E+00  0.00000000000E+00 -0.14159893029E+04  0.14159893029E+04  0.25500000920E-02 0.  1.
    10030    2    1    2    0    0  0.00000000000E+00  0.00000000000E+00  0.50570576189E+03  0.33376843677E+04  0.32991511970E+04 0.  0.
        3    1    3    3  502    0 -0.13704859364E+02 -0.42122282543E+03 -0.13606044256E+04  0.14243808848E+04  0.10100000352E+00 0.  1.
       -3    1    3    3    0  502  0.13704859364E+02  0.42122282543E+03  0.18663101875E+04  0.19133034829E+04  0.10100000352E+00 0. -1.
</event>
<event>
 5   0  0.6603516E-08  0.3299456E+04  0.7818609E-02  0.8163034E-01
        2   -1    0    0  501    0  0.00000000000E+00  0.00000000000E+00  0.21340784305E+04  0.21340784305E+04  0.25500000920E-02 0.  1.
       -2   -1    0    0    0  501  0.00000000000E+00  0.00000000000E+00 -0.12753059387E+04  0.12753059387E+04  0.25500000920E-02 0. -1.
    10030    2    1    2    0    0  0.00000000000E+00  0.00000000000E+00  0.85877249184E+03  0.34093843692E+04  0.32994562558E+04 0.  0.
        1    1    3    3  502    0  0.74892706770E+03  0.12535088630E+03  0.19427630282E+04  0.20858889667E+04  0.50400001928E-02 0.  1.
       -1    1    3    3    0  502 -0.74892706770E+03 -0.12535088630E+03 -0.10839905364E+04  0.13234954025E+04  0.50400001928E-02 0. -1.
</event>
<event>
 5   0  0.2291682E-08  0.3302054E+04  0.7818609E-02  0.8162373E-01
        1   -1    0    0  501    0  0.00000000000E+00  0.00000000000E+00  0.10125411314E+04  0.10125411314E+04  0.50400001928E-02 0. -1.
       -1   -1    0    0    0  501  0.00000000000E+00  0.00000000000E+00 -0.26921279590E+04  0.26921279590E+04  0.50400001928E-02 0.  1.
    10030    2    1    2    0    0  0.00000000000E+00  0.00000000000E+00 -0.16795868276E+04  0.37046690904E+04  0.33020540816E+04 0.  0.
        2    1    3    3  502    0  0.97060410311E+02 -0.12717141291E+04 -0.20160609648E+04  0.23856192830E+04  0.25500000920E-02 0.  1.
       -2    1    3    3    0  502 -0.97060410311E+02  0.12717141291E+04  0.33647413722E+03  0.13190498074E+04  0.25500000920E-02 0. -1.
</event>
<event>
 5   0  0.2244093E-08  0.3299861E+04  0.7818609E-02  0.8162931E-01
       -1   -1    0    0    0  501  0.00000000000E+00  0.00000000000E+00  0.10177091638E+04  0.10177091638E+04  0.50400001928E-02 0. -1.
        1   -1    0    0  501    0  0.00000000000E+00  0.00000000000E+00 -0.26749003801E+04  0.26749003801E+04  0.50400001928E-02 0.  1.
    10030    2    1    2    0    0  0.00000000000E+00  0.00000000000E+00 -0.16571912163E+04  0.36926095439E+04  0.32998609844E+04 0.  0.
        1    1    3    3  502    0  0.11786323819E+04  0.26573779454E+03  0.42873635451E+03  0.12820318751E+04  0.50400001928E-02 0. -1.
       -1    1    3    3    0  502 -0.11786323819E+04 -0.26573779454E+03 -0.20859275708E+04  0.24105776689E+04  0.50400001928E-02 0.  1.
</event>
<event>
 5   0  0.2291682E-08  0.3298877E+04  0.7818609E-02  0.8163181E-01
        1   -1    0    0  501    0  0.00000000000E+00  0.00000000000E+00  0.24023307757E+04  0.24023307757E+04  0.50400001928E-02 0. -1.
       -1   -1    0    0    0  501  0.00000000000E+00  0.00000000000E+00 -0.11325031078E+04  0.11325031078E+04  0.50400001928E-02 0.  1.
    10030    2    1    2    0    0  0.00000000000E+00  0.00000000000E+00  0.12698276678E+04  0.35348338835E+04  0.32988768207E+04 0.  0.
        2    1    3    3  502    0  0.11077018263E+04 -0.96502611586E+03  0.14384646328E+04  0.20560786075E+04  0.25500000920E-02 0. -1.
       -2    1    3    3    0  502 -0.11077018263E+04  0.96502611586E+03 -0.16863696496E+03  0.14787552760E+04  0.25500000920E-02 0.  1.
</event>
<event>
 5   0  0.7084130E-08  0.3298949E+04  0.7818609E-02  0.8163163E-01
        2   -1    0    0  501    0  0.00000000000E+00  0.00000000000E+00  0.16896991416E+04  0.16896991416E+04  0.25500000920E-02 0.  1.
       -2   -1    0    0    0  501  0.00000000000E+00  0.00000000000E+00 -0.16102070363E+04  0.16102070363E+04  0.25500000920E-02 0. -1.
    10030    2    1    2    0    0  0.00000000000E+00  0.00000000000E+00  0.79492105346E+02  0.32999061779E+04  0.32989485883E+04 0.  0.
        3    1    3    3  502    0 -0.15751670600E+04 -0.49396591864E+02  0.52689270025E+03  0.16616880628E+04  0.10100000352E+00 0.  1.
       -3    1    3    3    0  502  0.15751670600E+04  0.49396591864E+02 -0.44740059491E+03  0.16382181151E+04  0.10100000352E+00 0. -1.
</event>
<event>
 5   0  0.2291682E-08  0.3301233E+04  0.7818609E-02  0.8162582E-01
        1   -1    0    0  501    0  0.00000000000E+00  0.00000000000E+00  0.28592171254E+04  0.28592171254E+04  0.50400001928E-02 0. -1.
       -1   -1    0    0    0  501  0.00000000000E+00  0.00000000000E+00 -0.95289530299E+03  0.95289530300E+03  0.50400001928E-02 0.  1.
    10030    2    1    2    0    0  0.00000000000E+00  0.00000000000E+00  0.19063218224E+04  0.38121124284E+04  0.33012328419E+04 0.  0.
        2    1    3    3  502    0 -0.74727388539E+03  0.64294966701E+03 -0.57562723187E+03  0.11415556246E+04  0.25500000920E-02 0.  1.
       -2    1    3    3    0  502  0.74727388539E+03 -0.64294966701E+03  0.24819490543E+04  0.26705568038E+04  0.25500000920E-02 0. -1.
</event>
<event>
 5   0  0.6765252E-08  0.3300411E+04  0.7818609E-02  0.8162791E-01
        2   -1    0    0  501    0  0.00000000000E+00  0.00000000000E+00  0.16276027293E+04  0.16276027293E+04  0.25500000920E-02 0.  1.
       -2   -1    0    0    0  501  0.00000000000E+00  0.00000000000E+00 -0.16731223406E+04  0.16731223406E+04  0.25500000920E-02 0. -1.
    10030    2    1    2    0    0  0.00000000000E+00  0.00000000000E+00 -0.45519611303E+02  0.33007250700E+04  0.33004111793E+04 0.  0.
        2    1    3    3  502    0  0.37095446853E+03 -0.88937317835E+03 -0.13625090322E+04  0.16688387373E+04  0.25500000920E-02 0. -1.
       -2    1    3    3    0  502 -0.37095446853E+03  0.88937317835E+03  0.13169894209E+04  0.16318863327E+04  0.25500000920E-02 0.  1.
</event>
<event>
 5   0  0.2279938E-08  0.3295331E+04  0.7818609E-02  0.8164085E-01
       -1   -1    0    0    0  501  0.00000000000E+00  0.00000000000E+00  0.12215689309E+04  0.12215689309E+04  0.50400001928E-02 0.  1.
        1   -1    0    0  501    0  0.00000000000E+00  0.00000000000E+00 -0.22223888039E+04  0.22223888039E+04  0.50400001928E-02 0. -1.
    10030    2    1    2    0    0  0.00000000000E+00  0.00000000000E+00 -0.10008198730E+04  0.34439577348E+04  0.32953307058E+04 0.  0.
        3    1    3    3  502    0 -0.89233642383E+03  0.94493190585E+03  0.55800604741E+03  0.14144014137E+04  0.10100000352E+00 0.  1.
       -3    1    3    3    0  502  0.89233642383E+03 -0.94493190585E+03 -0.15588259204E+04  0.20295563211E+04  0.10100000352E+00 0. -1.
</event>
<event>
 5   0  0.2244093E-08  0.3299025E+04  0.7818609E-02  0.8163144E-01
       -1   -1    0    0    0  501  0.00000000000E+00  0.00000000000E+00  0.13899393779E+04  0.13899393780E+04  0.50400001928E-02 0. -1.
        1   -1    0    0  501    0  0.00000000000E+00  0.00000000000E+00 -0.19575607786E+04  0.19575607786E+04  0.50400001928E-02 0.  1.
    10030    2    1    2    0    0  0.00000000000E+00  0.00000000000E+00 -0.56762140066E+03  0.33475001566E+04  0.32990245897E+04 0.  0.
        1    1    3    3  502    0 -0.16339471000E+04  0.72521291856E+02 -0.50107926599E+03  0.17105913873E+04  0.50400001928E-02 0.  1.
       -1    1    3    3    0  502  0.16339471000E+04 -0.72521291856E+02 -0.66542134669E+02  0.16369087693E+04  0.50400001928E-02 0. -1.
</event>
<event>
 5   0  0.6706080E-08  0.3301350E+04  0.7818609E-02  0.8162552E-01
       -2   -1    0    0    0  501  0.00000000000E+00  0.00000000000E+00  0.15494333228E+04  0.15494333228E+04  0.25500000920E-02 0.  1.
        2   -1    0    0  501    0  0.00000000000E+00  0.00000000000E+00 -0.17585320197E+04  0.17585320197E+04  0.25500000920E-02 0. -1.
    10030    2    1    2    0    0  0.00000000000E+00  0.00000000000E+00 -0.20909869687E+03  0.33079653425E+04  0.33013500938E+04 0.  0.
        4    1    3    3  502    0  0.15712220924E+04  0.41707149775E+03 -0.39154779582E+03  0.16721240346E+04  0.12699999809E+01 0. -1.
       -4    1    3    3    0  502 -0.15712220924E+04 -0.41707149775E+03  0.18244909895E+03  0.16358413078E+04  0.12699999809E+01 0.  1.
</event>
<event>
 5   0  0.6821287E-08  0.3298063E+04  0.7818609E-02  0.8163388E-01
       -2   -1    0    0    0  501  0.00000000000E+00  0.00000000000E+00  0.18689232222E+04  0.18689232222E+04  0.25500000920E-02 0.  1.
        2   -1    0    0  501    0  0.00000000000E+00  0.00000000000E+00 -0.14550117107E+04  0.14550117107E+04  0.25500000920E-02 0. -1.
    10030    2    1    2    0    0  0.00000000000E+00  0.00000000000E+00  0.41391151147E+03  0.33239349329E+04  0.32980631738E+04 0.  0.
        5    1    3    3  502    0 -0.12109357285E+04 -0.20968991759E+03  0.13151026493E+04  0.17999589629E+04  0.46999998093E+01 0.  1.
       -5    1    3    3    0  502  0.12109357285E+04  0.20968991759E+03 -0.90119113780E+03  0.15239759699E+04  0.46999998093E+01 0. -1.
</event>
<event>
 5   0  0.2291682E-08  0.3301553E+04  0.7818609E-02  0.8162500E-01
       -1   -1    0    0    0  501  0.00000000000E+00  0.00000000000E+00  0.15139162234E+04  0.15139162234E+04  0.50400001928E-02 0.  1.
        1   -1    0    0  501    0  0.00000000000E+00  0.00000000000E+00 -0.18000094504E+04  0.18000094504E+04  0.50400001928E-02 0. -1.
    10030    2    1    2    0    0  0.00000000000E+00  0.00000000000E+00 -0.28609322700E+03  0.33139256738E+04  0.33015532764E+04 0.  0.
        2    1    3    3  502    0 -0.51756165137E+03  0.15484663734E+04 -0.38777443779E+03  0.16780903394E+04  0.25500000920E-02 0.  1.
       -2    1    3    3    0  502  0.51756165137E+03 -0.15484663734E+04  0.10168121079E+03  0.16358353344E+04  0.25500000920E-02 0. -1.
</event>
<event>
 5   0  0.2291682E-08  0.3300040E+04  0.7818609E-02  0.8162885E-01
       -1   -1    0    0    0  501  0.00000000000E+00  0.00000000000E+00  0.18714396488E+04  0.18714396488E+04  0.50400001928E-02 0.  1.
        1   -1    0    0  501    0  0.00000000000E+00  0.00000000000E+00 -0.14547976859E+04  0.14547976859E+04  0.50400001928E-02 0. -1.
    10030    2    1    2    0    0  0.00000000000E+00  0.00000000000E+00  0.41664196289E+03  0.33262373347E+04  0.33000400424E+04 0.  0.
        2    1    3    3  502    0  0.62132116906E+03 -0.72796491636E+03  0.15630867188E+04  0.18328155949E+04  0.25500000920E-02 0.  1.
       -2    1    3    3    0  502 -0.62132116906E+03  0.72796491636E+03 -0.11464447559E+04  0.14934217398E+04  0.25500000920E-02 0. -1.
</event>
<event>
 5   0  0.2244093E-08  0.3299698E+04  0.7818609E-02  0.8162972E-01
        1   -1    0    0  501    0  0.00000000000E+00  0.00000000000E+00  0.16546790638E+04  0.16546790638E+04  0.50400001928E-02 0. -1.
       -1   -1    0    0    0  501  0.00000000000E+00  0.00000000000E+00 -0.16450326844E+04  0.16450326844E+04  0.50400001928E-02 0.  1.
    10030    2    1    2    0    0  0.00000000000E+00  0.00000000000E+00  0.96463793536E+01  0.32997117482E+04  0.32996976481E+04 0.  0.
        1    1    3    3  502    0  0.91306208327E+03 -0.94853464905E+03  0.99911149933E+03  0.16527625772E+04  0.50400001928E-02 0. -1.
       -1    1    3    3    0  502 -0.91306208327E+03  0.94853464905E+03 -0.98946511997E+03  0.16469491711E+04  0.50400001928E-02 0.  1.
</event>
<event>
 5   0  0.2383270E-08  0.3298840E+04  0.7818609E-02  0.8163190E-01
       -1   -1    0    0    0  501  0.00000000000E+00  0.00000000000E+00  0.26781936992E+04  0.26781936992E+04  0.50400001928E-02 0. -1.
        1   -1    0    0  501    0  0.00000000000E+00  0.00000000000E+00 -0.10158290863E+04  0.10158290863E+04  0.50400001928E-02 0.  1.
    10030    2    1    2    0    0  0.00000000000E+00  0.00000000000E+00  0.16623646129E+04  0.36940227855E+04  0.32988404377E+04 0.  0.
        5    1    3    3  502    0 -0.44451697803E+03  0.15297701483E+04  0.13099162080E+04  0.20624486932E+04  0.46999998093E+01 0. -1.
       -5    1    3    3    0  502  0.44451697803E+03 -0.15297701483E+04  0.35244840491E+03  0.16315740922E+04  0.46999998093E+01 0.  1.
</event>
<event>
 5   0  0.2279938E-08  0.3299001E+04  0.7818609E-02  0.8163150E-01
        1   -1    0    0  501    0  0.00000000000E+00  0.00000000000E+00  0.21362145168E+04  0.21362145168E+04  0.50400001928E-02 0. -1.
       -1   -1    0    0    0  501  0.00000000000E+00  0.00000000000E+00 -0.12736793482E+04  0.12736793482E+04  0.50400001928E-02 0.  1.
    10030    2    1    2    0    0  0.00000000000E+00  0.00000000000E+00  0.86253516857E+03  0.34098938650E+04  0.32990012509E+04 0.  0.
        3    1    3    3  502    0  0.42802333354E+03  0.15481036089E+04  0.81942169999E+03  0.18031308024E+04  0.10100000352E+00 0. -1.
       -3    1    3    3    0  502 -0.42802333354E+03 -0.15481036089E+04  0.43113468583E+02  0.16067630626E+04  0.10100000352E+00 0.  1.
</event>
<event>
 5   0  0.6603516E-08  0.3297529E+04  0.7818609E-02  0.8163524E-01
       -2   -1    0    0    0  501  0.00000000000E+00  0.00000000000E+00  0.22798357720E+04  0.22798357720E+04  0.25500000920E-02 0. -1.
        2   -1    0    0  501    0  0.00000000000E+00  0.00000000000E+00 -0.11923776135E+04  0.11923776135E+04  0.25500000920E-02 0.  1.
    10030    2    1    2    0    0  0.00000000000E+00  0.00000000000E+00  0.10874581585E+04  0.34722133854E+04  0.32975294612E+04 0.  0.
        1    1    3    3  502    0  0.15428727240E+04  0.10210520461E+03  0.11463610434E+04  0.19248442423E+04  0.50400001928E-02 0. -1.
       -1    1    3    3    0  502 -0.15428727240E+04 -0.10210520461E+03 -0.58902884863E+02  0.15473691431E+04  0.50400001928E-02 0.  1.
</event>
<event>
 5   0  0.2383270E-08  0.3312870E+04  0.7818609E-02  0.8159628E-01
       -1   -1    0    0    0  501  0.00000000000E+00  0.00000000000E+00  0.14123437862E+04  0.14123437862E+04  0.50400001928E-02 0.  1.
        1   -1    0    0  501    0  0.00000000000E+00  0.00000000000E+00 -0.19427120783E+04  0.19427120783E+04  0.50400001928E-02 0. -1.
    10030    2    1    2    0    0  0.00000000000E+00  0.00000000000E+00 -0.53036829214E+03  0.33550558645E+04  0.33128702553E+04 0.  0.
        5    1    3    3  502    0  0.11866891186E+04  0.33847646105E+03  0.85385599777E+03  0.15006297124E+04  0.46999998093E+01 0.  1.
       -5    1    3    3    0  502 -0.11866891186E+04 -0.33847646105E+03 -0.13842242899E+04  0.18544261521E+04  0.46999998093E+01 0. -1.
</event>
<event>
 5   0  0.2244093E-08  0.3300598E+04  0.7818609E-02  0.8162743E-01
       -1   -1    0    0    0  501  0.00000000000E+00  0.00000000000E+00  0.20034666749E+04  0.20034666749E+04  0.50400001928E-02 0.  1.
        1   -1    0    0  501    0  0.00000000000E+00  0.00000000000E+00 -0.13593867295E+04  0.13593867296E+04  0.50400001928E-02 0. -1.
    10030    2    1    2    0    0  0.00000000000E+00  0.00000000000E+00  0.64407994534E+03  0.33628534044E+04  0.33005975283E+04 0.  0.
        1    1    3    3  502    0  0.19168201094E+02 -0.12891076208E+04  0.13716756087E+04  0.18824611161E+04  0.50400001928E-02 0.  1.
       -1    1    3    3    0  502 -0.19168201094E+02  0.12891076208E+04 -0.72759566336E+03  0.14803922884E+04  0.50400001928E-02 0. -1.
</event>
<event>
 5   0  0.2244093E-08  0.3292026E+04  0.7818609E-02  0.8164927E-01
        1   -1    0    0  501    0  0.00000000000E+00  0.00000000000E+00  0.20298825485E+04  0.20298825485E+04  0.50400001928E-02 0.  1.
       -1   -1    0    0    0  501  0.00000000000E+00  0.00000000000E+00 -0.13347367522E+04  0.13347367522E+04  0.50400001928E-02 0. -1.
    10030    2    1    2    0    0  0.00000000000E+00  0.00000000000E+00  0.69514579629E+03  0.33646193006E+04  0.32920260266E+04 0.  0.
        1    1    3    3  502    0  0.72665777980E+03 -0.13211772744E+04  0.10222954308E+04  0.18217104236E+04  0.50400001928E-02 0.  1.
       -1    1    3    3    0  502 -0.72665777980E+03  0.13211772744E+04 -0.32714963455E+03  0.15429088770E+04  0.50400001928E-02 0. -1.
</event>
<event>
 5   0  0.2309822E-08  0.3300502E+04  0.7818609E-02  0.8162768E-01
       -1   -1    0    0    0  501  0.00000000000E+00  0.00000000000E+00  0.15951202839E+04  0.15951202839E+04  0.50400001928E-02 0.  1.
        1   -1    0    0  501    0  0.00000000000E+00  0.00000000000E+00 -0.17072876495E+04  0.17072876495E+04  0.50400001928E-02 0. -1.
    10030    2    1    2    0    0  0.00000000000E+00  0.00000000000E+00 -0.11216736561E+03  0.33024079334E+04  0.33005024831E+04 0.  0.
        4    1    3    3  502    0 -0.14587170900E+04 -0.19803131388E+03  0.69017234514E+03  0.16258571366E+04  0.12699999809E+01 0.  1.
       -4    1    3    3    0  502  0.14587170900E+04  0.19803131388E+03 -0.80233971074E+03  0.16765507968E+04  0.12699999809E+01 0. -1.
</event>
<event>
 5   0  0.2279938E-08  0.3300261E+04  0.7818609E-02  0.8162829E-01
        1   -1    0    0  501    0  0.00000000000E+00  0.00000000000E+00  0.18214729102E+04  0.18214729102E+04  0.50400001928E-02 0. -1.
       -1   -1    0    0    0  501  0.00000000000E+00  0.00000000000E+00 -0.14949061267E+04  0.14949061267E+04  0.50400001928E-02 0.  1.
    10030    2    1    2    0    0  0.00000000000E+00  0.00000000000E+00  0.32656678351E+03  0.33163790369E+04  0.33002612097E+04 0.  0.
        3    1    3    3  502    0  0.40720374783E+03 -0.11940895095E+04  0.12320879116E+04  0.17634356470E+04  0.10100000352E+00 0. -1.
       -3    1    3    3    0  502 -0.40720374783E+03  0.11940895095E+04 -0.90552112806E+03  0.15529433900E+04  0.10100000352E+00 0.  1.
</event>
<event>
 5   0  0.6603516E-08  0.3300846E+04  0.7818609E-02  0.8162680E-01
       -2   -1    0    0    0  501  0.00000000000E+00  0.00000000000E+00  0.17043112475E+04  0.17043112475E+04  0.25500000920E-02 0. -1.
        2   -1    0    0  501    0  0.00000000000E+00  0.00000000000E+00 -0.15982387718E+04  0.15982387718E+04  0.25500000920E-02 0.  1.
    10030    2    1    2    0    0  0.00000000000E+00  0.00000000000E+00  0.10607247562E+03  0.33025500193E+04  0.33008461430E+04 0.  0.
        1    1    3    3  502    0  0.12825627699E+02 -0.11975956801E+04  0.11891823591E+04  0.16877661547E+04  0.50400001928E-02 0. -1.
       -1    1    3    3    0  502 -0.12825627699E+02  0.11975956801E+04 -0.10831098834E+04  0.16147838646E+04  0.50400001928E-02 0.  1.
</event>
<event>
 5   0  0.7084130E-08  0.3299701E+04  0.7818609E-02  0.8162972E-01
        2   -1    0    0  501    0  0.00000000000E+00  0.00000000000E+00  0.24531941265E+04  0.24531941265E+04  0.25500000920E-02 0. -1.
       -2   -1    0    0    0  501  0.00000000000E+00  0.00000000000E+00 -0.11095763124E+04  0.11095763124E+04  0.25500000920E-02 0.  1.
    10030    2    1    2    0    0  0.00000000000E+00  0.00000000000E+00  0.13436178141E+04  0.35627704389E+04  0.32997006486E+04 0.  0.
        3    1    3    3  502    0  0.14000295277E+04 -0.81286630961E+03  0.32837516274E+03  0.16518669963E+04  0.10100000352E+00 0.  1.
       -3    1    3    3    0  502 -0.14000295277E+04  0.81286630961E+03  0.10152426514E+04  0.19109034426E+04  0.10100000352E+00 0. -1.
</event>
<event>
 5   0  0.2279938E-08  0.3300679E+04  0.7818609E-02  0.8162723E-01
        1   -1    0    0  501    0  0.00000000000E+00  0.00000000000E+00  0.18908542982E+04  0.18908542982E+04  0.50400001928E-02 0.  1.
       -1   -1    0    0    0  501  0.00000000000E+00  0.00000000000E+00 -0.14404177239E+04  0.14404177239E+04  0.50400001928E-02 0. -1.
    10030    2    1    2    0    0  0.00000000000E+00  0.00000000000E+00  0.45043657435E+03  0.33312720221E+04  0.33006787450E+04 0.  0.
        3    1    3    3  502    0  0.47428747891E+03  0.90587186036E+03  0.15326275760E+04  0.18424168195E+04  0.10100000352E+00 0.  1.
       -3    1    3    3    0  502 -0.47428747891E+03 -0.90587186036E+03 -0.10821910016E+04  0.14888552026E+04  0.10100000352E+00 0. -1.
</event>
<event>
 5   0  0.6821287E-08  0.3299442E+04  0.7818609E-02  0.8163037E-01
       -2   -1    0    0    0  501  0.00000000000E+00  0.00000000000E+00  0.12306756060E+04  0.12306756060E+04  0.25500000920E-02 0.  1.
        2   -1    0    0  501    0  0.00000000000E+00  0.00000000000E+00 -0.22114514276E+04  0.22114514276E+04  0.25500000920E-02 0. -1.
    10030    2    1    2    0    0  0.00000000000E+00  0.00000000000E+00 -0.98077582161E+03  0.34421270337E+04  0.32994419685E+04 0.  0.
        5    1    3    3  502    0 -0.35148017649E+03 -0.10254403970E+04  0.80697084212E+03  0.13514031050E+04  0.46999998093E+01 0.  1.
       -5    1    3    3    0  502  0.35148017649E+03  0.10254403970E+04 -0.17877466637E+04  0.20907239287E+04  0.46999998093E+01 0. -1.
</event>
<event>
 5   0  0.2309822E-08  0.3298374E+04  0.7818609E-02  0.8163309E-01
       -1   -1    0    0    0  501  0.00000000000E+00  0.00000000000E+00  0.13999498098E+04  0.13999498098E+04  0.50400001928E-02 0. -1.
        1   -1    0    0  501    0  0.00000000000E+00  0.00000000000E+00 -0.19427966613E+04  0.19427966613E+04  0.50400001928E-02 0.  1.
    10030    2    1    2    0    0  0.00000000000E+00  0.00000000000E+00 -0.54284685151E+03  0.33427464711E+04  0.32983740336E+04 0.  0.
        4    1    3    3  502    0  0.80172349603E+03 -0.97171544934E+03  0.80723737338E+03  0.14962036186E+04  0.12699999809E+01 0. -1.
       -4    1    3    3    0  502 -0.80172349603E+03  0.97171544934E+03 -0.13500842249E+04  0.18465428524E+04  0.12699999809E+01 0.  1.
</event>
<event>
 5   0  0.2291682E-08  0.3297915E+04  0.7818609E-02  0.8163426E-01
        1   -1    0    0  501    0  0.00000000000E+00  0.00000000000E+00  0.11741465848E+04  0.11741465848E+04  0.50400001928E-02 0. -1.
       -1   -1    0    0    0  501  0.00000000000E+00  0.00000000000E+00 -0.23157764947E+04  0.23157764947E+04  0.50400001928E-02 0.  1.
    10030    2    1    2    0    0  0.00000000000E+00  0.00000000000E+00 -0.11416299099E+04  0.34899230795E+04  0.32979151369E+04 0.  0.
        2    1    3    3  502    0  0.48101302643E+03 -0.32281829370E+03  0.10629205957E+04  0.12105310303E+04  0.25500000920E-02 0. -1.
       -2    1    3    3    0  502 -0.48101302643E+03  0.32281829370E+03 -0.22045505057E+04  0.22793920493E+04  0.25500000920E-02 0.  1.
</event>
<event>
 5   0  0.2244093E-08  0.3300509E+04  0.7818609E-02  0.8162766E-01
       -1   -1    0    0    0  501  0.00000000000E+00  0.00000000000E+00  0.24645855190E+04  0.24645855190E+04  0.50400001928E-02 0. -1.
        1   -1    0    0  501    0  0.00000000000E+00  0.00000000000E+00 -0.11049888984E+04  0.11049888985E+04  0.50400001928E-02 0.  1.
    10030    2    1    2    0    0  0.00000000000E+00  0.00000000000E+00  0.13595966205E+04  0.35695744174E+04  0.33005088322E+04 0.  0.
        1    1    3    3  502    0 -0.10684342912E+03  0.15384953521E+04  0.44588055962E+02  0.15428452812E+04  0.50400001928E-02 0.  1.
       -1    1    3    3    0  502  0.10684342912E+03 -0.15384953521E+04  0.13150085646E+04  0.20267291363E+04  0.50400001928E-02 0. -1.
</event>
<event>
 5   0  0.2383270E-08  0.3299348E+04  0.7818609E-02  0.8163061E-01
        1   -1    0    0  501    0  0.00000000000E+00  0.00000000000E+00  0.23886933720E+04  0.23886933720E+04  0.50400001928E-02 0.  1.
       -1   -1    0    0    0  501  0.00000000000E+00  0.00000000000E+00 -0.11392938467E+04  0.11392938467E+04  0.50400001928E-02 0. -1.
    10030    2    1    2    0    0  0.00000000000E+00  0.00000000000E+00  0.12493995253E+04  0.35279872187E+04  0.32993476085E+04 0.  0.
        5    1    3    3  502    0 -0.39960373810E+03 -0.17291800720E+03  0.23261339404E+04  0.23665386080E+04  0.46999998093E+01 0.  1.
       -5    1    3    3    0  502  0.39960373810E+03  0.17291800720E+03 -0.10767344151E+04  0.11614486107E+04  0.46999998093E+01 0. -1.
</event>
<event>
 5   0  0.6821287E-08  0.3305197E+04  0.7818609E-02  0.8161574E-01
       -2   -1    0    0    0  501  0.00000000000E+00  0.00000000000E+00  0.13148372014E+04  0.13148372014E+04  0.25500000920E-02 0.  1.
        2   -1    0    0  501    0  0.00000000000E+00  0.00000000000E+00 -0.20771260120E+04  0.20771260120E+04  0.25500000920E-02 0. -1.
    10030    2    1    2    0    0  0.00000000000E+00  0.00000000000E+00 -0.76228881063E+03  0.33919632134E+04  0.33051974541E+04 0.  0.
        5    1    3    3  502    0  0.15771300833E+04 -0.43556098304E+02  0.12352090175E+03  0.15825662503E+04  0.46999998093E+01 0.  1.
       -5    1    3    3    0  502 -0.15771300833E+04  0.43556098304E+02 -0.88580971239E+03  0.18093969631E+04  0.46999998093E+01 0. -1.
</event>
<event>
 5   0  0.6706080E-08  0.3305789E+04  0.7818609E-02  0.8161424E-01
       -2   -1    0    0    0  501  0.00000000000E+00  0.00000000000E+00  0.99762021194E+03  0.99762021195E+03  0.25500000920E-02 0. -1.
        2   -1    0    0  501    0  0.00000000000E+00  0.00000000000E+00 -0.27385767691E+04  0.27385767691E+04  0.25500000920E-02 0.  1.
    10030    2    1    2    0    0  0.00000000000E+00  0.00000000000E+00 -0.17409565571E+04  0.37361969810E+04  0.33057885817E+04 0.  0.
        4    1    3    3  502    0 -0.87437328814E+03 -0.90894924720E+03  0.33695269455E+03  0.13054716053E+04  0.12699999809E+01 0. -1.
       -4    1    3    3    0  502  0.87437328814E+03  0.90894924720E+03 -0.20779092517E+04  0.24307253757E+04  0.12699999809E+01 0.  1.
</event>
<event>
 5   0  0.2383270E-08  0.3298753E+04  0.7818609E-02  0.8163213E-01
       -1   -1    0    0    0  501  0.00000000000E+00  0.00000000000E+00  0.20942160525E+04  0.20942160525E+04  0.50400001928E-02 0. -1.
        1   -1    0    0  501    0  0.00000000000E+00  0.00000000000E+00 -0.12990266967E+04  0.12990266967E+04  0.50400001928E-02 0.  1.
    10030    2    1    2    0    0  0.00000000000E+00  0.00000000000E+00  0.79518935583E+03  0.33932427492E+04  0.32987528315E+04 0.  0.
        5    1    3    3  502    0 -0.86551731323E+03 -0.95185582885E+03 -0.66408902615E+03  0.14478211433E+04  0.46999998093E+01 0.  1.
       -5    1    3    3    0  502  0.86551731323E+03  0.95185582885E+03  0.14592783820E+04  0.19454216059E+04  0.46999998093E+01 0. -1.
</event>
<event>
 5   0  0.2200750E-08  0.3301562E+04  0.7818609E-02  0.8162498E-01
       -3   -1    0    0    0  501  0.00000000000E+00  0.00000000000E+00  0.19546988198E+04  0.19546988224E+04  0.10100000352E+00 0.  1.
        3   -1    0    0  501    0  0.00000000000E+00  0.00000000000E+00 -0.13941168651E+04  0.13941168688E+04  0.10100000352E+00 0. -1.
    10030    2    1    2    0    0  0.00000000000E+00  0.00000000000E+00  0.56058195469E+03  0.33488156913E+04  0.33015624189E+04 0.  0.
        1    1    3    3  502    0 -0.14374157317E+04  0.61162577992E+03 -0.26104073657E+03  0.15837904996E+04  0.50400001928E-02 0. -1.
       -1    1    3    3    0  502  0.14374157317E+04 -0.61162577992E+03  0.82162269127E+03  0.17650251917E+04  0.50400001928E-02 0.  1.
</event>
<event>
 5   0  0.6603516E-08  0.3300087E+04  0.7818609E-02  0.8162873E-01
       -2   -1    0    0    0  501  0.00000000000E+00  0.00000000000E+00  0.13659511010E+04  0.13659511010E+04  0.25500000920E-02 0. -1.
        2   -1    0    0  501    0  0.00000000000E+00  0.00000000000E+00 -0.19932221090E+04  0.19932221090E+04  0.25500000920E-02 0.  1.
    10030    2    1    2    0    0  0.00000000000E+00  0.00000000000E+00 -0.62727100798E+03  0.33591732100E+04  0.33000872318E+04 0.  0.
        1    1    3    3  502    0  0.37368996244E+03 -0.68522197584E+03  0.11661715141E+04  0.14032566923E+04  0.50400001928E-02 0. -1.
       -1    1    3    3    0  502 -0.37368996244E+03  0.68522197584E+03 -0.17934425221E+04  0.19559165177E+04  0.50400001928E-02 0.  1.
</event>
<event>
 5   0  0.6706080E-08  0.3297962E+04  0.7818609E-02  0.8163414E-01
        2   -1    0    0  501    0  0.00000000000E+00  0.00000000000E+00  0.18178926183E+04  0.18178926183E+04  0.25500000920E-02 0.  1.
       -2   -1    0    0    0  501  0.00000000000E+00  0.00000000000E+00 -0.14957641835E+04  0.14957641835E+04  0.25500000920E-02 0. -1.
    10030    2    1    2    0    0  0.00000000000E+00  0.00000000000E+00  0.32212843487E+03  0.33136568018E+04  0.32979621999E+04 0.  0.
        4    1    3    3  502    0 -0.11593474103E+04  0.57954422516E+03  0.11853167826E+04  0.17563984214E+04  0.12699999809E+01 0.  1.
       -4    1    3    3    0  502  0.11593474103E+04 -0.57954422516E+03 -0.86318834772E+03  0.15572583804E+04  0.12699999809E+01 0. -1.
</event>
<event>
 5   0  0.6706080E-08  0.3299079E+04  0.7818609E-02  0.8163130E-01
       -2   -1    0    0    0  501  0.00000000000E+00  0.00000000000E+00  0.14177078938E+04  0.14177078938E+04  0.25500000920E-02 0. -1.
        2   -1    0    0  501    0  0.00000000000E+00  0.00000000000E+00 -0.19192817899E+04  0.19192817900E+04  0.25500000920E-02 0.  1.
    10030    2    1    2    0    0  0.00000000000E+00  0.00000000000E+00 -0.50157389614E+03  0.33369896838E+04  0.32990792316E+04 0.  0.
        4    1    3    3  502    0  0.13444405911E+04  0.46155310076E+03 -0.10973196355E+04  0.17957348811E+04  0.12699999809E+01 0.  1.
       -4    1    3    3    0  502 -0.13444405911E+04 -0.46155310076E+03  0.59574573931E+03  0.15412548027E+04  0.12699999809E+01 0. -1.
</event>
<event>
 5   0  0.2244093E-08  0.3300128E+04  0.7818609E-02  0.8162863E-01
       -1   -1    0    0    0  501  0.00000000000E+00  0.00000000000E+00  0.11043785514E+04  0.11043785514E+04  0.50400001928E-02 0. -1.
        1   -1    0    0  501    0  0.00000000000E+00  0.00000000000E+00 -0.24653791473E+04  0.24653791473E+04  0.50400001928E-02 0.  1.
    10030    2    1    2    0    0  0.00000000000E+00  0.00000000000E+00 -0.13610005960E+04  0.35697576987E+04  0.33001283922E+04 0.  0.
        1    1    3    3  502    0  0.15945031446E+04  0.34047604323E+03 -0.40610655459E+03  0.16802638923E+04  0.50400001928E-02 0. -1.
       -1    1    3    3    0  502 -0.15945031446E+04 -0.34047604323E+03 -0.95489404138E+03  0.18894938064E+04  0.50400001928E-02 0.  1.
</event>
<event>
 5   0  0.2279938E-08  0.3298704E+04  0.7818609E-02  0.8163225E-01
       -1   -1    0    0    0  501  0.00000000000E+00  0.00000000000E+00  0.15164825100E+04  0.15164825100E+04  0.50400001928E-02 0. -1.
        1   -1    0    0  501    0  0.00000000000E+00  0.00000000000E+00 -0.17938628478E+04  0.17938628478E+04  0.50400001928E-02 0.  1.
    10030    2    1    2    0    0  0.00000000000E+00  0.00000000000E+00 -0.27738033777E+03  0.33103453578E+04  0.32987037661E+04 0.  0.
        3    1    3    3  502    0  0.73035681343E+03 -0.41551073177E+03 -0.15629562628E+04  0.17745147316E+04  0.10100000352E+00 0.  1.
       -3    1    3    3    0  502 -0.73035681343E+03  0.41551073177E+03  0.12855759250E+04  0.15358306262E+04  0.10100000352E+00 0. -1.
</event>
<event>
 5   0  0.2279938E-08  0.3300310E+04  0.7818609E-02  0.8162816E-01
        1   -1    0    0  501    0  0.00000000000E+00  0.00000000000E+00  0.18307422347E+04  0.18307422347E+04  0.50400001928E-02 0.  1.
       -1   -1    0    0    0  501  0.00000000000E+00  0.00000000000E+00 -0.14873813517E+04  0.14873813517E+04  0.50400001928E-02 0. -1.
    10030    2    1    2    0    0  0.00000000000E+00  0.00000000000E+00  0.34336088298E+03  0.33181235864E+04  0.33003102034E+04 0.  0.
        3    1    3    3  502    0 -0.65356899062E+03  0.95502645975E+03 -0.10110122959E+04  0.15366762304E+04  0.10100000352E+00 0. -1.
       -3    1    3    3    0  502  0.65356899062E+03 -0.95502645975E+03  0.13543731789E+04  0.17814473560E+04  0.10100000352E+00 0.  1.
</event>
<event>
 5   0  0.6706080E-08  0.3300294E+04  0.7818609E-02  0.8162821E-01
       -2   -1    0    0    0  501  0.00000000000E+00  0.00000000000E+00  0.13677701780E+04  0.13677701781E+04  0.25500000920E-02 0.  1.
        2   -1    0    0  501    0  0.00000000000E+00  0.00000000000E+00 -0.19908208038E+04  0.19908208038E+04  0.25500000920E-02 0. -1.
    10030    2    1    2    0    0  0.00000000000E+00  0.00000000000E+00 -0.62305062579E+03  0.33585909819E+04  0.33002941235E+04 0.  0.
        4    1    3    3  502    0 -0.10853191513E+04 -0.27739870275E+03  0.92153596325E+03  0.14505508764E+04  0.12699999809E+01 0.  1.
       -4    1    3    3    0  502  0.10853191513E+04  0.27739870275E+03 -0.15445865890E+04  0.19080401055E+04  0.12699999809E+01 0. -1.
</event>
<event>
 5   0  0.2309822E-08  0.3295270E+04  0.7818609E-02  0.8164100E-01
        1   -1    0    0  501    0  0.00000000000E+00  0.00000000000E+00  0.20274307990E+04  0.20274307990E+04  0.50400001928E-02 0.  1.
       -1   -1    0    0    0  501  0.00000000000E+00  0.00000000000E+00 -0.13389856498E+04  0.13389856498E+04  0.50400001928E-02 0. -1.
    10030    2    1    2    0    0  0.00000000000E+00  0.00000000000E+00  0.68844514914E+03  0.33664164488E+04  0.32952697891E+04 0.  0.
        4    1    3    3  502    0 -0.12043243402E+04 -0.67404319446E+03  0.12636357802E+04  0.18712317714E+04  0.12699999809E+01 0.  1.
       -4    1    3    3    0  502  0.12043243402E+04  0.67404319446E+03 -0.57519063109E+03  0.14951846774E+04  0.12699999809E+01 0. -1.
</event>
<event>
 5   0  0.6603516E-08  0.3297924E+04  0.7818609E-02  0.8163424E-01
       -2   -1    0    0    0  501  0.00000000000E+00  0.00000000000E+00  0.11199168372E+04  0.11199168372E+04  0.25500000920E-02 0.  1.
        2   -1    0    0  501    0  0.00000000000E+00  0.00000000000E+00 -0.24279258474E+04  0.24279258474E+04  0.25500000920E-02 0. -1.
    10030    2    1    2    0    0  0.00000000000E+00  0.00000000000E+00 -0.13080090102E+04  0.35478426846E+04  0.32979236110E+04 0.  0.
        1    1    3    3  502    0  0.44934773402E+03  0.54441606281E+03 -0.22571606623E+04  0.23649686025E+04  0.50400001928E-02 0. -1.
       -1    1    3    3    0  502 -0.44934773402E+03 -0.54441606281E+03  0.94915165206E+03  0.11828740821E+04  0.50400001928E-02 0.  1.
</event>
<event>
 5   0  0.2383270E-08  0.3300193E+04  0.7818609E-02  0.8162846E-01
        1   -1    0    0  501    0  0.00000000000E+00  0.00000000000E+00  0.12330226993E+04  0.12330226993E+04  0.50400001928E-02 0.  1.
       -1   -1    0    0    0  501  0.00000000000E+00  0.00000000000E+00 -0.22082462537E+04  0.22082462537E+04  0.50400001928E-02 0. -1.
    10030    2    1    2    0    0  0.00000000000E+00  0.00000000000E+00 -0.97522355439E+03  0.34412689531E+04  0.33001925741E+04 0.  0.
        5    1    3    3  502    0 -0.60232284331E+03  0.98087182490E+03 -0.17204791197E+04  0.20700175931E+04  0.46999998093E+01 0. -1.
       -5    1    3    3    0  502  0.60232284331E+03 -0.98087182490E+03  0.74525556533E+03  0.13712513599E+04  0.46999998093E+01 0.  1.
</event>
<event>
 5   0  0.7084130E-08  0.3299635E+04  0.7818609E-02  0.8162988E-01
        2   -1    0    0  501    0  0.00000000000E+00  0.00000000000E+00  0.17400100657E+04  0.17400100657E+04  0.25500000920E-02 0.  1.
       -2   -1    0    0    0  501  0.00000000000E+00  0.00000000000E+00 -0.15642995701E+04  0.15642995701E+04  0.25500000920E-02 0. -1.
    10030    2    1    2    0    0  0.00000000000E+00  0.00000000000E+00  0.17571049564E+03  0.33043096358E+04  0.32996345239E+04 0.  0.
        3    1    3    3  502    0  0.13151696211E+04  0.51678855412E+03 -0.76491188650E+03  0.16068079369E+04  0.10100000352E+00 0. -1.
       -3    1    3    3    0  502 -0.13151696211E+04 -0.51678855412E+03  0.94062238214E+03  0.16975016989E+04  0.10100000352E+00 0.  1.
</event>
<event>
 5   0  0.6603516E-08  0.3299408E+04  0.7818609E-02  0.8163046E-01
       -2   -1    0    0    0  501  0.00000000000E+00  0.00000000000E+00  0.18189076696E+04  0.18189076697E+04  0.25500000920E-02 0.  1.
        2   -1    0    0  501    0  0.00000000000E+00  0.00000000000E+00 -0.14962404479E+04  0.14962404479E+04  0.25500000920E-02 0. -1.
    10030    2    1    2    0    0  0.00000000000E+00  0.00000000000E+00  0.32266722174E+03  0.33151481176E+04  0.32994079629E+04 0.  0.
        1    1    3    3  502    0 -0.43549532205E+03 -0.53927185707E+03 -0.13428227145E+04  0.15111727743E+04  0.50400001928E-02 0. -1.
       -1    1    3    3    0  502  0.43549532205E+03  0.53927185707E+03  0.16654899362E+04  0.18039753432E+04  0.50400001928E-02 0.  1.
</event>
<event>
 5   0  0.2383270E-08  0.3303003E+04  0.7818609E-02  0.8162132E-01
        1   -1    0    0  501    0  0.00000000000E+00  0.00000000000E+00  0.21167427156E+04  0.21167427156E+04  0.50400001928E-02 0. -1.
       -1   -1    0    0    0  501  0.00000000000E+00  0.00000000000E+00 -0.12885163647E+04  0.12885163647E+04  0.50400001928E-02 0.  1.
    10030    2    1    2    0    0  0.00000000000E+00  0.00000000000E+00  0.82822635091E+03  0.34052590803E+04  0.33030032570E+04 0.  0.
        5    1    3    3  502    0  0.15872411126E+04 -0.38515900521E+03  0.16209975543E+03  0.16413348926E+04  0.46999998093E+01 0.  1.
       -5    1    3    3    0  502 -0.15872411126E+04  0.38515900521E+03  0.66612659548E+03  0.17639241877E+04  0.46999998093E+01 0. -1.
</event>
<event>
 5   0  0.2291682E-08  0.3299281E+04  0.7818609E-02  0.8163078E-01
        1   -1    0    0  501    0  0.00000000000E+00  0.00000000000E+00  0.21464011710E+04  0.21464011710E+04  0.50400001928E-02 0.  1.
       -1   -1    0    0    0  501  0.00000000000E+00  0.00000000000E+00 -0.12678496939E+04  0.12678496939E+04  0.50400001928E-02 0. -1.
    10030    2    1    2    0    0  0.00000000000E+00  0.00000000000E+00  0.87855147707E+03  0.34142508649E+04  0.32992811748E+04 0.  0.
        2    1    3    3  502    0 -0.11658185003E+04 -0.76345596849E+03 -0.47427562975E+03  0.14720513457E+04  0.25500000920E-02 0. -1.
       -2    1    3    3    0  502  0.11658185003E+04  0.76345596849E+03  0.13528271068E+04  0.19421995192E+04  0.25500000920E-02 0.  1.
</event>
<event>
 5   0  0.6765252E-08  0.3302843E+04  0.7818609E-02  0.8162172E-01
        2   -1    0    0  501    0  0.00000000000E+00  0.00000000000E+00  0.25154273387E+04  0.25154273387E+04  0.25500000920E-02 0. -1.
       -2   -1    0    0    0  501  0.00000000000E+00  0.00000000000E+00 -0.10841864737E+04  0.10841864737E+04  0.25500000920E-02 0.  1.
    10030    2    1    2    0    0  0.00000000000E+00  0.00000000000E+00  0.14312408650E+04  0.35996138124E+04  0.33028425916E+04 0.  0.
        2    1    3    3  502    0 -0.80189379764E+02  0.11620417428E+04 -0.56021608182E+03  0.12925221108E+04  0.25500000920E-02 0.  1.
       -2    1    3    3    0  502  0.80189379764E+02 -0.11620417428E+04  0.19914569469E+04  0.23070917016E+04  0.25500000920E-02 0. -1.
</event>
<event>
 5   0  0.6765252E-08  0.3299792E+04  0.7818609E-02  0.8162948E-01
       -2   -1    0    0    0  501  0.00000000000E+00  0.00000000000E+00  0.15394073964E+04  0.15394073964E+04  0.25500000920E-02 0.  1.
        2   -1    0    0  501    0  0.00000000000E+00  0.00000000000E+00 -0.17683151320E+04  0.17683151320E+04  0.25500000920E-02 0. -1.
    10030    2    1    2    0    0  0.00000000000E+00  0.00000000000E+00 -0.22890773556E+03  0.33077225284E+04  0.32997923531E+04 0.  0.
        2    1    3    3  502    0 -0.12039680617E+03 -0.16450382086E+04 -0.15342266696E+03  0.16565580622E+04  0.25500000920E-02 0.  1.
       -2    1    3    3    0  502  0.12039680617E+03  0.16450382086E+04 -0.75485068599E+02  0.16511644662E+04  0.25500000920E-02 0. -1.
</event>
<event>
 5   0  0.2279938E-08  0.3298457E+04  0.7818609E-02  0.8163288E-01
       -1   -1    0    0    0  501  0.00000000000E+00  0.00000000000E+00  0.11040236824E+04  0.11040236824E+04  0.50400001928E-02 0. -1.
        1   -1    0    0  501    0  0.00000000000E+00  0.00000000000E+00 -0.24636735044E+04  0.24636735044E+04  0.50400001928E-02 0.  1.
    10030    2    1    2    0    0  0.00000000000E+00  0.00000000000E+00 -0.13596498220E+04  0.35676971867E+04  0.32984565448E+04 0.  0.
        3    1    3    3  502    0  0.80760776693E+03 -0.90002743125E+03  0.53317647005E+03  0.13215736229E+04  0.10100000352E+00 0. -1.
       -3    1    3    3    0  502 -0.80760776693E+03  0.90002743125E+03 -0.18928262920E+04  0.22461235639E+04  0.10100000352E+00 0.  1.
</event>
<event>
 5   0  0.2291682E-08  0.3299700E+04  0.7818609E-02  0.8162972E-01
        1   -1    0    0  501    0  0.00000000000E+00  0.00000000000E+00  0.10145908072E+04  0.10145908072E+04  0.50400001928E-02 0.  1.
       -1   -1    0    0    0  501  0.00000000000E+00  0.00000000000E+00 -0.26828606688E+04  0.26828606688E+04  0.50400001928E-02 0. -1.
    10030    2    1    2    0    0  0.00000000000E+00  0.00000000000E+00 -0.16682698616E+04  0.36974514760E+04  0.32997004540E+04 0.  0.
        2    1    3    3  502    0 -0.58989153504E+03  0.49685332473E+02  0.89148637183E+03  0.10701348544E+04  0.25500000920E-02 0.  1.
       -2    1    3    3    0  502  0.58989153504E+03 -0.49685332473E+02 -0.25597562335E+04  0.26273166216E+04  0.25500000920E-02 0. -1.
</event>
<event>
 5   0  0.6603516E-08  0.3299626E+04  0.7818609E-02  0.8162990E-01
       -2   -1    0    0    0  501  0.00000000000E+00  0.00000000000E+00  0.15218271176E+04  0.15218271176E+04  0.25500000920E-02 0.  1.
        2   -1    0    0  501    0  0.00000000000E+00  0.00000000000E+00 -0.17885628303E+04  0.17885628303E+04  0.25500000920E-02 0. -1.
    10030    2    1    2    0    0  0.00000000000E+00  0.00000000000E+00 -0.26673571265E+03  0.33103899479E+04  0.32996262920E+04 0.  0.
        1    1    3    3  502    0  0.14327267324E+03 -0.15387406977E+04 -0.71286216453E+03  0.17018879104E+04  0.50400001928E-02 0. -1.
       -1    1    3    3    0  502 -0.14327267324E+03  0.15387406977E+04  0.44612645189E+03  0.16085020376E+04  0.50400001928E-02 0.  1.
</event>
<event>
 5   0  0.2309822E-08  0.3302657E+04  0.7818609E-02  0.8162220E-01
        1   -1    0    0  501    0  0.00000000000E+00  0.00000000000E+00  0.15030720397E+04  0.15030720397E+04  0.50400001928E-02 0.  1.
       -1   -1    0    0    0  501  0.00000000000E+00  0.00000000000E+00 -0.18142080869E+04  0.18142080869E+04  0.50400001928E-02 0. -1.
    10030    2    1    2    0    0  0.00000000000E+00  0.00000000000E+00 -0.31113604725E+03  0.33172801266E+04  0.33026567787E+04 0.  0.
        4    1    3    3  502    0 -0.62068005044E+03  0.14276894880E+04 -0.70877236095E+03  0.17105264896E+04  0.12699999809E+01 0. -1.
       -4    1    3    3    0  502  0.62068005044E+03 -0.14276894880E+04  0.39763631370E+03  0.16067536370E+04  0.12699999809E+01 0.  1.
</event>
<event>
 5   0  0.6603516E-08  0.3297897E+04  0.7818609E-02  0.8163431E-01
       -2   -1    0    0    0  501  0.00000000000E+00  0.00000000000E+00  0.18750756078E+04  0.18750756078E+04  0.25500000920E-02 0. -1.
        2   -1    0    0  501    0  0.00000000000E+00  0.00000000000E+00 -0.14500915594E+04  0.14500915594E+04  0.25500000920E-02 0.  1.
    10030    2    1    2    0    0  0.00000000000E+00  0.00000000000E+00  0.42498404837E+03  0.33251671673E+04  0.32978970949E+04 0.  0.
        1    1    3    3  502    0  0.10481523488E+04  0.10688966141E+04  0.90948813625E+03  0.17516654897E+04  0.50400001928E-02 0. -1.
       -1    1    3    3    0  502 -0.10481523488E+04 -0.10688966141E+04 -0.48450408789E+03  0.15735016775E+04  0.50400001928E-02 0.  1.
</event>
<event>
 5   0  0.2244093E-08  0.3300908E+04  0.7818609E-02  0.8162664E-01
        1   -1    0    0  501    0  0.00000000000E+00  0.00000000000E+00  0.19512446732E+04  0.19512446732E+04  0.50400001928E-02 0. -1.
       -1   -1    0    0    0  501  0.00000000000E+00  0.00000000000E+00 -0.13960314307E+04  0.13960314307E+04  0.50400001928E-02 0.  1.
    10030    2    1    2    0    0  0.00000000000E+00  0.00000000000E+00  0.55521324252E+03  0.33472761040E+04  0.33009082949E+04 0.  0.
        1    1    3    3  502    0  0.35484049671E+03  0.32575500824E+02  0.19117728183E+04  0.19446974701E+04  0.50400001928E-02 0. -1.
       -1    1    3    3    0  502 -0.35484049671E+03 -0.32575500824E+02 -0.13565595758E+04  0.14025786339E+04  0.50400001928E-02 0.  1.
</event>
<event>
 5   0  0.6706080E-08  0.3299623E+04  0.7818609E-02  0.8162991E-01
        2   -1    0    0  501    0  0.00000000000E+00  0.00000000000E+00  0.14781485797E+04  0.14781485797E+04  0.25500000920E-02 0. -1.
       -2   -1    0    0    0  501  0.00000000000E+00  0.00000000000E+00 -0.18414104289E+04  0.18414104289E+04  0.25500000920E-02 0.  1.
    10030    2    1    2    0    0  0.00000000000E+00  0.00000000000E+00 -0.36326184922E+03  0.33195590087E+04  0.32996231362E+04 0.  0.
        4    1    3    3  502    0 -0.66154908399E+03  0.26209163551E+03 -0.16790921783E+04  0.18236478202E+04  0.12699999809E+01 0.  1.
       -4    1    3    3    0  502  0.66154908399E+03 -0.26209163551E+03  0.13158303291E+04  0.14959111885E+04  0.12699999809E+01 0. -1.
</event>
<event>
 5   0  0.2200750E-08  0.3303597E+04  0.7818609E-02  0.8161981E-01
        3   -1    0    0  501    0  0.00000000000E+00  0.00000000000E+00  0.17353686480E+04  0.17353686510E+04  0.10100000352E+00 0.  1.
       -3   -1    0    0    0  501  0.00000000000E+00  0.00000000000E+00 -0.15722524202E+04  0.15722524235E+04  0.10100000352E+00 0. -1.
    10030    2    1    2    0    0  0.00000000000E+00  0.00000000000E+00  0.16311622780E+03  0.33076210745E+04  0.33035965656E+04 0.  0.
        1    1    3    3  502    0 -0.58682458782E+03  0.79618463900E+03 -0.12429913418E+04  0.15884900226E+04  0.50400001928E-02 0. -1.
       -1    1    3    3    0  502  0.58682458782E+03 -0.79618463900E+03  0.14061075696E+04  0.17191310519E+04  0.50400001928E-02 0.  1.
</event>
<event>
 5   0  0.7084130E-08  0.3300303E+04  0.7818609E-02  0.8162818E-01
        2   -1    0    0  501    0  0.00000000000E+00  0.00000000000E+00  0.15080948601E+04  0.15080948601E+04  0.25500000920E-02 0. -1.
       -2   -1    0    0    0  501  0.00000000000E+00  0.00000000000E+00 -0.18055898407E+04  0.18055898407E+04  0.25500000920E-02 0.  1.
    10030    2    1    2    0    0  0.00000000000E+00  0.00000000000E+00 -0.29749498058E+03  0.33136847007E+04  0.33003034758E+04 0.  0.
        3    1    3    3  502    0 -0.13966234014E+04 -0.60070705272E+03  0.49541031989E+03  0.15990113458E+04  0.10100000352E+00 0. -1.
       -3    1    3    3    0  502  0.13966234014E+04  0.60070705272E+03 -0.79290530047E+03  0.17146733550E+04  0.10100000352E+00 0.  1.
</event>
<event>
 5   0  0.6765252E-08  0.3300946E+04  0.7818609E-02  0.8162655E-01
        2   -1    0    0  501    0  0.00000000000E+00  0.00000000000E+00  0.21450881287E+04  0.21450881287E+04  0.25500000920E-02 0.  1.
       -2   -1    0    0    0  501  0.00000000000E+00  0.00000000000E+00 -0.12699067391E+04  0.12699067391E+04  0.25500000920E-02 0. -1.
    10030    2    1    2    0    0  0.00000000000E+00  0.00000000000E+00  0.87518138951E+03  0.34149948678E+04  0.33009464525E+04 0.  0.
        2    1    3    3  502    0 -0.61425844627E+03  0.85258637137E+02 -0.11447907745E+04  0.13019709641E+04  0.25500000920E-02 0. -1.
       -2    1    3    3    0  502  0.61425844627E+03 -0.85258637137E+02  0.20199721640E+04  0.21130239037E+04  0.25500000920E-02 0.  1.
</event>
<event>
 5   0  0.6603516E-08  0.3299504E+04  0.7818609E-02  0.8163021E-01
        2   -1    0    0  501    0  0.00000000000E+00  0.00000000000E+00  0.16236718845E+04  0.16236718845E+04  0.25500000920E-02 0. -1.
       -2   -1    0    0    0  501  0.00000000000E+00  0.00000000000E+00 -0.16762515259E+04  0.16762515259E+04  0.25500000920E-02 0.  1.
    10030    2    1    2    0    0  0.00000000000E+00  0.00000000000E+00 -0.52579641384E+02  0.32999234103E+04  0.32995044924E+04 0.  0.
        1    1    3    3  502    0 -0.10616223228E+04  0.11000245853E+04  0.59393924402E+03  0.16400792268E+04  0.50400001928E-02 0. -1.
       -1    1    3    3    0  502  0.10616223228E+04 -0.11000245853E+04 -0.64651888540E+03  0.16598441836E+04  0.50400001928E-02 0.  1.
</event>
<event>
 5   0  0.2309822E-08  0.3307377E+04  0.7818609E-02  0.8161021E-01
        1   -1    0    0  501    0  0.00000000000E+00  0.00000000000E+00  0.19251210709E+04  0.19251210709E+04  0.50400001928E-02 0.  1.
       -1   -1    0    0    0  501  0.00000000000E+00  0.00000000000E+00 -0.14205264248E+04  0.14205264248E+04  0.50400001928E-02 0. -1.
    10030    2    1    2    0    0  0.00000000000E+00  0.00000000000E+00  0.50459464608E+03  0.33456474956E+04  0.33073768168E+04 0.  0.
        4    1    3    3  502    0 -0.13612599580E+04  0.45298828901E+03 -0.57968959300E+03  0.15473424639E+04  0.12699999809E+01 0. -1.
       -4    1    3    3    0  502  0.13612599580E+04 -0.45298828901E+03  0.10842842391E+04  0.17983050318E+04  0.12699999809E+01 0.  1.
</event>
<event>
 5   0  0.6765252E-08  0.3301615E+04  0.7818609E-02  0.8162485E-01
       -2   -1    0    0    0  501  0.00000000000E+00  0.00000000000E+00  0.13181635854E+04  0.13181635854E+04  0.25500000920E-02 0.  1.
        2   -1    0    0  501    0  0.00000000000E+00  0.00000000000E+00 -0.20673950112E+04  0.20673950112E+04  0.25500000920E-02 0. -1.
    10030    2    1    2    0    0  0.00000000000E+00  0.00000000000E+00 -0.74923142584E+03  0.33855585966E+04  0.33016146476E+04 0.  0.
        2    1    3    3  502    0 -0.36410370969E+03 -0.13988391504E+04 -0.11922868619E+04  0.18737316887E+04  0.25500000920E-02 0. -1.
       -2    1    3    3    0  502  0.36410370969E+03  0.13988391504E+04  0.44305543607E+03  0.15118269079E+04  0.25500000920E-02 0.  1.
</event>
<event>
 5   0  0.2279938E-08  0.3298895E+04  0.7818609E-02  0.8163177E-01
        1   -1    0    0  501    0  0.00000000000E+00  0.00000000000E+00  0.22815710315E+04  0.22815710315E+04  0.50400001928E-02 0.  1.
       -1   -1    0    0    0  501  0.00000000000E+00  0.00000000000E+00 -0.11924576717E+04  0.11924576717E+04  0.50400001928E-02 0. -1.
    10030    2    1    2    0    0  0.00000000000E+00  0.00000000000E+00  0.10891133598E+04  0.34740287032E+04  0.32988948938E+04 0.  0.
        3    1    3    3  502    0  0.71326816809E+02  0.14699385891E+04 -0.23988472107E+03  0.14910907618E+04  0.10100000352E+00 0. -1.
       -3    1    3    3    0  502 -0.71326816809E+02 -0.14699385891E+04  0.13289980808E+04  0.19829379414E+04  0.10100000352E+00 0.  1.
</event>
<event>
 5   0  0.2309822E-08  0.3302123E+04  0.7818609E-02  0.8162355E-01
        1   -1    0    0  501    0  0.00000000000E+00  0.00000000000E+00  0.17121045571E+04  0.17121045571E+04  0.50400001928E-02 0. -1.
       -1   -1    0    0    0  501  0.00000000000E+00  0.00000000000E+00 -0.15921949846E+04  0.15921949846E+04  0.50400001928E-02 0.  1.
    10030    2    1    2    0    0  0.00000000000E+00  0.00000000000E+00  0.11990957252E+03  0.33042995417E+04  0.33021231285E+04 0.  0.
        4    1    3    3  502    0  0.65564046293E+03 -0.18611612004E+03 -0.14448645111E+04  0.15975414533E+04  0.12699999809E+01 0.  1.
       -4    1    3    3    0  502 -0.65564046293E+03  0.18611612004E+03  0.15647740836E+04  0.17067580884E+04  0.12699999809E+01 0. -1.
</event>
<event>
 5   0  0.2291682E-08  0.3298899E+04  0.7818609E-02  0.8163176E-01
       -1   -1    0    0    0  501  0.00000000000E+00  0.00000000000E+00  0.11264162558E+04  0.11264162558E+04  0.50400001928E-02 0. -1.
        1   -1    0    0  501    0  0.00000000000E+00  0.00000000000E+00 -0.24153443685E+04  0.24153443686E+04  0.50400001928E-02 0.  1.
    10030    2    1    2    0    0  0.00000000000E+00  0.00000000000E+00 -0.12889281128E+04  0.35417606244E+04  0.32988987011E+04 0.  0.
        2    1    3    3  502    0 -0.34931609015E+03 -0.79823211979E+03  0.85917269749E+03  0.12236723303E+04  0.25500000920E-02 0. -1.
       -2    1    3    3    0  502  0.34931609015E+03  0.79823211979E+03 -0.21481008102E+04  0.23180882940E+04  0.25500000920E-02 0.  1.
</event>
<event>
 5   0  0.2383270E-08  0.3300774E+04  0.7818609E-02  0.8162699E-01
       -1   -1    0    0    0  501  0.00000000000E+00  0.00000000000E+00  0.23218403417E+04  0.23218403417E+04  0.50400001928E-02 0.  1.
        1   -1    0    0  501    0  0.00000000000E+00  0.00000000000E+00 -0.11731110211E+04  0.11731110211E+04  0.50400001928E-02 0. -1.
    10030    2    1    2    0    0  0.00000000000E+00  0.00000000000E+00  0.11487293206E+04  0.34949513628E+04  0.33007735422E+04 0.  0.
        5    1    3    3  502    0  0.14521895213E+04 -0.61649495716E+01 -0.25589556050E+03  0.14745836837E+04  0.46999998093E+01 0. -1.
       -5    1    3    3    0  502 -0.14521895213E+04  0.61649495716E+01  0.14046248811E+04  0.20203676791E+04  0.46999998093E+01 0.  1.
</event>
<event>
 5   0  0.6603516E-08  0.3298872E+04  0.7818609E-02  0.8163183E-01
        2   -1    0    0  501    0  0.00000000000E+00  0.00000000000E+00  0.20851225047E+04  0.20851225047E+04  0.25500000920E-02 0.  1.
       -2   -1    0    0    0  501  0.00000000000E+00  0.00000000000E+00 -0.13047860803E+04  0.13047860803E+04  0.25500000920E-02 0. -1.
    10030    2    1    2    0    0  0.00000000000E+00  0.00000000000E+00  0.78033642438E+03  0.33899085850E+04  0.32988718192E+04 0.  0.
        1    1    3    3  502    0  0.98281452247E+03  0.12979335028E+04  0.11813053134E+03  0.16323328661E+04  0.50400001928E-02 0. -1.
       -1    1    3    3    0  502 -0.98281452247E+03 -0.12979335028E+04  0.66220589305E+03  0.17575757190E+04  0.50400001928E-02 0.  1.
</event>
<event>
 5   0  0.6706080E-08  0.3302411E+04  0.7818609E-02  0.8162282E-01
        2   -1    0    0  501    0  0.00000000000E+00  0.00000000000E+00  0.23840240236E+04  0.23840240236E+04  0.25500000920E-02 0.  1.
       -2   -1    0    0    0  501  0.00000000000E+00  0.00000000000E+00 -0.11436458986E+04  0.11436458986E+04  0.25500000920E-02 0. -1.
    10030    2    1    2    0    0  0.00000000000E+00  0.00000000000E+00  0.12403781250E+04  0.35276699222E+04  0.33024108144E+04 0.  0.
        4    1    3    3  502    0  0.39182741184E+03 -0.41028576892E+03 -0.10362656998E+04  0.11814022796E+04  0.12699999809E+01 0. -1.
       -4    1    3    3    0  502 -0.39182741184E+03  0.41028576892E+03  0.22766438247E+04  0.23462676425E+04  0.12699999809E+01 0.  1.
</event>
<event>
 5   0  0.7084130E-08  0.3299586E+04  0.7818609E-02  0.8163001E-01
       -2   -1    0    0    0  501  0.00000000000E+00  0.00000000000E+00  0.13909502119E+04  0.13909502119E+04  0.25500000920E-02 0. -1.
        2   -1    0    0  501    0  0.00000000000E+00  0.00000000000E+00 -0.19568041125E+04  0.19568041125E+04  0.25500000920E-02 0.  1.
    10030    2    1    2    0    0  0.00000000000E+00  0.00000000000E+00 -0.56585390056E+03  0.33477543244E+04  0.32995860922E+04 0.  0.
        3    1    3    3  502    0  0.35596258758E+03 -0.10146369728E+04 -0.15524401799E+04  0.18884565319E+04  0.10100000352E+00 0.  1.
       -3    1    3    3    0  502 -0.35596258758E+03  0.10146369728E+04  0.98658627935E+03  0.14592977925E+04  0.10100000352E+00 0. -1.
</event>
<event>
 5   0  0.2291682E-08  0.3300133E+04  0.7818609E-02  0.8162861E-01
        1   -1    0    0  501    0  0.00000000000E+00  0.00000000000E+00  0.18457018238E+04  0.18457018238E+04  0.50400001928E-02 0. -1.
       -1   -1    0    0    0  501  0.00000000000E+00  0.00000000000E+00 -0.14751679151E+04  0.14751679151E+04  0.50400001928E-02 0.  1.
    10030    2    1    2    0    0  0.00000000000E+00  0.00000000000E+00  0.37053390871E+03  0.33208697389E+04  0.33001333981E+04 0.  0.
        2    1    3    3  502    0  0.15215619054E+04 -0.35929987565E+03 -0.34575436029E+03  0.16011849082E+04  0.25500000920E-02 0. -1.
       -2    1    3    3    0  502 -0.15215619054E+04  0.35929987565E+03  0.71628826900E+03  0.17196848307E+04  0.25500000920E-02 0.  1.
</event>
<event>
 5   0  0.2291682E-08  0.3300668E+04  0.7818609E-02  0.8162725E-01
        1   -1    0    0  501    0  0.00000000000E+00  0.00000000000E+00  0.25802550165E+04  0.25802550166E+04  0.50400001928E-02 0.  1.
       -1   -1    0    0    0  501  0.00000000000E+00  0.00000000000E+00 -0.10555554126E+04  0.10555554126E+04  0.50400001928E-02 0. -1.
    10030    2    1    2    0    0  0.00000000000E+00  0.00000000000E+00  0.15246996040E+04  0.36358104291E+04  0.33006679013E+04 0.  0.
        2    1    3    3  502    0 -0.90613789617E+03  0.81598390962E+03 -0.46263080973E+03  0.13042020142E+04  0.25500000920E-02 0. -1.
       -2    1    3    3    0  502  0.90613789617E+03 -0.81598390962E+03  0.19873304137E+04  0.23316084150E+04  0.25500000920E-02 0.  1.
</event>
<event>
 5   0  0.2200750E-08  0.3298757E+04  0.7818609E-02  0.8163212E-01
        3   -1    0    0  501    0  0.00000000000E+00  0.00000000000E+00  0.17180752099E+04  0.17180752128E+04  0.10100000352E+00 0. -1.
       -3   -1    0    0    0  501  0.00000000000E+00  0.00000000000E+00 -0.15834285702E+04  0.15834285734E+04  0.10100000352E+00 0.  1.
    10030    2    1    2    0    0  0.00000000000E+00  0.00000000000E+00  0.13464663970E+03  0.33015037862E+04  0.32987569678E+04 0.  0.
        5    1    3    3  502    0 -0.59409183047E+02  0.15405496360E+04  0.65398943169E+03  0.16746781478E+04  0.46999998093E+01 0. -1.
       -5    1    3    3    0  502  0.59409183047E+02 -0.15405496360E+04 -0.51934279198E+03  0.16268256384E+04  0.46999998093E+01 0.  1.
</event>
<event>
 5   0  0.2200750E-08  0.3310954E+04  0.7818609E-02  0.8160114E-01
       -3   -1    0    0    0  501  0.00000000000E+00  0.00000000000E+00  0.95877839553E+03  0.95877840085E+03  0.10100000352E+00 0.  1.
        3   -1    0    0  501    0  0.00000000000E+00  0.00000000000E+00 -0.28584329353E+04  0.28584329370E+04  0.10100000352E+00 0. -1.
    10030    2    1    2    0    0  0.00000000000E+00  0.00000000000E+00 -0.18996545397E+04  0.38172113379E+04  0.33109537943E+04 0.  0.
        1    1    3    3  502    0 -0.43838880498E+03  0.58518092097E+03 -0.26621834165E+04  0.27607683709E+04  0.50400001928E-02 0. -1.
       -1    1    3    3    0  502  0.43838880498E+03 -0.58518092097E+03  0.76252887677E+03  0.10564429670E+04  0.50400001928E-02 0.  1.
</event>
<event>
 5   0  0.2309822E-08  0.3300156E+04  0.7818609E-02  0.8162856E-01
       -1   -1    0    0    0  501  0.00000000000E+00  0.00000000000E+00  0.11485715678E+04  0.11485715678E+04  0.50400001928E-02 0. -1.
        1   -1    0    0  501    0  0.00000000000E+00  0.00000000000E+00 -0.23705591451E+04  0.23705591451E+04  0.50400001928E-02 0.  1.
    10030    2    1    2    0    0  0.00000000000E+00  0.00000000000E+00 -0.12219875773E+04  0.35191307129E+04  0.33001556532E+04 0.  0.
        4    1    3    3  502    0  0.91019291367E+03 -0.65607053874E+03  0.67919436459E+03  0.13115587252E+04  0.12699999809E+01 0. -1.
       -4    1    3    3    0  502 -0.91019291367E+03  0.65607053874E+03 -0.19011819419E+04  0.22075719877E+04  0.12699999809E+01 0.  1.
</event>
<event>
 5   0  0.2244093E-08  0.3301032E+04  0.7818609E-02  0.8162633E-01
        1   -1    0    0  501    0  0.00000000000E+00  0.00000000000E+00  0.11912212249E+04  0.11912212249E+04  0.50400001928E-02 0.  1.
       -1   -1    0    0    0  501  0.00000000000E+00  0.00000000000E+00 -0.22868999803E+04  0.22868999803E+04  0.50400001928E-02 0. -1.
    10030    2    1    2    0    0  0.00000000000E+00  0.00000000000E+00 -0.10956787554E+04  0.34781212052E+04  0.33010324420E+04 0.  0.
        1    1    3    3  502    0 -0.54110391662E+03  0.14417236161E+04  0.78033159442E+02  0.15418980536E+04  0.50400001928E-02 0.  1.
       -1    1    3    3    0  502  0.54110391662E+03 -0.14417236161E+04 -0.11737119148E+04  0.19362231516E+04  0.50400001928E-02 0. -1.
</event>
<event>
 5   0  0.6706080E-08  0.3300854E+04  0.7818609E-02  0.8162678E-01
        2   -1    0    0  501    0  0.00000000000E+00  0.00000000000E+00  0.10504233609E+04  0.10504233609E+04  0.25500000920E-02 0. -1.
       -2   -1    0    0    0  501  0.00000000000E+00  0.00000000000E+00 -0.25931540186E+04  0.25931540187E+04  0.25500000920E-02 0.  1.
    10030    2    1    2    0    0  0.00000000000E+00  0.00000000000E+00 -0.15427306578E+04  0.36435773795E+04  0.33008541680E+04 0.  0.
        4    1    3    3  502    0  0.18261106954E+03 -0.14570074750E+04 -0.16030475546E+04  0.21739320734E+04  0.12699999809E+01 0.  1.
       -4    1    3    3    0  502 -0.18261106954E+03  0.14570074750E+04  0.60316896824E+02  0.14696453061E+04  0.12699999809E+01 0. -1.
</event>
<event>
 5   0  0.6821287E-08  0.3303899E+04  0.7818609E-02  0.8161904E-01
        2   -1    0    0  501    0  0.00000000000E+00  0.00000000000E+00  0.11750309074E+04  0.11750309074E+04  0.25500000920E-02 0. -1.
       -2   -1    0    0    0  501  0.00000000000E+00  0.00000000000E+00 -0.23224389963E+04  0.23224389963E+04  0.25500000920E-02 0.  1.
    10030    2    1    2    0    0  0.00000000000E+00  0.00000000000E+00 -0.11474080889E+04  0.34974699037E+04  0.33038992728E+04 0.  0.
        5    1    3    3  502    0 -0.47091887045E+03 -0.15794980093E+04 -0.45612460218E+03  0.17101608949E+04  0.46999998093E+01 0. -1.
       -5    1    3    3    0  502  0.47091887045E+03  0.15794980093E+04 -0.69128348674E+03  0.17873090088E+04  0.46999998093E+01 0.  1.
</event>
<event>
 5   0  0.2383270E-08  0.3304055E+04  0.7818609E-02  0.8161864E-01
        1   -1    0    0  501    0  0.00000000000E+00  0.00000000000E+00  0.14916194884E+04  0.14916194884E+04  0.50400001928E-02 0. -1.
       -1   -1    0    0    0  501  0.00000000000E+00  0.00000000000E+00 -0.18296862370E+04  0.18296862370E+04  0.50400001928E-02 0.  1.
    10030    2    1    2    0    0  0.00000000000E+00  0.00000000000E+00 -0.33806674858E+03  0.33213057254E+04  0.33040554770E+04 0.  0.
        5    1    3    3  502    0 -0.30346318890E+03  0.63187174397E+03  0.13347118765E+04  0.15075906909E+04  0.46999998093E+01 0. -1.
       -5    1    3    3    0  502  0.30346318890E+03 -0.63187174397E+03 -0.16727786251E+04  0.18137150345E+04  0.46999998093E+01 0.  1.
</event>
<event>
 5   0  0.6603516E-08  0.3301872E+04  0.7818609E-02  0.8162419E-01
        2   -1    0    0  501    0  0.00000000000E+00  0.00000000000E+00  0.18125098812E+04  0.18125098812E+04  0.25500000920E-02 0.  1.
       -2   -1    0    0    0  501  0.00000000000E+00  0.00000000000E+00 -0.15037650489E+04  0.15037650489E+04  0.25500000920E-02 0. -1.
    10030    2    1    2    0    0  0.00000000000E+00  0.00000000000E+00  0.30874483232E+03  0.33162749301E+04  0.33018715966E+04 0.  0.
        1    1    3    3  502    0  0.24029146550E+03 -0.30277531247E+02  0.17945706597E+04  0.18108397417E+04  0.50400001928E-02 0.  1.
       -1    1    3    3    0  502 -0.24029146550E+03  0.30277531247E+02 -0.14858258274E+04  0.15054351885E+04  0.50400001928E-02 0. -1.
</event>
<event>
 5   0  0.6765252E-08  0.3299819E+04  0.7818609E-02  0.8162941E-01
        2   -1    0    0  501    0  0.00000000000E+00  0.00000000000E+00  0.23295301450E+04  0.23295301450E+04  0.25500000920E-02 0. -1.
       -2   -1    0    0    0  501  0.00000000000E+00  0.00000000000E+00 -0.11685624753E+04  0.11685624753E+04  0.25500000920E-02 0.  1.
    10030    2    1    2    0    0  0.00000000000E+00  0.00000000000E+00  0.11609676697E+04  0.34980926203E+04  0.32998190935E+04 0.  0.
        2    1    3    3  502    0 -0.10568928584E+04  0.64732770686E+03 -0.57405944523E+03  0.13658696573E+04  0.25500000920E-02 0.  1.
       -2    1    3    3    0  502  0.10568928584E+04 -0.64732770686E+03  0.17350271149E+04  0.21322229630E+04  0.25500000920E-02 0. -1.
</event>
<event>
 5   0  0.6765252E-08  0.3301881E+04  0.7818609E-02  0.8162417E-01
        2   -1    0    0  501    0  0.00000000000E+00  0.00000000000E+00  0.25832606048E+04  0.25832606048E+04  0.25500000920E-02 0. -1.
       -2   -1    0    0    0  501  0.00000000000E+00  0.00000000000E+00 -0.10551024989E+04  0.10551024989E+04  0.25500000920E-02 0.  1.
    10030    2    1    2    0    0  0.00000000000E+00  0.00000000000E+00  0.15281581059E+04  0.36383631037E+04  0.33018811120E+04 0.  0.
        2    1    3    3  502    0 -0.11138777153E+04 -0.10565433532E+04  0.14330706772E+04  0.21001664190E+04  0.25500000920E-02 0. -1.
       -2    1    3    3    0  502  0.11138777153E+04  0.10565433532E+04  0.95087428734E+02  0.15381966847E+04  0.25500000920E-02 0.  1.
</event>
<event>
 5   0  0.2309822E-08  0.3300337E+04  0.7818609E-02  0.8162810E-01
        1   -1    0    0  501    0  0.00000000000E+00  0.00000000000E+00  0.19809258602E+04  0.19809258602E+04  0.50400001928E-02 0. -1.
       -1   -1    0    0    0  501  0.00000000000E+00  0.00000000000E+00 -0.13746381009E+04  0.13746381009E+04  0.50400001928E-02 0.  1.
    10030    2    1    2    0    0  0.00000000000E+00  0.00000000000E+00  0.60628775933E+03  0.33555639611E+04  0.33003370509E+04 0.  0.
        4    1    3    3  502    0  0.36140341963E+03  0.14183728483E+04 -0.47161827559E+03  0.15377969239E+04  0.12699999809E+01 0.  1.
       -4    1    3    3    0  502 -0.36140341963E+03 -0.14183728483E+04  0.10779060349E+04  0.18177670372E+04  0.12699999809E+01 0. -1.
</event>
<event>
 5   0  0.2244093E-08  0.3300094E+04  0.7818609E-02  0.8162871E-01
        1   -1    0    0  501    0  0.00000000000E+00  0.00000000000E+00  0.11128713685E+04  0.11128713685E+04  0.50400001928E-02 0.  1.
       -1   -1    0    0    0  501  0.00000000000E+00  0.00000000000E+00 -0.24465140204E+04  0.24465140204E+04  0.50400001928E-02 0. -1.
    10030    2    1    2    0    0  0.00000000000E+00  0.00000000000E+00 -0.13336426519E+04  0.35593853890E+04  0.33000941841E+04 0.  0.
        1    1    3    3  502    0  0.82096061059E+03  0.64737908518E+03 -0.20436707329E+04  0.22955753241E+04  0.50400001928E-02 0. -1.
       -1    1    3    3    0  502 -0.82096061059E+03 -0.64737908518E+03  0.71002808103E+03  0.12638100648E+04  0.50400001928E-02 0.  1.
</event>
<event>
 5   0  0.6821287E-08  0.3299966E+04  0.7818609E-02  0.8162904E-01
       -2   -1    0    0    0  501  0.00000000000E+00  0.00000000000E+00  0.87542037392E+03  0.87542037392E+03  0.25500000920E-02 0. -1.
        2   -1    0    0  501    0  0.00000000000E+00  0.00000000000E+00 -0.31098708899E+04  0.31098708899E+04  0.25500000920E-02 0.  1.
    10030    2    1    2    0    0  0.00000000000E+00  0.00000000000E+00 -0.22344505160E+04  0.39852912639E+04  0.32999662649E+04 0.  0.
        5    1    3    3  502    0  0.12757111423E+02 -0.15791102639E+04 -0.16947298301E+04  0.23164376220E+04  0.46999998093E+01 0. -1.
       -5    1    3    3    0  502 -0.12757111423E+02  0.15791102639E+04 -0.53972068588E+03  0.16688536419E+04  0.46999998093E+01 0.  1.
</event>
<event>
 5   0  0.2383270E-08  0.3300369E+04  0.7818609E-02  0.8162802E-01
       -1   -1    0    0    0  501  0.00000000000E+00  0.00000000000E+00  0.14203823201E+04  0.14203823201E+04  0.50400001928E-02 0. -1.
        1   -1    0    0  501    0  0.00000000000E+00  0.00000000000E+00 -0.19171657871E+04  0.19171657871E+04  0.50400001928E-02 0.  1.
    10030    2    1    2    0    0  0.00000000000E+00  0.00000000000E+00 -0.49678346697E+03  0.33375481072E+04  0.33003686999E+04 0.  0.
        5    1    3    3  502    0  0.22716710442E+03 -0.95169245258E+03  0.10953978373E+04  0.14687552313E+04  0.46999998093E+01 0. -1.
       -5    1    3    3    0  502 -0.22716710442E+03  0.95169245258E+03 -0.15921813042E+04  0.18687928759E+04  0.46999998093E+01 0.  1.
</event>
<event>
 5   0  0.6765252E-08  0.3299771E+04  0.7818609E-02  0.8162954E-01
        2   -1    0    0  501    0  0.00000000000E+00  0.00000000000E+00  0.16446143782E+04  0.16446143782E+04  0.25500000920E-02 0.  1.
       -2   -1    0    0    0  501  0.00000000000E+00  0.00000000000E+00 -0.16551733187E+04  0.16551733187E+04  0.25500000920E-02 0. -1.
    10030    2    1    2    0    0  0.00000000000E+00  0.00000000000E+00 -0.10558940516E+02  0.32997876968E+04  0.32997708031E+04 0.  0.
        2    1    3    3  502    0  0.51278068011E+03 -0.91157878582E+03 -0.12812961635E+04  0.16539769549E+04  0.25500000920E-02 0. -1.
       -2    1    3    3    0  502 -0.51278068011E+03  0.91157878582E+03  0.12707372230E+04  0.16458107420E+04  0.25500000920E-02 0.  1.
</event>
<event>
 5   0  0.6706080E-08  0.3308669E+04  0.7818609E-02  0.8160693E-01
        2   -1    0    0  501    0  0.00000000000E+00  0.00000000000E+00  0.17129815760E+04  0.17129815760E+04  0.25500000920E-02 0.  1.
       -2   -1    0    0    0  501  0.00000000000E+00  0.00000000000E+00 -0.15976948781E+04  0.15976948781E+04  0.25500000920E-02 0. -1.
    10030    2    1    2    0    0  0.00000000000E+00  0.00000000000E+00  0.11528669789E+03  0.33106764541E+04  0.33086685481E+04 0.  0.
        4    1    3    3  502    0 -0.49190277907E+03 -0.35487094778E+03 -0.14824198415E+04  0.16017090663E+04  0.12699999809E+01 0. -1.
       -4    1    3    3    0  502  0.49190277907E+03  0.35487094778E+03  0.15977065394E+04  0.17089673878E+04  0.12699999809E+01 0.  1.
</event>
<event>
 5   0  0.2309822E-08  0.3300353E+04  0.7818609E-02  0.8162806E-01
       -1   -1    0    0    0  501  0.00000000000E+00  0.00000000000E+00  0.14406015390E+04  0.14406015391E+04  0.50400001928E-02 0. -1.
        1   -1    0    0  501    0  0.00000000000E+00  0.00000000000E+00 -0.18902395065E+04  0.18902395065E+04  0.50400001928E-02 0.  1.
    10030    2    1    2    0    0  0.00000000000E+00  0.00000000000E+00 -0.44963796748E+03  0.33308410456E+04  0.33003526735E+04 0.  0.
        4    1    3    3  502    0  0.20853266108E+03  0.11489500818E+04 -0.14015696900E+04  0.18242728332E+04  0.12699999809E+01 0.  1.
       -4    1    3    3    0  502 -0.20853266108E+03 -0.11489500818E+04  0.95193172254E+03  0.15065682124E+04  0.12699999809E+01 0. -1.
</event>
<event>
 5   0  0.6821287E-08  0.3299408E+04  0.7818609E-02  0.8163046E-01
       -2   -1    0    0    0  501  0.00000000000E+00  0.00000000000E+00  0.92265319881E+03  0.92265319881E+03  0.25500000920E-02 0.  1.
        2   -1    0    0  501    0  0.00000000000E+00  0.00000000000E+00 -0.29496710750E+04  0.29496710750E+04  0.25500000920E-02 0. -1.
    10030    2    1    2    0    0  0.00000000000E+00  0.00000000000E+00 -0.20270178762E+04  0.38723242738E+04  0.32994081001E+04 0.  0.
        5    1    3    3  502    0 -0.14590015322E+03  0.15425419796E+04 -0.34878934962E+03  0.15882061308E+04  0.46999998093E+01 0.  1.
       -5    1    3    3    0  502  0.14590015322E+03 -0.15425419796E+04 -0.16782285266E+04  0.22841181430E+04  0.46999998093E+01 0. -1.
</event>
<event>
 5   0  0.7084130E-08  0.3300730E+04  0.7818609E-02  0.8162710E-01
       -2   -1    0    0    0  501  0.00000000000E+00  0.00000000000E+00  0.16956011012E+04  0.16956011012E+04  0.25500000920E-02 0.  1.
        2   -1    0    0  501    0  0.00000000000E+00  0.00000000000E+00 -0.16063358519E+04  0.16063358519E+04  0.25500000920E-02 0. -1.
    10030    2    1    2    0    0  0.00000000000E+00  0.00000000000E+00  0.89265249315E+02  0.33019369531E+04  0.33007301250E+04 0.  0.
        3    1    3    3  502    0  0.53910959477E+02 -0.12603223313E+04 -0.10198927469E+04  0.16221898766E+04  0.10100000352E+00 0. -1.
       -3    1    3    3    0  502 -0.53910959477E+02  0.12603223313E+04  0.11091579963E+04  0.16797470765E+04  0.10100000352E+00 0.  1.
</event>
<event>
 5   0  0.6706080E-08  0.3298527E+04  0.7818609E-02  0.8163270E-01
        2   -1    0    0  501    0  0.00000000000E+00  0.00000000000E+00  0.11741719935E+04  0.11741719935E+04  0.25500000920E-02 0. -1.
       -2   -1    0    0    0  501  0.00000000000E+00  0.00000000000E+00 -0.23165857159E+04  0.23165857159E+04  0.25500000920E-02 0.  1.
    10030    2    1    2    0    0  0.00000000000E+00  0.00000000000E+00 -0.11424137225E+04  0.34907577094E+04  0.32985269852E+04 0.  0.
        4    1    3    3  502    0  0.26533062994E+03 -0.11334628597E+04 -0.18075950946E+04  0.21500093108E+04  0.12699999809E+01 0.  1.
       -4    1    3    3    0  502 -0.26533062994E+03  0.11334628597E+04  0.66518137214E+03  0.13407483986E+04  0.12699999809E+01 0. -1.
</event>
<event>
 5   0  0.2291682E-08  0.3304090E+04  0.7818609E-02  0.8161856E-01
       -1   -1    0    0    0  501  0.00000000000E+00  0.00000000000E+00  0.19359564159E+04  0.19359564159E+04  0.50400001928E-02 0. -1.
        1   -1    0    0  501    0  0.00000000000E+00  0.00000000000E+00 -0.14097692702E+04  0.14097692702E+04  0.50400001928E-02 0.  1.
    10030    2    1    2    0    0  0.00000000000E+00  0.00000000000E+00  0.52618714568E+03  0.33457256861E+04  0.33040895046E+04 0.  0.
        2    1    3    3  502    0  0.51742907003E+03  0.36173367725E+03 -0.12827968697E+04  0.14297384043E+04  0.25500000920E-02 0.  1.
       -2    1    3    3    0  502 -0.51742907003E+03 -0.36173367725E+03  0.18089840154E+04  0.19159872817E+04  0.25500000920E-02 0. -1.
</event>
<event>
 5   0  0.7084130E-08  0.3300226E+04  0.7818609E-02  0.8162838E-01
       -2   -1    0    0    0  501  0.00000000000E+00  0.00000000000E+00  0.10738414226E+04  0.10738414226E+04  0.25500000920E-02 0.  1.
        2   -1    0    0  501    0  0.00000000000E+00  0.00000000000E+00 -0.25356376825E+04  0.25356376825E+04  0.25500000920E-02 0. -1.
    10030    2    1    2    0    0  0.00000000000E+00  0.00000000000E+00 -0.14617962599E+04  0.36094791051E+04  0.33002259172E+04 0.  0.
        3    1    3    3  502    0  0.13277170033E+04  0.95577692032E+03 -0.49497466495E+03  0.17091933453E+04  0.10100000352E+00 0.  1.
       -3    1    3    3    0  502 -0.13277170033E+04 -0.95577692032E+03 -0.96682159490E+03  0.19002857598E+04  0.10100000352E+00 0. -1.
</event>
<event>
 5   0  0.2383270E-08  0.3309611E+04  0.7818609E-02  0.8160454E-01
        1   -1    0    0  501    0  0.00000000000E+00  0.00000000000E+00  0.24951866977E+04  0.24951866977E+04  0.50400001928E-02 0.  1.
       -1   -1    0    0    0  501  0.00000000000E+00  0.00000000000E+00 -0.10974656429E+04  0.10974656429E+04  0.50400001928E-02 0. -1.
    10030    2    1    2    0    0  0.00000000000E+00  0.00000000000E+00  0.13977210547E+04  0.35926523406E+04  0.33096112602E+04 0.  0.
        5    1    3    3  502    0  0.83470125996E+03  0.52563801006E+03 -0.74342800703E+03  0.12352039518E+04  0.46999998093E+01 0. -1.
       -5    1    3    3    0  502 -0.83470125996E+03 -0.52563801006E+03  0.21411490618E+04  0.23574483888E+04  0.46999998093E+01 0.  1.
</event>
<event>
 5   0  0.6706080E-08  0.3297760E+04  0.7818609E-02  0.8163466E-01
       -2   -1    0    0    0  501  0.00000000000E+00  0.00000000000E+00  0.20110803989E+04  0.20110803989E+04  0.25500000920E-02 0. -1.
        2   -1    0    0  501    0  0.00000000000E+00  0.00000000000E+00 -0.13519124661E+04  0.13519124661E+04  0.25500000920E-02 0.  1.
    10030    2    1    2    0    0  0.00000000000E+00  0.00000000000E+00  0.65916793284E+03  0.33629928650E+04  0.32977596405E+04 0.  0.
        4    1    3    3  502    0 -0.26102824540E+03  0.50399020246E+03 -0.12491547806E+04  0.13720536242E+04  0.12699999809E+01 0.  1.
       -4    1    3    3    0  502  0.26102824540E+03 -0.50399020246E+03  0.19083227134E+04  0.19909392408E+04  0.12699999809E+01 0. -1.
</event>
<event>
 5   0  0.2244093E-08  0.3299917E+04  0.7818609E-02  0.8162917E-01
        1   -1    0    0  501    0  0.00000000000E+00  0.00000000000E+00  0.94570393279E+03  0.94570393280E+03  0.50400001928E-02 0. -1.
       -1   -1    0    0    0  501  0.00000000000E+00  0.00000000000E+00 -0.28786624789E+04  0.28786624789E+04  0.50400001928E-02 0.  1.
    10030    2    1    2    0    0  0.00000000000E+00  0.00000000000E+00 -0.19329585461E+04  0.38243664117E+04  0.32999166217E+04 0.  0.
        1    1    3    3  502    0 -0.16384342780E+04  0.33490858547E+02 -0.74423713190E+03  0.17998548357E+04  0.50400001928E-02 0.  1.
       -1    1    3    3    0  502  0.16384342780E+04 -0.33490858547E+02 -0.11887214142E+04  0.20245115760E+04  0.50400001928E-02 0. -1.
</event>
<event>
 5   0  0.6821287E-08  0.3299329E+04  0.7818609E-02  0.8163066E-01
        2   -1    0    0  501    0  0.00000000000E+00  0.00000000000E+00  0.27078765127E+04  0.27078765127E+04  0.25500000920E-02 0.  1.
       -2   -1    0    0    0  501  0.00000000000E+00  0.00000000000E+00 -0.10049915179E+04  0.10049915179E+04  0.25500000920E-02 0. -1.
    10030    2    1    2    0    0  0.00000000000E+00  0.00000000000E+00  0.17028849949E+04  0.37128680306E+04  0.32993289783E+04 0.  0.
        5    1    3    3  502    0 -0.13922184922E+04  0.81370624722E+03  0.12428614479E+04  0.20359560053E+04  0.46999998093E+01 0.  1.
       -5    1    3    3    0  502  0.13922184922E+04 -0.81370624722E+03  0.46002354694E+03  0.16769120253E+04  0.46999998093E+01 0. -1.
</event>
<event>
 5   0  0.2383270E-08  0.3300283E+04  0.7818609E-02  0.8162823E-01
        1   -1    0    0  501    0  0.00000000000E+00  0.00000000000E+00  0.24014766355E+04  0.24014766355E+04  0.50400001928E-02 0. -1.
       -1   -1    0    0    0  501  0.00000000000E+00  0.00000000000E+00 -0.11338716879E+04  0.11338716879E+04  0.50400001928E-02 0.  1.
    10030    2    1    2    0    0  0.00000000000E+00  0.00000000000E+00  0.12676049475E+04  0.35353483234E+04  0.33002826341E+04 0.  0.
        5    1    3    3  502    0  0.52975022474E+03  0.28955326625E+02 -0.10400100833E+04  0.11675259204E+04  0.46999998093E+01 0.  1.
       -5    1    3    3    0  502 -0.52975022474E+03 -0.28955326625E+02  0.23076150308E+04  0.23678224030E+04  0.46999998093E+01 0. -1.
</event>
<event>
 5   0  0.2383270E-08  0.3298930E+04  0.7818609E-02  0.8163168E-01
       -1   -1    0    0    0  501  0.00000000000E+00  0.00000000000E+00  0.18649097233E+04  0.18649097233E+04  0.50400001928E-02 0.  1.
        1   -1    0    0  501    0  0.00000000000E+00  0.00000000000E+00 -0.14589093556E+04  0.14589093556E+04  0.50400001928E-02 0. -1.
    10030    2    1    2    0    0  0.00000000000E+00  0.00000000000E+00  0.40600036772E+03  0.33238190789E+04  0.32989296704E+04 0.  0.
        5    1    3    3  502    0  0.53573842342E+03  0.38786263980E+03  0.17254462448E+04  0.18478744328E+04  0.46999998093E+01 0.  1.
       -5    1    3    3    0  502 -0.53573842342E+03 -0.38786263980E+03 -0.13194458771E+04  0.14759446461E+04  0.46999998093E+01 0. -1.
</event>
<event>
 5   0  0.6821287E-08  0.3303486E+04  0.7818609E-02  0.8162009E-01
       -2   -1    0    0    0  501  0.00000000000E+00  0.00000000000E+00  0.19376056121E+04  0.19376056121E+04  0.25500000920E-02 0. -1.
        2   -1    0    0  501    0  0.00000000000E+00  0.00000000000E+00 -0.14080546998E+04  0.14080546998E+04  0.25500000920E-02 0.  1.
    10030    2    1    2    0    0  0.00000000000E+00  0.00000000000E+00  0.52955091229E+03  0.33456603118E+04  0.33034858488E+04 0.  0.
        5    1    3    3  502    0  0.10705957073E+04 -0.12559437149E+04  0.19561887971E+03  0.16618840572E+04  0.46999998093E+01 0. -1.
       -5    1    3    3    0  502 -0.10705957073E+04  0.12559437149E+04  0.33393203258E+03  0.16837762547E+04  0.46999998093E+01 0.  1.
</event>
<event>
 5   0  0.2309822E-08  0.3299948E+04  0.7818609E-02  0.8162909E-01
       -1   -1    0    0    0  501  0.00000000000E+00  0.00000000000E+00  0.22697606697E+04  0.22697606697E+04  0.50400001928E-02 0.  1.
        1   -1    0    0  501    0  0.00000000000E+00  0.00000000000E+00 -0.11994279149E+04  0.11994279149E+04  0.50400001928E-02 0. -1.
    10030    2    1    2    0    0  0.00000000000E+00  0.00000000000E+00  0.10703327548E+04  0.34691885846E+04  0.32999480646E+04 0.  0.
        4    1    3    3  502    0 -0.14996607465E+04  0.64490813398E+03  0.28302464472E+03  0.16568021663E+04  0.12699999809E+01 0. -1.
       -4    1    3    3    0  502  0.14996607465E+04 -0.64490813398E+03  0.78730811006E+03  0.18123864182E+04  0.12699999809E+01 0.  1.
</event>
<event>
 5   0  0.2309822E-08  0.3298950E+04  0.7818609E-02  0.8163162E-01
       -1   -1    0    0    0  501  0.00000000000E+00  0.00000000000E+00  0.21043243495E+04  0.21043243496E+04  0.50400001928E-02 0. -1.
        1   -1    0    0  501    0  0.00000000000E+00  0.00000000000E+00 -0.12929416504E+04  0.12929416504E+04  0.50400001928E-02 0.  1.
    10030    2    1    2    0    0  0.00000000000E+00  0.00000000000E+00  0.81138269914E+03  0.33972660000E+04  0.32989504983E+04 0.  0.
        4    1    3    3  502    0  0.21283699289E+03 -0.14842087351E+04  0.11136320128E+04  0.18677133152E+04  0.12699999809E+01 0. -1.
       -4    1    3    3    0  502 -0.21283699289E+03  0.14842087351E+04 -0.30224931363E+03  0.15295526848E+04  0.12699999809E+01 0.  1.
</event>
<event>
 5   0  0.2383270E-08  0.3299873E+04  0.7818609E-02  0.8162928E-01
       -1   -1    0    0    0  501  0.00000000000E+00  0.00000000000E+00  0.18038555998E+04  0.18038555998E+04  0.50400001928E-02 0. -1.
        1   -1    0    0  501    0  0.00000000000E+00  0.00000000000E+00 -0.15091512182E+04  0.15091512182E+04  0.50400001928E-02 0.  1.
    10030    2    1    2    0    0  0.00000000000E+00  0.00000000000E+00  0.29470438157E+03  0.33130068181E+04  0.32998732558E+04 0.  0.
        5    1    3    3  502    0 -0.13712854788E+04 -0.31765855467E+03 -0.71685125592E+03  0.15796292713E+04  0.46999998093E+01 0.  1.
       -5    1    3    3    0  502  0.13712854788E+04  0.31765855467E+03  0.10115556375E+04  0.17333775467E+04  0.46999998093E+01 0. -1.
</event>
<event>
 5   0  0.2309822E-08  0.3300116E+04  0.7818609E-02  0.8162866E-01
       -1   -1    0    0    0  501  0.00000000000E+00  0.00000000000E+00  0.33044837281E+04  0.33044837281E+04  0.50400001928E-02 0.  1.
        1   -1    0    0  501    0  0.00000000000E+00  0.00000000000E+00 -0.82393861631E+03  0.82393861632E+03  0.50400001928E-02 0. -1.
    10030    2    1    2    0    0  0.00000000000E+00  0.00000000000E+00  0.24805451118E+04  0.41284223445E+04  0.33001162104E+04 0.  0.
        4    1    3    3  502    0  0.14254036166E+04  0.63283861338E+03  0.56609297984E+03  0.16591332242E+04  0.12699999809E+01 0. -1.
       -4    1    3    3    0  502 -0.14254036166E+04 -0.63283861338E+03  0.19144521320E+04  0.24692891203E+04  0.12699999809E+01 0.  1.
</event>
<event>
 5   0  0.2309822E-08  0.3298039E+04  0.7818609E-02  0.8163394E-01
        1   -1    0    0  501    0  0.00000000000E+00  0.00000000000E+00  0.17787390183E+04  0.17787390183E+04  0.50400001928E-02 0.  1.
       -1   -1    0    0    0  501  0.00000000000E+00  0.00000000000E+00 -0.15287605865E+04  0.15287605865E+04  0.50400001928E-02 0. -1.
    10030    2    1    2    0    0  0.00000000000E+00  0.00000000000E+00  0.24997843182E+03  0.33074996048E+04  0.32980394812E+04 0.  0.
        4    1    3    3  502    0  0.16945223521E+03  0.12485921598E+04 -0.94181393320E+03  0.15731215907E+04  0.12699999809E+01 0. -1.
       -4    1    3    3    0  502 -0.16945223521E+03 -0.12485921598E+04  0.11917923650E+04  0.17343780141E+04  0.12699999809E+01 0.  1.
</event>
<event>
 5   0  0.2309822E-08  0.3299825E+04  0.7818609E-02  0.8162940E-01
        1   -1    0    0  501    0  0.00000000000E+00  0.00000000000E+00  0.17201026257E+04  0.17201026257E+04  0.50400001928E-02 0. -1.
       -1   -1    0    0    0  501  0.00000000000E+00  0.00000000000E+00 -0.15825866348E+04  0.15825866348E+04  0.50400001928E-02 0.  1.
    10030    2    1    2    0    0  0.00000000000E+00  0.00000000000E+00  0.13751599087E+03  0.33026892605E+04  0.32998251020E+04 0.  0.
        4    1    3    3  502    0  0.13444078225E+04 -0.71034784556E+03 -0.57225348906E+03  0.16246544628E+04  0.12699999809E+01 0.  1.
       -4    1    3    3    0  502 -0.13444078225E+04  0.71034784556E+03  0.70976947993E+03  0.16780347977E+04  0.12699999809E+01 0. -1.
</event>
<event>
 5   0  0.2244093E-08  0.3295642E+04  0.7818609E-02  0.8164005E-01
       -1   -1    0    0    0  501  0.00000000000E+00  0.00000000000E+00  0.13327643075E+04  0.13327643075E+04  0.50400001928E-02 0.  1.
        1   -1    0    0  501    0  0.00000000000E+00  0.00000000000E+00 -0.20373553471E+04  0.20373553471E+04  0.50400001928E-02 0. -1.
    10030    2    1    2    0    0  0.00000000000E+00  0.00000000000E+00 -0.70459103967E+03  0.33701196546E+04  0.32956422672E+04 0.  0.
        1    1    3    3  502    0  0.13634490266E+04  0.72129865825E+03 -0.94509371672E+03  0.18089961680E+04  0.50400001928E-02 0. -1.
       -1    1    3    3    0  502 -0.13634490266E+04 -0.72129865825E+03  0.24050267705E+03  0.15611234866E+04  0.50400001928E-02 0.  1.
</event>
<event>
 5   0  0.6765252E-08  0.3300662E+04  0.7818609E-02  0.8162727E-01
        2   -1    0    0  501    0  0.00000000000E+00  0.00000000000E+00  0.23385120294E+04  0.23385120294E+04  0.25500000920E-02 0. -1.
       -2   -1    0    0    0  501  0.00000000000E+00  0.00000000000E+00 -0.11646689490E+04  0.11646689490E+04  0.25500000920E-02 0.  1.
    10030    2    1    2    0    0  0.00000000000E+00  0.00000000000E+00  0.11738430805E+04  0.35031809784E+04  0.33006619624E+04 0.  0.
        2    1    3    3  502    0 -0.59054595953E+02  0.82766606381E+03  0.21010112440E+04  0.22589304562E+04  0.25500000920E-02 0. -1.
       -2    1    3    3    0  502  0.59054595953E+02 -0.82766606381E+03 -0.92716816356E+03  0.12442505222E+04  0.25500000920E-02 0.  1.
</event>
<event>
 5   0  0.2244093E-08  0.3300967E+04  0.7818609E-02  0.8162649E-01
       -1   -1    0    0    0  501  0.00000000000E+00  0.00000000000E+00  0.13148173638E+04  0.13148173638E+04  0.50400001928E-02 0. -1.
        1   -1    0    0  501    0  0.00000000000E+00  0.00000000000E+00 -0.20718437432E+04  0.20718437432E+04  0.50400001928E-02 0.  1.
    10030    2    1    2    0    0  0.00000000000E+00  0.00000000000E+00 -0.75702637938E+03  0.33866611070E+04  0.33009672089E+04 0.  0.
        1    1    3    3  502    0 -0.69477172352E+03  0.10037479640E+04  0.76112425926E+03  0.14385853680E+04  0.50400001928E-02 0. -1.
       -1    1    3    3    0  502  0.69477172352E+03 -0.10037479640E+04 -0.15181506386E+04  0.19480757390E+04  0.50400001928E-02 0.  1.
</event>
<event>
 5   0  0.2244093E-08  0.3299413E+04  0.7818609E-02  0.8163045E-01
        1   -1    0    0  501    0  0.00000000000E+00  0.00000000000E+00  0.25844119234E+04  0.25844119234E+04  0.50400001928E-02 0.  1.
       -1   -1    0    0    0  501  0.00000000000E+00  0.00000000000E+00 -0.10530566295E+04  0.10530566295E+04  0.50400001928E-02 0. -1.
    10030    2    1    2    0    0  0.00000000000E+00  0.00000000000E+00  0.15313552939E+04  0.36374685529E+04  0.32994133474E+04 0.  0.
        1    1    3    3  502    0  0.60689433721E+03 -0.11768599387E+04  0.18504728692E+04  0.22754274086E+04  0.50400001928E-02 0.  1.
       -1    1    3    3    0  502 -0.60689433721E+03  0.11768599387E+04 -0.31911757530E+03  0.13620411443E+04  0.50400001928E-02 0. -1.
</event>
<event>
 5   0  0.6821287E-08  0.3309349E+04  0.7818609E-02  0.8160520E-01
       -2   -1    0    0    0  501  0.00000000000E+00  0.00000000000E+00  0.12698197604E+04  0.12698197604E+04  0.25500000920E-02 0. -1.
        2   -1    0    0  501    0  0.00000000000E+00  0.00000000000E+00 -0.21561709722E+04  0.21561709722E+04  0.25500000920E-02 0.  1.
    10030    2    1    2    0    0  0.00000000000E+00  0.00000000000E+00 -0.88635121180E+03  0.34259907326E+04  0.33093494874E+04 0.  0.
        5    1    3    3  502    0 -0.97763394659E+03 -0.12347621574E+04 -0.96852667567E+03  0.18489109579E+04  0.46999998093E+01 0.  1.
       -5    1    3    3    0  502  0.97763394659E+03  0.12347621574E+04  0.82175463869E+02  0.15770797747E+04  0.46999998093E+01 0. -1.
</event>
<event>
 5   0  0.6821287E-08  0.3299449E+04  0.7818609E-02  0.8163036E-01
        2   -1    0    0  501    0  0.00000000000E+00  0.00000000000E+00  0.29582012317E+04  0.29582012318E+04  0.25500000920E-02 0. -1.
       -2   -1    0    0    0  501  0.00000000000E+00  0.00000000000E+00 -0.92001542835E+03  0.92001542835E+03  0.25500000920E-02 0.  1.
    10030    2    1    2    0    0  0.00000000000E+00  0.00000000000E+00  0.20381858034E+04  0.38782166601E+04  0.32994489075E+04 0.  0.
        5    1    3    3  502    0 -0.38190045718E+03 -0.12303515484E+04 -0.19218523655E+03  0.13025245283E+04  0.46999998093E+01 0.  1.
       -5    1    3    3    0  502  0.38190045718E+03  0.12303515484E+04  0.22303710399E+04  0.25756921318E+04  0.46999998093E+01 0. -1.
</event>
<event>
 5   0  0.2279938E-08  0.3299970E+04  0.7818609E-02  0.8162903E-01
       -1   -1    0    0    0  501  0.00000000000E+00  0.00000000000E+00  0.22612521312E+04  0.22612521312E+04  0.50400001928E-02 0. -1.
        1   -1    0    0  501    0  0.00000000000E+00  0.00000000000E+00 -0.12039569155E+04  0.12039569155E+04  0.50400001928E-02 0.  1.
    10030    2    1    2    0    0  0.00000000000E+00  0.00000000000E+00  0.10572952157E+04  0.34652090468E+04  0.32999697824E+04 0.  0.
        3    1    3    3  502    0 -0.66337912397E+03  0.98744625645E+03  0.17292847780E+04  0.20989396907E+04  0.10100000352E+00 0. -1.
       -3    1    3    3    0  502  0.66337912397E+03 -0.98744625645E+03 -0.67198956222E+03  0.13662693561E+04  0.10100000352E+00 0.  1.
</event>
<event>
 5   0  0.2309822E-08  0.3300989E+04  0.7818609E-02  0.8162644E-01
        1   -1    0    0  501    0  0.00000000000E+00  0.00000000000E+00  0.26002479579E+04  0.26002479579E+04  0.50400001928E-02 0.  1.
       -1   -1    0    0    0  501  0.00000000000E+00  0.00000000000E+00 -0.10476429268E+04  0.10476429268E+04  0.50400001928E-02 0. -1.
    10030    2    1    2    0    0  0.00000000000E+00  0.00000000000E+00  0.15526050311E+04  0.36478908847E+04  0.33009885676E+04 0.  0.
        4    1    3    3  502    0  0.10675479425E+03 -0.12290508573E+04  0.19879610656E+04  0.23396481375E+04  0.12699999809E+01 0.  1.
       -4    1    3    3    0  502 -0.10675479425E+03  0.12290508573E+04 -0.43535603448E+03  0.13082427472E+04  0.12699999809E+01 0. -1.
</event>
<event>
 5   0  0.2309822E-08  0.3299968E+04  0.7818609E-02  0.8162904E-01
       -1   -1    0    0    0  501  0.00000000000E+00  0.00000000000E+00  0.18808561689E+04  0.18808561689E+04  0.50400001928E-02 0. -1.
        1   -1    0    0  501    0  0.00000000000E+00  0.00000000000E+00 -0.14474509517E+04  0.14474509517E+04  0.50400001928E-02 0.  1.
    10030    2    1    2    0    0  0.00000000000E+00  0.00000000000E+00  0.43340521717E+03  0.33283071206E+04  0.32999679100E+04 0.  0.
        4    1    3    3  502    0 -0.13207633034E+04  0.73671690697E+03  0.88212437588E+03  0.17508033961E+04  0.12699999809E+01 0. -1.
       -4    1    3    3    0  502  0.13207633034E+04 -0.73671690697E+03 -0.44871915871E+03  0.15775037245E+04  0.12699999809E+01 0.  1.
</event>
<event>
 5   0  0.6706080E-08  0.3304356E+04  0.7818609E-02  0.8161788E-01
       -2   -1    0    0    0  501  0.00000000000E+00  0.00000000000E+00  0.12145090892E+04  0.12145090892E+04  0.25500000920E-02 0. -1.
        2   -1    0    0  501    0  0.00000000000E+00  0.00000000000E+00 -0.22475683449E+04  0.22475683449E+04  0.25500000920E-02 0.  1.
    10030    2    1    2    0    0  0.00000000000E+00  0.00000000000E+00 -0.10330592557E+04  0.34620774341E+04  0.33043560241E+04 0.  0.
        4    1    3    3  502    0  0.18165756988E+02  0.11946959044E+04  0.67901507922E+03  0.13742966890E+04  0.12699999809E+01 0. -1.
       -4    1    3    3    0  502 -0.18165756988E+02 -0.11946959044E+04 -0.17120743349E+04  0.20877807451E+04  0.12699999809E+01 0.  1.
</event>
<event>
 5   0  0.2200750E-08  0.3298884E+04  0.7818609E-02  0.8163179E-01
       -3   -1    0    0    0  501  0.00000000000E+00  0.00000000000E+00  0.18972306712E+04  0.18972306739E+04  0.10100000352E+00 0.  1.
        3   -1    0    0  501    0  0.00000000000E+00  0.00000000000E+00 -0.14340160015E+04  0.14340160050E+04  0.10100000352E+00 0. -1.
    10030    2    1    2    0    0  0.00000000000E+00  0.00000000000E+00  0.46321466972E+03  0.33312466789E+04  0.32988841455E+04 0.  0.
        5    1    3    3  502    0 -0.11537279729E+04 -0.10843452753E+04  0.69846753086E+03  0.17305409251E+04  0.46999998093E+01 0. -1.
       -5    1    3    3    0  502  0.11537279729E+04  0.10843452753E+04 -0.23525286113E+03  0.16007057538E+04  0.46999998093E+01 0.  1.
</event>
<event>
 5   0  0.2279938E-08  0.3300250E+04  0.7818609E-02  0.8162832E-01
       -1   -1    0    0    0  501  0.00000000000E+00  0.00000000000E+00  0.33783779658E+04  0.33783779658E+04  0.50400001928E-02 0. -1.
        1   -1    0    0  501    0  0.00000000000E+00  0.00000000000E+00 -0.80598241548E+03  0.80598241550E+03  0.50400001928E-02 0.  1.
    10030    2    1    2    0    0  0.00000000000E+00  0.00000000000E+00  0.25723955503E+04  0.41843603813E+04  0.33002504349E+04 0.  0.
        3    1    3    3  502    0  0.16223754554E+04  0.18386637568E+03  0.98348144993E+03  0.19060809886E+04  0.10100000352E+00 0. -1.
       -3    1    3    3    0  502 -0.16223754554E+04 -0.18386637568E+03  0.15889141004E+04  0.22782793927E+04  0.10100000352E+00 0.  1.
</event>
<event>
 5   0  0.6765252E-08  0.3301897E+04  0.7818609E-02  0.8162413E-01
       -2   -1    0    0    0  501  0.00000000000E+00  0.00000000000E+00  0.11698582987E+04  0.11698582987E+04  0.25500000920E-02 0. -1.
        2   -1    0    0  501    0  0.00000000000E+00  0.00000000000E+00 -0.23298813966E+04  0.23298813966E+04  0.25500000920E-02 0.  1.
    10030    2    1    2    0    0  0.00000000000E+00  0.00000000000E+00 -0.11600230979E+04  0.34997396953E+04  0.33018970831E+04 0.  0.
        2    1    3    3  502    0 -0.90244884064E+03 -0.60644764002E+03  0.73677950268E+03  0.13134065196E+04  0.25500000920E-02 0. -1.
       -2    1    3    3    0  502  0.90244884064E+03  0.60644764002E+03 -0.18968026005E+04  0.21863331758E+04  0.25500000920E-02 0.  1.
</event>
<event>
 5   0  0.6821287E-08  0.3300778E+04  0.7818609E-02  0.8162697E-01
        2   -1    0    0  501    0  0.00000000000E+00  0.00000000000E+00  0.22907866562E+04  0.22907866562E+04  0.25500000920E-02 0.  1.
       -2   -1    0    0    0  501  0.00000000000E+00  0.00000000000E+00 -0.11890169376E+04  0.11890169376E+04  0.25500000920E-02 0. -1.
    10030    2    1    2    0    0  0.00000000000E+00  0.00000000000E+00  0.11017697186E+04  0.34798035938E+04  0.33007781717E+04 0.  0.
        5    1    3    3  502    0 -0.48064048063E+03  0.15430853656E+04  0.19864599332E+03  0.16283765037E+04  0.46999998093E+01 0. -1.
       -5    1    3    3    0  502  0.48064048063E+03 -0.15430853656E+04  0.90312372527E+03  0.18514270902E+04  0.46999998093E+01 0.  1.
</event>
<event>
 5   0  0.7084130E-08  0.3301398E+04  0.7818609E-02  0.8162540E-01
        2   -1    0    0  501    0  0.00000000000E+00  0.00000000000E+00  0.16251663985E+04  0.16251663985E+04  0.25500000920E-02 0. -1.
       -2   -1    0    0    0  501  0.00000000000E+00  0.00000000000E+00 -0.16766330803E+04  0.16766330803E+04  0.25500000920E-02 0.  1.
    10030    2    1    2    0    0  0.00000000000E+00  0.00000000000E+00 -0.51466681819E+02  0.33017994788E+04  0.33013983369E+04 0.  0.
        3    1    3    3  502    0  0.14733614056E+03 -0.85619134072E+03  0.13780169782E+04  0.16290188313E+04  0.10100000352E+00 0. -1.
       -3    1    3    3    0  502 -0.14733614056E+03  0.85619134072E+03 -0.14294836600E+04  0.16727806475E+04  0.10100000352E+00 0.  1.
</event>
<event>
 5   0  0.2291682E-08  0.3300417E+04  0.7818609E-02  0.8162789E-01
        1   -1    0    0  501    0  0.00000000000E+00  0.00000000000E+00  0.15970202708E+04  0.15970202708E+04  0.50400001928E-02 0.  1.
       -1   -1    0    0    0  501  0.00000000000E+00  0.00000000000E+00 -0.17051679802E+04  0.17051679802E+04  0.50400001928E-02 0. -1.
    10030    2    1    2    0    0  0.00000000000E+00  0.00000000000E+00 -0.10814770941E+03  0.33021882510E+04  0.33004168400E+04 0.  0.
        2    1    3    3  502    0 -0.27585579144E+03 -0.15692807141E+04 -0.48378015193E+03  0.16651671426E+04  0.25500000920E-02 0. -1.
       -2    1    3    3    0  502  0.27585579144E+03  0.15692807141E+04  0.37563244253E+03  0.16370211084E+04  0.25500000920E-02 0.  1.
</event>
<event>
 5   0  0.7084130E-08  0.3286117E+04  0.7818609E-02  0.8166437E-01
       -2   -1    0    0    0  501  0.00000000000E+00  0.00000000000E+00  0.18977396245E+04  0.18977396245E+04  0.25500000920E-02 0.  1.
        2   -1    0    0  501    0  0.00000000000E+00  0.00000000000E+00 -0.14225557717E+04  0.14225557717E+04  0.25500000920E-02 0. -1.
    10030    2    1    2    0    0  0.00000000000E+00  0.00000000000E+00  0.47518385279E+03  0.33202953962E+04  0.32861165263E+04 0.  0.
        3    1    3    3  502    0 -0.65143688038E+03 -0.12024879615E+04 -0.68253512702E+03  0.15284637766E+04  0.10100000352E+00 0. -1.
       -3    1    3    3    0  502  0.65143688038E+03  0.12024879615E+04  0.11577189798E+04  0.17918316196E+04  0.10100000352E+00 0.  1.
</event>
<event>
 5   0  0.2383270E-08  0.3299831E+04  0.7818609E-02  0.8162938E-01
        1   -1    0    0  501    0  0.00000000000E+00  0.00000000000E+00  0.14967767775E+04  0.14967767775E+04  0.50400001928E-02 0.  1.
       -1   -1    0    0    0  501  0.00000000000E+00  0.00000000000E+00 -0.18187222995E+04  0.18187222995E+04  0.50400001928E-02 0. -1.
    10030    2    1    2    0    0  0.00000000000E+00  0.00000000000E+00 -0.32194552203E+03  0.33154990770E+04  0.32998310882E+04 0.  0.
        5    1    3    3  502    0  0.65424281205E+03  0.15094752549E+04 -0.28666675170E+03  0.16699548254E+04  0.46999998093E+01 0. -1.
       -5    1    3    3    0  502 -0.65424281205E+03 -0.15094752549E+04 -0.35278770330E+02  0.16455442516E+04  0.46999998093E+01 0.  1.
</event>
<event>
 5   0  0.2279938E-08  0.3300577E+04  0.7818609E-02  0.8162749E-01
        1   -1    0    0  501    0  0.00000000000E+00  0.00000000000E+00  0.18408134588E+04  0.18408134588E+04  0.50400001928E-02 0.  1.
       -1   -1    0    0    0  501  0.00000000000E+00  0.00000000000E+00 -0.14794828759E+04  0.14794828759E+04  0.50400001928E-02 0. -1.
    10030    2    1    2    0    0  0.00000000000E+00  0.00000000000E+00  0.36133058295E+03  0.33202963347E+04  0.33005769132E+04 0.  0.
        3    1    3    3  502    0  0.50724209251E+03 -0.64196426571E+03  0.16224199555E+04  0.18170468296E+04  0.10100000352E+00 0.  1.
       -3    1    3    3    0  502 -0.50724209251E+03  0.64196426571E+03 -0.12610893725E+04  0.15032495051E+04  0.10100000352E+00 0. -1.
</event>
<event>
 5   0  0.2309822E-08  0.3303207E+04  0.7818609E-02  0.8162080E-01
       -1   -1    0    0    0  501  0.00000000000E+00  0.00000000000E+00  0.23039017359E+04  0.23039017359E+04  0.50400001928E-02 0.  1.
        1   -1    0    0  501    0  0.00000000000E+00  0.00000000000E+00 -0.11839892430E+04  0.11839892430E+04  0.50400001928E-02 0. -1.
    10030    2    1    2    0    0  0.00000000000E+00  0.00000000000E+00  0.11199124929E+04  0.34878909790E+04  0.33032074548E+04 0.  0.
        4    1    3    3  502    0 -0.45110595497E+03 -0.14788309035E+04 -0.53341212369E+02  0.15470243443E+04  0.12699999809E+01 0. -1.
       -4    1    3    3    0  502  0.45110595497E+03  0.14788309035E+04  0.11732537053E+04  0.19408666347E+04  0.12699999809E+01 0.  1.
</event>
<event>
 5   0  0.6706080E-08  0.3294284E+04  0.7818609E-02  0.8164351E-01
       -2   -1    0    0    0  501  0.00000000000E+00  0.00000000000E+00  0.19055817751E+04  0.19055817751E+04  0.25500000920E-02 0.  1.
        2   -1    0    0  501    0  0.00000000000E+00  0.00000000000E+00 -0.14237526741E+04  0.14237526741E+04  0.25500000920E-02 0. -1.
    10030    2    1    2    0    0  0.00000000000E+00  0.00000000000E+00  0.48182910099E+03  0.33293344492E+04  0.32942842306E+04 0.  0.
        4    1    3    3  502    0  0.59610731832E+03 -0.15294782454E+04  0.10372082609E+03  0.16448122266E+04  0.12699999809E+01 0.  1.
       -4    1    3    3    0  502 -0.59610731832E+03  0.15294782454E+04  0.37810827490E+03  0.16845222226E+04  0.12699999809E+01 0. -1.
</event>
<event>
 5   0  0.2309822E-08  0.3301110E+04  0.7818609E-02  0.8162613E-01
        1   -1    0    0  501    0  0.00000000000E+00  0.00000000000E+00  0.17602978147E+04  0.17602978147E+04  0.50400001928E-02 0.  1.
       -1   -1    0    0    0  501  0.00000000000E+00  0.00000000000E+00 -0.15476536797E+04  0.15476536797E+04  0.50400001928E-02 0. -1.
    10030    2    1    2    0    0  0.00000000000E+00  0.00000000000E+00  0.21264413500E+03  0.33079514944E+04  0.33011097469E+04 0.  0.
        4    1    3    3  502    0 -0.11574815329E+04 -0.11764529795E+04  0.83369021030E+02  0.16525002628E+04  0.12699999809E+01 0.  1.
       -4    1    3    3    0  502  0.11574815329E+04  0.11764529795E+04  0.12927511396E+03  0.16554512316E+04  0.12699999809E+01 0. -1.
</event>
<event>
 5   0  0.6821287E-08  0.3299920E+04  0.7818609E-02  0.8162916E-01
        2   -1    0    0  501    0  0.00000000000E+00  0.00000000000E+00  0.14283335881E+04  0.14283335881E+04  0.25500000920E-02 0. -1.
       -2   -1    0    0    0  501  0.00000000000E+00  0.00000000000E+00 -0.19059752894E+04  0.19059752894E+04  0.25500000920E-02 0.  1.
    10030    2    1    2    0    0  0.00000000000E+00  0.00000000000E+00 -0.47764170126E+03  0.33343088775E+04  0.32999203165E+04 0.  0.
        5    1    3    3  502    0  0.13194664713E+04  0.94003190617E+02 -0.12352609913E+04  0.18098950730E+04  0.46999998093E+01 0.  1.
       -5    1    3    3    0  502 -0.13194664713E+04 -0.94003190617E+02  0.75761929001E+03  0.15244138045E+04  0.46999998093E+01 0. -1.
</event>
<event>
 5   0  0.2279938E-08  0.3299491E+04  0.7818609E-02  0.8163025E-01
       -1   -1    0    0    0  501  0.00000000000E+00  0.00000000000E+00  0.14286224982E+04  0.14286224982E+04  0.50400001928E-02 0. -1.
        1   -1    0    0  501    0  0.00000000000E+00  0.00000000000E+00 -0.19050943389E+04  0.19050943389E+04  0.50400001928E-02 0.  1.
    10030    2    1    2    0    0  0.00000000000E+00  0.00000000000E+00 -0.47647184071E+03  0.33337168371E+04  0.32994912539E+04 0.  0.
        3    1    3    3  502    0  0.30422632574E+03 -0.15289163566E+04 -0.78376411490E+03  0.17448280949E+04  0.10100000352E+00 0.  1.
       -3    1    3    3    0  502 -0.30422632574E+03  0.15289163566E+04  0.30729227419E+03  0.15888887421E+04  0.10100000352E+00 0. -1.
</event>
<event>
 5   0  0.6765252E-08  0.3300473E+04  0.7818609E-02  0.8162775E-01
       -2   -1    0    0    0  501  0.00000000000E+00  0.00000000000E+00  0.19657167155E+04  0.19657167155E+04  0.25500000920E-02 0. -1.
        2   -1    0    0  501    0  0.00000000000E+00  0.00000000000E+00 -0.13853878024E+04  0.13853878024E+04  0.25500000920E-02 0.  1.
    10030    2    1    2    0    0  0.00000000000E+00  0.00000000000E+00  0.58032891312E+03  0.33511045178E+04  0.33004726695E+04 0.  0.
        2    1    3    3  502    0  0.87735619351E+03  0.17698684470E+03 -0.11175394442E+04  0.14317725528E+04  0.25500000920E-02 0.  1.
       -2    1    3    3    0  502 -0.87735619351E+03 -0.17698684470E+03  0.16978683573E+04  0.19193319651E+04  0.25500000920E-02 0. -1.
</event>
<event>
 5   0  0.6706080E-08  0.3301065E+04  0.7818609E-02  0.8162624E-01
       -2   -1    0    0    0  501  0.00000000000E+00  0.00000000000E+00  0.24002296799E+04  0.24002296799E+04  0.25500000920E-02 0.  1.
        2   -1    0    0  501    0  0.00000000000E+00  0.00000000000E+00 -0.11349985680E+04  0.11349985680E+04  0.25500000920E-02 0. -1.
    10030    2    1    2    0    0  0.00000000000E+00  0.00000000000E+00  0.12652311119E+04  0.35352282478E+04  0.33010648279E+04 0.  0.
        4    1    3    3  502    0  0.55440901619E+03 -0.11909270557E+03  0.22926361255E+04  0.23617227709E+04  0.12699999809E+01 0.  1.
       -4    1    3    3    0  502 -0.55440901619E+03  0.11909270557E+03 -0.10274050135E+04  0.11735054770E+04  0.12699999809E+01 0. -1.
</event>
<event>
 5   0  0.6765252E-08  0.3299103E+04  0.7818609E-02  0.8163124E-01
       -2   -1    0    0    0  501  0.00000000000E+00  0.00000000000E+00  0.17566239079E+04  0.17566239079E+04  0.25500000920E-02 0. -1.
        2   -1    0    0  501    0  0.00000000000E+00  0.00000000000E+00 -0.15490054246E+04  0.15490054246E+04  0.25500000920E-02 0.  1.
    10030    2    1    2    0    0  0.00000000000E+00  0.00000000000E+00  0.20761848335E+03  0.33056293325E+04  0.32991028855E+04 0.  0.
        2    1    3    3  502    0 -0.20954796179E+02 -0.14884962737E+04  0.81582016154E+03  0.16975343285E+04  0.25500000920E-02 0. -1.
       -2    1    3    3    0  502  0.20954796179E+02  0.14884962737E+04 -0.60820167820E+03  0.16080950040E+04  0.25500000920E-02 0.  1.
</event>
<event>
 5   0  0.2309822E-08  0.3300368E+04  0.7818609E-02  0.8162802E-01
       -1   -1    0    0    0  501  0.00000000000E+00  0.00000000000E+00  0.14733366916E+04  0.14733366916E+04  0.50400001928E-02 0. -1.
        1   -1    0    0  501    0  0.00000000000E+00  0.00000000000E+00 -0.18482581201E+04  0.18482581201E+04  0.50400001928E-02 0.  1.
    10030    2    1    2    0    0  0.00000000000E+00  0.00000000000E+00 -0.37492142857E+03  0.33215948117E+04  0.33003675577E+04 0.  0.
        4    1    3    3  502    0 -0.93453258797E+03 -0.11577155513E+04 -0.90580800875E+03  0.17418800812E+04  0.12699999809E+01 0.  1.
       -4    1    3    3    0  502  0.93453258797E+03  0.11577155513E+04  0.53088658018E+03  0.15797147305E+04  0.12699999809E+01 0. -1.
</event>
<event>
 5   0  0.6821287E-08  0.3300410E+04  0.7818609E-02  0.8162791E-01
       -2   -1    0    0    0  501  0.00000000000E+00  0.00000000000E+00  0.11637253374E+04  0.11637253374E+04  0.25500000920E-02 0.  1.
        2   -1    0    0  501    0  0.00000000000E+00  0.00000000000E+00 -0.23400511492E+04  0.23400511492E+04  0.25500000920E-02 0. -1.
    10030    2    1    2    0    0  0.00000000000E+00  0.00000000000E+00 -0.11763258118E+04  0.35037764866E+04  0.33004101642E+04 0.  0.
        5    1    3    3  502    0  0.74871190134E+03  0.63478085268E+03 -0.19964143436E+04  0.22246816769E+04  0.46999998093E+01 0. -1.
       -5    1    3    3    0  502 -0.74871190134E+03 -0.63478085268E+03  0.82008853181E+03  0.12790948097E+04  0.46999998093E+01 0.  1.
</event>
<event>
 5   0  0.2291682E-08  0.3295807E+04  0.7818609E-02  0.8163963E-01
        1   -1    0    0  501    0  0.00000000000E+00  0.00000000000E+00  0.21068794211E+04  0.21068794211E+04  0.50400001928E-02 0. -1.
       -1   -1    0    0    0  501  0.00000000000E+00  0.00000000000E+00 -0.12889138129E+04  0.12889138129E+04  0.50400001928E-02 0.  1.
    10030    2    1    2    0    0  0.00000000000E+00  0.00000000000E+00  0.81796560820E+03  0.33957932340E+04  0.32958070259E+04 0.  0.
        2    1    3    3  502    0 -0.59119453365E+03  0.34980014195E+03 -0.11343631819E+04  0.13261413742E+04  0.25500000920E-02 0.  1.
       -2    1    3    3    0  502  0.59119453365E+03 -0.34980014195E+03  0.19523287901E+04  0.20696518598E+04  0.25500000920E-02 0. -1.
</event>
<event>
 5   0  0.2244093E-08  0.3299787E+04  0.7818609E-02  0.8162949E-01
        1   -1    0    0  501    0  0.00000000000E+00  0.00000000000E+00  0.14163076452E+04  0.14163076452E+04  0.50400001928E-02 0. -1.
       -1   -1    0    0    0  501  0.00000000000E+00  0.00000000000E+00 -0.19220041850E+04  0.19220041850E+04  0.50400001928E-02 0.  1.
    10030    2    1    2    0    0  0.00000000000E+00  0.00000000000E+00 -0.50569653981E+03  0.33383118302E+04  0.32997874000E+04 0.  0.
        1    1    3    3  502    0  0.61805579593E+03  0.13300841448E+04 -0.10173374185E+04  0.17849628070E+04  0.50400001928E-02 0.  1.
       -1    1    3    3    0  502 -0.61805579593E+03 -0.13300841448E+04  0.51164087872E+03  0.15533490232E+04  0.50400001928E-02 0. -1.
</event>
<event>
 5   0  0.2383270E-08  0.3299667E+04  0.7818609E-02  0.8162980E-01
       -1   -1    0    0    0  501  0.00000000000E+00  0.00000000000E+00  0.20638086813E+04  0.20638086813E+04  0.50400001928E-02 0. -1.
        1   -1    0    0  501    0  0.00000000000E+00  0.00000000000E+00 -0.13188969561E+04  0.13188969561E+04  0.50400001928E-02 0.  1.
    10030    2    1    2    0    0  0.00000000000E+00  0.00000000000E+00  0.74491172516E+03  0.33827056374E+04  0.32996672486E+04 0.  0.
        5    1    3    3  502    0 -0.45623717028E+03  0.49332475995E+02 -0.12521464400E+04  0.13335962080E+04  0.46999998093E+01 0.  1.
       -5    1    3    3    0  502  0.45623717028E+03 -0.49332475995E+02  0.19970581652E+04  0.20491094294E+04  0.46999998093E+01 0. -1.
</event>
<event>
 5   0  0.2309822E-08  0.3298114E+04  0.7818609E-02  0.8163375E-01
       -1   -1    0    0    0  501  0.00000000000E+00  0.00000000000E+00  0.12048425935E+04  0.12048425935E+04  0.50400001928E-02 0.  1.
        1   -1    0    0  501    0  0.00000000000E+00  0.00000000000E+00 -0.22570493979E+04  0.22570493979E+04  0.50400001928E-02 0. -1.
    10030    2    1    2    0    0  0.00000000000E+00  0.00000000000E+00 -0.10522068044E+04  0.34618919915E+04  0.32981141583E+04 0.  0.
        4    1    3    3  502    0 -0.37381077969E+03  0.11333688580E+04 -0.17206530513E+04  0.20940171927E+04  0.12699999809E+01 0. -1.
       -4    1    3    3    0  502  0.37381077969E+03 -0.11333688580E+04  0.66844624687E+03  0.13678747988E+04  0.12699999809E+01 0.  1.
</event>
<event>
 5   0  0.6603516E-08  0.3295810E+04  0.7818609E-02  0.8163962E-01
        2   -1    0    0  501    0  0.00000000000E+00  0.00000000000E+00  0.18938787354E+04  0.18938787354E+04  0.25500000920E-02 0.  1.
       -2   -1    0    0    0  501  0.00000000000E+00  0.00000000000E+00 -0.14338775904E+04  0.14338775904E+04  0.25500000920E-02 0. -1.
    10030    2    1    2    0    0  0.00000000000E+00  0.00000000000E+00  0.46000114496E+03  0.33277563258E+04  0.32958096290E+04 0.  0.
        1    1    3    3  502    0 -0.55679458036E+03  0.89932105326E+03 -0.10458903127E+04  0.14875097000E+04  0.50400001928E-02 0. -1.
       -1    1    3    3    0  502  0.55679458036E+03 -0.89932105326E+03  0.15058914576E+04  0.18402466258E+04  0.50400001928E-02 0.  1.
</event>
<event>
 5   0  0.2244093E-08  0.3299450E+04  0.7818609E-02  0.8163035E-01
       -1   -1    0    0    0  501  0.00000000000E+00  0.00000000000E+00  0.17868596113E+04  0.17868596113E+04  0.50400001928E-02 0. -1.
        1   -1    0    0  501    0  0.00000000000E+00  0.00000000000E+00 -0.15231146456E+04  0.15231146456E+04  0.50400001928E-02 0.  1.
    10030    2    1    2    0    0  0.00000000000E+00  0.00000000000E+00  0.26374496567E+03  0.33099742569E+04  0.32994496775E+04 0.  0.
        1    1    3    3  502    0  0.20844087666E+02  0.68010092360E+03  0.16395370242E+04  0.17751206708E+04  0.50400001928E-02 0. -1.
       -1    1    3    3    0  502 -0.20844087666E+02 -0.68010092360E+03 -0.13757920585E+04  0.15348535861E+04  0.50400001928E-02 0.  1.
</event>
<event>
 5   0  0.7084130E-08  0.3297569E+04  0.7818609E-02  0.8163514E-01
       -2   -1    0    0    0  501  0.00000000000E+00  0.00000000000E+00  0.17846637040E+04  0.17846637040E+04  0.25500000920E-02 0.  1.
        2   -1    0    0  501    0  0.00000000000E+00  0.00000000000E+00 -0.15232506429E+04  0.15232506429E+04  0.25500000920E-02 0. -1.
    10030    2    1    2    0    0  0.00000000000E+00  0.00000000000E+00  0.26141306109E+03  0.33079143469E+04  0.32975688830E+04 0.  0.
        3    1    3    3  502    0 -0.12403373599E+04  0.29493787607E+03  0.11794840628E+04  0.17368384444E+04  0.10100000352E+00 0. -1.
       -3    1    3    3    0  502  0.12403373599E+04 -0.29493787607E+03 -0.91807100172E+03  0.15710759026E+04  0.10100000352E+00 0.  1.
</event>
<event>
 5   0  0.6603516E-08  0.3303390E+04  0.7818609E-02  0.8162033E-01
        2   -1    0    0  501    0  0.00000000000E+00  0.00000000000E+00  0.20185453549E+04  0.20185453549E+04  0.25500000920E-02 0.  1.
       -2   -1    0    0    0  501  0.00000000000E+00  0.00000000000E+00 -0.13515158580E+04  0.13515158580E+04  0.25500000920E-02 0. -1.
    10030    2    1    2    0    0  0.00000000000E+00  0.00000000000E+00  0.66702949690E+03  0.33700612130E+04  0.33033898089E+04 0.  0.
        1    1    3    3  502    0 -0.15475879815E+04  0.41606438288E+03 -0.74504683901E+02  0.16042721337E+04  0.50400001928E-02 0. -1.
       -1    1    3    3    0  502  0.15475879815E+04 -0.41606438288E+03  0.74153418080E+03  0.17657890792E+04  0.50400001928E-02 0.  1.
</event>
<event>
 5   0  0.6603516E-08  0.3299704E+04  0.7818609E-02  0.8162971E-01
        2   -1    0    0  501    0  0.00000000000E+00  0.00000000000E+00  0.22520943853E+04  0.22520943853E+04  0.25500000920E-02 0.  1.
       -2   -1    0    0    0  501  0.00000000000E+00  0.00000000000E+00 -0.12086578339E+04  0.12086578339E+04  0.25500000920E-02 0. -1.
    10030    2    1    2    0    0  0.00000000000E+00  0.00000000000E+00  0.10434365514E+04  0.34607522192E+04  0.32997039391E+04 0.  0.
        1    1    3    3  502    0  0.47361747486E+03  0.10664446133E+02 -0.11357896236E+04  0.12306280153E+04  0.50400001928E-02 0. -1.
       -1    1    3    3    0  502 -0.47361747486E+03 -0.10664446133E+02  0.21792261750E+04  0.22301242039E+04  0.50400001928E-02 0.  1.
</event>
<event>
 5   0  0.6821287E-08  0.3313874E+04  0.7818609E-02  0.8159374E-01
        2   -1    0    0  501    0  0.00000000000E+00  0.00000000000E+00  0.16233942592E+04  0.16233942592E+04  0.25500000920E-02 0. -1.
       -2   -1    0    0    0  501  0.00000000000E+00  0.00000000000E+00 -0.16911729824E+04  0.16911729824E+04  0.25500000920E-02 0.  1.
    10030    2    1    2    0    0  0.00000000000E+00  0.00000000000E+00 -0.67778723148E+02  0.33145672416E+04  0.33138741744E+04 0.  0.
        5    1    3    3  502    0  0.54139286154E+03  0.15615785356E+04  0.83543317656E+02  0.16548822705E+04  0.46999998093E+01 0.  1.
       -5    1    3    3    0  502 -0.54139286154E+03 -0.15615785356E+04 -0.15132204080E+03  0.16596849711E+04  0.46999998093E+01 0. -1.
</event>
<event>
 5   0  0.2383270E-08  0.3299285E+04  0.7818609E-02  0.8163077E-01
       -1   -1    0    0    0  501  0.00000000000E+00  0.00000000000E+00  0.93468754176E+03  0.93468754177E+03  0.50400001928E-02 0.  1.
        1   -1    0    0  501    0  0.00000000000E+00  0.00000000000E+00 -0.29114754521E+04  0.29114754521E+04  0.50400001928E-02 0. -1.
    10030    2    1    2    0    0  0.00000000000E+00  0.00000000000E+00 -0.19767879103E+04  0.38461629938E+04  0.32992846699E+04 0.  0.
        5    1    3    3  502    0  0.12743936609E+03 -0.13445353772E+04 -0.20926563170E+04  0.24906321936E+04  0.46999998093E+01 0. -1.
       -5    1    3    3    0  502 -0.12743936609E+03  0.13445353772E+04  0.11586840671E+03  0.13555308002E+04  0.46999998093E+01 0.  1.
</event>
<event>
 5   0  0.7084130E-08  0.3300468E+04  0.7818609E-02  0.8162776E-01
       -2   -1    0    0    0  501  0.00000000000E+00  0.00000000000E+00  0.15208306415E+04  0.15208306415E+04  0.25500000920E-02 0. -1.
        2   -1    0    0  501    0  0.00000000000E+00  0.00000000000E+00 -0.17906484275E+04  0.17906484275E+04  0.25500000920E-02 0.  1.
    10030    2    1    2    0    0  0.00000000000E+00  0.00000000000E+00 -0.26981778595E+03  0.33114790690E+04  0.33004684496E+04 0.  0.
        3    1    3    3  502    0 -0.17130914961E+03  0.15393024487E+04 -0.70643552088E+03  0.17023072603E+04  0.10100000352E+00 0. -1.
       -3    1    3    3    0  502  0.17130914961E+03 -0.15393024487E+04  0.43661773494E+03  0.16091718087E+04  0.10100000352E+00 0.  1.
</event>
<event>
 5   0  0.2291682E-08  0.3298838E+04  0.7818609E-02  0.8163191E-01
       -1   -1    0    0    0  501  0.00000000000E+00  0.00000000000E+00  0.12520492208E+04  0.12520492208E+04  0.50400001928E-02 0.  1.
        1   -1    0    0  501    0  0.00000000000E+00  0.00000000000E+00 -0.21729039679E+04  0.21729039679E+04  0.50400001928E-02 0. -1.
    10030    2    1    2    0    0  0.00000000000E+00  0.00000000000E+00 -0.92085474713E+03  0.34249531887E+04  0.32988378074E+04 0.  0.
        2    1    3    3  502    0  0.14649856839E+03  0.77873519568E+03  0.10414911503E+04  0.13086612058E+04  0.25500000920E-02 0.  1.
       -2    1    3    3    0  502 -0.14649856839E+03 -0.77873519568E+03 -0.19623458974E+04  0.21162919829E+04  0.25500000920E-02 0. -1.
</event>
<event>
 5   0  0.2244093E-08  0.3300101E+04  0.7818609E-02  0.8162870E-01
       -1   -1    0    0    0  501  0.00000000000E+00  0.00000000000E+00  0.12608688741E+04  0.12608688741E+04  0.50400001928E-02 0. -1.
        1   -1    0    0  501    0  0.00000000000E+00  0.00000000000E+00 -0.21593575405E+04  0.21593575405E+04  0.50400001928E-02 0.  1.
    10030    2    1    2    0    0  0.00000000000E+00  0.00000000000E+00 -0.89848866636E+03  0.34202264146E+04  0.33001010354E+04 0.  0.
        1    1    3    3  502    0 -0.12787617454E+03 -0.15198062995E+04  0.20336153181E+03  0.15386745649E+04  0.50400001928E-02 0. -1.
       -1    1    3    3    0  502  0.12787617454E+03  0.15198062995E+04 -0.11018501982E+04  0.18815518497E+04  0.50400001928E-02 0.  1.
</event>
<event>
 5   0  0.2279938E-08  0.3301924E+04  0.7818609E-02  0.8162406E-01
        1   -1    0    0  501    0  0.00000000000E+00  0.00000000000E+00  0.20124707197E+04  0.20124707197E+04  0.50400001928E-02 0. -1.
       -1   -1    0    0    0  501  0.00000000000E+00  0.00000000000E+00 -0.13543926800E+04  0.13543926800E+04  0.50400001928E-02 0.  1.
    10030    2    1    2    0    0  0.00000000000E+00  0.00000000000E+00  0.65807803971E+03  0.33668633996E+04  0.33019240520E+04 0.  0.
        3    1    3    3  502    0 -0.94665596551E+03  0.49551509037E+03  0.16123551658E+04  0.19342652126E+04  0.10100000352E+00 0. -1.
       -3    1    3    3    0  502  0.94665596551E+03 -0.49551509037E+03 -0.95427712611E+03  0.14325981870E+04  0.10100000352E+00 0.  1.
</event>
<event>
 5   0  0.2279938E-08  0.3299859E+04  0.7818609E-02  0.8162931E-01
       -1   -1    0    0    0  501  0.00000000000E+00  0.00000000000E+00  0.10386366958E+04  0.10386366958E+04  0.50400001928E-02 0.  1.
        1   -1    0    0  501    0  0.00000000000E+00  0.00000000000E+00 -0.26210011321E+04  0.26210011321E+04  0.50400001928E-02 0. -1.
    10030    2    1    2    0    0  0.00000000000E+00  0.00000000000E+00 -0.15823644363E+04  0.36596378279E+04  0.32998593641E+04 0.  0.
        3    1    3    3  502    0 -0.14024295233E+04  0.53602503401E+03 -0.15499850580E+04  0.21579122074E+04  0.10100000352E+00 0. -1.
       -3    1    3    3    0  502  0.14024295233E+04 -0.53602503401E+03 -0.32379378295E+02  0.15017256205E+04  0.10100000352E+00 0.  1.
</event>
<event>
 5   0  0.6765252E-08  0.3299054E+04  0.7818609E-02  0.8163136E-01
        2   -1    0    0  501    0  0.00000000000E+00  0.00000000000E+00  0.18296576236E+04  0.18296576236E+04  0.25500000920E-02 0. -1.
       -2   -1    0    0    0  501  0.00000000000E+00  0.00000000000E+00 -0.14871304150E+04  0.14871304150E+04  0.25500000920E-02 0.  1.
    10030    2    1    2    0    0  0.00000000000E+00  0.00000000000E+00  0.34252720863E+03  0.33167880386E+04  0.32990541076E+04 0.  0.
        2    1    3    3  502    0  0.12968773365E+04 -0.15461501837E+03  0.11842225980E+04  0.17630030605E+04  0.25500000920E-02 0. -1.
       -2    1    3    3    0  502 -0.12968773365E+04  0.15461501837E+03 -0.84169538937E+03  0.15537849781E+04  0.25500000920E-02 0.  1.
</event>
<event>
 5   0  0.2383270E-08  0.3301472E+04  0.7818609E-02  0.8162521E-01
       -1   -1    0    0    0  501  0.00000000000E+00  0.00000000000E+00  0.10269024863E+04  0.10269024863E+04  0.50400001928E-02 0. -1.
        1   -1    0    0  501    0  0.00000000000E+00  0.00000000000E+00 -0.26535424522E+04  0.26535424522E+04  0.50400001928E-02 0.  1.
    10030    2    1    2    0    0  0.00000000000E+00  0.00000000000E+00 -0.16266399659E+04  0.36804449385E+04  0.33014719999E+04 0.  0.
        5    1    3    3  502    0 -0.21544589430E+03 -0.16276319791E+04 -0.10041556552E+04  0.19245657855E+04  0.46999998093E+01 0.  1.
       -5    1    3    3    0  502  0.21544589430E+03  0.16276319791E+04 -0.62248431075E+03  0.17558791530E+04  0.46999998093E+01 0. -1.
</event>
<event>
 5   0  0.6821287E-08  0.3297043E+04  0.7818609E-02  0.8163648E-01
        2   -1    0    0  501    0  0.00000000000E+00  0.00000000000E+00  0.18040589512E+04  0.18040589512E+04  0.25500000920E-02 0.  1.
       -2   -1    0    0    0  501  0.00000000000E+00  0.00000000000E+00 -0.15063939492E+04  0.15063939492E+04  0.25500000920E-02 0. -1.
    10030    2    1    2    0    0  0.00000000000E+00  0.00000000000E+00  0.29766500195E+03  0.33104529004E+04  0.32970432136E+04 0.  0.
        5    1    3    3  502    0 -0.13157400279E+04  0.91867721896E+03 -0.23014366930E+03  0.16211501634E+04  0.46999998093E+01 0.  1.
       -5    1    3    3    0  502  0.13157400279E+04 -0.91867721896E+03  0.52780867126E+03  0.16893027370E+04  0.46999998093E+01 0. -1.
</event>
<event>
 5   0  0.2291682E-08  0.3299707E+04  0.7818609E-02  0.8162970E-01
        1   -1    0    0  501    0  0.00000000000E+00  0.00000000000E+00  0.18583019851E+04  0.18583019851E+04  0.50400001928E-02 0. -1.
       -1   -1    0    0    0  501  0.00000000000E+00  0.00000000000E+00 -0.14647868959E+04  0.14647868959E+04  0.50400001928E-02 0.  1.
    10030    2    1    2    0    0  0.00000000000E+00  0.00000000000E+00  0.39351508923E+03  0.33230888811E+04  0.32997068940E+04 0.  0.
        2    1    3    3  502    0  0.66257604185E+03 -0.14224873437E+04  0.70981738970E+03  0.17223002006E+04  0.25500000920E-02 0. -1.
       -2    1    3    3    0  502 -0.66257604185E+03  0.14224873437E+04 -0.31630230047E+03  0.16007886805E+04  0.25500000920E-02 0.  1.
</event>
<event>
 5   0  0.2200750E-08  0.3299506E+04  0.7818609E-02  0.8163021E-01
        4   -1    0    0  501    0  0.00000000000E+00  0.00000000000E+00  0.16817589961E+04  0.16817594756E+04  0.12699999809E+01 0. -1.
       -4   -1    0    0    0  501  0.00000000000E+00  0.00000000000E+00 -0.16183553176E+04  0.16183558159E+04  0.12699999809E+01 0.  1.
    10030    2    1    2    0    0  0.00000000000E+00  0.00000000000E+00  0.63403678492E+02  0.33001152915E+04  0.32995061616E+04 0.  0.
        3    1    3    3  502    0  0.11335031324E+04 -0.11983800112E+04  0.58932134706E+02  0.16505808096E+04  0.10100000352E+00 0.  1.
       -3    1    3    3    0  502 -0.11335031324E+04  0.11983800112E+04  0.44715437867E+01  0.16495344819E+04  0.10100000352E+00 0. -1.
</event>
<event>
 5   0  0.2244093E-08  0.3302389E+04  0.7818609E-02  0.8162288E-01
        1   -1    0    0  501    0  0.00000000000E+00  0.00000000000E+00  0.20378647107E+04  0.20378647107E+04  0.50400001928E-02 0.  1.
       -1   -1    0    0    0  501  0.00000000000E+00  0.00000000000E+00 -0.13378920765E+04  0.13378920766E+04  0.50400001928E-02 0. -1.
    10030    2    1    2    0    0  0.00000000000E+00  0.00000000000E+00  0.69997263412E+03  0.33757567872E+04  0.33023888623E+04 0.  0.
        1    1    3    3  502    0 -0.11905605076E+04 -0.10754388833E+04  0.74909604818E+03  0.17706349153E+04  0.50400001928E-02 0. -1.
       -1    1    3    3    0  502  0.11905605076E+04  0.10754388833E+04 -0.49123414057E+02  0.16051218719E+04  0.50400001928E-02 0.  1.
</event>
<event>
 5   0  0.2291682E-08  0.3300726E+04  0.7818609E-02  0.8162711E-01
       -1   -1    0    0    0  501  0.00000000000E+00  0.00000000000E+00  0.90644743859E+03  0.90644743861E+03  0.50400001928E-02 0. -1.
        1   -1    0    0  501    0  0.00000000000E+00  0.00000000000E+00 -0.30048055726E+04  0.30048055726E+04  0.50400001928E-02 0.  1.
    10030    2    1    2    0    0  0.00000000000E+00  0.00000000000E+00 -0.20983581340E+04  0.39112530112E+04  0.33007261715E+04 0.  0.
        2    1    3    3  502    0 -0.19826466190E+03 -0.73290190598E+03  0.68721037500E+03  0.10240664917E+04  0.25500000920E-02 0. -1.
       -2    1    3    3    0  502  0.19826466190E+03  0.73290190598E+03 -0.27855685090E+04  0.28871865195E+04  0.25500000920E-02 0.  1.
</event>
<event>
 5   0  0.6603516E-08  0.3299686E+04  0.7818609E-02  0.8162975E-01
       -2   -1    0    0    0  501  0.00000000000E+00  0.00000000000E+00  0.16067740573E+04  0.16067740573E+04  0.25500000920E-02 0.  1.
        2   -1    0    0  501    0  0.00000000000E+00  0.00000000000E+00 -0.16940663884E+04  0.16940663884E+04  0.25500000920E-02 0. -1.
    10030    2    1    2    0    0  0.00000000000E+00  0.00000000000E+00 -0.87292331105E+02  0.33008404457E+04  0.32996859997E+04 0.  0.
        1    1    3    3  502    0  0.16273050796E+04 -0.27129136095E+03 -0.59810397052E+02  0.16508476938E+04  0.50400001928E-02 0. -1.
       -1    1    3    3    0  502 -0.16273050796E+04  0.27129136095E+03 -0.27481934053E+02  0.16499927519E+04  0.50400001928E-02 0.  1.
</event>
<event>
 5   0  0.6603516E-08  0.3299889E+04  0.7818609E-02  0.8162924E-01
       -2   -1    0    0    0  501  0.00000000000E+00  0.00000000000E+00  0.17260831792E+04  0.17260831792E+04  0.25500000920E-02 0.  1.
        2   -1    0    0  501    0  0.00000000000E+00  0.00000000000E+00 -0.15771647779E+04  0.15771647780E+04  0.25500000920E-02 0. -1.
    10030    2    1    2    0    0  0.00000000000E+00  0.00000000000E+00  0.14891840129E+03  0.33032479572E+04  0.32998894491E+04 0.  0.
        1    1    3    3  502    0  0.56709031986E+03 -0.43206946138E+03  0.15639393721E+04  0.17187733445E+04  0.50400001928E-02 0.  1.
       -1    1    3    3    0  502 -0.56709031986E+03  0.43206946138E+03 -0.14150209708E+04  0.15844746127E+04  0.50400001928E-02 0. -1.
</event>
<event>
 5   0  0.2200750E-08  0.3299169E+04  0.7818609E-02  0.8163107E-01
        3   -1    0    0  501    0  0.00000000000E+00  0.00000000000E+00  0.12207870804E+04  0.12207870846E+04  0.10100000352E+00 0. -1.
       -3   -1    0    0    0  501  0.00000000000E+00  0.00000000000E+00 -0.22289951637E+04  0.22289951660E+04  0.10100000352E+00 0.  1.
    10030    2    1    2    0    0  0.00000000000E+00  0.00000000000E+00 -0.10082080833E+04  0.34497822505E+04  0.32991686888E+04 0.  0.
        5    1    3    3  502    0 -0.32688411747E+03  0.14302606372E+04 -0.12925892140E+04  0.19553280244E+04  0.46999998093E+01 0.  1.
       -5    1    3    3    0  502  0.32688411747E+03 -0.14302606372E+04  0.28438113068E+03  0.14944542262E+04  0.46999998093E+01 0. -1.
</event>
<event>
 5   0  0.2309822E-08  0.3299301E+04  0.7818609E-02  0.8163073E-01
       -1   -1    0    0    0  501  0.00000000000E+00  0.00000000000E+00  0.11089587238E+04  0.11089587239E+04  0.50400001928E-02 0.  1.
        1   -1    0    0  501    0  0.00000000000E+00  0.00000000000E+00 -0.24539656201E+04  0.24539656201E+04  0.50400001928E-02 0. -1.
    10030    2    1    2    0    0  0.00000000000E+00  0.00000000000E+00 -0.13450068962E+04  0.35629243439E+04  0.32993008850E+04 0.  0.
        4    1    3    3  502    0 -0.99162722990E+03  0.39483578894E+01  0.75116927709E+03  0.12440245369E+04  0.12699999809E+01 0.  1.
       -4    1    3    3    0  502  0.99162722990E+03 -0.39483578894E+01 -0.20961761733E+04  0.23188998070E+04  0.12699999809E+01 0. -1.
</event>
<event>
 5   0  0.6821287E-08  0.3299301E+04  0.7818609E-02  0.8163073E-01
        2   -1    0    0  501    0  0.00000000000E+00  0.00000000000E+00  0.21069012035E+04  0.21069012035E+04  0.25500000920E-02 0. -1.
       -2   -1    0    0    0  501  0.00000000000E+00  0.00000000000E+00 -0.12916348826E+04  0.12916348826E+04  0.25500000920E-02 0.  1.
    10030    2    1    2    0    0  0.00000000000E+00  0.00000000000E+00  0.81526632090E+03  0.33985360860E+04  0.32993011918E+04 0.  0.
        5    1    3    3  502    0 -0.29559232637E+03  0.15349049211E+04 -0.13549915523E+03  0.15689773903E+04  0.46999998093E+01 0.  1.
       -5    1    3    3    0  502  0.29559232637E+03 -0.15349049211E+04  0.95076547613E+03  0.18295586957E+04  0.46999998093E+01 0. -1.
</event>
<event>
 5   0  0.2383270E-08  0.3299522E+04  0.7818609E-02  0.8163017E-01
       -1   -1    0    0    0  501  0.00000000000E+00  0.00000000000E+00  0.13437785505E+04  0.13437785505E+04  0.50400001928E-02 0. -1.
        1   -1    0    0  501    0  0.00000000000E+00  0.00000000000E+00 -0.20254171749E+04  0.20254171749E+04  0.50400001928E-02 0.  1.
    10030    2    1    2    0    0  0.00000000000E+00  0.00000000000E+00 -0.68163862438E+03  0.33691957254E+04  0.32995224839E+04 0.  0.
        5    1    3    3  502    0 -0.17366757096E+03  0.55524008923E+03 -0.19171918632E+04  0.20035215777E+04  0.46999998093E+01 0.  1.
       -5    1    3    3    0  502  0.17366757096E+03 -0.55524008923E+03  0.12355532388E+04  0.13656741478E+04  0.46999998093E+01 0. -1.
</event>
<event>
 5   0  0.2291682E-08  0.3298948E+04  0.7818609E-02  0.8163163E-01
        1   -1    0    0  501    0  0.00000000000E+00  0.00000000000E+00  0.22519978817E+04  0.22519978817E+04  0.50400001928E-02 0. -1.
       -1   -1    0    0    0  501  0.00000000000E+00  0.00000000000E+00 -0.12081558167E+04  0.12081558167E+04  0.50400001928E-02 0.  1.
    10030    2    1    2    0    0  0.00000000000E+00  0.00000000000E+00  0.10438420650E+04  0.34601536983E+04  0.32989479171E+04 0.  0.
        2    1    3    3  502    0 -0.12203653135E+04 -0.92611332265E+03  0.11631778593E+04  0.19235280391E+04  0.25500000920E-02 0.  1.
       -2    1    3    3    0  502  0.12203653135E+04  0.92611332265E+03 -0.11933579427E+03  0.15366256592E+04  0.25500000920E-02 0. -1.
</event>
<event>
 5   0  0.6821287E-08  0.3300571E+04  0.7818609E-02  0.8162750E-01
       -2   -1    0    0    0  501  0.00000000000E+00  0.00000000000E+00  0.16702826486E+04  0.16702826486E+04  0.25500000920E-02 0.  1.
        2   -1    0    0  501    0  0.00000000000E+00  0.00000000000E+00 -0.16305281423E+04  0.16305281423E+04  0.25500000920E-02 0. -1.
    10030    2    1    2    0    0  0.00000000000E+00  0.00000000000E+00  0.39754506279E+02  0.33008107909E+04  0.33005713833E+04 0.  0.
        5    1    3    3  502    0  0.15314981134E+04 -0.36846074797E+03 -0.47226714954E+03  0.16444780767E+04  0.46999998093E+01 0. -1.
       -5    1    3    3    0  502 -0.15314981134E+04  0.36846074797E+03  0.51202165582E+03  0.16563327142E+04  0.46999998093E+01 0.  1.
</event>
<event>
 5   0  0.6603516E-08  0.3301255E+04  0.7818609E-02  0.8162576E-01
        2   -1    0    0  501    0  0.00000000000E+00  0.00000000000E+00  0.20052406292E+04  0.20052406292E+04  0.25500000920E-02 0. -1.
       -2   -1    0    0    0  501  0.00000000000E+00  0.00000000000E+00 -0.13587250069E+04  0.13587250069E+04  0.25500000920E-02 0.  1.
    10030    2    1    2    0    0  0.00000000000E+00  0.00000000000E+00  0.64651562238E+03  0.33639656361E+04  0.33012546631E+04 0.  0.
        1    1    3    3  502    0 -0.48009460828E+03 -0.14825831282E+04 -0.23116131206E+03  0.15754298198E+04  0.50400001928E-02 0.  1.
       -1    1    3    3    0  502  0.48009460828E+03  0.14825831282E+04  0.87767693444E+03  0.17885358163E+04  0.50400001928E-02 0. -1.
</event>
<event>
 5   0  0.2291682E-08  0.3299883E+04  0.7818609E-02  0.8162925E-01
       -1   -1    0    0    0  501  0.00000000000E+00  0.00000000000E+00  0.14317828893E+04  0.14317828893E+04  0.50400001928E-02 0.  1.
        1   -1    0    0  501    0  0.00000000000E+00  0.00000000000E+00 -0.19013408403E+04  0.19013408403E+04  0.50400001928E-02 0. -1.
    10030    2    1    2    0    0  0.00000000000E+00  0.00000000000E+00 -0.46955795096E+03  0.33331237296E+04  0.32998831991E+04 0.  0.
        2    1    3    3  502    0 -0.12139443847E+04 -0.43633787426E+03 -0.12738569745E+04  0.18129432703E+04  0.25500000920E-02 0. -1.
       -2    1    3    3    0  502  0.12139443847E+04  0.43633787426E+03  0.80429902352E+03  0.15201804593E+04  0.25500000920E-02 0.  1.
</event>
<event>
 5   0  0.2383270E-08  0.3299335E+04  0.7818609E-02  0.8163065E-01
        1   -1    0    0  501    0  0.00000000000E+00  0.00000000000E+00  0.18211719937E+04  0.18211719937E+04  0.50400001928E-02 0. -1.
       -1   -1    0    0    0  501  0.00000000000E+00  0.00000000000E+00 -0.14943144003E+04  0.14943144003E+04  0.50400001928E-02 0.  1.
    10030    2    1    2    0    0  0.00000000000E+00  0.00000000000E+00  0.32685759341E+03  0.33154863940E+04  0.32993354092E+04 0.  0.
        5    1    3    3  502    0  0.14121406751E+04  0.76434448830E+03  0.54345681728E+03  0.16952083015E+04  0.46999998093E+01 0. -1.
       -5    1    3    3    0  502 -0.14121406751E+04 -0.76434448830E+03 -0.21659922387E+03  0.16202780925E+04  0.46999998093E+01 0.  1.
</event>
<event>
 5   0  0.2279938E-08  0.3303598E+04  0.7818609E-02  0.8161980E-01
        1   -1    0    0  501    0  0.00000000000E+00  0.00000000000E+00  0.11050190331E+04  0.11050190331E+04  0.50400001928E-02 0. -1.
       -1   -1    0    0    0  501  0.00000000000E+00  0.00000000000E+00 -0.24691345062E+04  0.24691345062E+04  0.50400001928E-02 0.  1.
    10030    2    1    2    0    0  0.00000000000E+00  0.00000000000E+00 -0.13641154731E+04  0.35741535392E+04  0.33035984166E+04 0.  0.
        3    1    3    3  502    0 -0.16394096629E+03 -0.16428577000E+04 -0.62707701511E+03  0.17660927654E+04  0.10100000352E+00 0.  1.
       -3    1    3    3    0  502  0.16394096629E+03  0.16428577000E+04 -0.73703845798E+03  0.18080607738E+04  0.10100000352E+00 0. -1.
</event>
<event>
 5   0  0.2279938E-08  0.3298019E+04  0.7818609E-02  0.8163400E-01
       -1   -1    0    0    0  501  0.00000000000E+00  0.00000000000E+00  0.14278603128E+04  0.14278603128E+04  0.50400001928E-02 0. -1.
        1   -1    0    0  501    0  0.00000000000E+00  0.00000000000E+00 -0.19044102714E+04  0.19044102714E+04  0.50400001928E-02 0.  1.
    10030    2    1    2    0    0  0.00000000000E+00  0.00000000000E+00 -0.47654995862E+03  0.33322705842E+04  0.32980187058E+04 0.  0.
        3    1    3    3  502    0 -0.77756992236E+03  0.14433130001E+04 -0.41749937150E+03  0.16917662769E+04  0.10100000352E+00 0.  1.
       -3    1    3    3    0  502  0.77756992236E+03 -0.14433130001E+04 -0.59050587113E+02  0.16405043073E+04  0.10100000352E+00 0. -1.
</event>
<event>
 5   0  0.2383270E-08  0.3300686E+04  0.7818609E-02  0.8162721E-01
        1   -1    0    0  501    0  0.00000000000E+00  0.00000000000E+00  0.19522714759E+04  0.19522714759E+04  0.50400001928E-02 0.  1.
       -1   -1    0    0    0  501  0.00000000000E+00  0.00000000000E+00 -0.13951093797E+04  0.13951093797E+04  0.50400001928E-02 0. -1.
    10030    2    1    2    0    0  0.00000000000E+00  0.00000000000E+00  0.55716209623E+03  0.33473808556E+04  0.33006861395E+04 0.  0.
        5    1    3    3  502    0 -0.53365234885E+03 -0.95313604997E+03  0.15331579155E+04  0.18825112067E+04  0.46999998093E+01 0.  1.
       -5    1    3    3    0  502  0.53365234885E+03  0.95313604997E+03 -0.97599581932E+03  0.14648696490E+04  0.46999998093E+01 0. -1.
</event>
<event>
 5   0  0.2309822E-08  0.3299666E+04  0.7818609E-02  0.8162980E-01
       -1   -1    0    0    0  501  0.00000000000E+00  0.00000000000E+00  0.14454256130E+04  0.14454256130E+04  0.50400001928E-02 0.  1.
        1   -1    0    0  501    0  0.00000000000E+00  0.00000000000E+00 -0.18831471700E+04  0.18831471700E+04  0.50400001928E-02 0. -1.
    10030    2    1    2    0    0  0.00000000000E+00  0.00000000000E+00 -0.43772155698E+03  0.33285727830E+04  0.32996661362E+04 0.  0.
        4    1    3    3  502    0  0.14963703454E+04  0.26611629148E+03  0.42863887093E+03  0.15791374183E+04  0.12699999809E+01 0.  1.
       -4    1    3    3    0  502 -0.14963703454E+04 -0.26611629148E+03 -0.86636042791E+03  0.17494353647E+04  0.12699999809E+01 0. -1.
</event>
<event>
 5   0  0.2383270E-08  0.3299584E+04  0.7818609E-02  0.8163001E-01
        1   -1    0    0  501    0  0.00000000000E+00  0.00000000000E+00  0.13721023068E+04  0.13721023068E+04  0.50400001928E-02 0.  1.
       -1   -1    0    0    0  501  0.00000000000E+00  0.00000000000E+00 -0.19836816047E+04  0.19836816047E+04  0.50400001928E-02 0. -1.
    10030    2    1    2    0    0  0.00000000000E+00  0.00000000000E+00 -0.61157929795E+03  0.33557839115E+04  0.32995842803E+04 0.  0.
        5    1    3    3  502    0 -0.10382659224E+04  0.23506475790E+03 -0.15876298880E+04  0.19115026334E+04  0.46999998093E+01 0. -1.
       -5    1    3    3    0  502  0.10382659224E+04 -0.23506475790E+03  0.97605059008E+03  0.14442812781E+04  0.46999998093E+01 0.  1.
</event>
<event>
 5   0  0.6706080E-08  0.3302421E+04  0.7818609E-02  0.8162280E-01
       -2   -1    0    0    0  501  0.00000000000E+00  0.00000000000E+00  0.99536396272E+03  0.99536396272E+03  0.25500000920E-02 0.  1.
        2   -1    0    0  501    0  0.00000000000E+00  0.00000000000E+00 -0.27391958446E+04  0.27391958446E+04  0.25500000920E-02 0. -1.
    10030    2    1    2    0    0  0.00000000000E+00  0.00000000000E+00 -0.17438318819E+04  0.37345598073E+04  0.33024214331E+04 0.  0.
        4    1    3    3  502    0 -0.65472835278E+03  0.12596450461E+04  0.81710932220E+02  0.14219891517E+04  0.12699999809E+01 0.  1.
       -4    1    3    3    0  502  0.65472835278E+03 -0.12596450461E+04 -0.18255428141E+04  0.23125706556E+04  0.12699999809E+01 0. -1.
</event>
<event>
 5   0  0.2383270E-08  0.3296044E+04  0.7818609E-02  0.8163903E-01
        1   -1    0    0  501    0  0.00000000000E+00  0.00000000000E+00  0.16233522612E+04  0.16233522612E+04  0.50400001928E-02 0. -1.
       -1   -1    0    0    0  501  0.00000000000E+00  0.00000000000E+00 -0.16730664315E+04  0.16730664315E+04  0.50400001928E-02 0.  1.
    10030    2    1    2    0    0  0.00000000000E+00  0.00000000000E+00 -0.49714170375E+02  0.32964186927E+04  0.32960437950E+04 0.  0.
        5    1    3    3  502    0  0.81698633493E+02  0.49249368327E+03  0.15459040558E+04  0.16245202782E+04  0.46999998093E+01 0. -1.
       -5    1    3    3    0  502 -0.81698633493E+02 -0.49249368327E+03 -0.15956182261E+04  0.16718984145E+04  0.46999998093E+01 0.  1.
</event>
<event>
 5   0  0.7084130E-08  0.3299927E+04  0.7818609E-02  0.8162914E-01
        2   -1    0    0  501    0  0.00000000000E+00  0.00000000000E+00  0.15613027385E+04  0.15613027385E+04  0.25500000920E-02 0. -1.
       -2   -1    0    0    0  501  0.00000000000E+00  0.00000000000E+00 -0.17436591424E+04  0.17436591424E+04  0.25500000920E-02 0.  1.
    10030    2    1    2    0    0  0.00000000000E+00  0.00000000000E+00 -0.18235640390E+03  0.33049618809E+04  0.32999271471E+04 0.  0.
        3    1    3    3  502    0 -0.94170803245E+03 -0.12525094057E+04 -0.60847951772E+03  0.16810238438E+04  0.10100000352E+00 0.  1.
       -3    1    3    3    0  502  0.94170803245E+03  0.12525094057E+04  0.42612311382E+03  0.16239380370E+04  0.10100000352E+00 0. -1.
</event>
<event>
 5   0  0.7084130E-08  0.3306779E+04  0.7818609E-02  0.8161173E-01
       -2   -1    0    0    0  501  0.00000000000E+00  0.00000000000E+00  0.13877355897E+04  0.13877355897E+04  0.25500000920E-02 0.  1.
        2   -1    0    0  501    0  0.00000000000E+00  0.00000000000E+00 -0.19698976113E+04  0.19698976113E+04  0.25500000920E-02 0. -1.
    10030    2    1    2    0    0  0.00000000000E+00  0.00000000000E+00 -0.58216202165E+03  0.33576332010E+04  0.33067791116E+04 0.  0.
        3    1    3    3  502    0 -0.99602203557E+03 -0.13171723500E+04 -0.37415685265E+03  0.16932206754E+04  0.10100000352E+00 0.  1.
       -3    1    3    3    0  502  0.99602203557E+03  0.13171723500E+04 -0.20800516899E+03  0.16644125256E+04  0.10100000352E+00 0. -1.
</event>
<event>
 5   0  0.2291682E-08  0.3300572E+04  0.7818609E-02  0.8162750E-01
       -1   -1    0    0    0  501  0.00000000000E+00  0.00000000000E+00  0.13918095473E+04  0.13918095473E+04  0.50400001928E-02 0.  1.
        1   -1    0    0  501    0  0.00000000000E+00  0.00000000000E+00 -0.19567652242E+04  0.19567652242E+04  0.50400001928E-02 0. -1.
    10030    2    1    2    0    0  0.00000000000E+00  0.00000000000E+00 -0.56495567681E+03  0.33485747715E+04  0.33005723873E+04 0.  0.
        2    1    3    3  502    0 -0.20686444675E+03 -0.11018967946E+04 -0.15110709667E+04  0.18815697998E+04  0.25500000920E-02 0. -1.
       -2    1    3    3    0  502  0.20686444675E+03  0.11018967946E+04  0.94611528989E+03  0.14670049717E+04  0.25500000920E-02 0.  1.
</event>
<event>
 5   0  0.6821287E-08  0.3302010E+04  0.7818609E-02  0.8162384E-01
        2   -1    0    0  501    0  0.00000000000E+00  0.00000000000E+00  0.17200044604E+04  0.17200044604E+04  0.25500000920E-02 0. -1.
       -2   -1    0    0    0  501  0.00000000000E+00  0.00000000000E+00 -0.15847738151E+04  0.15847738151E+04  0.25500000920E-02 0.  1.
    10030    2    1    2    0    0  0.00000000000E+00  0.00000000000E+00  0.13523064535E+03  0.33047782755E+04  0.33020103153E+04 0.  0.
        5    1    3    3  502    0 -0.16177979970E+04  0.26688852587E+03  0.26089918271E+03  0.16602982617E+04  0.46999998093E+01 0.  1.
       -5    1    3    3    0  502  0.16177979970E+04 -0.26688852587E+03 -0.12566853736E+03  0.16444800138E+04  0.46999998093E+01 0. -1.
</event>
<event>
 5   0  0.2383270E-08  0.3300464E+04  0.7818609E-02  0.8162777E-01
       -1   -1    0    0    0  501  0.00000000000E+00  0.00000000000E+00  0.23083614640E+04  0.23083614640E+04  0.50400001928E-02 0. -1.
        1   -1    0    0  501    0  0.00000000000E+00  0.00000000000E+00 -0.11797398103E+04  0.11797398103E+04  0.50400001928E-02 0.  1.
    10030    2    1    2    0    0  0.00000000000E+00  0.00000000000E+00  0.11286216536E+04  0.34881012743E+04  0.33004641587E+04 0.  0.
        5    1    3    3  502    0 -0.40791365906E+02  0.10643915589E+04  0.18963845052E+04  0.21750608285E+04  0.46999998093E+01 0. -1.
       -5    1    3    3    0  502  0.40791365906E+02 -0.10643915589E+04 -0.76776285157E+03  0.13130404458E+04  0.46999998093E+01 0.  1.
</event>
<event>
 5   0  0.2291682E-08  0.3299903E+04  0.7818609E-02  0.8162920E-01
        1   -1    0    0  501    0  0.00000000000E+00  0.00000000000E+00  0.21809452245E+04  0.21809452245E+04  0.50400001928E-02 0.  1.
       -1   -1    0    0    0  501  0.00000000000E+00  0.00000000000E+00 -0.12482388331E+04  0.12482388332E+04  0.50400001928E-02 0. -1.
    10030    2    1    2    0    0  0.00000000000E+00  0.00000000000E+00  0.93270639135E+03  0.34291840577E+04  0.32999033454E+04 0.  0.
        2    1    3    3  502    0  0.56426849313E+03 -0.15478610961E+04  0.37301439487E+03  0.16892047371E+04  0.25500000920E-02 0.  1.
       -2    1    3    3    0  502 -0.56426849313E+03  0.15478610961E+04  0.55969199648E+03  0.17399793206E+04  0.25500000920E-02 0. -1.
</event>
<event>
 5   0  0.6821287E-08  0.3302024E+04  0.7818609E-02  0.8162381E-01
       -2   -1    0    0    0  501  0.00000000000E+00  0.00000000000E+00  0.13653382210E+04  0.13653382210E+04  0.25500000920E-02 0.  1.
        2   -1    0    0  501    0  0.00000000000E+00  0.00000000000E+00 -0.19964584762E+04  0.19964584762E+04  0.25500000920E-02 0. -1.
    10030    2    1    2    0    0  0.00000000000E+00  0.00000000000E+00 -0.63112025520E+03  0.33617966972E+04  0.33020242666E+04 0.  0.
        5    1    3    3  502    0 -0.18125640107E+03  0.14224850392E+04 -0.11486021925E+04  0.18372878534E+04  0.46999998093E+01 0. -1.
       -5    1    3    3    0  502  0.18125640107E+03 -0.14224850392E+04  0.51748193729E+03  0.15245088439E+04  0.46999998093E+01 0.  1.
</event>
<event>
 5   0  0.6603516E-08  0.3300430E+04  0.7818609E-02  0.8162786E-01
        2   -1    0    0  501    0  0.00000000000E+00  0.00000000000E+00  0.91995554265E+03  0.91995554266E+03  0.25500000920E-02 0.  1.
       -2   -1    0    0    0  501  0.00000000000E+00  0.00000000000E+00 -0.29601532469E+04  0.29601532469E+04  0.25500000920E-02 0. -1.
    10030    2    1    2    0    0  0.00000000000E+00  0.00000000000E+00 -0.20401977043E+04  0.38801087896E+04  0.33004299033E+04 0.  0.
        1    1    3    3  502    0  0.14107623936E+04 -0.49639783076E+03 -0.18401411554E+04  0.23712403525E+04  0.50400001928E-02 0. -1.
       -1    1    3    3    0  502 -0.14107623936E+04  0.49639783076E+03 -0.20005654882E+03  0.15088684370E+04  0.50400001928E-02 0.  1.
</event>
<event>
 5   0  0.2291682E-08  0.3297906E+04  0.7818609E-02  0.8163428E-01
       -1   -1    0    0    0  501  0.00000000000E+00  0.00000000000E+00  0.18238908620E+04  0.18238908620E+04  0.50400001928E-02 0.  1.
        1   -1    0    0  501    0  0.00000000000E+00  0.00000000000E+00 -0.14907943643E+04  0.14907943643E+04  0.50400001928E-02 0. -1.
    10030    2    1    2    0    0  0.00000000000E+00  0.00000000000E+00  0.33309649771E+03  0.33146852263E+04  0.32979061346E+04 0.  0.
        2    1    3    3  502    0  0.14968321912E+04 -0.68755292568E+03  0.24316326389E+03  0.16650417434E+04  0.25500000920E-02 0. -1.
       -2    1    3    3    0  502 -0.14968321912E+04  0.68755292568E+03  0.89933233818E+02  0.16496434829E+04  0.25500000920E-02 0.  1.
</event>
<event>
 5   0  0.6603516E-08  0.3300084E+04  0.7818609E-02  0.8162874E-01
        2   -1    0    0  501    0  0.00000000000E+00  0.00000000000E+00  0.14632569620E+04  0.14632569620E+04  0.25500000920E-02 0.  1.
       -2   -1    0    0    0  501  0.00000000000E+00  0.00000000000E+00 -0.18606703666E+04  0.18606703666E+04  0.25500000920E-02 0. -1.
    10030    2    1    2    0    0  0.00000000000E+00  0.00000000000E+00 -0.39741340460E+03  0.33239273286E+04  0.33000841613E+04 0.  0.
        1    1    3    3  502    0  0.12345656193E+04  0.95249569043E+03  0.34485761743E+03  0.15969743533E+04  0.50400001928E-02 0. -1.
       -1    1    3    3    0  502 -0.12345656193E+04 -0.95249569043E+03 -0.74227102203E+03  0.17269529753E+04  0.50400001928E-02 0.  1.
</event>
<event>
 5   0  0.2309822E-08  0.3301053E+04  0.7818609E-02  0.8162628E-01
        1   -1    0    0  501    0  0.00000000000E+00  0.00000000000E+00  0.10702640100E+04  0.10702640100E+04  0.50400001928E-02 0. -1.
       -1   -1    0    0    0  501  0.00000000000E+00  0.00000000000E+00 -0.25453880837E+04  0.25453880837E+04  0.50400001928E-02 0.  1.
    10030    2    1    2    0    0  0.00000000000E+00  0.00000000000E+00 -0.14751240737E+04  0.36156520937E+04  0.33010527154E+04 0.  0.
        4    1    3    3  502    0 -0.14253130013E+04 -0.46682210101E+03 -0.14922849351E+04  0.21157400517E+04  0.12699999809E+01 0.  1.
       -4    1    3    3    0  502  0.14253130013E+04  0.46682210101E+03  0.17160861489E+02  0.14999120420E+04  0.12699999809E+01 0. -1.
</event>
<event>
 5   0  0.7084130E-08  0.3301180E+04  0.7818609E-02  0.8162595E-01
        2   -1    0    0  501    0  0.00000000000E+00  0.00000000000E+00  0.15664144000E+04  0.15664144000E+04  0.25500000920E-02 0. -1.
       -2   -1    0    0    0  501  0.00000000000E+00  0.00000000000E+00 -0.17392895345E+04  0.17392895345E+04  0.25500000920E-02 0.  1.
    10030    2    1    2    0    0  0.00000000000E+00  0.00000000000E+00 -0.17287513453E+03  0.33057039346E+04  0.33011804996E+04 0.  0.
        3    1    3    3  502    0 -0.15130746265E+04  0.19677978230E+02 -0.74663309209E+03  0.16873775607E+04  0.10100000352E+00 0.  1.
       -3    1    3    3    0  502  0.15130746265E+04 -0.19677978230E+02  0.57375795756E+03  0.16183263738E+04  0.10100000352E+00 0. -1.
</event>
<event>
 5   0  0.2309822E-08  0.3303081E+04  0.7818609E-02  0.8162112E-01
       -1   -1    0    0    0  501  0.00000000000E+00  0.00000000000E+00  0.12116044199E+04  0.12116044199E+04  0.50400001928E-02 0. -1.
        1   -1    0    0  501    0  0.00000000000E+00  0.00000000000E+00 -0.22512187374E+04  0.22512187374E+04  0.50400001928E-02 0.  1.
    10030    2    1    2    0    0  0.00000000000E+00  0.00000000000E+00 -0.10396143176E+04  0.34628231573E+04  0.33030813326E+04 0.  0.
        4    1    3    3  502    0  0.69070391294E+03 -0.10002282236E+03 -0.20890289972E+04  0.22025258737E+04  0.12699999809E+01 0.  1.
       -4    1    3    3    0  502 -0.69070391294E+03  0.10002282236E+03  0.10494146796E+04  0.12602972836E+04  0.12699999809E+01 0. -1.
</event>
<event>
 5   0  0.7084130E-08  0.3299777E+04  0.7818609E-02  0.8162952E-01
       -2   -1    0    0    0  501  0.00000000000E+00  0.00000000000E+00  0.21110878674E+04  0.21110878674E+04  0.25500000920E-02 0. -1.
        2   -1    0    0  501    0  0.00000000000E+00  0.00000000000E+00 -0.12894452998E+04  0.12894452998E+04  0.25500000920E-02 0.  1.
    10030    2    1    2    0    0  0.00000000000E+00  0.00000000000E+00  0.82164256762E+03  0.34005331672E+04  0.32997771610E+04 0.  0.
        3    1    3    3  502    0  0.13134822029E+04 -0.17317387903E+03  0.14241606071E+04  0.19451113425E+04  0.10100000352E+00 0. -1.
       -3    1    3    3    0  502 -0.13134822029E+04  0.17317387903E+03 -0.60251803946E+03  0.14554218247E+04  0.10100000352E+00 0.  1.
</event>
<event>
 5   0  0.6706080E-08  0.3301035E+04  0.7818609E-02  0.8162632E-01
       -2   -1    0    0    0  501  0.00000000000E+00  0.00000000000E+00  0.12772449569E+04  0.12772449569E+04  0.25500000920E-02 0.  1.
        2   -1    0    0  501    0  0.00000000000E+00  0.00000000000E+00 -0.21328785764E+04  0.21328785764E+04  0.25500000920E-02 0. -1.
    10030    2    1    2    0    0  0.00000000000E+00  0.00000000000E+00 -0.85563361950E+03  0.34101235332E+04  0.33010352347E+04 0.  0.
        4    1    3    3  502    0 -0.21740340028E+03 -0.10677535716E+03 -0.21144190869E+04  0.21282469084E+04  0.12699999809E+01 0. -1.
       -4    1    3    3    0  502  0.21740340028E+03  0.10677535716E+03  0.12587854674E+04  0.12818766248E+04  0.12699999809E+01 0.  1.
</event>
<event>
 5   0  0.6765252E-08  0.3297682E+04  0.7818609E-02  0.8163485E-01
       -2   -1    0    0    0  501  0.00000000000E+00  0.00000000000E+00  0.11206214551E+04  0.11206214551E+04  0.25500000920E-02 0. -1.
        2   -1    0    0  501    0  0.00000000000E+00  0.00000000000E+00 -0.24260437831E+04  0.24260437831E+04  0.25500000920E-02 0.  1.
    10030    2    1    2    0    0  0.00000000000E+00  0.00000000000E+00 -0.13054223280E+04  0.35466652383E+04  0.32976820432E+04 0.  0.
        2    1    3    3  502    0  0.11166851095E+04  0.89080636213E+03 -0.15383893268E+04  0.20993244936E+04  0.25500000920E-02 0.  1.
       -2    1    3    3    0  502 -0.11166851095E+04 -0.89080636213E+03  0.23296699878E+03  0.14473407447E+04  0.25500000920E-02 0. -1.
</event>
<event>
 5   0  0.6765252E-08  0.3299324E+04  0.7818609E-02  0.8163067E-01
        2   -1    0    0  501    0  0.00000000000E+00  0.00000000000E+00  0.19209291501E+04  0.19209291501E+04  0.25500000920E-02 0. -1.
       -2   -1    0    0    0  501  0.00000000000E+00  0.00000000000E+00 -0.14167020181E+04  0.14167020181E+04  0.25500000920E-02 0.  1.
    10030    2    1    2    0    0  0.00000000000E+00  0.00000000000E+00  0.50422713200E+03  0.33376311681E+04  0.32993236903E+04 0.  0.
        2    1    3    3  502    0 -0.14530728310E+04 -0.11207001883E+03 -0.52977962271E+03  0.15506923583E+04  0.25500000920E-02 0.  1.
       -2    1    3    3    0  502  0.14530728310E+04  0.11207001883E+03  0.10340067547E+04  0.17869388098E+04  0.25500000920E-02 0. -1.
</event>
<event>
 5   0  0.2309822E-08  0.3292266E+04  0.7818609E-02  0.8164866E-01
        1   -1    0    0  501    0  0.00000000000E+00  0.00000000000E+00  0.22714891342E+04  0.22714891342E+04  0.50400001928E-02 0. -1.
       -1   -1    0    0    0  501  0.00000000000E+00  0.00000000000E+00 -0.11929419403E+04  0.11929419403E+04  0.50400001928E-02 0.  1.
    10030    2    1    2    0    0  0.00000000000E+00  0.00000000000E+00  0.10785471939E+04  0.34644310745E+04  0.32922664869E+04 0.  0.
        4    1    3    3  502    0 -0.58244437950E+03 -0.78056960636E+02  0.21573504184E+04  0.22359554523E+04  0.12699999809E+01 0. -1.
       -4    1    3    3    0  502  0.58244437950E+03  0.78056960636E+02 -0.10788032244E+04  0.12284756222E+04  0.12699999809E+01 0.  1.
</event>
<event>
 5   0  0.6765252E-08  0.3301197E+04  0.7818609E-02  0.8162591E-01
        2   -1    0    0  501    0  0.00000000000E+00  0.00000000000E+00  0.26299800497E+04  0.26299800497E+04  0.25500000920E-02 0.  1.
       -2   -1    0    0    0  501  0.00000000000E+00  0.00000000000E+00 -0.10359301302E+04  0.10359301302E+04  0.25500000920E-02 0. -1.
    10030    2    1    2    0    0  0.00000000000E+00  0.00000000000E+00  0.15940499195E+04  0.36659101799E+04  0.33011971012E+04 0.  0.
        2    1    3    3  502    0 -0.16461312839E+04  0.18829018457E+02  0.66389320653E+03  0.17750653300E+04  0.25500000920E-02 0. -1.
       -2    1    3    3    0  502  0.16461312839E+04 -0.18829018457E+02  0.93015671296E+03  0.18908448500E+04  0.25500000920E-02 0.  1.
</event>
<event>
 5   0  0.6821287E-08  0.3288403E+04  0.7818609E-02  0.8165852E-01
       -2   -1    0    0    0  501  0.00000000000E+00  0.00000000000E+00  0.18258862067E+04  0.18258862067E+04  0.25500000920E-02 0. -1.
        2   -1    0    0  501    0  0.00000000000E+00  0.00000000000E+00 -0.14805956504E+04  0.14805956504E+04  0.25500000920E-02 0.  1.
    10030    2    1    2    0    0  0.00000000000E+00  0.00000000000E+00  0.34529055630E+03  0.33064818571E+04  0.32884033668E+04 0.  0.
        5    1    3    3  502    0 -0.12662865536E+04 -0.52411653420E+03 -0.74075252189E+03  0.15578562725E+04  0.46999998093E+01 0. -1.
       -5    1    3    3    0  502  0.12662865536E+04  0.52411653420E+03  0.10860430782E+04  0.17486255845E+04  0.46999998093E+01 0.  1.
</event>
<event>
 5   0  0.6821287E-08  0.3298727E+04  0.7818609E-02  0.8163219E-01
        2   -1    0    0  501    0  0.00000000000E+00  0.00000000000E+00  0.16708889449E+04  0.16708889449E+04  0.25500000920E-02 0.  1.
       -2   -1    0    0    0  501  0.00000000000E+00  0.00000000000E+00 -0.16281149565E+04  0.16281149565E+04  0.25500000920E-02 0. -1.
    10030    2    1    2    0    0  0.00000000000E+00  0.00000000000E+00  0.42773988433E+02  0.32990039014E+04  0.32987265918E+04 0.  0.
        5    1    3    3  502    0  0.27741899822E+03  0.10844475448E+03  0.16437612139E+04  0.16705372141E+04  0.46999998093E+01 0.  1.
       -5    1    3    3    0  502 -0.27741899822E+03 -0.10844475448E+03 -0.16009872255E+04  0.16284666873E+04  0.46999998093E+01 0. -1.
</event>
<event>
 5   0  0.7084130E-08  0.3300908E+04  0.7818609E-02  0.8162664E-01
        2   -1    0    0  501    0  0.00000000000E+00  0.00000000000E+00  0.22158945423E+04  0.22158945423E+04  0.25500000920E-02 0.  1.
       -2   -1    0    0    0  501  0.00000000000E+00  0.00000000000E+00 -0.12292999265E+04  0.12292999265E+04  0.25500000920E-02 0. -1.
    10030    2    1    2    0    0  0.00000000000E+00  0.00000000000E+00  0.98659461576E+03  0.34451944688E+04  0.33009083586E+04 0.  0.
        3    1    3    3  502    0  0.34272324519E+03 -0.15133357289E+04 -0.93742354396E+02  0.15544876617E+04  0.10100000352E+00 0.  1.
       -3    1    3    3    0  502 -0.34272324519E+03  0.15133357289E+04  0.10803369702E+04  0.18907068071E+04  0.10100000352E+00 0. -1.
</event>
<event>
 5   0  0.2383270E-08  0.3301572E+04  0.7818609E-02  0.8162496E-01
       -1   -1    0    0    0  501  0.00000000000E+00  0.00000000000E+00  0.25793295181E+04  0.25793295181E+04  0.50400001928E-02 0.  1.
        1   -1    0    0  501    0  0.00000000000E+00  0.00000000000E+00 -0.10565125792E+04  0.10565125792E+04  0.50400001928E-02 0. -1.
    10030    2    1    2    0    0  0.00000000000E+00  0.00000000000E+00  0.15228169389E+04  0.36358420973E+04  0.33015717964E+04 0.  0.
        5    1    3    3  502    0  0.16217005694E+04 -0.10162838150E+03  0.10821545620E+04  0.19522606513E+04  0.46999998093E+01 0.  1.
       -5    1    3    3    0  502 -0.16217005694E+04  0.10162838150E+03  0.44066237698E+03  0.16835814460E+04  0.46999998093E+01 0. -1.
</event>
<event>
 5   0  0.2244093E-08  0.3299575E+04  0.7818609E-02  0.8163003E-01
       -1   -1    0    0    0  501  0.00000000000E+00  0.00000000000E+00  0.18484135548E+04  0.18484135548E+04  0.50400001928E-02 0.  1.
        1   -1    0    0  501    0  0.00000000000E+00  0.00000000000E+00 -0.14725055915E+04  0.14725055915E+04  0.50400001928E-02 0. -1.
    10030    2    1    2    0    0  0.00000000000E+00  0.00000000000E+00  0.37590796331E+03  0.33209191463E+04  0.32995753029E+04 0.  0.
        1    1    3    3  502    0 -0.11389006151E+04 -0.10064441399E+04 -0.45789381293E+03  0.15873535087E+04  0.50400001928E-02 0. -1.
       -1    1    3    3    0  502  0.11389006151E+04  0.10064441399E+04  0.83380177624E+03  0.17335656376E+04  0.50400001928E-02 0.  1.
</event>
<event>
 5   0  0.7084130E-08  0.3300123E+04  0.7818609E-02  0.8162864E-01
       -2   -1    0    0    0  501  0.00000000000E+00  0.00000000000E+00  0.27076764094E+04  0.27076764094E+04  0.25500000920E-02 0. -1.
        2   -1    0    0  501    0  0.00000000000E+00  0.00000000000E+00 -0.10055493867E+04  0.10055493867E+04  0.25500000920E-02 0.  1.
    10030    2    1    2    0    0  0.00000000000E+00  0.00000000000E+00  0.17021270227E+04  0.37132257962E+04  0.33001226359E+04 0.  0.
        3    1    3    3  502    0 -0.15589624360E+04  0.30344218008E+03  0.34753994066E+03  0.16257998198E+04  0.10100000352E+00 0.  1.
       -3    1    3    3    0  502  0.15589624360E+04 -0.30344218008E+03  0.13545870820E+04  0.20874259763E+04  0.10100000352E+00 0. -1.
</event>
<event>
 5   0  0.2291682E-08  0.3297940E+04  0.7818609E-02  0.8163420E-01
        1   -1    0    0  501    0  0.00000000000E+00  0.00000000000E+00  0.29780441653E+04  0.29780441653E+04  0.50400001928E-02 0.  1.
       -1   -1    0    0    0  501  0.00000000000E+00  0.00000000000E+00 -0.91304967533E+03  0.91304967535E+03  0.50400001928E-02 0. -1.
    10030    2    1    2    0    0  0.00000000000E+00  0.00000000000E+00  0.20649944900E+04  0.38910938407E+04  0.32979401197E+04 0.  0.
        2    1    3    3  502    0  0.62155046603E+03  0.11946540649E+04 -0.90276106306E+02  0.13496937030E+04  0.25500000920E-02 0. -1.
       -2    1    3    3    0  502 -0.62155046603E+03 -0.11946540649E+04  0.21552705963E+04  0.25414001377E+04  0.25500000920E-02 0.  1.
</event>
<event>
 5   0  0.6706080E-08  0.3299684E+04  0.7818609E-02  0.8162976E-01
        2   -1    0    0  501    0  0.00000000000E+00  0.00000000000E+00  0.25161885301E+04  0.25161885301E+04  0.25500000920E-02 0. -1.
       -2   -1    0    0    0  501  0.00000000000E+00  0.00000000000E+00 -0.10817861249E+04  0.10817861249E+04  0.25500000920E-02 0.  1.
    10030    2    1    2    0    0  0.00000000000E+00  0.00000000000E+00  0.14344024052E+04  0.35979746550E+04  0.32996835239E+04 0.  0.
        4    1    3    3  502    0  0.61447199491E+03  0.21175772395E+03  0.23707160373E+04  0.24581930984E+04  0.12699999809E+01 0. -1.
       -4    1    3    3    0  502 -0.61447199491E+03 -0.21175772395E+03 -0.93631363214E+03  0.11397815566E+04  0.12699999809E+01 0.  1.
</event>
<event>
 5   0  0.2309822E-08  0.3301291E+04  0.7818609E-02  0.8162567E-01
        1   -1    0    0  501    0  0.00000000000E+00  0.00000000000E+00  0.23711693236E+04  0.23711693236E+04  0.50400001928E-02 0. -1.
       -1   -1    0    0    0  501  0.00000000000E+00  0.00000000000E+00 -0.11490664732E+04  0.11490664733E+04  0.50400001928E-02 0.  1.
    10030    2    1    2    0    0  0.00000000000E+00  0.00000000000E+00  0.12221028504E+04  0.35202357969E+04  0.33012913668E+04 0.  0.
        4    1    3    3  502    0 -0.56878063675E+03  0.15071252121E+04  0.99506277456E+03  0.18934332193E+04  0.12699999809E+01 0. -1.
       -4    1    3    3    0  502  0.56878063675E+03 -0.15071252121E+04  0.22704007583E+03  0.16268025776E+04  0.12699999809E+01 0.  1.
</event>
<event>
 5   0  0.6706080E-08  0.3299892E+04  0.7818609E-02  0.8162923E-01
       -2   -1    0    0    0  501  0.00000000000E+00  0.00000000000E+00  0.10436192634E+04  0.10436192634E+04  0.25500000920E-02 0. -1.
        2   -1    0    0  501    0  0.00000000000E+00  0.00000000000E+00 -0.26085399846E+04  0.26085399846E+04  0.25500000920E-02 0.  1.
    10030    2    1    2    0    0  0.00000000000E+00  0.00000000000E+00 -0.15649207211E+04  0.36521592480E+04  0.32998924693E+04 0.  0.
        4    1    3    3  502    0  0.78319372985E+03 -0.84688509639E+02  0.82204476037E+03  0.11385621472E+04  0.12699999809E+01 0. -1.
       -4    1    3    3    0  502 -0.78319372985E+03  0.84688509639E+02 -0.23869654815E+04  0.25135971008E+04  0.12699999809E+01 0.  1.
</event>
<event>
 5   0  0.6603516E-08  0.3299062E+04  0.7818609E-02  0.8163134E-01
        2   -1    0    0  501    0  0.00000000000E+00  0.00000000000E+00  0.94010474884E+03  0.94010474884E+03  0.25500000920E-02 0. -1.
       -2   -1    0    0    0  501  0.00000000000E+00  0.00000000000E+00 -0.28943074943E+04  0.28943074943E+04  0.25500000920E-02 0.  1.
    10030    2    1    2    0    0  0.00000000000E+00  0.00000000000E+00 -0.19542027455E+04  0.38344122432E+04  0.32990618182E+04 0.  0.
        1    1    3    3  502    0  0.49969028555E+03  0.52025311996E+02  0.84902055400E+03  0.98652567919E+03  0.50400001928E-02 0. -1.
       -1    1    3    3    0  502 -0.49969028555E+03 -0.52025311996E+02 -0.28032232995E+04  0.28478865640E+04  0.50400001928E-02 0.  1.
</event>
<event>
 5   0  0.6765252E-08  0.3300022E+04  0.7818609E-02  0.8162890E-01
       -2   -1    0    0    0  501  0.00000000000E+00  0.00000000000E+00  0.19708845882E+04  0.19708845882E+04  0.25500000920E-02 0.  1.
        2   -1    0    0  501    0  0.00000000000E+00  0.00000000000E+00 -0.13813779239E+04  0.13813779239E+04  0.25500000920E-02 0. -1.
    10030    2    1    2    0    0  0.00000000000E+00  0.00000000000E+00  0.58950666436E+03  0.33522625121E+04  0.33000220973E+04 0.  0.
        2    1    3    3  502    0  0.28571310324E+03  0.13726911065E+04  0.11783643385E+04  0.18315172305E+04  0.25500000920E-02 0.  1.
       -2    1    3    3    0  502 -0.28571310324E+03 -0.13726911065E+04 -0.58885767415E+03  0.15207452816E+04  0.25500000920E-02 0. -1.
</event>
<event>
 5   0  0.2279938E-08  0.3298134E+04  0.7818609E-02  0.8163370E-01
       -1   -1    0    0    0  501  0.00000000000E+00  0.00000000000E+00  0.18891950438E+04  0.18891950438E+04  0.50400001928E-02 0. -1.
        1   -1    0    0  501    0  0.00000000000E+00  0.00000000000E+00 -0.14394610983E+04  0.14394610983E+04  0.50400001928E-02 0.  1.
    10030    2    1    2    0    0  0.00000000000E+00  0.00000000000E+00  0.44973394543E+03  0.33286561421E+04  0.32981344865E+04 0.  0.
        3    1    3    3  502    0  0.13245970112E+04  0.61373933403E+03  0.99889952487E+03  0.17689074264E+04  0.10100000352E+00 0. -1.
       -3    1    3    3    0  502 -0.13245970112E+04 -0.61373933403E+03 -0.54916557944E+03  0.15597487157E+04  0.10100000352E+00 0.  1.
</event>
<event>
 5   0  0.2244093E-08  0.3299319E+04  0.7818609E-02  0.8163069E-01
        1   -1    0    0  501    0  0.00000000000E+00  0.00000000000E+00  0.30240857956E+04  0.30240857957E+04  0.50400001928E-02 0. -1.
       -1   -1    0    0    0  501  0.00000000000E+00  0.00000000000E+00 -0.89990046102E+03  0.89990046103E+03  0.50400001928E-02 0.  1.
    10030    2    1    2    0    0  0.00000000000E+00  0.00000000000E+00  0.21241853346E+04  0.39239862567E+04  0.32993188398E+04 0.  0.
        1    1    3    3  502    0 -0.40461889742E+03  0.72980662952E+03 -0.63037434149E+03  0.10458039869E+04  0.50400001928E-02 0.  1.
       -1    1    3    3    0  502  0.40461889742E+03 -0.72980662952E+03  0.27545596761E+04  0.28781822698E+04  0.50400001928E-02 0. -1.
</event>
<event>
 5   0  0.2291682E-08  0.3299738E+04  0.7818609E-02  0.8162962E-01
        1   -1    0    0  501    0  0.00000000000E+00  0.00000000000E+00  0.12272705150E+04  0.12272705150E+04  0.50400001928E-02 0.  1.
       -1   -1    0    0    0  501  0.00000000000E+00  0.00000000000E+00 -0.22179850999E+04  0.22179850999E+04  0.50400001928E-02 0. -1.
    10030    2    1    2    0    0  0.00000000000E+00  0.00000000000E+00 -0.99071458495E+03  0.34452556149E+04  0.32997379992E+04 0.  0.
        2    1    3    3  502    0  0.91122264452E+03  0.13397503290E+04 -0.17049280101E+03  0.16292100684E+04  0.25500000920E-02 0. -1.
       -2    1    3    3    0  502 -0.91122264452E+03 -0.13397503290E+04 -0.82022178393E+03  0.18160455464E+04  0.25500000920E-02 0.  1.
</event>
<event>
 5   0  0.6765252E-08  0.3301447E+04  0.7818609E-02  0.8162527E-01
       -2   -1    0    0    0  501  0.00000000000E+00  0.00000000000E+00  0.98185106755E+03  0.98185106756E+03  0.25500000920E-02 0. -1.
        2   -1    0    0  501    0  0.00000000000E+00  0.00000000000E+00 -0.27752563592E+04  0.27752563592E+04  0.25500000920E-02 0.  1.
    10030    2    1    2    0    0  0.00000000000E+00  0.00000000000E+00 -0.17934052917E+04  0.37571074268E+04  0.33014472094E+04 0.  0.
        2    1    3    3  502    0 -0.96184284318E+03 -0.28205944539E+03 -0.23892817879E+04  0.25910165279E+04  0.25500000920E-02 0.  1.
       -2    1    3    3    0  502  0.96184284318E+03  0.28205944539E+03  0.59587649624E+03  0.11660908989E+04  0.25500000920E-02 0. -1.
</event>
<event>
 5   0  0.6821287E-08  0.3303392E+04  0.7818609E-02  0.8162033E-01
       -2   -1    0    0    0  501  0.00000000000E+00  0.00000000000E+00  0.14804850094E+04  0.14804850094E+04  0.25500000920E-02 0. -1.
        2   -1    0    0  501    0  0.00000000000E+00  0.00000000000E+00 -0.18427067411E+04  0.18427067411E+04  0.25500000920E-02 0.  1.
    10030    2    1    2    0    0  0.00000000000E+00  0.00000000000E+00 -0.36222173168E+03  0.33231917504E+04  0.33033920184E+04 0.  0.
        5    1    3    3  502    0  0.12117602132E+03  0.12929118475E+04  0.84567958927E+03  0.15496776217E+04  0.46999998093E+01 0. -1.
       -5    1    3    3    0  502 -0.12117602132E+03 -0.12929118475E+04 -0.12079013210E+04  0.17735141287E+04  0.46999998093E+01 0.  1.
</event>
<event>
 5   0  0.2244093E-08  0.3303226E+04  0.7818609E-02  0.8162075E-01
        1   -1    0    0  501    0  0.00000000000E+00  0.00000000000E+00  0.21438741560E+04  0.21438741560E+04  0.50400001928E-02 0. -1.
       -1   -1    0    0    0  501  0.00000000000E+00  0.00000000000E+00 -0.12723812331E+04  0.12723812331E+04  0.50400001928E-02 0.  1.
    10030    2    1    2    0    0  0.00000000000E+00  0.00000000000E+00  0.87149292291E+03  0.34162553892E+04  0.33032258429E+04 0.  0.
        1    1    3    3  502    0 -0.71751982730E+03 -0.15027341506E+02 -0.11026904147E+04  0.13156696676E+04  0.50400001928E-02 0.  1.
       -1    1    3    3    0  502  0.71751982730E+03  0.15027341506E+02  0.19741833376E+04  0.21005857216E+04  0.50400001928E-02 0. -1.
</event>
<event>
 5   0  0.6603516E-08  0.3299049E+04  0.7818609E-02  0.8163137E-01
       -2   -1    0    0    0  501  0.00000000000E+00  0.00000000000E+00  0.14500556012E+04  0.14500556012E+04  0.25500000920E-02 0. -1.
        2   -1    0    0  501    0  0.00000000000E+00  0.00000000000E+00 -0.18764322632E+04  0.18764322632E+04  0.25500000920E-02 0.  1.
    10030    2    1    2    0    0  0.00000000000E+00  0.00000000000E+00 -0.42637666199E+03  0.33264878644E+04  0.32990490227E+04 0.  0.
        1    1    3    3  502    0 -0.43703351176E+03 -0.14612551643E+04  0.42026135285E+03  0.15820507420E+04  0.50400001928E-02 0. -1.
       -1    1    3    3    0  502  0.43703351176E+03  0.14612551643E+04 -0.84663801484E+03  0.17444371224E+04  0.50400001928E-02 0.  1.
</event>
<event>
 5   0  0.2244093E-08  0.3300847E+04  0.7818609E-02  0.8162680E-01
       -1   -1    0    0    0  501  0.00000000000E+00  0.00000000000E+00  0.10857462292E+04  0.10857462292E+04  0.50400001928E-02 0. -1.
        1   -1    0    0  501    0  0.00000000000E+00  0.00000000000E+00 -0.25087787648E+04  0.25087787648E+04  0.50400001928E-02 0.  1.
    10030    2    1    2    0    0  0.00000000000E+00  0.00000000000E+00 -0.14230325356E+04  0.35945249941E+04  0.33008466089E+04 0.  0.
        1    1    3    3  502    0  0.79977658228E+03 -0.31347554431E+03 -0.22461489024E+04  0.24048065182E+04  0.50400001928E-02 0.  1.
       -1    1    3    3    0  502 -0.79977658228E+03  0.31347554431E+03  0.82311636677E+03  0.11897184758E+04  0.50400001928E-02 0. -1.
</event>
<event>
 5   0  0.6821287E-08  0.3299783E+04  0.7818609E-02  0.8162951E-01
        2   -1    0    0  501    0  0.00000000000E+00  0.00000000000E+00  0.26909459300E+04  0.26909459300E+04  0.25500000920E-02 0. -1.
       -2   -1    0    0    0  501  0.00000000000E+00  0.00000000000E+00 -0.10115928484E+04  0.10115928484E+04  0.25500000920E-02 0.  1.
    10030    2    1    2    0    0  0.00000000000E+00  0.00000000000E+00  0.16793530817E+04  0.37025387784E+04  0.32997828160E+04 0.  0.
        5    1    3    3  502    0  0.12305330298E+04  0.99209447126E+03  0.13703228033E+04  0.20919535493E+04  0.46999998093E+01 0. -1.
       -5    1    3    3    0  502 -0.12305330298E+04 -0.99209447126E+03  0.30903027837E+03  0.16105852291E+04  0.46999998093E+01 0.  1.
</event>
<event>
 5   0  0.6706080E-08  0.3302349E+04  0.7818609E-02  0.8162298E-01
        2   -1    0    0  501    0  0.00000000000E+00  0.00000000000E+00  0.14774954699E+04  0.14774954699E+04  0.25500000920E-02 0.  1.
       -2   -1    0    0    0  501  0.00000000000E+00  0.00000000000E+00 -0.18452698064E+04  0.18452698064E+04  0.25500000920E-02 0. -1.
    10030    2    1    2    0    0  0.00000000000E+00  0.00000000000E+00 -0.36777433654E+03  0.33227652763E+04  0.33023493333E+04 0.  0.
        4    1    3    3  502    0  0.12597809660E+04  0.66320932744E+03  0.65763344524E+03  0.15682404329E+04  0.12699999809E+01 0.  1.
       -4    1    3    3    0  502 -0.12597809660E+04 -0.66320932744E+03 -0.10254077818E+04  0.17545248434E+04  0.12699999809E+01 0. -1.
</event>
<event>
 5   0  0.6821287E-08  0.3300334E+04  0.7818609E-02  0.8162810E-01
        2   -1    0    0  501    0  0.00000000000E+00  0.00000000000E+00  0.22709336544E+04  0.22709336544E+04  0.25500000920E-02 0. -1.
       -2   -1    0    0    0  501  0.00000000000E+00  0.00000000000E+00 -0.11990886159E+04  0.11990886159E+04  0.25500000920E-02 0.  1.
    10030    2    1    2    0    0  0.00000000000E+00  0.00000000000E+00  0.10718450384E+04  0.34700222703E+04  0.33003337361E+04 0.  0.
        5    1    3    3  502    0  0.91284167572E+03 -0.10308858734E+04 -0.42024325778E+03  0.14396638825E+04  0.46999998093E+01 0.  1.
       -5    1    3    3    0  502 -0.91284167572E+03  0.10308858734E+04  0.14920882962E+04  0.20303583877E+04  0.46999998093E+01 0. -1.
</event>
<event>
 5   0  0.6821287E-08  0.3298491E+04  0.7818609E-02  0.8163279E-01
        2   -1    0    0  501    0  0.00000000000E+00  0.00000000000E+00  0.17795982900E+04  0.17795982900E+04  0.25500000920E-02 0. -1.
       -2   -1    0    0    0  501  0.00000000000E+00  0.00000000000E+00 -0.15284411794E+04  0.15284411794E+04  0.25500000920E-02 0.  1.
    10030    2    1    2    0    0  0.00000000000E+00  0.00000000000E+00  0.25115711057E+03  0.33080394694E+04  0.32984913577E+04 0.  0.
        5    1    3    3  502    0 -0.49851893114E+03 -0.15497277666E+04 -0.13940577798E+03  0.16339012627E+04  0.46999998093E+01 0. -1.
       -5    1    3    3    0  502  0.49851893114E+03  0.15497277666E+04  0.39056288855E+03  0.16741382067E+04  0.46999998093E+01 0.  1.
</event>
<event>
 5   0  0.2291682E-08  0.3299779E+04  0.7818609E-02  0.8162952E-01
       -1   -1    0    0    0  501  0.00000000000E+00  0.00000000000E+00  0.19927080586E+04  0.19927080586E+04  0.50400001928E-02 0.  1.
        1   -1    0    0  501    0  0.00000000000E+00  0.00000000000E+00 -0.13660478924E+04  0.13660478924E+04  0.50400001928E-02 0. -1.
    10030    2    1    2    0    0  0.00000000000E+00  0.00000000000E+00  0.62666016623E+03  0.33587559510E+04  0.32997785645E+04 0.  0.
        2    1    3    3  502    0 -0.66759844275E+03  0.50674881656E+03  0.17598752160E+04  0.19492672520E+04  0.25500000920E-02 0.  1.
       -2    1    3    3    0  502  0.66759844275E+03 -0.50674881656E+03 -0.11332150497E+04  0.14094886991E+04  0.25500000920E-02 0. -1.
</event>
<event>
 5   0  0.6603516E-08  0.3298640E+04  0.7818609E-02  0.8163241E-01
       -2   -1    0    0    0  501  0.00000000000E+00  0.00000000000E+00  0.12266866746E+04  0.12266866746E+04  0.25500000920E-02 0.  1.
        2   -1    0    0  501    0  0.00000000000E+00  0.00000000000E+00 -0.22175646913E+04  0.22175646913E+04  0.25500000920E-02 0. -1.
    10030    2    1    2    0    0  0.00000000000E+00  0.00000000000E+00 -0.99087801663E+03  0.34442513659E+04  0.32986403605E+04 0.  0.
        1    1    3    3  502    0 -0.11952209421E+04 -0.15256543172E+03  0.68052150037E+03  0.13838131463E+04  0.50400001928E-02 0.  1.
       -1    1    3    3    0  502  0.11952209421E+04  0.15256543172E+03 -0.16713995170E+04  0.20604382196E+04  0.50400001928E-02 0. -1.
</event>
<event>
 5   0  0.2291682E-08  0.3302201E+04  0.7818609E-02  0.8162336E-01
        1   -1    0    0  501    0  0.00000000000E+00  0.00000000000E+00  0.28654130178E+04  0.28654130178E+04  0.50400001928E-02 0. -1.
       -1   -1    0    0    0  501  0.00000000000E+00  0.00000000000E+00 -0.95139264493E+03  0.95139264495E+03  0.50400001928E-02 0.  1.
    10030    2    1    2    0    0  0.00000000000E+00  0.00000000000E+00  0.19140203728E+04  0.38168056627E+04  0.33022010053E+04 0.  0.
        2    1    3    3  502    0  0.40994057354E+03  0.49230834932E+03  0.27159015288E+04  0.27904372235E+04  0.25500000920E-02 0. -1.
       -2    1    3    3    0  502 -0.40994057354E+03 -0.49230834932E+03 -0.80188115594E+03  0.10263684392E+04  0.25500000920E-02 0.  1.
</event>
<event>
 5   0  0.6706080E-08  0.3298330E+04  0.7818609E-02  0.8163320E-01
       -2   -1    0    0    0  501  0.00000000000E+00  0.00000000000E+00  0.13068508614E+04  0.13068508614E+04  0.25500000920E-02 0. -1.
        2   -1    0    0  501    0  0.00000000000E+00  0.00000000000E+00 -0.20811442370E+04  0.20811442370E+04  0.25500000920E-02 0.  1.
    10030    2    1    2    0    0  0.00000000000E+00  0.00000000000E+00 -0.77429337560E+03  0.33879950984E+04  0.32983299646E+04 0.  0.
        4    1    3    3  502    0 -0.19463530946E+03 -0.64621630760E+03 -0.19328007870E+04  0.20472417822E+04  0.12699999809E+01 0.  1.
       -4    1    3    3    0  502  0.19463530946E+03  0.64621630760E+03  0.11585074114E+04  0.13407533162E+04  0.12699999809E+01 0. -1.
</event>
<event>
 5   0  0.2279938E-08  0.3307746E+04  0.7818609E-02  0.8160927E-01
       -1   -1    0    0    0  501  0.00000000000E+00  0.00000000000E+00  0.15202694073E+04  0.15202694073E+04  0.50400001928E-02 0. -1.
        1   -1    0    0  501    0  0.00000000000E+00  0.00000000000E+00 -0.17992180794E+04  0.17992180795E+04  0.50400001928E-02 0.  1.
    10030    2    1    2    0    0  0.00000000000E+00  0.00000000000E+00 -0.27894867217E+03  0.33194874867E+04  0.33077461833E+04 0.  0.
        3    1    3    3  502    0  0.15627118408E+04  0.39630087306E+03  0.23085249657E+03  0.16286238254E+04  0.10100000352E+00 0.  1.
       -3    1    3    3    0  502 -0.15627118408E+04 -0.39630087306E+03 -0.50980116874E+03  0.16908636613E+04  0.10100000352E+00 0. -1.
</event>
<event>
 5   0  0.7084130E-08  0.3299762E+04  0.7818609E-02  0.8162956E-01
       -2   -1    0    0    0  501  0.00000000000E+00  0.00000000000E+00  0.11787888828E+04  0.11787888828E+04  0.25500000920E-02 0. -1.
        2   -1    0    0  501    0  0.00000000000E+00  0.00000000000E+00 -0.23092406090E+04  0.23092406090E+04  0.25500000920E-02 0.  1.
    10030    2    1    2    0    0  0.00000000000E+00  0.00000000000E+00 -0.11304517263E+04  0.34880294918E+04  0.32997619051E+04 0.  0.
        3    1    3    3  502    0  0.13190908471E+04 -0.36827865501E+03 -0.15377607878E+04  0.20592081200E+04  0.10100000352E+00 0.  1.
       -3    1    3    3    0  502 -0.13190908471E+04  0.36827865501E+03  0.40730906156E+03  0.14288213718E+04  0.10100000352E+00 0. -1.
</event>
<event>
 5   0  0.2309822E-08  0.3299699E+04  0.7818609E-02  0.8162972E-01
        1   -1    0    0  501    0  0.00000000000E+00  0.00000000000E+00  0.19537006549E+04  0.19537006549E+04  0.50400001928E-02 0. -1.
       -1   -1    0    0    0  501  0.00000000000E+00  0.00000000000E+00 -0.13932549247E+04  0.13932549247E+04  0.50400001928E-02 0.  1.
    10030    2    1    2    0    0  0.00000000000E+00  0.00000000000E+00  0.56044573024E+03  0.33469555796E+04  0.32996988098E+04 0.  0.
        4    1    3    3  502    0 -0.10737744336E+04  0.12010986835E+04  0.64080220921E+03  0.17338565875E+04  0.12699999809E+01 0.  1.
       -4    1    3    3    0  502  0.10737744336E+04 -0.12010986835E+04 -0.80356478975E+02  0.16130989921E+04  0.12699999809E+01 0. -1.
</event>
<event>
 5   0  0.6603516E-08  0.3301940E+04  0.7818609E-02  0.8162402E-01
        2   -1    0    0  501    0  0.00000000000E+00  0.00000000000E+00  0.16126188790E+04  0.16126188790E+04  0.25500000920E-02 0.  1.
       -2   -1    0    0    0  501  0.00000000000E+00  0.00000000000E+00 -0.16902328514E+04  0.16902328514E+04  0.25500000920E-02 0. -1.
    10030    2    1    2    0    0  0.00000000000E+00  0.00000000000E+00 -0.77613972409E+02  0.33028517304E+04  0.33019396760E+04 0.  0.
        1    1    3    3  502    0 -0.83439629658E+03  0.12618068627E+04 -0.70029719498E+03  0.16669702756E+04  0.50400001928E-02 0. -1.
       -1    1    3    3    0  502  0.83439629658E+03 -0.12618068627E+04  0.62268322257E+03  0.16358814548E+04  0.50400001928E-02 0.  1.
</event>
<event>
 5   0  0.2383270E-08  0.3301698E+04  0.7818609E-02  0.8162463E-01
       -1   -1    0    0    0  501  0.00000000000E+00  0.00000000000E+00  0.11356074599E+04  0.11356074599E+04  0.50400001928E-02 0. -1.
        1   -1    0    0  501    0  0.00000000000E+00  0.00000000000E+00 -0.23998634326E+04  0.23998634326E+04  0.50400001928E-02 0.  1.
    10030    2    1    2    0    0  0.00000000000E+00  0.00000000000E+00 -0.12642559727E+04  0.35354708925E+04  0.33016982398E+04 0.  0.
        5    1    3    3  502    0  0.84059108327E+02  0.22621202026E+03  0.11166105872E+04  0.11424005888E+04  0.46999998093E+01 0. -1.
       -5    1    3    3    0  502 -0.84059108327E+02 -0.22621202026E+03 -0.23808665600E+04  0.23930703036E+04  0.46999998093E+01 0.  1.
</event>
<event>
 5   0  0.2309822E-08  0.3301387E+04  0.7818609E-02  0.8162543E-01
       -1   -1    0    0    0  501  0.00000000000E+00  0.00000000000E+00  0.12560018576E+04  0.12560018576E+04  0.50400001928E-02 0.  1.
        1   -1    0    0  501    0  0.00000000000E+00  0.00000000000E+00 -0.21694149730E+04  0.21694149730E+04  0.50400001928E-02 0. -1.
    10030    2    1    2    0    0  0.00000000000E+00  0.00000000000E+00 -0.91341311540E+03  0.34254168306E+04  0.33013871242E+04 0.  0.
        4    1    3    3  502    0 -0.54004804127E+03  0.40559778765E+03  0.11060755956E+04  0.12959808210E+04  0.12699999809E+01 0.  1.
       -4    1    3    3    0  502  0.54004804127E+03 -0.40559778765E+03 -0.20194887110E+04  0.21294360096E+04  0.12699999809E+01 0. -1.
</event>
<event>
 5   0  0.7084130E-08  0.3300615E+04  0.7818609E-02  0.8162739E-01
       -2   -1    0    0    0  501  0.00000000000E+00  0.00000000000E+00  0.16045000986E+04  0.16045000986E+04  0.25500000920E-02 0.  1.
        2   -1    0    0  501    0  0.00000000000E+00  0.00000000000E+00 -0.16974229842E+04  0.16974229842E+04  0.25500000920E-02 0. -1.
    10030    2    1    2    0    0  0.00000000000E+00  0.00000000000E+00 -0.92922885608E+02  0.33019230827E+04  0.33006153035E+04 0.  0.
        3    1    3    3  502    0 -0.42636184127E+03 -0.12924798980E+04 -0.98022649112E+03  0.16772396044E+04  0.10100000352E+00 0. -1.
       -3    1    3    3    0  502  0.42636184127E+03  0.12924798980E+04  0.88730360551E+03  0.16246834784E+04  0.10100000352E+00 0.  1.
</event>
<event>
 5   0  0.2383270E-08  0.3303562E+04  0.7818609E-02  0.8161990E-01
        1   -1    0    0  501    0  0.00000000000E+00  0.00000000000E+00  0.20811936931E+04  0.20811936932E+04  0.50400001928E-02 0.  1.
       -1   -1    0    0    0  501  0.00000000000E+00  0.00000000000E+00 -0.13109693837E+04  0.13109693837E+04  0.50400001928E-02 0. -1.
    10030    2    1    2    0    0  0.00000000000E+00  0.00000000000E+00  0.77022430941E+03  0.33921630769E+04  0.33035624489E+04 0.  0.
        5    1    3    3  502    0  0.12049694889E+04  0.52519252120E+03 -0.64200554343E+03  0.14628642662E+04  0.46999998093E+01 0. -1.
       -5    1    3    3    0  502 -0.12049694889E+04 -0.52519252120E+03  0.14122298528E+04  0.19292988107E+04  0.46999998093E+01 0.  1.
</event>
<event>
 5   0  0.2279938E-08  0.3299718E+04  0.7818609E-02  0.8162967E-01
        1   -1    0    0  501    0  0.00000000000E+00  0.00000000000E+00  0.15501052208E+04  0.15501052208E+04  0.50400001928E-02 0.  1.
       -1   -1    0    0    0  501  0.00000000000E+00  0.00000000000E+00 -0.17560326170E+04  0.17560326170E+04  0.50400001928E-02 0. -1.
    10030    2    1    2    0    0  0.00000000000E+00  0.00000000000E+00 -0.20592739617E+03  0.33061378379E+04  0.32997183683E+04 0.  0.
        3    1    3    3  502    0  0.13337592061E+04 -0.53312302419E+03  0.71034298786E+03  0.16024109802E+04  0.10100000352E+00 0.  1.
       -3    1    3    3    0  502 -0.13337592061E+04  0.53312302419E+03 -0.91627038403E+03  0.17037268577E+04  0.10100000352E+00 0. -1.
</event>
<event>
 5   0  0.2291682E-08  0.3288718E+04  0.7818609E-02  0.8165772E-01
        1   -1    0    0  501    0  0.00000000000E+00  0.00000000000E+00  0.24779757389E+04  0.24779757389E+04  0.50400001928E-02 0.  1.
       -1   -1    0    0    0  501  0.00000000000E+00  0.00000000000E+00 -0.10911793613E+04  0.10911793613E+04  0.50400001928E-02 0. -1.
    10030    2    1    2    0    0  0.00000000000E+00  0.00000000000E+00  0.13867963776E+04  0.35691551002E+04  0.32887176736E+04 0.  0.
        2    1    3    3  502    0  0.44846704444E+03 -0.49511039985E+03  0.23240753943E+04  0.24181777099E+04  0.25500000920E-02 0.  1.
       -2    1    3    3    0  502 -0.44846704444E+03  0.49511039985E+03 -0.93727901670E+03  0.11509773904E+04  0.25500000920E-02 0. -1.
</event>
<event>
 5   0  0.6765252E-08  0.3300434E+04  0.7818609E-02  0.8162785E-01
       -2   -1    0    0    0  501  0.00000000000E+00  0.00000000000E+00  0.16126458096E+04  0.16126458096E+04  0.25500000920E-02 0.  1.
        2   -1    0    0  501    0  0.00000000000E+00  0.00000000000E+00 -0.16886638526E+04  0.16886638526E+04  0.25500000920E-02 0. -1.
    10030    2    1    2    0    0  0.00000000000E+00  0.00000000000E+00 -0.76018042928E+02  0.33013096622E+04  0.33004343264E+04 0.  0.
        2    1    3    3  502    0 -0.12081252734E+03 -0.13861990647E+04 -0.92541576011E+03  0.16710888196E+04  0.25500000920E-02 0. -1.
       -2    1    3    3    0  502  0.12081252734E+03  0.13861990647E+04  0.84939771718E+03  0.16302208426E+04  0.25500000920E-02 0.  1.
</event>
<event>
 5   0  0.2291682E-08  0.3300903E+04  0.7818609E-02  0.8162666E-01
        1   -1    0    0  501    0  0.00000000000E+00  0.00000000000E+00  0.88710838323E+03  0.88710838324E+03  0.50400001928E-02 0.  1.
       -1   -1    0    0    0  501  0.00000000000E+00  0.00000000000E+00 -0.30706392823E+04  0.30706392823E+04  0.50400001928E-02 0. -1.
    10030    2    1    2    0    0  0.00000000000E+00  0.00000000000E+00 -0.21835308991E+04  0.39577476655E+04  0.33009028154E+04 0.  0.
        2    1    3    3  502    0 -0.16145363446E+04  0.45954025627E+02 -0.68490242933E+03  0.17544032370E+04  0.25500000920E-02 0. -1.
       -2    1    3    3    0  502  0.16145363446E+04 -0.45954025627E+02 -0.14986284697E+04  0.22033444285E+04  0.25500000920E-02 0.  1.
</event>
<event>
 5   0  0.2291682E-08  0.3299462E+04  0.7818609E-02  0.8163032E-01
        1   -1    0    0  501    0  0.00000000000E+00  0.00000000000E+00  0.19376531017E+04  0.19376531018E+04  0.50400001928E-02 0.  1.
       -1   -1    0    0    0  501  0.00000000000E+00  0.00000000000E+00 -0.14045923257E+04  0.14045923257E+04  0.50400001928E-02 0. -1.
    10030    2    1    2    0    0  0.00000000000E+00  0.00000000000E+00  0.53306077607E+03  0.33422454274E+04  0.32994621844E+04 0.  0.
        2    1    3    3  502    0  0.31157352574E+02  0.13484392620E+04 -0.69570987415E+03  0.15176532717E+04  0.25500000920E-02 0. -1.
       -2    1    3    3    0  502 -0.31157352574E+02 -0.13484392620E+04  0.12287706502E+04  0.18245921558E+04  0.25500000920E-02 0.  1.
</event>
<event>
 5   0  0.2279938E-08  0.3298187E+04  0.7818609E-02  0.8163357E-01
       -1   -1    0    0    0  501  0.00000000000E+00  0.00000000000E+00  0.19708261695E+04  0.19708261695E+04  0.50400001928E-02 0.  1.
        1   -1    0    0  501    0  0.00000000000E+00  0.00000000000E+00 -0.13798830425E+04  0.13798830425E+04  0.50400001928E-02 0. -1.
    10030    2    1    2    0    0  0.00000000000E+00  0.00000000000E+00  0.59094312695E+03  0.33507092120E+04  0.32981871451E+04 0.  0.
        3    1    3    3  502    0 -0.14180052430E+04 -0.78518372632E+03  0.60404724147E+03  0.17297761223E+04  0.10100000352E+00 0.  1.
       -3    1    3    3    0  502  0.14180052430E+04  0.78518372632E+03 -0.13104114523E+02  0.16209330897E+04  0.10100000352E+00 0. -1.
</event>
<event>
 5   0  0.6603516E-08  0.3302084E+04  0.7818609E-02  0.8162365E-01
        2   -1    0    0  501    0  0.00000000000E+00  0.00000000000E+00  0.20084338792E+04  0.20084338792E+04  0.25500000920E-02 0.  1.
       -2   -1    0    0    0  501  0.00000000000E+00  0.00000000000E+00 -0.13572462781E+04  0.13572462781E+04  0.25500000920E-02 0. -1.
    10030    2    1    2    0    0  0.00000000000E+00  0.00000000000E+00  0.65118760108E+03  0.33656801573E+04  0.33020838314E+04 0.  0.
        1    1    3    3  502    0 -0.29558870324E+03  0.63936053600E+03  0.18475993150E+04  0.19773158082E+04  0.50400001928E-02 0.  1.
       -1    1    3    3    0  502  0.29558870324E+03 -0.63936053600E+03 -0.11964117139E+04  0.13883643491E+04  0.50400001928E-02 0. -1.
</event>
<event>
 5   0  0.6706080E-08  0.3300007E+04  0.7818609E-02  0.8162894E-01
        2   -1    0    0  501    0  0.00000000000E+00  0.00000000000E+00  0.14249714479E+04  0.14249714479E+04  0.25500000920E-02 0. -1.
       -2   -1    0    0    0  501  0.00000000000E+00  0.00000000000E+00 -0.19105727857E+04  0.19105727857E+04  0.25500000920E-02 0.  1.
    10030    2    1    2    0    0  0.00000000000E+00  0.00000000000E+00 -0.48560133781E+03  0.33355442336E+04  0.33000070720E+04 0.  0.
        4    1    3    3  502    0 -0.42675355424E+03  0.86763607826E+03 -0.15942099490E+04  0.18645154691E+04  0.12699999809E+01 0.  1.
       -4    1    3    3    0  502  0.42675355424E+03 -0.86763607826E+03  0.11086086112E+04  0.14710287645E+04  0.12699999809E+01 0. -1.
</event>
<event>
 5   0  0.2244093E-08  0.3299240E+04  0.7818609E-02  0.8163089E-01
        1   -1    0    0  501    0  0.00000000000E+00  0.00000000000E+00  0.20334162274E+04  0.20334162274E+04  0.50400001928E-02 0.  1.
       -1   -1    0    0    0  501  0.00000000000E+00  0.00000000000E+00 -0.13382635431E+04  0.13382635431E+04  0.50400001928E-02 0. -1.
    10030    2    1    2    0    0  0.00000000000E+00  0.00000000000E+00  0.69515268438E+03  0.33716797705E+04  0.32992404005E+04 0.  0.
        1    1    3    3  502    0  0.45199615537E+03 -0.12557722690E+04 -0.64323779344E+03  0.14815597777E+04  0.50400001928E-02 0. -1.
       -1    1    3    3    0  502 -0.45199615537E+03  0.12557722690E+04  0.13383904778E+04  0.18901199928E+04  0.50400001928E-02 0.  1.
</event>
<event>
 5   0  0.6603516E-08  0.3299750E+04  0.7818609E-02  0.8162959E-01
        2   -1    0    0  501    0  0.00000000000E+00  0.00000000000E+00  0.21361345699E+04  0.21361345699E+04  0.25500000920E-02 0. -1.
       -2   -1    0    0    0  501  0.00000000000E+00  0.00000000000E+00 -0.12743053494E+04  0.12743053494E+04  0.25500000920E-02 0.  1.
    10030    2    1    2    0    0  0.00000000000E+00  0.00000000000E+00  0.86182922046E+03  0.34104399192E+04  0.32997501174E+04 0.  0.
        1    1    3    3  502    0  0.43692905465E+01 -0.88590722227E+03  0.18694505913E+04  0.20687426642E+04  0.50400001928E-02 0. -1.
       -1    1    3    3    0  502 -0.43692905465E+01  0.88590722227E+03 -0.10076213709E+04  0.13416972551E+04  0.50400001928E-02 0.  1.
</event>
<event>
 5   0  0.6706080E-08  0.3301852E+04  0.7818609E-02  0.8162424E-01
        2   -1    0    0  501    0  0.00000000000E+00  0.00000000000E+00  0.99185457411E+03  0.99185457411E+03  0.25500000920E-02 0.  1.
       -2   -1    0    0    0  501  0.00000000000E+00  0.00000000000E+00 -0.27479406239E+04  0.27479406239E+04  0.25500000920E-02 0. -1.
    10030    2    1    2    0    0  0.00000000000E+00  0.00000000000E+00 -0.17560860498E+04  0.37397951980E+04  0.33018524965E+04 0.  0.
        4    1    3    3  502    0 -0.17334665123E+03 -0.28677057474E+03 -0.27090173161E+04  0.27296635060E+04  0.12699999809E+01 0. -1.
       -4    1    3    3    0  502  0.17334665123E+03  0.28677057474E+03  0.95293126632E+03  0.10101316920E+04  0.12699999809E+01 0.  1.
</event>
<event>
 5   0  0.6821287E-08  0.3300342E+04  0.7818609E-02  0.8162808E-01
        2   -1    0    0  501    0  0.00000000000E+00  0.00000000000E+00  0.17272709133E+04  0.17272709133E+04  0.25500000920E-02 0.  1.
       -2   -1    0    0    0  501  0.00000000000E+00  0.00000000000E+00 -0.15765123466E+04  0.15765123466E+04  0.25500000920E-02 0. -1.
    10030    2    1    2    0    0  0.00000000000E+00  0.00000000000E+00  0.15075856669E+03  0.33037832598E+04  0.33003417524E+04 0.  0.
        5    1    3    3  502    0  0.15378569222E+04 -0.28278750794E+03 -0.45249321182E+03  0.16278036997E+04  0.46999998093E+01 0. -1.
       -5    1    3    3    0  502 -0.15378569222E+04  0.28278750794E+03  0.60325177851E+03  0.16759795602E+04  0.46999998093E+01 0.  1.
</event>
<event>
 5   0  0.6603516E-08  0.3301753E+04  0.7818609E-02  0.8162450E-01
       -2   -1    0    0    0  501  0.00000000000E+00  0.00000000000E+00  0.11411505378E+04  0.11411505378E+04  0.25500000920E-02 0. -1.
        2   -1    0    0  501    0  0.00000000000E+00  0.00000000000E+00 -0.23882847891E+04  0.23882847891E+04  0.25500000920E-02 0.  1.
    10030    2    1    2    0    0  0.00000000000E+00  0.00000000000E+00 -0.12471342513E+04  0.35294353269E+04  0.33017525477E+04 0.  0.
        1    1    3    3  502    0 -0.78189749158E+03  0.98120630457E+03  0.52339208955E+03  0.13594369345E+04  0.50400001928E-02 0. -1.
       -1    1    3    3    0  502  0.78189749158E+03 -0.98120630457E+03 -0.17705263408E+04  0.21699983924E+04  0.50400001928E-02 0.  1.
</event>
<event>
 5   0  0.6821287E-08  0.3294808E+04  0.7818609E-02  0.8164218E-01
       -2   -1    0    0    0  501  0.00000000000E+00  0.00000000000E+00  0.12558123900E+04  0.12558123900E+04  0.25500000920E-02 0. -1.
        2   -1    0    0  501    0  0.00000000000E+00  0.00000000000E+00 -0.21611036609E+04  0.21611036609E+04  0.25500000920E-02 0.  1.
    10030    2    1    2    0    0  0.00000000000E+00  0.00000000000E+00 -0.90529127087E+03  0.34169160509E+04  0.32948084942E+04 0.  0.
        5    1    3    3  502    0 -0.16175017100E+03 -0.16123428900E+04 -0.14481860532E+03  0.16269011130E+04  0.46999998093E+01 0. -1.
       -5    1    3    3    0  502  0.16175017100E+03  0.16123428900E+04 -0.76047266554E+03  0.17900149379E+04  0.46999998093E+01 0.  1.
</event>
<event>
 5   0  0.6603516E-08  0.3298324E+04  0.7818609E-02  0.8163322E-01
       -2   -1    0    0    0  501  0.00000000000E+00  0.00000000000E+00  0.14422822099E+04  0.14422822099E+04  0.25500000920E-02 0.  1.
        2   -1    0    0  501    0  0.00000000000E+00  0.00000000000E+00 -0.18857168704E+04  0.18857168704E+04  0.25500000920E-02 0. -1.
    10030    2    1    2    0    0  0.00000000000E+00  0.00000000000E+00 -0.44343466049E+03  0.33279990804E+04  0.32983243596E+04 0.  0.
        1    1    3    3  502    0 -0.63737983452E+03  0.11892013058E+04 -0.11785545277E+04  0.17914919966E+04  0.50400001928E-02 0.  1.
       -1    1    3    3    0  502  0.63737983452E+03 -0.11892013058E+04  0.73511986722E+03  0.15365070837E+04  0.50400001928E-02 0. -1.
</event>
<event>
 5   0  0.2309822E-08  0.3299391E+04  0.7818609E-02  0.8163050E-01
        1   -1    0    0  501    0  0.00000000000E+00  0.00000000000E+00  0.14675342384E+04  0.14675342384E+04  0.50400001928E-02 0. -1.
       -1   -1    0    0    0  501  0.00000000000E+00  0.00000000000E+00 -0.18544681696E+04  0.18544681696E+04  0.50400001928E-02 0.  1.
    10030    2    1    2    0    0  0.00000000000E+00  0.00000000000E+00 -0.38693393123E+03  0.33220024080E+04  0.32993911759E+04 0.  0.
        4    1    3    3  502    0 -0.12355310144E+04  0.10462962026E+04  0.12528004898E+03  0.16238747904E+04  0.12699999809E+01 0. -1.
       -4    1    3    3    0  502  0.12355310144E+04 -0.10462962026E+04 -0.51221398021E+03  0.16981276176E+04  0.12699999809E+01 0.  1.
</event>
<event>
 5   0  0.2279938E-08  0.3301533E+04  0.7818609E-02  0.8162505E-01
       -1   -1    0    0    0  501  0.00000000000E+00  0.00000000000E+00  0.15392495487E+04  0.15392495487E+04  0.50400001928E-02 0.  1.
        1   -1    0    0  501    0  0.00000000000E+00  0.00000000000E+00 -0.17703627381E+04  0.17703627382E+04  0.50400001928E-02 0. -1.
    10030    2    1    2    0    0  0.00000000000E+00  0.00000000000E+00 -0.23111318948E+03  0.33096122868E+04  0.33015330050E+04 0.  0.
        3    1    3    3  502    0 -0.64635467190E+03 -0.44723488436E+01 -0.16382324308E+04  0.17611359605E+04  0.10100000352E+00 0. -1.
       -3    1    3    3    0  502  0.64635467190E+03  0.44723488436E+01  0.14071192413E+04  0.15484763264E+04  0.10100000352E+00 0.  1.
</event>
<event>
 5   0  0.6603516E-08  0.3302426E+04  0.7818609E-02  0.8162278E-01
       -2   -1    0    0    0  501  0.00000000000E+00  0.00000000000E+00  0.17326728247E+04  0.17326728247E+04  0.25500000920E-02 0.  1.
        2   -1    0    0  501    0  0.00000000000E+00  0.00000000000E+00 -0.15735827438E+04  0.15735827438E+04  0.25500000920E-02 0. -1.
    10030    2    1    2    0    0  0.00000000000E+00  0.00000000000E+00  0.15909008090E+03  0.33062555685E+04  0.33024258100E+04 0.  0.
        1    1    3    3  502    0  0.29723641058E+03  0.27395303421E+03 -0.15232813755E+04  0.15760031401E+04  0.50400001928E-02 0. -1.
       -1    1    3    3    0  502 -0.29723641058E+03 -0.27395303421E+03  0.16823714564E+04  0.17302524284E+04  0.50400001928E-02 0.  1.
</event>
<event>
 5   0  0.2291682E-08  0.3301394E+04  0.7818609E-02  0.8162541E-01
        1   -1    0    0  501    0  0.00000000000E+00  0.00000000000E+00  0.18299995171E+04  0.18299995171E+04  0.50400001928E-02 0. -1.
       -1   -1    0    0    0  501  0.00000000000E+00  0.00000000000E+00 -0.14889627720E+04  0.14889627720E+04  0.50400001928E-02 0.  1.
    10030    2    1    2    0    0  0.00000000000E+00  0.00000000000E+00  0.34103674509E+03  0.33189622892E+04  0.33013943441E+04 0.  0.
        2    1    3    3  502    0 -0.73325895116E+03  0.14143241419E+04 -0.26400809373E+03  0.16148317998E+04  0.25500000920E-02 0.  1.
       -2    1    3    3    0  502  0.73325895116E+03 -0.14143241419E+04  0.60504483883E+03  0.17041304894E+04  0.25500000920E-02 0. -1.
</event>
<event>
 5   0  0.6765252E-08  0.3301544E+04  0.7818609E-02  0.8162503E-01
        2   -1    0    0  501    0  0.00000000000E+00  0.00000000000E+00  0.25347549999E+04  0.25347549999E+04  0.25500000920E-02 0. -1.
       -2   -1    0    0    0  501  0.00000000000E+00  0.00000000000E+00 -0.10750733960E+04  0.10750733960E+04  0.25500000920E-02 0.  1.
    10030    2    1    2    0    0  0.00000000000E+00  0.00000000000E+00  0.14596816038E+04  0.36098283959E+04  0.33015436788E+04 0.  0.
        2    1    3    3  502    0  0.15343394441E+04  0.96398101821E+02  0.13872839783E+04  0.20707599958E+04  0.25500000920E-02 0. -1.
       -2    1    3    3    0  502 -0.15343394441E+04 -0.96398101821E+02  0.72397625510E+02  0.15390684000E+04  0.25500000920E-02 0.  1.
</event>
<event>
 5   0  0.2309822E-08  0.3300290E+04  0.7818609E-02  0.8162822E-01
       -1   -1    0    0    0  501  0.00000000000E+00  0.00000000000E+00  0.24418419453E+04  0.24418419453E+04  0.50400001928E-02 0.  1.
        1   -1    0    0  501    0  0.00000000000E+00  0.00000000000E+00 -0.11151327244E+04  0.11151327244E+04  0.50400001928E-02 0. -1.
    10030    2    1    2    0    0  0.00000000000E+00  0.00000000000E+00  0.13267092209E+04  0.35569746696E+04  0.33002896000E+04 0.  0.
        4    1    3    3  502    0 -0.67145204575E+03 -0.12473991560E+04  0.15754132432E+04  0.21186743506E+04  0.12699999809E+01 0.  1.
       -4    1    3    3    0  502  0.67145204575E+03  0.12473991560E+04 -0.24870402230E+03  0.14383003190E+04  0.12699999809E+01 0. -1.
</event>
<event>
 5   0  0.6821287E-08  0.3301118E+04  0.7818609E-02  0.8162611E-01
       -2   -1    0    0    0  501  0.00000000000E+00  0.00000000000E+00  0.20096708837E+04  0.20096708837E+04  0.25500000920E-02 0.  1.
        2   -1    0    0  501    0  0.00000000000E+00  0.00000000000E+00 -0.13556171557E+04  0.13556171557E+04  0.25500000920E-02 0. -1.
    10030    2    1    2    0    0  0.00000000000E+00  0.00000000000E+00  0.65405372793E+03  0.33652880394E+04  0.33011175849E+04 0.  0.
        5    1    3    3  502    0  0.96901672198E+03 -0.13293182319E+04  0.18933892358E+03  0.16558839594E+04  0.46999998093E+01 0. -1.
       -5    1    3    3    0  502 -0.96901672198E+03  0.13293182319E+04  0.46471480435E+03  0.17094040799E+04  0.46999998093E+01 0.  1.
</event>
<event>
 5   0  0.2309822E-08  0.3301774E+04  0.7818609E-02  0.8162444E-01
        1   -1    0    0  501    0  0.00000000000E+00  0.00000000000E+00  0.17706069939E+04  0.17706069939E+04  0.50400001928E-02 0.  1.
       -1   -1    0    0    0  501  0.00000000000E+00  0.00000000000E+00 -0.15392618279E+04  0.15392618279E+04  0.50400001928E-02 0. -1.
    10030    2    1    2    0    0  0.00000000000E+00  0.00000000000E+00  0.23134516599E+03  0.33098688219E+04  0.33017739220E+04 0.  0.
        4    1    3    3  502    0 -0.15200533546E+04 -0.60256437342E+03 -0.11243775903E+03  0.16389905087E+04  0.12699999809E+01 0. -1.
       -4    1    3    3    0  502  0.15200533546E+04  0.60256437342E+03  0.34378292502E+03  0.16708783132E+04  0.12699999809E+01 0.  1.
</event>
<event>
 5   0  0.6603516E-08  0.3299548E+04  0.7818609E-02  0.8163010E-01
       -2   -1    0    0    0  501  0.00000000000E+00  0.00000000000E+00  0.99120568359E+03  0.99120568360E+03  0.25500000920E-02 0. -1.
        2   -1    0    0  501    0  0.00000000000E+00  0.00000000000E+00 -0.27459023085E+04  0.27459023085E+04  0.25500000920E-02 0.  1.
    10030    2    1    2    0    0  0.00000000000E+00  0.00000000000E+00 -0.17546966249E+04  0.37371079921E+04  0.32995478325E+04 0.  0.
        1    1    3    3  502    0  0.74216859292E+03 -0.77616967338E+03  0.54113272761E+03  0.12025299211E+04  0.50400001928E-02 0. -1.
       -1    1    3    3    0  502 -0.74216859292E+03  0.77616967338E+03 -0.22958293525E+04  0.25345780710E+04  0.50400001928E-02 0.  1.
</event>
<event>
 5   0  0.2291682E-08  0.3300355E+04  0.7818609E-02  0.8162805E-01
        1   -1    0    0  501    0  0.00000000000E+00  0.00000000000E+00  0.21674903617E+04  0.21674903617E+04  0.50400001928E-02 0. -1.
       -1   -1    0    0    0  501  0.00000000000E+00  0.00000000000E+00 -0.12563313511E+04  0.12563313511E+04  0.50400001928E-02 0.  1.
    10030    2    1    2    0    0  0.00000000000E+00  0.00000000000E+00  0.91115901060E+03  0.34238217127E+04  0.33003551897E+04 0.  0.
        2    1    3    3  502    0 -0.96485899972E+03 -0.18725268398E+03  0.18307132737E+04  0.20778661043E+04  0.25500000920E-02 0. -1.
       -2    1    3    3    0  502  0.96485899972E+03  0.18725268398E+03 -0.91955426309E+03  0.13459556084E+04  0.25500000920E-02 0.  1.
</event>
<event>
 5   0  0.2291682E-08  0.3301729E+04  0.7818609E-02  0.8162455E-01
       -1   -1    0    0    0  501  0.00000000000E+00  0.00000000000E+00  0.15759844305E+04  0.15759844305E+04  0.50400001928E-02 0. -1.
        1   -1    0    0  501    0  0.00000000000E+00  0.00000000000E+00 -0.17293027866E+04  0.17293027866E+04  0.50400001928E-02 0.  1.
    10030    2    1    2    0    0  0.00000000000E+00  0.00000000000E+00 -0.15331835615E+03  0.33052872171E+04  0.33017294058E+04 0.  0.
        2    1    3    3  502    0  0.31897923346E+03 -0.12379506481E+03  0.15400985295E+04  0.15776490263E+04  0.25500000920E-02 0. -1.
       -2    1    3    3    0  502 -0.31897923346E+03  0.12379506481E+03 -0.16934168857E+04  0.17276381908E+04  0.25500000920E-02 0.  1.
</event>
<event>
 5   0  0.2279938E-08  0.3300326E+04  0.7818609E-02  0.8162812E-01
       -1   -1    0    0    0  501  0.00000000000E+00  0.00000000000E+00  0.19875592248E+04  0.19875592248E+04  0.50400001928E-02 0.  1.
        1   -1    0    0  501    0  0.00000000000E+00  0.00000000000E+00 -0.13700410675E+04  0.13700410675E+04  0.50400001928E-02 0. -1.
    10030    2    1    2    0    0  0.00000000000E+00  0.00000000000E+00  0.61751815723E+03  0.33576002923E+04  0.33003259003E+04 0.  0.
        3    1    3    3  502    0 -0.10034014595E+04 -0.12524111874E+04  0.69973224171E+03  0.17507065692E+04  0.10100000352E+00 0.  1.
       -3    1    3    3    0  502  0.10034014595E+04  0.12524111874E+04 -0.82214084475E+02  0.16068937231E+04  0.10100000352E+00 0. -1.
</event>
<event>
 5   0  0.2383270E-08  0.3300655E+04  0.7818609E-02  0.8162729E-01
       -1   -1    0    0    0  501  0.00000000000E+00  0.00000000000E+00  0.12661540871E+04  0.12661540871E+04  0.50400001928E-02 0. -1.
        1   -1    0    0  501    0  0.00000000000E+00  0.00000000000E+00 -0.21510663490E+04  0.21510663490E+04  0.50400001928E-02 0.  1.
    10030    2    1    2    0    0  0.00000000000E+00  0.00000000000E+00 -0.88491226189E+03  0.34172204360E+04  0.33006553587E+04 0.  0.
        5    1    3    3  502    0  0.13231133971E+04  0.52786567675E+02 -0.14621994973E+04  0.19726796352E+04  0.46999998093E+01 0.  1.
       -5    1    3    3    0  502 -0.13231133971E+04 -0.52786567675E+02  0.57728723536E+03  0.14445408009E+04  0.46999998093E+01 0. -1.
</event>
<event>
 5   0  0.2309822E-08  0.3301218E+04  0.7818609E-02  0.8162585E-01
        1   -1    0    0  501    0  0.00000000000E+00  0.00000000000E+00  0.84759201150E+03  0.84759201151E+03  0.50400001928E-02 0. -1.
       -1   -1    0    0    0  501  0.00000000000E+00  0.00000000000E+00 -0.32144125129E+04  0.32144125129E+04  0.50400001928E-02 0.  1.
    10030    2    1    2    0    0  0.00000000000E+00  0.00000000000E+00 -0.23668205014E+04  0.40620045244E+04  0.33012181798E+04 0.  0.
        4    1    3    3  502    0  0.66602880339E+03  0.68648354051E+03  0.47184142654E+03  0.10665317450E+04  0.12699999809E+01 0. -1.
       -4    1    3    3    0  502 -0.66602880339E+03 -0.68648354051E+03 -0.28386619279E+04  0.29954727794E+04  0.12699999809E+01 0.  1.
</event>
<event>
 5   0  0.6706080E-08  0.3301403E+04  0.7818609E-02  0.8162539E-01
        2   -1    0    0  501    0  0.00000000000E+00  0.00000000000E+00  0.17277801619E+04  0.17277801619E+04  0.25500000920E-02 0.  1.
       -2   -1    0    0    0  501  0.00000000000E+00  0.00000000000E+00 -0.15770610336E+04  0.15770610336E+04  0.25500000920E-02 0. -1.
    10030    2    1    2    0    0  0.00000000000E+00  0.00000000000E+00  0.15071912830E+03  0.33048411955E+04  0.33014025916E+04 0.  0.
        4    1    3    3  502    0 -0.87380652384E+03 -0.88296863276E+03  0.11635252166E+04  0.17020470000E+04  0.12699999809E+01 0.  1.
       -4    1    3    3    0  502  0.87380652384E+03  0.88296863276E+03 -0.10128060883E+04  0.16027941955E+04  0.12699999809E+01 0. -1.
</event>
<event>
 5   0  0.6603516E-08  0.3301055E+04  0.7818609E-02  0.8162627E-01
       -2   -1    0    0    0  501  0.00000000000E+00  0.00000000000E+00  0.14106683074E+04  0.14106683074E+04  0.25500000920E-02 0. -1.
        2   -1    0    0  501    0  0.00000000000E+00  0.00000000000E+00 -0.19311710248E+04  0.19311710248E+04  0.25500000920E-02 0.  1.
    10030    2    1    2    0    0  0.00000000000E+00  0.00000000000E+00 -0.52050271740E+03  0.33418393323E+04  0.33010554440E+04 0.  0.
        1    1    3    3  502    0  0.10765960472E+04  0.27925684964E+03 -0.14948255424E+04  0.18632087482E+04  0.50400001928E-02 0.  1.
       -1    1    3    3    0  502 -0.10765960472E+04 -0.27925684964E+03  0.97432282501E+03  0.14786305841E+04  0.50400001928E-02 0. -1.
</event>
<event>
 5   0  0.6821287E-08  0.3298615E+04  0.7818609E-02  0.8163248E-01
        2   -1    0    0  501    0  0.00000000000E+00  0.00000000000E+00  0.16451061194E+04  0.16451061194E+04  0.25500000920E-02 0. -1.
       -2   -1    0    0    0  501  0.00000000000E+00  0.00000000000E+00 -0.16535193063E+04  0.16535193063E+04  0.25500000920E-02 0.  1.
    10030    2    1    2    0    0  0.00000000000E+00  0.00000000000E+00 -0.84131869328E+01  0.32986254258E+04  0.32986146968E+04 0.  0.
        5    1    3    3  502    0  0.14658788781E+04  0.67486949603E+03 -0.34471161792E+03  0.16501811754E+04  0.46999998093E+01 0.  1.
       -5    1    3    3    0  502 -0.14658788781E+04 -0.67486949603E+03  0.33629843099E+03  0.16484442504E+04  0.46999998093E+01 0. -1.
</event>
<event>
 5   0  0.6765252E-08  0.3298477E+04  0.7818609E-02  0.8163283E-01
        2   -1    0    0  501    0  0.00000000000E+00  0.00000000000E+00  0.26396317546E+04  0.26396317546E+04  0.25500000920E-02 0. -1.
       -2   -1    0    0    0  501  0.00000000000E+00  0.00000000000E+00 -0.10304421513E+04  0.10304421513E+04  0.25500000920E-02 0.  1.
    10030    2    1    2    0    0  0.00000000000E+00  0.00000000000E+00  0.16091896033E+04  0.36700739059E+04  0.32984771176E+04 0.  0.
        2    1    3    3  502    0 -0.11197961621E+04  0.10054296386E+04  0.53938232467E+02  0.15059022331E+04  0.25500000920E-02 0.  1.
       -2    1    3    3    0  502  0.11197961621E+04 -0.10054296386E+04  0.15552513708E+04  0.21641716728E+04  0.25500000920E-02 0. -1.
</event>
<event>
 5   0  0.2291682E-08  0.3294368E+04  0.7818609E-02  0.8164330E-01
       -1   -1    0    0    0  501  0.00000000000E+00  0.00000000000E+00  0.26563565697E+04  0.26563565697E+04  0.50400001928E-02 0. -1.
        1   -1    0    0  501    0  0.00000000000E+00  0.00000000000E+00 -0.10214046493E+04  0.10214046493E+04  0.50400001928E-02 0.  1.
    10030    2    1    2    0    0  0.00000000000E+00  0.00000000000E+00  0.16349519205E+04  0.36777612190E+04  0.32943678911E+04 0.  0.
        2    1    3    3  502    0 -0.72066586079E+03 -0.43297766075E+03 -0.76384008762E+03  0.11359051972E+04  0.25500000920E-02 0.  1.
       -2    1    3    3    0  502  0.72066586079E+03  0.43297766075E+03  0.23987920081E+04  0.25418560218E+04  0.25500000920E-02 0. -1.
</event>
<event>
 5   0  0.2244093E-08  0.3295802E+04  0.7818609E-02  0.8163964E-01
       -1   -1    0    0    0  501  0.00000000000E+00  0.00000000000E+00  0.18591022996E+04  0.18591022996E+04  0.50400001928E-02 0.  1.
        1   -1    0    0  501    0  0.00000000000E+00  0.00000000000E+00 -0.14606933351E+04  0.14606933351E+04  0.50400001928E-02 0. -1.
    10030    2    1    2    0    0  0.00000000000E+00  0.00000000000E+00  0.39840896448E+03  0.33197956347E+04  0.32958023838E+04 0.  0.
        1    1    3    3  502    0 -0.60814513271E+03 -0.61056998868E+03  0.16140445775E+04  0.18296929009E+04  0.50400001928E-02 0.  1.
       -1    1    3    3    0  502  0.60814513271E+03  0.61056998868E+03 -0.12156356130E+04  0.14901027338E+04  0.50400001928E-02 0. -1.
</event>
<event>
 5   0  0.6821287E-08  0.3296958E+04  0.7818609E-02  0.8163670E-01
       -2   -1    0    0    0  501  0.00000000000E+00  0.00000000000E+00  0.15562399289E+04  0.15562399290E+04  0.25500000920E-02 0. -1.
        2   -1    0    0  501    0  0.00000000000E+00  0.00000000000E+00 -0.17461851483E+04  0.17461851483E+04  0.25500000920E-02 0.  1.
    10030    2    1    2    0    0  0.00000000000E+00  0.00000000000E+00 -0.18994521935E+03  0.33024250773E+04  0.32969580229E+04 0.  0.
        5    1    3    3  502    0  0.60509622114E+03 -0.50831746761E+03  0.13541235510E+04  0.15678650344E+04  0.46999998093E+01 0. -1.
       -5    1    3    3    0  502 -0.60509622114E+03  0.50831746761E+03 -0.15440687703E+04  0.17345600429E+04  0.46999998093E+01 0.  1.
</event>
<event>
 5   0  0.6603516E-08  0.3299713E+04  0.7818609E-02  0.8162968E-01
       -2   -1    0    0    0  501  0.00000000000E+00  0.00000000000E+00  0.15077430806E+04  0.15077430806E+04  0.25500000920E-02 0. -1.
        2   -1    0    0  501    0  0.00000000000E+00  0.00000000000E+00 -0.18053649555E+04  0.18053649555E+04  0.25500000920E-02 0.  1.
    10030    2    1    2    0    0  0.00000000000E+00  0.00000000000E+00 -0.29762187499E+03  0.33131080361E+04  0.32997130297E+04 0.  0.
        1    1    3    3  502    0  0.10465345821E+04 -0.18606782626E+03  0.11181237691E+04  0.15427432160E+04  0.50400001928E-02 0. -1.
       -1    1    3    3    0  502 -0.10465345821E+04  0.18606782626E+03 -0.14157456441E+04  0.17703648201E+04  0.50400001928E-02 0.  1.
</event>
<event>
 5   0  0.2383270E-08  0.3301940E+04  0.7818609E-02  0.8162402E-01
        1   -1    0    0  501    0  0.00000000000E+00  0.00000000000E+00  0.22422336045E+04  0.22422336045E+04  0.50400001928E-02 0.  1.
       -1   -1    0    0    0  501  0.00000000000E+00  0.00000000000E+00 -0.12156193540E+04  0.12156193540E+04  0.50400001928E-02 0. -1.
    10030    2    1    2    0    0  0.00000000000E+00  0.00000000000E+00  0.10266142505E+04  0.34578529585E+04  0.33019403785E+04 0.  0.
        5    1    3    3  502    0 -0.13702015287E+03  0.12353665547E+04  0.16512512762E+04  0.20667747613E+04  0.46999998093E+01 0.  1.
       -5    1    3    3    0  502  0.13702015287E+03 -0.12353665547E+04 -0.62463702574E+03  0.13910781972E+04  0.46999998093E+01 0. -1.
</event>
<event>
 5   0  0.2279938E-08  0.3300679E+04  0.7818609E-02  0.8162723E-01
        1   -1    0    0  501    0  0.00000000000E+00  0.00000000000E+00  0.23355690775E+04  0.23355690775E+04  0.50400001928E-02 0. -1.
       -1   -1    0    0    0  501  0.00000000000E+00  0.00000000000E+00 -0.11661486700E+04  0.11661486700E+04  0.50400001928E-02 0.  1.
    10030    2    1    2    0    0  0.00000000000E+00  0.00000000000E+00  0.11694204075E+04  0.35017177475E+04  0.33006791867E+04 0.  0.
        3    1    3    3  502    0  0.10410804322E+03  0.15881141740E+04  0.10479708827E+04  0.19055676570E+04  0.10100000352E+00 0.  1.
       -3    1    3    3    0  502 -0.10410804322E+03 -0.15881141740E+04  0.12144952478E+03  0.15961500905E+04  0.10100000352E+00 0. -1.
</event>
<event>
 5   0  0.6821287E-08  0.3292581E+04  0.7818609E-02  0.8164786E-01
       -2   -1    0    0    0  501  0.00000000000E+00  0.00000000000E+00  0.98812322535E+03  0.98812322535E+03  0.25500000920E-02 0.  1.
        2   -1    0    0  501    0  0.00000000000E+00  0.00000000000E+00 -0.27428479964E+04  0.27428479964E+04  0.25500000920E-02 0. -1.
    10030    2    1    2    0    0  0.00000000000E+00  0.00000000000E+00 -0.17547247710E+04  0.37309712217E+04  0.32925806346E+04 0.  0.
        5    1    3    3  502    0 -0.21469935790E+03 -0.26076907656E+03  0.94842690028E+03  0.10067929284E+04  0.46999998093E+01 0.  1.
       -5    1    3    3    0  502  0.21469935790E+03  0.26076907656E+03 -0.27031516713E+04  0.27241782933E+04  0.46999998093E+01 0. -1.
</event>
<event>
 5   0  0.2279938E-08  0.3299611E+04  0.7818609E-02  0.8162994E-01
       -1   -1    0    0    0  501  0.00000000000E+00  0.00000000000E+00  0.11592461903E+04  0.11592461903E+04  0.50400001928E-02 0. -1.
        1   -1    0    0  501    0  0.00000000000E+00  0.00000000000E+00 -0.23479548243E+04  0.23479548243E+04  0.50400001928E-02 0.  1.
    10030    2    1    2    0    0  0.00000000000E+00  0.00000000000E+00 -0.11887086340E+04  0.35072010146E+04  0.32996106952E+04 0.  0.
        3    1    3    3  502    0  0.33880269392E+03  0.20380024319E+03 -0.22968538484E+04  0.23306349812E+04  0.10100000352E+00 0.  1.
       -3    1    3    3    0  502 -0.33880269392E+03 -0.20380024319E+03  0.11081452144E+04  0.11765660334E+04  0.10100000352E+00 0. -1.
</event>
<event>
 5   0  0.7084130E-08  0.3300559E+04  0.7818609E-02  0.8162753E-01
       -2   -1    0    0    0  501  0.00000000000E+00  0.00000000000E+00  0.11473374304E+04  0.11473374304E+04  0.25500000920E-02 0.  1.
        2   -1    0    0  501    0  0.00000000000E+00  0.00000000000E+00 -0.23736887848E+04  0.23736887848E+04  0.25500000920E-02 0. -1.
    10030    2    1    2    0    0  0.00000000000E+00  0.00000000000E+00 -0.12263513544E+04  0.35210262152E+04  0.33005587350E+04 0.  0.
        3    1    3    3  502    0 -0.42106901782E+03 -0.14208386457E+03 -0.23086564984E+04  0.23510384472E+04  0.10100000352E+00 0. -1.
       -3    1    3    3    0  502  0.42106901782E+03  0.14208386457E+03  0.10823051440E+04  0.11699877680E+04  0.10100000352E+00 0.  1.
</event>
<event>
 5   0  0.2291682E-08  0.3299437E+04  0.7818609E-02  0.8163039E-01
       -1   -1    0    0    0  501  0.00000000000E+00  0.00000000000E+00  0.11201633707E+04  0.11201633707E+04  0.50400001928E-02 0.  1.
        1   -1    0    0  501    0  0.00000000000E+00  0.00000000000E+00 -0.24296202650E+04  0.24296202650E+04  0.50400001928E-02 0. -1.
    10030    2    1    2    0    0  0.00000000000E+00  0.00000000000E+00 -0.13094568943E+04  0.35497836357E+04  0.32994373009E+04 0.  0.
        2    1    3    3  502    0  0.49341299632E+03  0.14714608711E+04 -0.52893535540E+02  0.15528848013E+04  0.25500000920E-02 0.  1.
       -2    1    3    3    0  502 -0.49341299632E+03 -0.14714608711E+04 -0.12565633588E+04  0.19968988344E+04  0.25500000920E-02 0. -1.
</event>
<event>
 5   0  0.6603516E-08  0.3299989E+04  0.7818609E-02  0.8162898E-01
        2   -1    0    0  501    0  0.00000000000E+00  0.00000000000E+00  0.20186714371E+04  0.20186714371E+04  0.25500000920E-02 0.  1.
       -2   -1    0    0    0  501  0.00000000000E+00  0.00000000000E+00 -0.13486500218E+04  0.13486500218E+04  0.25500000920E-02 0. -1.
    10030    2    1    2    0    0  0.00000000000E+00  0.00000000000E+00  0.67002141530E+03  0.33673214589E+04  0.32999886531E+04 0.  0.
        1    1    3    3  502    0  0.12737235817E+04 -0.36588152819E+03  0.13380424741E+04  0.18832415452E+04  0.50400001928E-02 0.  1.
       -1    1    3    3    0  502 -0.12737235817E+04  0.36588152819E+03 -0.66802105879E+03  0.14840799137E+04  0.50400001928E-02 0. -1.
</event>
<event>
 5   0  0.2291682E-08  0.3299272E+04  0.7818609E-02  0.8163081E-01
        1   -1    0    0  501    0  0.00000000000E+00  0.00000000000E+00  0.17713919512E+04  0.17713919512E+04  0.50400001928E-02 0.  1.
       -1   -1    0    0    0  501  0.00000000000E+00  0.00000000000E+00 -0.15362487418E+04  0.15362487418E+04  0.50400001928E-02 0. -1.
    10030    2    1    2    0    0  0.00000000000E+00  0.00000000000E+00  0.23514320945E+03  0.33076406930E+04  0.32992718326E+04 0.  0.
        2    1    3    3  502    0  0.10946946001E+04  0.33108424027E+03 -0.10742776851E+04  0.15690906878E+04  0.25500000920E-02 0. -1.
       -2    1    3    3    0  502 -0.10946946001E+04 -0.33108424027E+03  0.13094208945E+04  0.17385500053E+04  0.25500000920E-02 0.  1.
</event>
<event>
 5   0  0.6706080E-08  0.3298742E+04  0.7818609E-02  0.8163216E-01
        2   -1    0    0  501    0  0.00000000000E+00  0.00000000000E+00  0.15957430305E+04  0.15957430305E+04  0.25500000920E-02 0.  1.
       -2   -1    0    0    0  501  0.00000000000E+00  0.00000000000E+00 -0.17048011055E+04  0.17048011055E+04  0.25500000920E-02 0. -1.
    10030    2    1    2    0    0  0.00000000000E+00  0.00000000000E+00 -0.10905807504E+03  0.33005441360E+04  0.32987418707E+04 0.  0.
        4    1    3    3  502    0  0.44432768193E+03 -0.42917082207E+02 -0.16432107295E+04  0.17027660084E+04  0.12699999809E+01 0. -1.
       -4    1    3    3    0  502 -0.44432768193E+03  0.42917082207E+02  0.15341526545E+04  0.15977781276E+04  0.12699999809E+01 0.  1.
</event>
<event>
 5   0  0.2309822E-08  0.3281953E+04  0.7818609E-02  0.8167503E-01
        1   -1    0    0  501    0  0.00000000000E+00  0.00000000000E+00  0.14241761691E+04  0.14241761691E+04  0.50400001928E-02 0.  1.
       -1   -1    0    0    0  501  0.00000000000E+00  0.00000000000E+00 -0.18907804373E+04  0.18907804373E+04  0.50400001928E-02 0. -1.
    10030    2    1    2    0    0  0.00000000000E+00  0.00000000000E+00 -0.46660426819E+03  0.33149566064E+04  0.32819533450E+04 0.  0.
        4    1    3    3  502    0 -0.13004961641E+04 -0.92708553239E+03  0.14734958668E+03  0.16038988031E+04  0.12699999809E+01 0. -1.
       -4    1    3    3    0  502  0.13004961641E+04  0.92708553239E+03 -0.61395385487E+03  0.17110578032E+04  0.12699999809E+01 0.  1.
</event>
<event>
 5   0  0.2291682E-08  0.3299475E+04  0.7818609E-02  0.8163029E-01
        1   -1    0    0  501    0  0.00000000000E+00  0.00000000000E+00  0.17654897723E+04  0.17654897723E+04  0.50400001928E-02 0. -1.
       -1   -1    0    0    0  501  0.00000000000E+00  0.00000000000E+00 -0.15415745315E+04  0.15415745315E+04  0.50400001928E-02 0.  1.
    10030    2    1    2    0    0  0.00000000000E+00  0.00000000000E+00  0.22391524088E+03  0.33070643038E+04  0.32994751514E+04 0.  0.
        2    1    3    3  502    0  0.15184568176E+04  0.59437176835E+03  0.36282347191E+03  0.16705178173E+04  0.25500000920E-02 0. -1.
       -2    1    3    3    0  502 -0.15184568176E+04 -0.59437176835E+03 -0.13890823102E+03  0.16365464865E+04  0.25500000920E-02 0.  1.
</event>
<event>
 5   0  0.2383270E-08  0.3299772E+04  0.7818609E-02  0.8162953E-01
        1   -1    0    0  501    0  0.00000000000E+00  0.00000000000E+00  0.19585215013E+04  0.19585215013E+04  0.50400001928E-02 0.  1.
       -1   -1    0    0    0  501  0.00000000000E+00  0.00000000000E+00 -0.13898874136E+04  0.13898874136E+04  0.50400001928E-02 0. -1.
    10030    2    1    2    0    0  0.00000000000E+00  0.00000000000E+00  0.56863408768E+03  0.33484089149E+04  0.32997723461E+04 0.  0.
        5    1    3    3  502    0 -0.83856838077E+02 -0.13220533844E+04  0.12822992469E+04  0.18436839667E+04  0.46999998093E+01 0.  1.
       -5    1    3    3    0  502  0.83856838077E+02  0.13220533844E+04 -0.71366515918E+03  0.15047249482E+04  0.46999998093E+01 0. -1.
</event>
<event>
 5   0  0.2291682E-08  0.3301358E+04  0.7818609E-02  0.8162550E-01
        1   -1    0    0  501    0  0.00000000000E+00  0.00000000000E+00  0.26407955335E+04  0.26407955335E+04  0.50400001928E-02 0. -1.
       -1   -1    0    0    0  501  0.00000000000E+00  0.00000000000E+00 -0.10317881125E+04  0.10317881125E+04  0.50400001928E-02 0.  1.
    10030    2    1    2    0    0  0.00000000000E+00  0.00000000000E+00  0.16090074211E+04  0.36725836460E+04  0.33013581684E+04 0.  0.
        2    1    3    3  502    0 -0.75195129161E+03  0.11346504468E+04  0.18432444739E+04  0.22913778763E+04  0.25500000920E-02 0. -1.
       -2    1    3    3    0  502  0.75195129161E+03 -0.11346504468E+04 -0.23423705284E+03  0.13812057697E+04  0.25500000920E-02 0.  1.
</event>
<event>
 5   0  0.2279938E-08  0.3299625E+04  0.7818609E-02  0.8162991E-01
        1   -1    0    0  501    0  0.00000000000E+00  0.00000000000E+00  0.28453407223E+04  0.28453407223E+04  0.50400001928E-02 0.  1.
       -1   -1    0    0    0  501  0.00000000000E+00  0.00000000000E+00 -0.95660994436E+03  0.95660994437E+03  0.50400001928E-02 0. -1.
    10030    2    1    2    0    0  0.00000000000E+00  0.00000000000E+00  0.18887307779E+04  0.38019506666E+04  0.32996249666E+04 0.  0.
        3    1    3    3  502    0  0.19101974346E+03 -0.10151367463E+04  0.24266324929E+04  0.26373350986E+04  0.10100000352E+00 0.  1.
       -3    1    3    3    0  502 -0.19101974346E+03  0.10151367463E+04 -0.53790171503E+03  0.11646155681E+04  0.10100000352E+00 0. -1.
</event>
<event>
 5   0  0.2383270E-08  0.3299472E+04  0.7818609E-02  0.8163030E-01
       -1   -1    0    0    0  501  0.00000000000E+00  0.00000000000E+00  0.16174293396E+04  0.16174293396E+04  0.50400001928E-02 0.  1.
        1   -1    0    0  501    0  0.00000000000E+00  0.00000000000E+00 -0.16826882590E+04  0.16826882590E+04  0.50400001928E-02 0. -1.
    10030    2    1    2    0    0  0.00000000000E+00  0.00000000000E+00 -0.65258919380E+02  0.33001175985E+04  0.32994722968E+04 0.  0.
        5    1    3    3  502    0  0.14233446972E+04 -0.73169318639E+03 -0.43311034599E+03  0.16579781988E+04  0.46999998093E+01 0. -1.
       -5    1    3    3    0  502 -0.14233446972E+04  0.73169318639E+03  0.36785142661E+03  0.16421393997E+04  0.46999998093E+01 0.  1.
</event>
<event>
 5   0  0.2383270E-08  0.3299255E+04  0.7818609E-02  0.8163085E-01
       -1   -1    0    0    0  501  0.00000000000E+00  0.00000000000E+00  0.14224523327E+04  0.14224523327E+04  0.50400001928E-02 0.  1.
        1   -1    0    0  501    0  0.00000000000E+00  0.00000000000E+00 -0.19130838412E+04  0.19130838412E+04  0.50400001928E-02 0. -1.
    10030    2    1    2    0    0  0.00000000000E+00  0.00000000000E+00 -0.49063150843E+03  0.33355361739E+04  0.32992548083E+04 0.  0.
        5    1    3    3  502    0  0.92019248629E+03 -0.12019808866E+04 -0.90806734039E+03  0.17652537065E+04  0.46999998093E+01 0. -1.
       -5    1    3    3    0  502 -0.92019248629E+03  0.12019808866E+04  0.41743583196E+03  0.15702824674E+04  0.46999998093E+01 0.  1.
</event>
<event>
 5   0  0.2383270E-08  0.3302299E+04  0.7818609E-02  0.8162311E-01
       -1   -1    0    0    0  501  0.00000000000E+00  0.00000000000E+00  0.18214942599E+04  0.18214942599E+04  0.50400001928E-02 0. -1.
        1   -1    0    0  501    0  0.00000000000E+00  0.00000000000E+00 -0.14967348230E+04  0.14967348230E+04  0.50400001928E-02 0.  1.
    10030    2    1    2    0    0  0.00000000000E+00  0.00000000000E+00  0.32475943690E+03  0.33182290829E+04  0.33022985260E+04 0.  0.
        5    1    3    3  502    0  0.86401712896E+03  0.20438105636E+03 -0.12364474967E+04  0.15222094854E+04  0.46999998093E+01 0.  1.
       -5    1    3    3    0  502 -0.86401712896E+03 -0.20438105636E+03  0.15612069336E+04  0.17960195976E+04  0.46999998093E+01 0. -1.
</event>
<event>
 5   0  0.6706080E-08  0.3300361E+04  0.7818609E-02  0.8162804E-01
       -2   -1    0    0    0  501  0.00000000000E+00  0.00000000000E+00  0.15222445444E+04  0.15222445444E+04  0.25500000920E-02 0. -1.
        2   -1    0    0  501    0  0.00000000000E+00  0.00000000000E+00 -0.17888682952E+04  0.17888682952E+04  0.25500000920E-02 0.  1.
    10030    2    1    2    0    0  0.00000000000E+00  0.00000000000E+00 -0.26662375079E+03  0.33111128396E+04  0.33003605882E+04 0.  0.
        4    1    3    3  502    0  0.82830575180E+03  0.83261322875E+03 -0.12962942960E+04  0.17492043111E+04  0.12699999809E+01 0.  1.
       -4    1    3    3    0  502 -0.82830575180E+03 -0.83261322875E+03  0.10296705452E+04  0.15619085286E+04  0.12699999809E+01 0. -1.
</event>
<event>
 5   0  0.2309822E-08  0.3300751E+04  0.7818609E-02  0.8162704E-01
        1   -1    0    0  501    0  0.00000000000E+00  0.00000000000E+00  0.21151167042E+04  0.21151167042E+04  0.50400001928E-02 0. -1.
       -1   -1    0    0    0  501  0.00000000000E+00  0.00000000000E+00 -0.12877489485E+04  0.12877489485E+04  0.50400001928E-02 0.  1.
    10030    2    1    2    0    0  0.00000000000E+00  0.00000000000E+00  0.82736775575E+03  0.34028656527E+04  0.33007510126E+04 0.  0.
        4    1    3    3  502    0  0.76877298148E+03 -0.79021098926E+03 -0.85243594572E+03  0.13935903125E+04  0.12699999809E+01 0.  1.
       -4    1    3    3    0  502 -0.76877298148E+03  0.79021098926E+03  0.16798037015E+04  0.20092753403E+04  0.12699999809E+01 0. -1.
</event>
<event>
 5   0  0.7084130E-08  0.3298552E+04  0.7818609E-02  0.8163264E-01
        2   -1    0    0  501    0  0.00000000000E+00  0.00000000000E+00  0.19726084045E+04  0.19726084045E+04  0.25500000920E-02 0. -1.
       -2   -1    0    0    0  501  0.00000000000E+00  0.00000000000E+00 -0.13789413285E+04  0.13789413285E+04  0.25500000920E-02 0.  1.
    10030    2    1    2    0    0  0.00000000000E+00  0.00000000000E+00  0.59366707607E+03  0.33515497330E+04  0.32985519574E+04 0.  0.
        3    1    3    3  502    0 -0.12950784150E+04  0.74271894777E+02 -0.73804294316E+03  0.14924650118E+04  0.10100000352E+00 0.  1.
       -3    1    3    3    0  502  0.12950784150E+04 -0.74271894777E+02  0.13317100192E+04  0.18590847212E+04  0.10100000352E+00 0. -1.
</event>
<event>
 5   0  0.6603516E-08  0.3301616E+04  0.7818609E-02  0.8162484E-01
        2   -1    0    0  501    0  0.00000000000E+00  0.00000000000E+00  0.13607414822E+04  0.13607414822E+04  0.25500000920E-02 0.  1.
       -2   -1    0    0    0  501  0.00000000000E+00  0.00000000000E+00 -0.20027068821E+04  0.20027068821E+04  0.25500000920E-02 0. -1.
    10030    2    1    2    0    0  0.00000000000E+00  0.00000000000E+00 -0.64196539990E+03  0.33634483643E+04  0.33016155628E+04 0.  0.
        1    1    3    3  502    0  0.13645447769E+04  0.90621258233E+03 -0.11229845819E+03  0.16418936130E+04  0.50400001928E-02 0.  1.
       -1    1    3    3    0  502 -0.13645447769E+04 -0.90621258233E+03 -0.52966694171E+03  0.17215547513E+04  0.50400001928E-02 0. -1.
</event>
<event>
 5   0  0.2309822E-08  0.3299563E+04  0.7818609E-02  0.8163007E-01
       -1   -1    0    0    0  501  0.00000000000E+00  0.00000000000E+00  0.16180403682E+04  0.16180403682E+04  0.50400001928E-02 0.  1.
        1   -1    0    0  501    0  0.00000000000E+00  0.00000000000E+00 -0.16821455519E+04  0.16821455520E+04  0.50400001928E-02 0. -1.
    10030    2    1    2    0    0  0.00000000000E+00  0.00000000000E+00 -0.64105183741E+02  0.33001859202E+04  0.32995632488E+04 0.  0.
        4    1    3    3  502    0  0.10797492035E+04 -0.84224766166E+03 -0.95230139813E+03  0.16679685344E+04  0.12699999809E+01 0. -1.
       -4    1    3    3    0  502 -0.10797492035E+04  0.84224766166E+03  0.88819621439E+03  0.16322173857E+04  0.12699999809E+01 0.  1.
</event>
<event>
 5   0  0.6603516E-08  0.3302464E+04  0.7818609E-02  0.8162269E-01
       -2   -1    0    0    0  501  0.00000000000E+00  0.00000000000E+00  0.13305436428E+04  0.13305436428E+04  0.25500000920E-02 0. -1.
        2   -1    0    0  501    0  0.00000000000E+00  0.00000000000E+00 -0.20492122327E+04  0.20492122327E+04  0.25500000920E-02 0.  1.
    10030    2    1    2    0    0  0.00000000000E+00  0.00000000000E+00 -0.71866858991E+03  0.33797558755E+04  0.33024635102E+04 0.  0.
        1    1    3    3  502    0 -0.28380046797E+03 -0.12368350885E+04 -0.14405951606E+04  0.19197963846E+04  0.50400001928E-02 0.  1.
       -1    1    3    3    0  502  0.28380046797E+03  0.12368350885E+04  0.72192657064E+03  0.14599594909E+04  0.50400001928E-02 0. -1.
</event>
<event>
 5   0  0.6603516E-08  0.3299092E+04  0.7818609E-02  0.8163127E-01
       -2   -1    0    0    0  501  0.00000000000E+00  0.00000000000E+00  0.22997773105E+04  0.22997773105E+04  0.25500000920E-02 0.  1.
        2   -1    0    0  501    0  0.00000000000E+00  0.00000000000E+00 -0.11831586563E+04  0.11831586563E+04  0.25500000920E-02 0. -1.
    10030    2    1    2    0    0  0.00000000000E+00  0.00000000000E+00  0.11166186542E+04  0.34829359669E+04  0.32990916523E+04 0.  0.
        1    1    3    3  502    0  0.14292250593E+03  0.10651085383E+04 -0.76287497242E+03  0.13179003243E+04  0.50400001928E-02 0. -1.
       -1    1    3    3    0  502 -0.14292250593E+03 -0.10651085383E+04  0.18794936267E+04  0.21650356426E+04  0.50400001928E-02 0.  1.
</event>
<event>
 5   0  0.2291682E-08  0.3300245E+04  0.7818609E-02  0.8162833E-01
        1   -1    0    0  501    0  0.00000000000E+00  0.00000000000E+00  0.13160905442E+04  0.13160905442E+04  0.50400001928E-02 0. -1.
       -1   -1    0    0    0  501  0.00000000000E+00  0.00000000000E+00 -0.20689334235E+04  0.20689334235E+04  0.50400001928E-02 0.  1.
    10030    2    1    2    0    0  0.00000000000E+00  0.00000000000E+00 -0.75284287932E+03  0.33850239677E+04  0.33002446668E+04 0.  0.
        2    1    3    3  502    0  0.12425727218E+04  0.41050024969E+02  0.73645403970E+03  0.14450040228E+04  0.25500000920E-02 0. -1.
       -2    1    3    3    0  502 -0.12425727218E+04 -0.41050024969E+02 -0.14892969190E+04  0.19400199448E+04  0.25500000920E-02 0.  1.
</event>
<event>
 5   0  0.6603516E-08  0.3299511E+04  0.7818609E-02  0.8163020E-01
       -2   -1    0    0    0  501  0.00000000000E+00  0.00000000000E+00  0.12361246562E+04  0.12361246562E+04  0.25500000920E-02 0. -1.
        2   -1    0    0  501    0  0.00000000000E+00  0.00000000000E+00 -0.22017946388E+04  0.22017946388E+04  0.25500000920E-02 0.  1.
    10030    2    1    2    0    0  0.00000000000E+00  0.00000000000E+00 -0.96566998254E+03  0.34379192950E+04  0.32995106552E+04 0.  0.
        1    1    3    3  502    0  0.10596520286E+04 -0.90276777316E+03  0.43965148988E+03  0.14598443432E+04  0.50400001928E-02 0. -1.
       -1    1    3    3    0  502 -0.10596520286E+04  0.90276777316E+03 -0.14053214724E+04  0.19780749518E+04  0.50400001928E-02 0.  1.
</event>
<event>
 5   0  0.2309822E-08  0.3298970E+04  0.7818609E-02  0.8163158E-01
        1   -1    0    0  501    0  0.00000000000E+00  0.00000000000E+00  0.20799833543E+04  0.20799833543E+04  0.50400001928E-02 0.  1.
       -1   -1    0    0    0  501  0.00000000000E+00  0.00000000000E+00 -0.13080875907E+04  0.13080875907E+04  0.50400001928E-02 0. -1.
    10030    2    1    2    0    0  0.00000000000E+00  0.00000000000E+00  0.77189576360E+03  0.33880709450E+04  0.32989697875E+04 0.  0.
        4    1    3    3  502    0  0.24588265268E+03 -0.16302973900E+04  0.33489673104E+03  0.16824046160E+04  0.12699999809E+01 0.  1.
       -4    1    3    3    0  502 -0.24588265268E+03  0.16302973900E+04  0.43699903256E+03  0.17056663290E+04  0.12699999809E+01 0. -1.
</event>
<event>
 5   0  0.2291682E-08  0.3301285E+04  0.7818609E-02  0.8162568E-01
        1   -1    0    0  501    0  0.00000000000E+00  0.00000000000E+00  0.24782851971E+04  0.24782851971E+04  0.50400001928E-02 0. -1.
       -1   -1    0    0    0  501  0.00000000000E+00  0.00000000000E+00 -0.10993976195E+04  0.10993976196E+04  0.50400001928E-02 0.  1.
    10030    2    1    2    0    0  0.00000000000E+00  0.00000000000E+00  0.13788875776E+04  0.35776828167E+04  0.33012851112E+04 0.  0.
        2    1    3    3  502    0  0.14957614200E+04 -0.59512811801E+03  0.10848786408E+04  0.19412473742E+04  0.25500000920E-02 0.  1.
       -2    1    3    3    0  502 -0.14957614200E+04  0.59512811801E+03  0.29400893680E+03  0.16364354425E+04  0.25500000920E-02 0. -1.
</event>
<event>
 5   0  0.2244093E-08  0.3303520E+04  0.7818609E-02  0.8162000E-01
       -1   -1    0    0    0  501  0.00000000000E+00  0.00000000000E+00  0.17559680466E+04  0.17559680466E+04  0.50400001928E-02 0. -1.
        1   -1    0    0  501    0  0.00000000000E+00  0.00000000000E+00 -0.15537361421E+04  0.15537361421E+04  0.50400001928E-02 0.  1.
    10030    2    1    2    0    0  0.00000000000E+00  0.00000000000E+00  0.20223190447E+03  0.33097041887E+04  0.33035199521E+04 0.  0.
        1    1    3    3  502    0  0.13107048556E+04 -0.42490356727E+03  0.10137662353E+04  0.17106175025E+04  0.50400001928E-02 0. -1.
       -1    1    3    3    0  502 -0.13107048556E+04  0.42490356727E+03 -0.81153433081E+03  0.15990866862E+04  0.50400001928E-02 0.  1.
</event>
<event>
 5   0  0.6603516E-08  0.3301095E+04  0.7818609E-02  0.8162617E-01
        2   -1    0    0  501    0  0.00000000000E+00  0.00000000000E+00  0.17152941895E+04  0.17152941895E+04  0.25500000920E-02 0. -1.
       -2   -1    0    0    0  501  0.00000000000E+00  0.00000000000E+00 -0.15882449359E+04  0.15882449359E+04  0.25500000920E-02 0.  1.
    10030    2    1    2    0    0  0.00000000000E+00  0.00000000000E+00  0.12704925354E+03  0.33035391254E+04  0.33010951577E+04 0.  0.
        1    1    3    3  502    0  0.51473269437E+03  0.38335373540E+03  0.15853073688E+04  0.17102950876E+04  0.50400001928E-02 0. -1.
       -1    1    3    3    0  502 -0.51473269437E+03 -0.38335373540E+03 -0.14582581153E+04  0.15932440378E+04  0.50400001928E-02 0.  1.
</event>
<event>
 5   0  0.2244093E-08  0.3298923E+04  0.7818609E-02  0.8163170E-01
        1   -1    0    0  501    0  0.00000000000E+00  0.00000000000E+00  0.20050485304E+04  0.20050485304E+04  0.50400001928E-02 0.  1.
       -1   -1    0    0    0  501  0.00000000000E+00  0.00000000000E+00 -0.13569360797E+04  0.13569360797E+04  0.50400001928E-02 0. -1.
    10030    2    1    2    0    0  0.00000000000E+00  0.00000000000E+00  0.64811245079E+03  0.33619846101E+04  0.32989226680E+04 0.  0.
        1    1    3    3  502    0  0.59627442664E+03  0.94953924688E+03  0.15569568374E+04  0.19186668723E+04  0.50400001928E-02 0. -1.
       -1    1    3    3    0  502 -0.59627442664E+03 -0.94953924688E+03 -0.90884438661E+03  0.14433177378E+04  0.50400001928E-02 0.  1.
</event>
<event>
 5   0  0.2309822E-08  0.3299832E+04  0.7818609E-02  0.8162938E-01
        1   -1    0    0  501    0  0.00000000000E+00  0.00000000000E+00  0.26391144114E+04  0.26391144114E+04  0.50400001928E-02 0.  1.
       -1   -1    0    0    0  501  0.00000000000E+00  0.00000000000E+00 -0.10314911100E+04  0.10314911100E+04  0.50400001928E-02 0. -1.
    10030    2    1    2    0    0  0.00000000000E+00  0.00000000000E+00  0.16076233014E+04  0.36706055214E+04  0.32998321495E+04 0.  0.
        4    1    3    3  502    0 -0.70349374474E+03 -0.53630146346E+03  0.23530313300E+04  0.25138179650E+04  0.12699999809E+01 0.  1.
       -4    1    3    3    0  502  0.70349374474E+03  0.53630146346E+03 -0.74540802860E+03  0.11567875564E+04  0.12699999809E+01 0. -1.
</event>
<event>
 5   0  0.6765252E-08  0.3300725E+04  0.7818609E-02  0.8162711E-01
       -2   -1    0    0    0  501  0.00000000000E+00  0.00000000000E+00  0.15336943425E+04  0.15336943425E+04  0.25500000920E-02 0.  1.
        2   -1    0    0  501    0  0.00000000000E+00  0.00000000000E+00 -0.17759058520E+04  0.17759058520E+04  0.25500000920E-02 0. -1.
    10030    2    1    2    0    0  0.00000000000E+00  0.00000000000E+00 -0.24221150948E+03  0.33096001946E+04  0.33007252283E+04 0.  0.
        2    1    3    3  502    0 -0.75880368864E+03  0.78935844118E+03  0.11170533155E+04  0.15641860171E+04  0.25500000920E-02 0.  1.
       -2    1    3    3    0  502  0.75880368864E+03 -0.78935844118E+03 -0.13592648249E+04  0.17454141775E+04  0.25500000920E-02 0. -1.
</event>
<event>
 5   0  0.6765252E-08  0.3300422E+04  0.7818609E-02  0.8162788E-01
       -2   -1    0    0    0  501  0.00000000000E+00  0.00000000000E+00  0.11017191770E+04  0.11017191770E+04  0.25500000920E-02 0. -1.
        2   -1    0    0  501    0  0.00000000000E+00  0.00000000000E+00 -0.24717693216E+04  0.24717693216E+04  0.25500000920E-02 0.  1.
    10030    2    1    2    0    0  0.00000000000E+00  0.00000000000E+00 -0.13700501446E+04  0.35734884986E+04  0.33004215869E+04 0.  0.
        2    1    3    3  502    0  0.83174195313E+03  0.42428984613E+03 -0.21582553962E+04  0.23515703063E+04  0.25500000920E-02 0.  1.
       -2    1    3    3    0  502 -0.83174195313E+03 -0.42428984613E+03  0.78820525164E+03  0.12219181924E+04  0.25500000920E-02 0. -1.
</event>
<event>
 5   0  0.6821287E-08  0.3299960E+04  0.7818609E-02  0.8162906E-01
        2   -1    0    0  501    0  0.00000000000E+00  0.00000000000E+00  0.20668871877E+04  0.20668871877E+04  0.25500000920E-02 0. -1.
       -2   -1    0    0    0  501  0.00000000000E+00  0.00000000000E+00 -0.13171661373E+04  0.13171661373E+04  0.25500000920E-02 0.  1.
    10030    2    1    2    0    0  0.00000000000E+00  0.00000000000E+00  0.74972105043E+03  0.33840533250E+04  0.32999598866E+04 0.  0.
        5    1    3    3  502    0 -0.28440112235E+03  0.27247988365E+03 -0.12682446447E+04  0.13280044632E+04  0.46999998093E+01 0.  1.
       -5    1    3    3    0  502  0.28440112235E+03 -0.27247988365E+03  0.20179656951E+04  0.20560488618E+04  0.46999998093E+01 0. -1.
</event>
<event>
 5   0  0.6603516E-08  0.3300218E+04  0.7818609E-02  0.8162840E-01
       -2   -1    0    0    0  501  0.00000000000E+00  0.00000000000E+00  0.21769700973E+04  0.21769700973E+04  0.25500000920E-02 0.  1.
        2   -1    0    0  501    0  0.00000000000E+00  0.00000000000E+00 -0.12507564047E+04  0.12507564047E+04  0.25500000920E-02 0. -1.
    10030    2    1    2    0    0  0.00000000000E+00  0.00000000000E+00  0.92621369257E+03  0.34277265020E+04  0.33002177456E+04 0.  0.
        1    1    3    3  502    0 -0.15971814504E+04 -0.83824032523E+01  0.89360937339E+03  0.18301903077E+04  0.50400001928E-02 0. -1.
       -1    1    3    3    0  502  0.15971814504E+04  0.83824032523E+01  0.32604319182E+02  0.15975361942E+04  0.50400001928E-02 0.  1.
</event>
<event>
 5   0  0.2279938E-08  0.3298131E+04  0.7818609E-02  0.8163371E-01
       -1   -1    0    0    0  501  0.00000000000E+00  0.00000000000E+00  0.93838935088E+03  0.93838935089E+03  0.50400001928E-02 0. -1.
        1   -1    0    0  501    0  0.00000000000E+00  0.00000000000E+00 -0.28979618273E+04  0.28979618273E+04  0.50400001928E-02 0.  1.
    10030    2    1    2    0    0  0.00000000000E+00  0.00000000000E+00 -0.19595724764E+04  0.38363511782E+04  0.32981306936E+04 0.  0.
        3    1    3    3  502    0  0.11997113231E+04 -0.86469518172E+03 -0.13104714840E+03  0.14846475613E+04  0.10100000352E+00 0. -1.
       -3    1    3    3    0  502 -0.11997113231E+04  0.86469518172E+03 -0.18285253280E+04  0.23517036169E+04  0.10100000352E+00 0.  1.
</event>
<event>
 5   0  0.6706080E-08  0.3303942E+04  0.7818609E-02  0.8161893E-01
        2   -1    0    0  501    0  0.00000000000E+00  0.00000000000E+00  0.22404901540E+04  0.22404901540E+04  0.25500000920E-02 0.  1.
       -2   -1    0    0    0  501  0.00000000000E+00  0.00000000000E+00 -0.12180410556E+04  0.12180410556E+04  0.25500000920E-02 0. -1.
    10030    2    1    2    0    0  0.00000000000E+00  0.00000000000E+00  0.10224490984E+04  0.34585312096E+04  0.33039424888E+04 0.  0.
        4    1    3    3  502    0  0.20962781465E+03 -0.87087318142E+03  0.19642054193E+04  0.21588118169E+04  0.12699999809E+01 0.  1.
       -4    1    3    3    0  502 -0.20962781465E+03  0.87087318142E+03 -0.94175632095E+03  0.12997193927E+04  0.12699999809E+01 0. -1.
</event>
<event>
 5   0  0.6821287E-08  0.3300600E+04  0.7818609E-02  0.8162743E-01
       -2   -1    0    0    0  501  0.00000000000E+00  0.00000000000E+00  0.17931615197E+04  0.17931615197E+04  0.25500000920E-02 0.  1.
        2   -1    0    0  501    0  0.00000000000E+00  0.00000000000E+00 -0.15188202808E+04  0.15188202808E+04  0.25500000920E-02 0. -1.
    10030    2    1    2    0    0  0.00000000000E+00  0.00000000000E+00  0.27434123891E+03  0.33119818005E+04  0.33005999957E+04 0.  0.
        5    1    3    3  502    0  0.56387543572E+03  0.65798345497E+03 -0.12721548068E+04  0.15392523109E+04  0.46999998093E+01 0. -1.
       -5    1    3    3    0  502 -0.56387543572E+03 -0.65798345497E+03  0.15464960457E+04  0.17727294896E+04  0.46999998093E+01 0.  1.
</event>
<event>
 5   0  0.6603516E-08  0.3300176E+04  0.7818609E-02  0.8162851E-01
        2   -1    0    0  501    0  0.00000000000E+00  0.00000000000E+00  0.18746407754E+04  0.18746407754E+04  0.25500000920E-02 0. -1.
       -2   -1    0    0    0  501  0.00000000000E+00  0.00000000000E+00 -0.14524327495E+04  0.14524327495E+04  0.25500000920E-02 0.  1.
    10030    2    1    2    0    0  0.00000000000E+00  0.00000000000E+00  0.42220802590E+03  0.33270735249E+04  0.33001755442E+04 0.  0.
        1    1    3    3  502    0  0.57400217349E+03  0.95159363904E+03 -0.10185836560E+04  0.15074885118E+04  0.50400001928E-02 0.  1.
       -1    1    3    3    0  502 -0.57400217349E+03 -0.95159363904E+03  0.14407916819E+04  0.18195850130E+04  0.50400001928E-02 0. -1.
</event>
<event>
 5   0  0.2244093E-08  0.3298822E+04  0.7818609E-02  0.8163195E-01
        1   -1    0    0  501    0  0.00000000000E+00  0.00000000000E+00  0.87232269867E+03  0.87232269869E+03  0.50400001928E-02 0.  1.
       -1   -1    0    0    0  501  0.00000000000E+00  0.00000000000E+00 -0.31187508374E+04  0.31187508374E+04  0.50400001928E-02 0. -1.
    10030    2    1    2    0    0  0.00000000000E+00  0.00000000000E+00 -0.22464281387E+04  0.39910735361E+04  0.32988223032E+04 0.  0.
        1    1    3    3  502    0 -0.95068197070E+03  0.88699689115E+03 -0.23510741580E+04  0.26866539396E+04  0.50400001928E-02 0. -1.
       -1    1    3    3    0  502  0.95068197070E+03 -0.88699689115E+03  0.10464601935E+03  0.13044195965E+04  0.50400001928E-02 0.  1.
</event>
<event>
 5   0  0.2291682E-08  0.3306928E+04  0.7818609E-02  0.8161135E-01
       -1   -1    0    0    0  501  0.00000000000E+00  0.00000000000E+00  0.12988483165E+04  0.12988483165E+04  0.50400001928E-02 0.  1.
        1   -1    0    0  501    0  0.00000000000E+00  0.00000000000E+00 -0.21048976571E+04  0.21048976571E+04  0.50400001928E-02 0. -1.
    10030    2    1    2    0    0  0.00000000000E+00  0.00000000000E+00 -0.80604934064E+03  0.34037459736E+04  0.33069277454E+04 0.  0.
        2    1    3    3  502    0  0.35402937960E+02  0.86848899758E+03  0.10447176581E+04  0.13590296141E+04  0.25500000920E-02 0.  1.
       -2    1    3    3    0  502 -0.35402937960E+02 -0.86848899758E+03 -0.18507669987E+04  0.20447163594E+04  0.25500000920E-02 0. -1.
</event>
<event>
 5   0  0.2291682E-08  0.3300660E+04  0.7818609E-02  0.8162728E-01
        1   -1    0    0  501    0  0.00000000000E+00  0.00000000000E+00  0.20668931444E+04  0.20668931444E+04  0.50400001928E-02 0.  1.
       -1   -1    0    0    0  501  0.00000000000E+00  0.00000000000E+00 -0.13177209447E+04  0.13177209447E+04  0.50400001928E-02 0. -1.
    10030    2    1    2    0    0  0.00000000000E+00  0.00000000000E+00  0.74917219961E+03  0.33846140891E+04  0.33006595625E+04 0.  0.
        2    1    3    3  502    0  0.26071559294E+03 -0.69316289479E+03  0.18869354690E+04  0.20270601578E+04  0.25500000920E-02 0.  1.
       -2    1    3    3    0  502 -0.26071559294E+03  0.69316289479E+03 -0.11377632694E+04  0.13575539313E+04  0.25500000920E-02 0. -1.
</event>
<event>
 5   0  0.6765252E-08  0.3283765E+04  0.7818609E-02  0.8167039E-01
        2   -1    0    0  501    0  0.00000000000E+00  0.00000000000E+00  0.17087073559E+04  0.17087073559E+04  0.25500000920E-02 0. -1.
       -2   -1    0    0    0  501  0.00000000000E+00  0.00000000000E+00 -0.15776707937E+04  0.15776707937E+04  0.25500000920E-02 0.  1.
    10030    2    1    2    0    0  0.00000000000E+00  0.00000000000E+00  0.13103656221E+03  0.32863781496E+04  0.32837647239E+04 0.  0.
        2    1    3    3  502    0 -0.42394052294E+03  0.14659769753E+04  0.67177562666E+03  0.16673621537E+04  0.25500000920E-02 0. -1.
       -2    1    3    3    0  502  0.42394052294E+03 -0.14659769753E+04 -0.54073906445E+03  0.16190159959E+04  0.25500000920E-02 0.  1.
</event>
<event>
 5   0  0.6706080E-08  0.3302200E+04  0.7818609E-02  0.8162336E-01
        2   -1    0    0  501    0  0.00000000000E+00  0.00000000000E+00  0.25045917568E+04  0.25045917568E+04  0.25500000920E-02 0.  1.
       -2   -1    0    0    0  501  0.00000000000E+00  0.00000000000E+00 -0.10884530998E+04  0.10884530998E+04  0.25500000920E-02 0. -1.
    10030    2    1    2    0    0  0.00000000000E+00  0.00000000000E+00  0.14161386571E+04  0.35930448566E+04  0.33021996677E+04 0.  0.
        4    1    3    3  502    0  0.56300094292E+03  0.47119517908E+03  0.23172211258E+04  0.24307427501E+04  0.12699999809E+01 0.  1.
       -4    1    3    3    0  502 -0.56300094292E+03 -0.47119517908E+03 -0.90108246870E+03  0.11623021065E+04  0.12699999809E+01 0. -1.
</event>
<event>
 5   0  0.6821287E-08  0.3298233E+04  0.7818609E-02  0.8163345E-01
       -2   -1    0    0    0  501  0.00000000000E+00  0.00000000000E+00  0.12370663998E+04  0.12370663998E+04  0.25500000920E-02 0. -1.
        2   -1    0    0  501    0  0.00000000000E+00  0.00000000000E+00 -0.21984143354E+04  0.21984143354E+04  0.25500000920E-02 0.  1.
    10030    2    1    2    0    0  0.00000000000E+00  0.00000000000E+00 -0.96134793565E+03  0.34354807352E+04  0.32982325613E+04 0.  0.
        5    1    3    3  502    0  0.89425871112E+03 -0.13750181178E+04 -0.65863113471E+03  0.17675379849E+04  0.46999998093E+01 0. -1.
       -5    1    3    3    0  502 -0.89425871112E+03  0.13750181178E+04 -0.30271680094E+03  0.16679427503E+04  0.46999998093E+01 0.  1.
</event>
<event>
 5   0  0.2244093E-08  0.3298973E+04  0.7818609E-02  0.8163157E-01
       -1   -1    0    0    0  501  0.00000000000E+00  0.00000000000E+00  0.10034069693E+04  0.10034069693E+04  0.50400001928E-02 0. -1.
        1   -1    0    0  501    0  0.00000000000E+00  0.00000000000E+00 -0.27115667544E+04  0.27115667544E+04  0.50400001928E-02 0.  1.
    10030    2    1    2    0    0  0.00000000000E+00  0.00000000000E+00 -0.17081597851E+04  0.37149737237E+04  0.32989725547E+04 0.  0.
        1    1    3    3  502    0  0.16024213918E+04 -0.37708203246E+03 -0.73672856115E+03  0.18035282501E+04  0.50400001928E-02 0. -1.
       -1    1    3    3    0  502 -0.16024213918E+04  0.37708203246E+03 -0.97143122392E+03  0.19114454737E+04  0.50400001928E-02 0.  1.
</event>
<event>
 5   0  0.2309822E-08  0.3298491E+04  0.7818609E-02  0.8163280E-01
        1   -1    0    0  501    0  0.00000000000E+00  0.00000000000E+00  0.11193633859E+04  0.11193633859E+04  0.50400001928E-02 0.  1.
       -1   -1    0    0    0  501  0.00000000000E+00  0.00000000000E+00 -0.24299619364E+04  0.24299619364E+04  0.50400001928E-02 0. -1.
    10030    2    1    2    0    0  0.00000000000E+00  0.00000000000E+00 -0.13105985505E+04  0.35493253223E+04  0.32984908190E+04 0.  0.
        4    1    3    3  502    0  0.13661948652E+04  0.63605793043E+03 -0.13762902993E+04  0.20408906637E+04  0.12699999809E+01 0. -1.
       -4    1    3    3    0  502 -0.13661948652E+04 -0.63605793043E+03  0.65691748749E+02  0.15084346586E+04  0.12699999809E+01 0.  1.
</event>
<event>
 5   0  0.6765252E-08  0.3301548E+04  0.7818609E-02  0.8162502E-01
       -2   -1    0    0    0  501  0.00000000000E+00  0.00000000000E+00  0.16897982127E+04  0.16897982127E+04  0.25500000920E-02 0. -1.
        2   -1    0    0  501    0  0.00000000000E+00  0.00000000000E+00 -0.16126513563E+04  0.16126513563E+04  0.25500000920E-02 0.  1.
    10030    2    1    2    0    0  0.00000000000E+00  0.00000000000E+00  0.77146856454E+02  0.33024495690E+04  0.33015483517E+04 0.  0.
        2    1    3    3  502    0  0.13584714623E+04 -0.20881005017E+03 -0.87601144951E+03  0.16298596291E+04  0.25500000920E-02 0.  1.
       -2    1    3    3    0  502 -0.13584714623E+04  0.20881005017E+03  0.95315830596E+03  0.16725899399E+04  0.25500000920E-02 0. -1.
</event>
<event>
 5   0  0.6603516E-08  0.3298391E+04  0.7818609E-02  0.8163305E-01
       -2   -1    0    0    0  501  0.00000000000E+00  0.00000000000E+00  0.23109953835E+04  0.23109953835E+04  0.25500000920E-02 0.  1.
        2   -1    0    0  501    0  0.00000000000E+00  0.00000000000E+00 -0.11769154744E+04  0.11769154744E+04  0.25500000920E-02 0. -1.
    10030    2    1    2    0    0  0.00000000000E+00  0.00000000000E+00  0.11340799090E+04  0.34879108579E+04  0.32983912613E+04 0.  0.
        1    1    3    3  502    0 -0.46468739495E+03 -0.87043101280E+03 -0.83035081712E+03  0.12895995513E+04  0.50400001928E-02 0. -1.
       -1    1    3    3    0  502  0.46468739495E+03  0.87043101280E+03  0.19644307261E+04  0.21983113066E+04  0.50400001928E-02 0.  1.
</event>
<event>
 5   0  0.6603516E-08  0.3297846E+04  0.7818609E-02  0.8163444E-01
       -2   -1    0    0    0  501  0.00000000000E+00  0.00000000000E+00  0.13440739037E+04  0.13440739037E+04  0.25500000920E-02 0. -1.
        2   -1    0    0  501    0  0.00000000000E+00  0.00000000000E+00 -0.20229151057E+04  0.20229151057E+04  0.25500000920E-02 0.  1.
    10030    2    1    2    0    0  0.00000000000E+00  0.00000000000E+00 -0.67884120203E+03  0.33669890094E+04  0.32978462081E+04 0.  0.
        1    1    3    3  502    0  0.50550636828E+03  0.13103399207E+04 -0.12214903656E+04  0.18613344969E+04  0.50400001928E-02 0.  1.
       -1    1    3    3    0  502 -0.50550636828E+03 -0.13103399207E+04  0.54264916361E+03  0.15056545125E+04  0.50400001928E-02 0. -1.
</event>
<event>
 5   0  0.2291682E-08  0.3300497E+04  0.7818609E-02  0.8162769E-01
        1   -1    0    0  501    0  0.00000000000E+00  0.00000000000E+00  0.14299441863E+04  0.14299441863E+04  0.50400001928E-02 0.  1.
       -1   -1    0    0    0  501  0.00000000000E+00  0.00000000000E+00 -0.19044937546E+04  0.19044937546E+04  0.50400001928E-02 0. -1.
    10030    2    1    2    0    0  0.00000000000E+00  0.00000000000E+00 -0.47454956828E+03  0.33344379410E+04  0.33004967943E+04 0.  0.
        2    1    3    3  502    0 -0.14549832396E+04  0.35468913442E+03 -0.93761282569E+03  0.17668894760E+04  0.25500000920E-02 0. -1.
       -2    1    3    3    0  502  0.14549832396E+04 -0.35468913442E+03  0.46306325741E+03  0.15675484649E+04  0.25500000920E-02 0.  1.
</event>
<event>
 5   0  0.6821287E-08  0.3300633E+04  0.7818609E-02  0.8162734E-01
        2   -1    0    0  501    0  0.00000000000E+00  0.00000000000E+00  0.25366716417E+04  0.25366716417E+04  0.25500000920E-02 0.  1.
       -2   -1    0    0    0  501  0.00000000000E+00  0.00000000000E+00 -0.10736686099E+04  0.10736686099E+04  0.25500000920E-02 0. -1.
    10030    2    1    2    0    0  0.00000000000E+00  0.00000000000E+00  0.14630030318E+04  0.36103402515E+04  0.33006331000E+04 0.  0.
        5    1    3    3  502    0 -0.36219972767E+03  0.12495718425E+04 -0.37910453598E+03  0.13551238953E+04  0.46999998093E+01 0. -1.
       -5    1    3    3    0  502  0.36219972767E+03 -0.12495718425E+04  0.18421075677E+04  0.22552163563E+04  0.46999998093E+01 0.  1.
</event>
<event>
 5   0  0.2309822E-08  0.3300757E+04  0.7818609E-02  0.8162703E-01
       -1   -1    0    0    0  501  0.00000000000E+00  0.00000000000E+00  0.16777766994E+04  0.16777766994E+04  0.50400001928E-02 0. -1.
        1   -1    0    0  501    0  0.00000000000E+00  0.00000000000E+00 -0.16234275165E+04  0.16234275165E+04  0.50400001928E-02 0.  1.
    10030    2    1    2    0    0  0.00000000000E+00  0.00000000000E+00  0.54349182824E+02  0.33012042159E+04  0.33007567983E+04 0.  0.
        4    1    3    3  502    0  0.29472357885E+03  0.11583144524E+04 -0.11110450884E+04  0.16318630947E+04  0.12699999809E+01 0.  1.
       -4    1    3    3    0  502 -0.29472357885E+03 -0.11583144524E+04  0.11653942712E+04  0.16693411212E+04  0.12699999809E+01 0. -1.
</event>
<event>
 5   0  0.2244093E-08  0.3298300E+04  0.7818609E-02  0.8163328E-01
        1   -1    0    0  501    0  0.00000000000E+00  0.00000000000E+00  0.17764835778E+04  0.17764835778E+04  0.50400001928E-02 0. -1.
       -1   -1    0    0    0  501  0.00000000000E+00  0.00000000000E+00 -0.15309430969E+04  0.15309430969E+04  0.50400001928E-02 0.  1.
    10030    2    1    2    0    0  0.00000000000E+00  0.00000000000E+00  0.24554048098E+03  0.33074266747E+04  0.32982997257E+04 0.  0.
        1    1    3    3  502    0 -0.99631521340E+03  0.18547233943E+03 -0.11818492207E+04  0.15568595227E+04  0.50400001928E-02 0.  1.
       -1    1    3    3    0  502  0.99631521340E+03 -0.18547233943E+03  0.14273897016E+04  0.17505671520E+04  0.50400001928E-02 0. -1.
</event>
<event>
 5   0  0.2244093E-08  0.3301153E+04  0.7818609E-02  0.8162602E-01
       -1   -1    0    0    0  501  0.00000000000E+00  0.00000000000E+00  0.17092721451E+04  0.17092721451E+04  0.50400001928E-02 0. -1.
        1   -1    0    0  501    0  0.00000000000E+00  0.00000000000E+00 -0.15938968324E+04  0.15938968324E+04  0.50400001928E-02 0.  1.
    10030    2    1    2    0    0  0.00000000000E+00  0.00000000000E+00  0.11537531271E+03  0.33031689775E+04  0.33011534092E+04 0.  0.
        1    1    3    3  502    0 -0.14527798643E+04  0.52943430880E+03  0.63556380934E+03  0.16717689366E+04  0.50400001928E-02 0. -1.
       -1    1    3    3    0  502  0.14527798643E+04 -0.52943430880E+03 -0.52018849663E+03  0.16314000409E+04  0.50400001928E-02 0.  1.
</event>
<event>
 5   0  0.2291682E-08  0.3299034E+04  0.7818609E-02  0.8163141E-01
        1   -1    0    0  501    0  0.00000000000E+00  0.00000000000E+00  0.14586228618E+04  0.14586228618E+04  0.50400001928E-02 0. -1.
       -1   -1    0    0    0  501  0.00000000000E+00  0.00000000000E+00 -0.18653943762E+04  0.18653943762E+04  0.50400001928E-02 0.  1.
    10030    2    1    2    0    0  0.00000000000E+00  0.00000000000E+00 -0.40677151444E+03  0.33240172380E+04  0.32990343335E+04 0.  0.
        2    1    3    3  502    0  0.97789489320E+03 -0.12920276931E+04  0.10764741311E+03  0.16239464115E+04  0.25500000920E-02 0.  1.
       -2    1    3    3    0  502 -0.97789489320E+03  0.12920276931E+04 -0.51441892755E+03  0.17000708265E+04  0.25500000920E-02 0. -1.
</event>
<event>
 5   0  0.2279938E-08  0.3300817E+04  0.7818609E-02  0.8162688E-01
       -1   -1    0    0    0  501  0.00000000000E+00  0.00000000000E+00  0.17643341827E+04  0.17643341828E+04  0.50400001928E-02 0. -1.
        1   -1    0    0  501    0  0.00000000000E+00  0.00000000000E+00 -0.15438389631E+04  0.15438389631E+04  0.50400001928E-02 0.  1.
    10030    2    1    2    0    0  0.00000000000E+00  0.00000000000E+00  0.22049521962E+03  0.33081731459E+04  0.33008167809E+04 0.  0.
        3    1    3    3  502    0 -0.14521361435E+04 -0.76291248263E+03 -0.72127741345E+02  0.16419309537E+04  0.10100000352E+00 0.  1.
       -3    1    3    3    0  502  0.14521361435E+04  0.76291248263E+03  0.29262296097E+03  0.16662421922E+04  0.10100000352E+00 0. -1.
</event>
<event>
 5   0  0.6603516E-08  0.3301153E+04  0.7818609E-02  0.8162602E-01
        2   -1    0    0  501    0  0.00000000000E+00  0.00000000000E+00  0.20753592960E+04  0.20753592960E+04  0.25500000920E-02 0. -1.
       -2   -1    0    0    0  501  0.00000000000E+00  0.00000000000E+00 -0.13127379396E+04  0.13127379396E+04  0.25500000920E-02 0.  1.
    10030    2    1    2    0    0  0.00000000000E+00  0.00000000000E+00  0.76262135639E+03  0.33880972357E+04  0.33011530630E+04 0.  0.
        1    1    3    3  502    0 -0.73434360984E+03  0.11589048047E+02 -0.11357981103E+04  0.13525650412E+04  0.50400001928E-02 0.  1.
       -1    1    3    3    0  502  0.73434360984E+03 -0.11589048047E+02  0.18984194667E+04  0.20355321945E+04  0.50400001928E-02 0. -1.
</event>
<event>
 5   0  0.2279938E-08  0.3299923E+04  0.7818609E-02  0.8162915E-01
        1   -1    0    0  501    0  0.00000000000E+00  0.00000000000E+00  0.15642960374E+04  0.15642960374E+04  0.50400001928E-02 0.  1.
       -1   -1    0    0    0  501  0.00000000000E+00  0.00000000000E+00 -0.17403187505E+04  0.17403187505E+04  0.50400001928E-02 0. -1.
    10030    2    1    2    0    0  0.00000000000E+00  0.00000000000E+00 -0.17602271313E+03  0.33046147879E+04  0.32999234689E+04 0.  0.
        3    1    3    3  502    0  0.27311277034E+03 -0.12468096229E+04 -0.11350832388E+04  0.17080804402E+04  0.10100000352E+00 0. -1.
       -3    1    3    3    0  502 -0.27311277034E+03  0.12468096229E+04  0.95906052565E+03  0.15965343476E+04  0.10100000352E+00 0.  1.
</event>
<event>
 5   0  0.6706080E-08  0.3300344E+04  0.7818609E-02  0.8162808E-01
        2   -1    0    0  501    0  0.00000000000E+00  0.00000000000E+00  0.21150830576E+04  0.21150830576E+04  0.25500000920E-02 0.  1.
       -2   -1    0    0    0  501  0.00000000000E+00  0.00000000000E+00 -0.12874519313E+04  0.12874519313E+04  0.25500000920E-02 0. -1.
    10030    2    1    2    0    0  0.00000000000E+00  0.00000000000E+00  0.82763112624E+03  0.34025349889E+04  0.33003440835E+04 0.  0.
        4    1    3    3  502    0  0.30783473373E+03  0.93116147983E+03  0.17820260803E+04  0.20340704237E+04  0.12699999809E+01 0.  1.
       -4    1    3    3    0  502 -0.30783473373E+03 -0.93116147983E+03 -0.95439495411E+03  0.13684645652E+04  0.12699999809E+01 0. -1.
</event>
<event>
 5   0  0.7084130E-08  0.3299684E+04  0.7818609E-02  0.8162976E-01
       -2   -1    0    0    0  501  0.00000000000E+00  0.00000000000E+00  0.97763402388E+03  0.97763402388E+03  0.25500000920E-02 0.  1.
        2   -1    0    0  501    0  0.00000000000E+00  0.00000000000E+00 -0.27842511564E+04  0.27842511564E+04  0.25500000920E-02 0. -1.
    10030    2    1    2    0    0  0.00000000000E+00  0.00000000000E+00 -0.18066171325E+04  0.37618851802E+04  0.32996840221E+04 0.  0.
        3    1    3    3  502    0  0.84425913425E+02  0.16476116503E+04 -0.88614046472E+03  0.18726977382E+04  0.10100000352E+00 0.  1.
       -3    1    3    3    0  502 -0.84425913425E+02 -0.16476116503E+04 -0.92047666776E+03  0.18891874421E+04  0.10100000352E+00 0. -1.
</event>
<event>
 5   0  0.6765252E-08  0.3300176E+04  0.7818609E-02  0.8162851E-01
       -2   -1    0    0    0  501  0.00000000000E+00  0.00000000000E+00  0.17781299265E+04  0.17781299265E+04  0.25500000920E-02 0.  1.
        2   -1    0    0  501    0  0.00000000000E+00  0.00000000000E+00 -0.15312663206E+04  0.15312663206E+04  0.25500000920E-02 0. -1.
    10030    2    1    2    0    0  0.00000000000E+00  0.00000000000E+00  0.24686360589E+03  0.33093962471E+04  0.33001760378E+04 0.  0.
        2    1    3    3  502    0 -0.11288633079E+04  0.98521786810E+03  0.81659658300E+03  0.17064045812E+04  0.25500000920E-02 0. -1.
       -2    1    3    3    0  502  0.11288633079E+04 -0.98521786810E+03 -0.56973297711E+03  0.16029916658E+04  0.25500000920E-02 0.  1.
</event>
<event>
 5   0  0.2383270E-08  0.3294345E+04  0.7818609E-02  0.8164336E-01
        1   -1    0    0  501    0  0.00000000000E+00  0.00000000000E+00  0.29626847688E+04  0.29626847688E+04  0.50400001928E-02 0. -1.
       -1   -1    0    0    0  501  0.00000000000E+00  0.00000000000E+00 -0.91578354368E+03  0.91578354370E+03  0.50400001928E-02 0.  1.
    10030    2    1    2    0    0  0.00000000000E+00  0.00000000000E+00  0.20469012251E+04  0.38784683125E+04  0.32943454321E+04 0.  0.
        5    1    3    3  502    0 -0.13954315849E+04  0.87444915702E+03  0.10653276424E+04  0.19613351860E+04  0.46999998093E+01 0.  1.
       -5    1    3    3    0  502  0.13954315849E+04 -0.87444915702E+03  0.98157358278E+03  0.19171331265E+04  0.46999998093E+01 0. -1.
</event>
<event>
 5   0  0.2244093E-08  0.3300622E+04  0.7818609E-02  0.8162737E-01
        1   -1    0    0  501    0  0.00000000000E+00  0.00000000000E+00  0.22935816653E+04  0.22935816653E+04  0.50400001928E-02 0.  1.
       -1   -1    0    0    0  501  0.00000000000E+00  0.00000000000E+00 -0.11874554896E+04  0.11874554896E+04  0.50400001928E-02 0. -1.
    10030    2    1    2    0    0  0.00000000000E+00  0.00000000000E+00  0.11061261756E+04  0.34810371549E+04  0.33006218441E+04 0.  0.
        1    1    3    3  502    0 -0.10082004879E+02 -0.95426104299E+03  0.19730654791E+04  0.21917351961E+04  0.50400001928E-02 0.  1.
       -1    1    3    3    0  502  0.10082004879E+02  0.95426104299E+03 -0.86693930349E+03  0.12893019588E+04  0.50400001928E-02 0. -1.
</event>
<event>
 5   0  0.6706080E-08  0.3300669E+04  0.7818609E-02  0.8162725E-01
       -2   -1    0    0    0  501  0.00000000000E+00  0.00000000000E+00  0.12334006370E+04  0.12334006370E+04  0.25500000920E-02 0.  1.
        2   -1    0    0  501    0  0.00000000000E+00  0.00000000000E+00 -0.22082075737E+04  0.22082075737E+04  0.25500000920E-02 0. -1.
    10030    2    1    2    0    0  0.00000000000E+00  0.00000000000E+00 -0.97480693669E+03  0.34416082108E+04  0.33006694037E+04 0.  0.
        4    1    3    3  502    0  0.12462889115E+04 -0.70937901121E+03 -0.13390720387E+04  0.19620321532E+04  0.12699999809E+01 0. -1.
       -4    1    3    3    0  502 -0.12462889115E+04  0.70937901121E+03  0.36426510203E+03  0.14795760575E+04  0.12699999809E+01 0.  1.
</event>
<event>
 5   0  0.6706080E-08  0.3302258E+04  0.7818609E-02  0.8162321E-01
        2   -1    0    0  501    0  0.00000000000E+00  0.00000000000E+00  0.22950133674E+04  0.22950133674E+04  0.25500000920E-02 0.  1.
       -2   -1    0    0    0  501  0.00000000000E+00  0.00000000000E+00 -0.11878914296E+04  0.11878914296E+04  0.25500000920E-02 0. -1.
    10030    2    1    2    0    0  0.00000000000E+00  0.00000000000E+00  0.11071219378E+04  0.34829047970E+04  0.33022578397E+04 0.  0.
        4    1    3    3  502    0 -0.75159175881E+03  0.13420760673E+04 -0.79408022679E+02  0.15402485479E+04  0.12699999809E+01 0. -1.
       -4    1    3    3    0  502  0.75159175881E+03 -0.13420760673E+04  0.11865299604E+04  0.19426562491E+04  0.12699999809E+01 0.  1.
</event>
<event>
 5   0  0.6821287E-08  0.3296698E+04  0.7818609E-02  0.8163736E-01
       -2   -1    0    0    0  501  0.00000000000E+00  0.00000000000E+00  0.20112888164E+04  0.20112888164E+04  0.25500000920E-02 0.  1.
        2   -1    0    0  501    0  0.00000000000E+00  0.00000000000E+00 -0.13509023582E+04  0.13509023582E+04  0.25500000920E-02 0. -1.
    10030    2    1    2    0    0  0.00000000000E+00  0.00000000000E+00  0.66038645823E+03  0.33621911745E+04  0.32966982300E+04 0.  0.
        5    1    3    3  502    0 -0.11055402645E+04 -0.59377140895E+03 -0.75979948040E+03  0.14670041250E+04  0.46999998093E+01 0. -1.
       -5    1    3    3    0  502  0.11055402645E+04  0.59377140895E+03  0.14201859386E+04  0.18951870495E+04  0.46999998093E+01 0.  1.
</event>
<event>
 5   0  0.7084130E-08  0.3299306E+04  0.7818609E-02  0.8163072E-01
       -2   -1    0    0    0  501  0.00000000000E+00  0.00000000000E+00  0.10583272819E+04  0.10583272820E+04  0.25500000920E-02 0.  1.
        2   -1    0    0  501    0  0.00000000000E+00  0.00000000000E+00 -0.25713733758E+04  0.25713733758E+04  0.25500000920E-02 0. -1.
    10030    2    1    2    0    0  0.00000000000E+00  0.00000000000E+00 -0.15130460938E+04  0.36297006577E+04  0.32993057425E+04 0.  0.
        3    1    3    3  502    0 -0.10403134965E+04 -0.38347260522E+03  0.58729387865E+03  0.12546782536E+04  0.10100000352E+00 0.  1.
       -3    1    3    3    0  502  0.10403134965E+04  0.38347260522E+03 -0.21003399725E+04  0.23750224041E+04  0.10100000352E+00 0. -1.
</event>
<event>
 5   0  0.6706080E-08  0.3299735E+04  0.7818609E-02  0.8162963E-01
       -2   -1    0    0    0  501  0.00000000000E+00  0.00000000000E+00  0.11275601395E+04  0.11275601396E+04  0.25500000920E-02 0.  1.
        2   -1    0    0  501    0  0.00000000000E+00  0.00000000000E+00 -0.24141170029E+04  0.24141170029E+04  0.25500000920E-02 0. -1.
    10030    2    1    2    0    0  0.00000000000E+00  0.00000000000E+00 -0.12865568634E+04  0.35416771425E+04  0.32997345983E+04 0.  0.
        4    1    3    3  502    0 -0.10801511842E+03 -0.54825373063E+03  0.10228997991E+04  0.11655792683E+04  0.12699999809E+01 0.  1.
       -4    1    3    3    0  502  0.10801511842E+03  0.54825373063E+03 -0.23094566625E+04  0.23760978742E+04  0.12699999809E+01 0. -1.
</event>
<event>
 5   0  0.2383270E-08  0.3299032E+04  0.7818609E-02  0.8163142E-01
        1   -1    0    0  501    0  0.00000000000E+00  0.00000000000E+00  0.14993987692E+04  0.14993987692E+04  0.50400001928E-02 0.  1.
       -1   -1    0    0    0  501  0.00000000000E+00  0.00000000000E+00 -0.18146629142E+04  0.18146629142E+04  0.50400001928E-02 0. -1.
    10030    2    1    2    0    0  0.00000000000E+00  0.00000000000E+00 -0.31526414497E+03  0.33140616834E+04  0.32990321854E+04 0.  0.
        5    1    3    3  502    0  0.15914128562E+04 -0.41584657245E+03 -0.28212404781E+03  0.16688736678E+04  0.46999998093E+01 0. -1.
       -5    1    3    3    0  502 -0.15914128562E+04  0.41584657245E+03 -0.33140097163E+02  0.16451880156E+04  0.46999998093E+01 0.  1.
</event>
<event>
 5   0  0.2291682E-08  0.3300752E+04  0.7818609E-02  0.8162704E-01
        1   -1    0    0  501    0  0.00000000000E+00  0.00000000000E+00  0.26055192878E+04  0.26055192878E+04  0.50400001928E-02 0. -1.
       -1   -1    0    0    0  501  0.00000000000E+00  0.00000000000E+00 -0.10453737530E+04  0.10453737530E+04  0.50400001928E-02 0.  1.
    10030    2    1    2    0    0  0.00000000000E+00  0.00000000000E+00  0.15601455348E+04  0.36508930408E+04  0.33007523242E+04 0.  0.
        2    1    3    3  502    0 -0.78127224956E+03 -0.20488229775E+03  0.23719731708E+04  0.25057174236E+04  0.25500000920E-02 0. -1.
       -2    1    3    3    0  502  0.78127224956E+03  0.20488229775E+03 -0.81182763594E+03  0.11451756173E+04  0.25500000920E-02 0.  1.
</event>
<event>
 5   0  0.6706080E-08  0.3302823E+04  0.7818609E-02  0.8162177E-01
       -2   -1    0    0    0  501  0.00000000000E+00  0.00000000000E+00  0.12660546242E+04  0.12660546242E+04  0.25500000920E-02 0. -1.
        2   -1    0    0  501    0  0.00000000000E+00  0.00000000000E+00 -0.21540624608E+04  0.21540624608E+04  0.25500000920E-02 0.  1.
    10030    2    1    2    0    0  0.00000000000E+00  0.00000000000E+00 -0.88800783656E+03  0.34201170850E+04  0.33028234827E+04 0.  0.
        4    1    3    3  502    0  0.44786039685E+03  0.10962976688E+04 -0.16358393219E+04  0.20195096964E+04  0.12699999809E+01 0.  1.
       -4    1    3    3    0  502 -0.44786039685E+03 -0.10962976688E+04  0.74783148537E+03  0.14006073887E+04  0.12699999809E+01 0. -1.
</event>
<event>
 5   0  0.7084130E-08  0.3298889E+04  0.7818609E-02  0.8163178E-01
        2   -1    0    0  501    0  0.00000000000E+00  0.00000000000E+00  0.19197740964E+04  0.19197740964E+04  0.25500000920E-02 0. -1.
       -2   -1    0    0    0  501  0.00000000000E+00  0.00000000000E+00 -0.14171811801E+04  0.14171811801E+04  0.25500000920E-02 0.  1.
    10030    2    1    2    0    0  0.00000000000E+00  0.00000000000E+00  0.50259291633E+03  0.33369552765E+04  0.32988893401E+04 0.  0.
        3    1    3    3  502    0  0.32510771363E+03 -0.99849950380E+03 -0.10353761699E+04  0.14746864439E+04  0.10100000352E+00 0.  1.
       -3    1    3    3    0  502 -0.32510771363E+03  0.99849950380E+03  0.15379690862E+04  0.18622688326E+04  0.10100000352E+00 0. -1.
</event>
<event>
 5   0  0.2200750E-08  0.3299126E+04  0.7818609E-02  0.8163118E-01
        3   -1    0    0  501    0  0.00000000000E+00  0.00000000000E+00  0.17866396741E+04  0.17866396769E+04  0.10100000352E+00 0.  1.
       -3   -1    0    0    0  501  0.00000000000E+00  0.00000000000E+00 -0.15230030402E+04  0.15230030436E+04  0.10100000352E+00 0. -1.
    10030    2    1    2    0    0  0.00000000000E+00  0.00000000000E+00  0.26363663385E+03  0.33096427205E+04  0.32991257421E+04 0.  0.
        3    1    3    3  502    0 -0.16019799077E+04  0.16506643756E+02  0.52606673652E+03  0.16862260571E+04  0.10100000352E+00 0.  1.
       -3    1    3    3    0  502  0.16019799077E+04 -0.16506643756E+02 -0.26243010267E+03  0.16234166634E+04  0.10100000352E+00 0. -1.
</event>
<event>
 5   0  0.6765252E-08  0.3295202E+04  0.7818609E-02  0.8164117E-01
        2   -1    0    0  501    0  0.00000000000E+00  0.00000000000E+00  0.28385879899E+04  0.28385879899E+04  0.25500000920E-02 0. -1.
       -2   -1    0    0    0  501  0.00000000000E+00  0.00000000000E+00 -0.95631648014E+03  0.95631648015E+03  0.25500000920E-02 0.  1.
    10030    2    1    2    0    0  0.00000000000E+00  0.00000000000E+00  0.18822715098E+04  0.37949044701E+04  0.32952016479E+04 0.  0.
        2    1    3    3  502    0 -0.85774800554E+03  0.13108254638E+04  0.35323964154E+03  0.16058559344E+04  0.25500000920E-02 0. -1.
       -2    1    3    3    0  502  0.85774800554E+03 -0.13108254638E+04  0.15290318683E+04  0.21890485357E+04  0.25500000920E-02 0.  1.
</event>
<event>
 5   0  0.6706080E-08  0.3300099E+04  0.7818609E-02  0.8162870E-01
       -2   -1    0    0    0  501  0.00000000000E+00  0.00000000000E+00  0.15880791180E+04  0.15880791180E+04  0.25500000920E-02 0.  1.
        2   -1    0    0  501    0  0.00000000000E+00  0.00000000000E+00 -0.17144384679E+04  0.17144384679E+04  0.25500000920E-02 0. -1.
    10030    2    1    2    0    0  0.00000000000E+00  0.00000000000E+00 -0.12635934982E+03  0.33025175859E+04  0.33000993500E+04 0.  0.
        4    1    3    3  502    0  0.16094360125E+04 -0.35912117437E+02 -0.42550624864E+03  0.16651219592E+04  0.12699999809E+01 0. -1.
       -4    1    3    3    0  502 -0.16094360125E+04  0.35912117437E+02  0.29914689881E+03  0.16373956267E+04  0.12699999809E+01 0.  1.
</event>
<event>
 5   0  0.2244093E-08  0.3299962E+04  0.7818609E-02  0.8162905E-01
       -1   -1    0    0    0  501  0.00000000000E+00  0.00000000000E+00  0.13820892066E+04  0.13820892066E+04  0.50400001928E-02 0. -1.
        1   -1    0    0  501    0  0.00000000000E+00  0.00000000000E+00 -0.19697986578E+04  0.19697986578E+04  0.50400001928E-02 0.  1.
    10030    2    1    2    0    0  0.00000000000E+00  0.00000000000E+00 -0.58770945121E+03  0.33518878643E+04  0.32999620992E+04 0.  0.
        1    1    3    3  502    0 -0.26386786440E+03 -0.15539882174E+04  0.20160322917E+03  0.15890718963E+04  0.50400001928E-02 0.  1.
       -1    1    3    3    0  502  0.26386786440E+03  0.15539882174E+04 -0.78931268038E+03  0.17628159680E+04  0.50400001928E-02 0. -1.
</event>
<event>
 5   0  0.6765252E-08  0.3299859E+04  0.7818609E-02  0.8162931E-01
       -2   -1    0    0    0  501  0.00000000000E+00  0.00000000000E+00  0.13086180270E+04  0.13086180270E+04  0.25500000920E-02 0.  1.
        2   -1    0    0  501    0  0.00000000000E+00  0.00000000000E+00 -0.20802618398E+04  0.20802618398E+04  0.25500000920E-02 0. -1.
    10030    2    1    2    0    0  0.00000000000E+00  0.00000000000E+00 -0.77164381286E+03  0.33888798668E+04  0.32998594785E+04 0.  0.
        2    1    3    3  502    0 -0.13552545674E+03  0.15538833967E+04 -0.93824332401E+03  0.18202256165E+04  0.25500000920E-02 0.  1.
       -2    1    3    3    0  502  0.13552545674E+03 -0.15538833967E+04  0.16659951115E+03  0.15686542503E+04  0.25500000920E-02 0. -1.
</event>
<event>
 5   0  0.2383270E-08  0.3299783E+04  0.7818609E-02  0.8162951E-01
       -1   -1    0    0    0  501  0.00000000000E+00  0.00000000000E+00  0.13649714970E+04  0.13649714970E+04  0.50400001928E-02 0. -1.
        1   -1    0    0  501    0  0.00000000000E+00  0.00000000000E+00 -0.19942847051E+04  0.19942847051E+04  0.50400001928E-02 0.  1.
    10030    2    1    2    0    0  0.00000000000E+00  0.00000000000E+00 -0.62931320812E+03  0.33592562021E+04  0.32997828895E+04 0.  0.
        5    1    3    3  502    0 -0.50567791854E+03 -0.15554081942E+04 -0.53562838366E+03  0.17210243064E+04  0.46999998093E+01 0.  1.
       -5    1    3    3    0  502  0.50567791854E+03  0.15554081942E+04 -0.93684824468E+02  0.16382318957E+04  0.46999998093E+01 0. -1.
</event>
<event>
 5   0  0.2279938E-08  0.3298238E+04  0.7818609E-02  0.8163344E-01
       -1   -1    0    0    0  501  0.00000000000E+00  0.00000000000E+00  0.20531737988E+04  0.20531737988E+04  0.50400001928E-02 0. -1.
        1   -1    0    0  501    0  0.00000000000E+00  0.00000000000E+00 -0.13245805675E+04  0.13245805675E+04  0.50400001928E-02 0.  1.
    10030    2    1    2    0    0  0.00000000000E+00  0.00000000000E+00  0.72859323131E+03  0.33777543664E+04  0.32982383878E+04 0.  0.
        3    1    3    3  502    0 -0.12862296073E+03  0.84486197299E+03 -0.10801171931E+04  0.13773121580E+04  0.10100000352E+00 0.  1.
       -3    1    3    3    0  502  0.12862296073E+03 -0.84486197299E+03  0.18087104244E+04  0.20004422084E+04  0.10100000352E+00 0. -1.
</event>
<event>
 5   0  0.6821287E-08  0.3296675E+04  0.7818609E-02  0.8163742E-01
        2   -1    0    0  501    0  0.00000000000E+00  0.00000000000E+00  0.29230977102E+04  0.29230977102E+04  0.25500000920E-02 0.  1.
       -2   -1    0    0    0  501  0.00000000000E+00  0.00000000000E+00 -0.92949884199E+03  0.92949884200E+03  0.25500000920E-02 0. -1.
    10030    2    1    2    0    0  0.00000000000E+00  0.00000000000E+00  0.19935988682E+04  0.38525965522E+04  0.32966746498E+04 0.  0.
        5    1    3    3  502    0  0.12762421401E+04  0.37718645464E+03 -0.13979884558E+03  0.13381440240E+04  0.46999998093E+01 0. -1.
       -5    1    3    3    0  502 -0.12762421401E+04 -0.37718645464E+03  0.21333977138E+04  0.25144525282E+04  0.46999998093E+01 0.  1.
</event>
<event>
 5   0  0.2383270E-08  0.3301142E+04  0.7818609E-02  0.8162605E-01
        1   -1    0    0  501    0  0.00000000000E+00  0.00000000000E+00  0.19812436704E+04  0.19812436704E+04  0.50400001928E-02 0.  1.
       -1   -1    0    0    0  501  0.00000000000E+00  0.00000000000E+00 -0.13750884797E+04  0.13750884797E+04  0.50400001928E-02 0. -1.
    10030    2    1    2    0    0  0.00000000000E+00  0.00000000000E+00  0.60615519071E+03  0.33563321501E+04  0.33011424366E+04 0.  0.
        5    1    3    3  502    0 -0.84642316054E+03 -0.14125400572E+04  0.41748293141E+03  0.16988277334E+04  0.46999998093E+01 0. -1.
       -5    1    3    3    0  502  0.84642316054E+03  0.14125400572E+04  0.18867225930E+03  0.16575044167E+04  0.46999998093E+01 0.  1.
</event>
<event>
 5   0  0.7084130E-08  0.3301196E+04  0.7818609E-02  0.8162591E-01
        2   -1    0    0  501    0  0.00000000000E+00  0.00000000000E+00  0.17314656958E+04  0.17314656958E+04  0.25500000920E-02 0.  1.
       -2   -1    0    0    0  501  0.00000000000E+00  0.00000000000E+00 -0.15735071302E+04  0.15735071302E+04  0.25500000920E-02 0. -1.
    10030    2    1    2    0    0  0.00000000000E+00  0.00000000000E+00  0.15795856566E+03  0.33049728260E+04  0.33011959155E+04 0.  0.
        3    1    3    3  502    0  0.14354890340E+04  0.57719446057E+03 -0.49673637557E+03  0.16249705379E+04  0.10100000352E+00 0. -1.
       -3    1    3    3    0  502 -0.14354890340E+04 -0.57719446057E+03  0.65469494124E+03  0.16800022882E+04  0.10100000352E+00 0.  1.
</event>
<event>
 5   0  0.2244093E-08  0.3316228E+04  0.7818609E-02  0.8158778E-01
        1   -1    0    0  501    0  0.00000000000E+00  0.00000000000E+00  0.19630070731E+04  0.19630070731E+04  0.50400001928E-02 0.  1.
       -1   -1    0    0    0  501  0.00000000000E+00  0.00000000000E+00 -0.14005769969E+04  0.14005769969E+04  0.50400001928E-02 0. -1.
    10030    2    1    2    0    0  0.00000000000E+00  0.00000000000E+00  0.56243007622E+03  0.33635840701E+04  0.33162283103E+04 0.  0.
        1    1    3    3  502    0 -0.43806086810E+03  0.33576009946E+03  0.18670996058E+04  0.19469702377E+04  0.50400001928E-02 0.  1.
       -1    1    3    3    0  502  0.43806086810E+03 -0.33576009946E+03 -0.13046695296E+04  0.14166138323E+04  0.50400001928E-02 0. -1.
</event>
<event>
 5   0  0.2383270E-08  0.3302193E+04  0.7818609E-02  0.8162338E-01
       -1   -1    0    0    0  501  0.00000000000E+00  0.00000000000E+00  0.10597615104E+04  0.10597615104E+04  0.50400001928E-02 0.  1.
        1   -1    0    0  501    0  0.00000000000E+00  0.00000000000E+00 -0.25723898230E+04  0.25723898230E+04  0.50400001928E-02 0. -1.
    10030    2    1    2    0    0  0.00000000000E+00  0.00000000000E+00 -0.15126283126E+04  0.36321513335E+04  0.33021930436E+04 0.  0.
        5    1    3    3  502    0 -0.10074346815E+04 -0.75505416867E+03  0.41862911187E+03  0.13267644321E+04  0.46999998093E+01 0.  1.
       -5    1    3    3    0  502  0.10074346815E+04  0.75505416867E+03 -0.19312574245E+04  0.23053869013E+04  0.46999998093E+01 0. -1.
</event>
<event>
 5   0  0.7084130E-08  0.3295269E+04  0.7818609E-02  0.8164100E-01
       -2   -1    0    0    0  501  0.00000000000E+00  0.00000000000E+00  0.13633689622E+04  0.13633689622E+04  0.25500000920E-02 0.  1.
        2   -1    0    0  501    0  0.00000000000E+00  0.00000000000E+00 -0.19911697062E+04  0.19911697062E+04  0.25500000920E-02 0. -1.
    10030    2    1    2    0    0  0.00000000000E+00  0.00000000000E+00 -0.62780074403E+03  0.33545386684E+04  0.32952687149E+04 0.  0.
        3    1    3    3  502    0  0.79004100218E+03  0.10281315260E+04 -0.13487874211E+04  0.18709480852E+04  0.10100000352E+00 0. -1.
       -3    1    3    3    0  502 -0.79004100218E+03 -0.10281315260E+04  0.72098667704E+03  0.14835905832E+04  0.10100000352E+00 0.  1.
</event>
<event>
 5   0  0.6821287E-08  0.3299580E+04  0.7818609E-02  0.8163002E-01
       -2   -1    0    0    0  501  0.00000000000E+00  0.00000000000E+00  0.10549317877E+04  0.10549317877E+04  0.25500000920E-02 0. -1.
        2   -1    0    0  501    0  0.00000000000E+00  0.00000000000E+00 -0.25800786741E+04  0.25800786741E+04  0.25500000920E-02 0.  1.
    10030    2    1    2    0    0  0.00000000000E+00  0.00000000000E+00 -0.15251468864E+04  0.36350104618E+04  0.32995799782E+04 0.  0.
        5    1    3    3  502    0  0.10422039768E+04 -0.11304318349E+04 -0.10367511237E+03  0.15410502528E+04  0.46999998093E+01 0. -1.
       -5    1    3    3    0  502 -0.10422039768E+04  0.11304318349E+04 -0.14214717740E+04  0.20939602090E+04  0.46999998093E+01 0.  1.
</event>
<event>
 5   0  0.6821287E-08  0.3299473E+04  0.7818609E-02  0.8163029E-01
       -2   -1    0    0    0  501  0.00000000000E+00  0.00000000000E+00  0.17478453185E+04  0.17478453185E+04  0.25500000920E-02 0.  1.
        2   -1    0    0  501    0  0.00000000000E+00  0.00000000000E+00 -0.15571348297E+04  0.15571348297E+04  0.25500000920E-02 0. -1.
    10030    2    1    2    0    0  0.00000000000E+00  0.00000000000E+00  0.19071048883E+03  0.33049801482E+04  0.32994731836E+04 0.  0.
        5    1    3    3  502    0  0.31395480085E+03 -0.69537593495E+02  0.17161429327E+04  0.17460159648E+04  0.46999998093E+01 0.  1.
       -5    1    3    3    0  502 -0.31395480085E+03  0.69537593495E+02 -0.15254324439E+04  0.15589641833E+04  0.46999998093E+01 0. -1.
</event>
<event>
 5   0  0.2309822E-08  0.3299727E+04  0.7818609E-02  0.8162965E-01
        1   -1    0    0  501    0  0.00000000000E+00  0.00000000000E+00  0.17941265386E+04  0.17941265386E+04  0.50400001928E-02 0. -1.
       -1   -1    0    0    0  501  0.00000000000E+00  0.00000000000E+00 -0.15172008645E+04  0.15172008645E+04  0.50400001928E-02 0.  1.
    10030    2    1    2    0    0  0.00000000000E+00  0.00000000000E+00  0.27692567414E+03  0.33113274031E+04  0.32997274647E+04 0.  0.
        4    1    3    3  502    0  0.50046967633E+03 -0.14916196046E+04  0.63684721226E+03  0.16973434910E+04  0.12699999809E+01 0. -1.
       -4    1    3    3    0  502 -0.50046967633E+03  0.14916196046E+04 -0.35992153812E+03  0.16139839121E+04  0.12699999809E+01 0.  1.
</event>
<event>
 5   0  0.2200750E-08  0.3299073E+04  0.7818609E-02  0.8163131E-01
       -3   -1    0    0    0  501  0.00000000000E+00  0.00000000000E+00  0.24842782652E+04  0.24842782672E+04  0.10100000352E+00 0.  1.
        3   -1    0    0  501    0  0.00000000000E+00  0.00000000000E+00 -0.10952759402E+04  0.10952759449E+04  0.10100000352E+00 0. -1.
    10030    2    1    2    0    0  0.00000000000E+00  0.00000000000E+00  0.13890023249E+04  0.35795542121E+04  0.32990727332E+04 0.  0.
        2    1    3    3  502    0 -0.18825100594E+03 -0.10044522111E+04 -0.71042260987E+03  0.12446135827E+04  0.25500000920E-02 0. -1.
       -2    1    3    3    0  502  0.18825100594E+03  0.10044522111E+04  0.20994249348E+04  0.23349406294E+04  0.25500000920E-02 0.  1.
</event>
<event>
 5   0  0.2309822E-08  0.3301877E+04  0.7818609E-02  0.8162418E-01
       -1   -1    0    0    0  501  0.00000000000E+00  0.00000000000E+00  0.10175233096E+04  0.10175233096E+04  0.50400001928E-02 0. -1.
        1   -1    0    0  501    0  0.00000000000E+00  0.00000000000E+00 -0.26786592147E+04  0.26786592147E+04  0.50400001928E-02 0.  1.
    10030    2    1    2    0    0  0.00000000000E+00  0.00000000000E+00 -0.16611359051E+04  0.36961825243E+04  0.33018771567E+04 0.  0.
        4    1    3    3  502    0  0.32293296386E+03  0.15398145022E+04 -0.13905930093E+04  0.20997773527E+04  0.12699999809E+01 0.  1.
       -4    1    3    3    0  502 -0.32293296386E+03 -0.15398145022E+04 -0.27054289580E+03  0.15964051716E+04  0.12699999809E+01 0. -1.
</event>
<event>
 5   0  0.2279938E-08  0.3300191E+04  0.7818609E-02  0.8162847E-01
        1   -1    0    0  501    0  0.00000000000E+00  0.00000000000E+00  0.19983480922E+04  0.19983480923E+04  0.50400001928E-02 0. -1.
       -1   -1    0    0    0  501  0.00000000000E+00  0.00000000000E+00 -0.13625333264E+04  0.13625333264E+04  0.50400001928E-02 0.  1.
    10030    2    1    2    0    0  0.00000000000E+00  0.00000000000E+00  0.63581476588E+03  0.33608814186E+04  0.33001914329E+04 0.  0.
        3    1    3    3  502    0 -0.13768542598E+04  0.30380393884E+03 -0.55505611128E+03  0.15152926393E+04  0.10100000352E+00 0. -1.
       -3    1    3    3    0  502  0.13768542598E+04 -0.30380393884E+03  0.11908708772E+04  0.18455887793E+04  0.10100000352E+00 0.  1.
</event>
<event>
 5   0  0.2244093E-08  0.3300028E+04  0.7818609E-02  0.8162888E-01
        1   -1    0    0  501    0  0.00000000000E+00  0.00000000000E+00  0.20288871008E+04  0.20288871009E+04  0.50400001928E-02 0.  1.
       -1   -1    0    0    0  501  0.00000000000E+00  0.00000000000E+00 -0.13418911373E+04  0.13418911373E+04  0.50400001928E-02 0. -1.
    10030    2    1    2    0    0  0.00000000000E+00  0.00000000000E+00  0.68699596359E+03  0.33707782381E+04  0.33000276478E+04 0.  0.
        1    1    3    3  502    0  0.75276018921E+03  0.50595433861E+03 -0.10644249415E+04  0.13984413293E+04  0.50400001928E-02 0. -1.
       -1    1    3    3    0  502 -0.75276018921E+03 -0.50595433861E+03  0.17514209051E+04  0.19723369089E+04  0.50400001928E-02 0.  1.
</event>
<event>
 5   0  0.7084130E-08  0.3300010E+04  0.7818609E-02  0.8162893E-01
        2   -1    0    0  501    0  0.00000000000E+00  0.00000000000E+00  0.17267274630E+04  0.17267274630E+04  0.25500000920E-02 0.  1.
       -2   -1    0    0    0  501  0.00000000000E+00  0.00000000000E+00 -0.15766913233E+04  0.15766913233E+04  0.25500000920E-02 0. -1.
    10030    2    1    2    0    0  0.00000000000E+00  0.00000000000E+00  0.15003613969E+03  0.33034187864E+04  0.33000098235E+04 0.  0.
        3    1    3    3  502    0  0.10148900665E+04 -0.49646882508E+03 -0.11287352898E+04  0.15970367892E+04  0.10100000352E+00 0. -1.
       -3    1    3    3    0  502 -0.10148900665E+04  0.49646882508E+03  0.12787714295E+04  0.17063819972E+04  0.10100000352E+00 0.  1.
</event>
<event>
 5   0  0.6821287E-08  0.3309256E+04  0.7818609E-02  0.8160544E-01
       -2   -1    0    0    0  501  0.00000000000E+00  0.00000000000E+00  0.17980056679E+04  0.17980056679E+04  0.25500000920E-02 0. -1.
        2   -1    0    0  501    0  0.00000000000E+00  0.00000000000E+00 -0.15226838969E+04  0.15226838969E+04  0.25500000920E-02 0.  1.
    10030    2    1    2    0    0  0.00000000000E+00  0.00000000000E+00  0.27532177096E+03  0.33206895648E+04  0.33092562772E+04 0.  0.
        5    1    3    3  502    0  0.69198041453E+03  0.13191637065E+04  0.86038700925E+03  0.17202667451E+04  0.46999998093E+01 0. -1.
       -5    1    3    3    0  502 -0.69198041453E+03 -0.13191637065E+04 -0.58506523830E+03  0.16004228197E+04  0.46999998093E+01 0.  1.
</event>
<event>
 5   0  0.6821287E-08  0.3291516E+04  0.7818609E-02  0.8165057E-01
       -2   -1    0    0    0  501  0.00000000000E+00  0.00000000000E+00  0.15411883990E+04  0.15411883990E+04  0.25500000920E-02 0. -1.
        2   -1    0    0  501    0  0.00000000000E+00  0.00000000000E+00 -0.17574229961E+04  0.17574229961E+04  0.25500000920E-02 0.  1.
    10030    2    1    2    0    0  0.00000000000E+00  0.00000000000E+00 -0.21623459707E+03  0.32986113951E+04  0.32915163276E+04 0.  0.
        5    1    3    3  502    0  0.15869576019E+04  0.32793786843E+03  0.17976515294E+03  0.16304340760E+04  0.46999998093E+01 0. -1.
       -5    1    3    3    0  502 -0.15869576019E+04 -0.32793786843E+03 -0.39599975001E+03  0.16681773191E+04  0.46999998093E+01 0.  1.
</event>
<event>
 5   0  0.2244093E-08  0.3293464E+04  0.7818609E-02  0.8164560E-01
        1   -1    0    0  501    0  0.00000000000E+00  0.00000000000E+00  0.91741847253E+03  0.91741847255E+03  0.50400001928E-02 0.  1.
       -1   -1    0    0    0  501  0.00000000000E+00  0.00000000000E+00 -0.29558227873E+04  0.29558227873E+04  0.50400001928E-02 0. -1.
    10030    2    1    2    0    0  0.00000000000E+00  0.00000000000E+00 -0.20384043148E+04  0.38732412599E+04  0.32934640892E+04 0.  0.
        1    1    3    3  502    0  0.14544896993E+04 -0.76929025817E+03 -0.94138215606E+03  0.18956656220E+04  0.50400001928E-02 0. -1.
       -1    1    3    3    0  502 -0.14544896993E+04  0.76929025817E+03 -0.10970221587E+04  0.19775756379E+04  0.50400001928E-02 0.  1.
</event>
<event>
 5   0  0.6603516E-08  0.3301315E+04  0.7818609E-02  0.8162561E-01
        2   -1    0    0  501    0  0.00000000000E+00  0.00000000000E+00  0.20024576475E+04  0.20024576475E+04  0.25500000920E-02 0. -1.
       -2   -1    0    0    0  501  0.00000000000E+00  0.00000000000E+00 -0.13606628693E+04  0.13606628693E+04  0.25500000920E-02 0.  1.
    10030    2    1    2    0    0  0.00000000000E+00  0.00000000000E+00  0.64179477822E+03  0.33631205168E+04  0.33013147492E+04 0.  0.
        1    1    3    3  502    0  0.43409860466E+03  0.37342545624E+03  0.18980355098E+04  0.19825304453E+04  0.50400001928E-02 0. -1.
       -1    1    3    3    0  502 -0.43409860466E+03 -0.37342545624E+03 -0.12562407316E+04  0.13805900715E+04  0.50400001928E-02 0.  1.
</event>
<event>
 5   0  0.6603516E-08  0.3299388E+04  0.7818609E-02  0.8163051E-01
        2   -1    0    0  501    0  0.00000000000E+00  0.00000000000E+00  0.23920376527E+04  0.23920376527E+04  0.25500000920E-02 0. -1.
       -2   -1    0    0    0  501  0.00000000000E+00  0.00000000000E+00 -0.11377291789E+04  0.11377291789E+04  0.25500000920E-02 0.  1.
    10030    2    1    2    0    0  0.00000000000E+00  0.00000000000E+00  0.12543084738E+04  0.35297668317E+04  0.32993884492E+04 0.  0.
        1    1    3    3  502    0  0.13983098129E+04 -0.81870327102E+03  0.95853342201E+03  0.18826395566E+04  0.50400001928E-02 0. -1.
       -1    1    3    3    0  502 -0.13983098129E+04  0.81870327102E+03  0.29577505177E+03  0.16471272751E+04  0.50400001928E-02 0.  1.
</event>
<event>
 5   0  0.2279938E-08  0.3302896E+04  0.7818609E-02  0.8162159E-01
       -1   -1    0    0    0  501  0.00000000000E+00  0.00000000000E+00  0.25517226316E+04  0.25517226316E+04  0.50400001928E-02 0. -1.
        1   -1    0    0  501    0  0.00000000000E+00  0.00000000000E+00 -0.10687994935E+04  0.10687994935E+04  0.50400001928E-02 0.  1.
    10030    2    1    2    0    0  0.00000000000E+00  0.00000000000E+00  0.14829231381E+04  0.36205221251E+04  0.33028956121E+04 0.  0.
        3    1    3    3  502    0 -0.77724401550E+03  0.10804890558E+04 -0.33015780291E+03  0.13713384135E+04  0.10100000352E+00 0. -1.
       -3    1    3    3    0  502  0.77724401550E+03 -0.10804890558E+04  0.18130809410E+04  0.22491837116E+04  0.10100000352E+00 0.  1.
</event>
<event>
 5   0  0.6706080E-08  0.3298867E+04  0.7818609E-02  0.8163184E-01
        2   -1    0    0  501    0  0.00000000000E+00  0.00000000000E+00  0.26411227826E+04  0.26411227826E+04  0.25500000920E-02 0.  1.
       -2   -1    0    0    0  501  0.00000000000E+00  0.00000000000E+00 -0.10301041310E+04  0.10301041310E+04  0.25500000920E-02 0. -1.
    10030    2    1    2    0    0  0.00000000000E+00  0.00000000000E+00  0.16110186516E+04  0.36712269137E+04  0.32988673747E+04 0.  0.
        4    1    3    3  502    0 -0.86214384240E+03 -0.99835180260E+03 -0.29653561050E+03  0.13520108387E+04  0.12699999809E+01 0. -1.
       -4    1    3    3    0  502  0.86214384240E+03  0.99835180260E+03  0.19075542621E+04  0.23192160750E+04  0.12699999809E+01 0.  1.
</event>
<event>
 5   0  0.2291682E-08  0.3300595E+04  0.7818609E-02  0.8162744E-01
       -1   -1    0    0    0  501  0.00000000000E+00  0.00000000000E+00  0.15453255641E+04  0.15453255641E+04  0.50400001928E-02 0.  1.
        1   -1    0    0  501    0  0.00000000000E+00  0.00000000000E+00 -0.17623998877E+04  0.17623998877E+04  0.50400001928E-02 0. -1.
    10030    2    1    2    0    0  0.00000000000E+00  0.00000000000E+00 -0.21707432356E+03  0.33077254518E+04  0.33005948559E+04 0.  0.
        2    1    3    3  502    0  0.16083532107E+04  0.12515829369E+03  0.24008929445E+03  0.16309836045E+04  0.25500000920E-02 0. -1.
       -2    1    3    3    0  502 -0.16083532107E+04 -0.12515829369E+03 -0.45716361801E+03  0.16767418473E+04  0.25500000920E-02 0.  1.
</event>
<event>
 5   0  0.6765252E-08  0.3300463E+04  0.7818609E-02  0.8162778E-01
       -2   -1    0    0    0  501  0.00000000000E+00  0.00000000000E+00  0.15112037059E+04  0.15112037059E+04  0.25500000920E-02 0. -1.
        2   -1    0    0  501    0  0.00000000000E+00  0.00000000000E+00 -0.18020492336E+04  0.18020492336E+04  0.25500000920E-02 0.  1.
    10030    2    1    2    0    0  0.00000000000E+00  0.00000000000E+00 -0.29084552771E+03  0.33132529394E+04  0.33004626826E+04 0.  0.
        2    1    3    3  502    0 -0.12313823436E+04 -0.19307324887E+03 -0.12311331408E+04  0.17519328086E+04  0.25500000920E-02 0.  1.
       -2    1    3    3    0  502  0.12313823436E+04  0.19307324887E+03  0.94028761308E+03  0.15613201308E+04  0.25500000920E-02 0. -1.
</event>
<event>
 5   0  0.2244093E-08  0.3303075E+04  0.7818609E-02  0.8162113E-01
        1   -1    0    0  501    0  0.00000000000E+00  0.00000000000E+00  0.23362775773E+04  0.23362775773E+04  0.50400001928E-02 0.  1.
       -1   -1    0    0    0  501  0.00000000000E+00  0.00000000000E+00 -0.11674877457E+04  0.11674877457E+04  0.50400001928E-02 0. -1.
    10030    2    1    2    0    0  0.00000000000E+00  0.00000000000E+00  0.11687898316E+04  0.35037653230E+04  0.33030745932E+04 0.  0.
        1    1    3    3  502    0  0.52278734140E+02 -0.48763211338E+03  0.22572546355E+04  0.23099170188E+04  0.50400001928E-02 0.  1.
       -1    1    3    3    0  502 -0.52278734140E+02  0.48763211338E+03 -0.10884648040E+04  0.11938483042E+04  0.50400001928E-02 0. -1.
</event>
<event>
 5   0  0.6765252E-08  0.3296272E+04  0.7818609E-02  0.8163845E-01
       -2   -1    0    0    0  501  0.00000000000E+00  0.00000000000E+00  0.11340946651E+04  0.11340946651E+04  0.25500000920E-02 0.  1.
        2   -1    0    0  501    0  0.00000000000E+00  0.00000000000E+00 -0.23951721290E+04  0.23951721290E+04  0.25500000920E-02 0. -1.
    10030    2    1    2    0    0  0.00000000000E+00  0.00000000000E+00 -0.12610774640E+04  0.35292667941E+04  0.32962717930E+04 0.  0.
        2    1    3    3  502    0 -0.12548248100E+04 -0.44306106555E+03  0.41054069547E+03  0.13926349394E+04  0.25500000920E-02 0.  1.
       -2    1    3    3    0  502  0.12548248100E+04  0.44306106555E+03 -0.16716181594E+04  0.21366318547E+04  0.25500000920E-02 0. -1.
</event>
<event>
 5   0  0.6821287E-08  0.3299877E+04  0.7818609E-02  0.8162927E-01
       -2   -1    0    0    0  501  0.00000000000E+00  0.00000000000E+00  0.94377972641E+03  0.94377972641E+03  0.25500000920E-02 0. -1.
        2   -1    0    0  501    0  0.00000000000E+00  0.00000000000E+00 -0.28844625954E+04  0.28844625954E+04  0.25500000920E-02 0.  1.
    10030    2    1    2    0    0  0.00000000000E+00  0.00000000000E+00 -0.19406828690E+04  0.38282423218E+04  0.32998771608E+04 0.  0.
        5    1    3    3  502    0 -0.67922909416E+03  0.64101546181E+03 -0.25482801136E+04  0.27140388007E+04  0.46999998093E+01 0.  1.
       -5    1    3    3    0  502  0.67922909416E+03 -0.64101546181E+03  0.60759724463E+03  0.11142035210E+04  0.46999998093E+01 0. -1.
</event>
<event>
 5   0  0.6821287E-08  0.3300789E+04  0.7818609E-02  0.8162695E-01
        2   -1    0    0  501    0  0.00000000000E+00  0.00000000000E+00  0.11085350488E+04  0.11085350488E+04  0.25500000920E-02 0. -1.
       -2   -1    0    0    0  501  0.00000000000E+00  0.00000000000E+00 -0.24571179198E+04  0.24571179198E+04  0.25500000920E-02 0.  1.
    10030    2    1    2    0    0  0.00000000000E+00  0.00000000000E+00 -0.13485828710E+04  0.35656529685E+04  0.33007885925E+04 0.  0.
        5    1    3    3  502    0 -0.28890256729E+03 -0.66080023086E+03  0.92929886682E+03  0.11763248328E+04  0.46999998093E+01 0. -1.
       -5    1    3    3    0  502  0.28890256729E+03  0.66080023086E+03 -0.22778817378E+04  0.23893281357E+04  0.46999998093E+01 0.  1.
</event>
<event>
 5   0  0.6821287E-08  0.3299503E+04  0.7818609E-02  0.8163022E-01
       -2   -1    0    0    0  501  0.00000000000E+00  0.00000000000E+00  0.11570634105E+04  0.11570634105E+04  0.25500000920E-02 0. -1.
        2   -1    0    0  501    0  0.00000000000E+00  0.00000000000E+00 -0.23522302208E+04  0.23522302208E+04  0.25500000920E-02 0.  1.
    10030    2    1    2    0    0  0.00000000000E+00  0.00000000000E+00 -0.11951668104E+04  0.35092936313E+04  0.32995027028E+04 0.  0.
        5    1    3    3  502    0 -0.13806370109E+04 -0.11440976436E+03 -0.15503119810E+04  0.20791193998E+04  0.46999998093E+01 0.  1.
       -5    1    3    3    0  502  0.13806370109E+04  0.11440976436E+03  0.35514517066E+03  0.14301742315E+04  0.46999998093E+01 0. -1.
</event>
<event>
 5   0  0.2244093E-08  0.3301727E+04  0.7818609E-02  0.8162456E-01
       -1   -1    0    0    0  501  0.00000000000E+00  0.00000000000E+00  0.29631183232E+04  0.29631183232E+04  0.50400001928E-02 0.  1.
        1   -1    0    0  501    0  0.00000000000E+00  0.00000000000E+00 -0.91975723226E+03  0.91975723227E+03  0.50400001928E-02 0. -1.
    10030    2    1    2    0    0  0.00000000000E+00  0.00000000000E+00  0.20433610909E+04  0.38828755554E+04  0.33017265228E+04 0.  0.
        1    1    3    3  502    0  0.11332107570E+04  0.41688810285E+03 -0.30225557589E+03  0.12447171338E+04  0.50400001928E-02 0. -1.
       -1    1    3    3    0  502 -0.11332107570E+04 -0.41688810285E+03  0.23456166668E+04  0.26381584216E+04  0.50400001928E-02 0.  1.
</event>
<event>
 5   0  0.2279938E-08  0.3301409E+04  0.7818609E-02  0.8162537E-01
       -1   -1    0    0    0  501  0.00000000000E+00  0.00000000000E+00  0.13584577097E+04  0.13584577097E+04  0.50400001928E-02 0. -1.
        1   -1    0    0  501    0  0.00000000000E+00  0.00000000000E+00 -0.20058232970E+04  0.20058232970E+04  0.50400001928E-02 0.  1.
    10030    2    1    2    0    0  0.00000000000E+00  0.00000000000E+00 -0.64736558730E+03  0.33642810067E+04  0.33014094699E+04 0.  0.
        3    1    3    3  502    0  0.16264248160E+04 -0.18634520007E+03 -0.53947936505E+03  0.17236647618E+04  0.10100000352E+00 0.  1.
       -3    1    3    3    0  502 -0.16264248160E+04  0.18634520007E+03 -0.10788622224E+03  0.16406162448E+04  0.10100000352E+00 0. -1.
</event>
<event>
 5   0  0.2279938E-08  0.3295967E+04  0.7818609E-02  0.8163922E-01
       -1   -1    0    0    0  501  0.00000000000E+00  0.00000000000E+00  0.19979181350E+04  0.19979181350E+04  0.50400001928E-02 0.  1.
        1   -1    0    0  501    0  0.00000000000E+00  0.00000000000E+00 -0.13593398435E+04  0.13593398435E+04  0.50400001928E-02 0. -1.
    10030    2    1    2    0    0  0.00000000000E+00  0.00000000000E+00  0.63857829145E+03  0.33572579785E+04  0.32959670659E+04 0.  0.
        3    1    3    3  502    0  0.16005816585E+04 -0.35607711424E+03  0.15130681082E+03  0.16466773570E+04  0.10100000352E+00 0. -1.
       -3    1    3    3    0  502 -0.16005816585E+04  0.35607711424E+03  0.48727148063E+03  0.17105806215E+04  0.10100000352E+00 0.  1.
</event>
<event>
 5   0  0.6603516E-08  0.3299046E+04  0.7818609E-02  0.8163138E-01
        2   -1    0    0  501    0  0.00000000000E+00  0.00000000000E+00  0.27083607908E+04  0.27083607908E+04  0.25500000920E-02 0. -1.
       -2   -1    0    0    0  501  0.00000000000E+00  0.00000000000E+00 -0.10046395785E+04  0.10046395785E+04  0.25500000920E-02 0.  1.
    10030    2    1    2    0    0  0.00000000000E+00  0.00000000000E+00  0.17037212122E+04  0.37130003693E+04  0.32990461915E+04 0.  0.
        1    1    3    3  502    0  0.14813834476E+04  0.57239718054E+03  0.13536655626E+04  0.20867548746E+04  0.50400001928E-02 0. -1.
       -1    1    3    3    0  502 -0.14813834476E+04 -0.57239718054E+03  0.35005564959E+03  0.16262454947E+04  0.50400001928E-02 0.  1.
</event>
<event>
 5   0  0.2383270E-08  0.3299776E+04  0.7818609E-02  0.8162952E-01
       -1   -1    0    0    0  501  0.00000000000E+00  0.00000000000E+00  0.13493227954E+04  0.13493227954E+04  0.50400001928E-02 0.  1.
        1   -1    0    0  501    0  0.00000000000E+00  0.00000000000E+00 -0.20174044290E+04  0.20174044290E+04  0.50400001928E-02 0. -1.
    10030    2    1    2    0    0  0.00000000000E+00  0.00000000000E+00 -0.66808163358E+03  0.33667272245E+04  0.32997756188E+04 0.  0.
        5    1    3    3  502    0 -0.55201134915E+02  0.57135187066E+03  0.12441523737E+04  0.13701924479E+04  0.46999998093E+01 0.  1.
       -5    1    3    3    0  502  0.55201134915E+02 -0.57135187066E+03 -0.19122340073E+04  0.19965347765E+04  0.46999998093E+01 0. -1.
</event>
<event>
 5   0  0.6603516E-08  0.3299651E+04  0.7818609E-02  0.8162984E-01
       -2   -1    0    0    0  501  0.00000000000E+00  0.00000000000E+00  0.14948023636E+04  0.14948023636E+04  0.25500000920E-02 0. -1.
        2   -1    0    0  501    0  0.00000000000E+00  0.00000000000E+00 -0.18209260450E+04  0.18209260450E+04  0.25500000920E-02 0.  1.
    10030    2    1    2    0    0  0.00000000000E+00  0.00000000000E+00 -0.32612368136E+03  0.33157284086E+04  0.32996512276E+04 0.  0.
        1    1    3    3  502    0  0.85106953727E+03 -0.32741172716E+03 -0.15446816250E+04  0.17937555907E+04  0.50400001928E-02 0.  1.
       -1    1    3    3    0  502 -0.85106953727E+03  0.32741172716E+03  0.12185579437E+04  0.15219728179E+04  0.50400001928E-02 0. -1.
</event>
<event>
 5   0  0.7084130E-08  0.3302427E+04  0.7818609E-02  0.8162278E-01
       -2   -1    0    0    0  501  0.00000000000E+00  0.00000000000E+00  0.18776221270E+04  0.18776221270E+04  0.25500000920E-02 0.  1.
        2   -1    0    0  501    0  0.00000000000E+00  0.00000000000E+00 -0.14521060794E+04  0.14521060794E+04  0.25500000920E-02 0. -1.
    10030    2    1    2    0    0  0.00000000000E+00  0.00000000000E+00  0.42551604752E+03  0.33297282064E+04  0.33024272924E+04 0.  0.
        3    1    3    3  502    0 -0.61750423973E+03 -0.15724917878E+03 -0.13231431933E+04  0.14685866371E+04  0.10100000352E+00 0. -1.
       -3    1    3    3    0  502  0.61750423973E+03  0.15724917878E+03  0.17486592409E+04  0.18611415693E+04  0.10100000352E+00 0.  1.
</event>
<event>
 5   0  0.6765252E-08  0.3306456E+04  0.7818609E-02  0.8161255E-01
       -2   -1    0    0    0  501  0.00000000000E+00  0.00000000000E+00  0.11296677051E+04  0.11296677051E+04  0.25500000920E-02 0. -1.
        2   -1    0    0  501    0  0.00000000000E+00  0.00000000000E+00 -0.24194397512E+04  0.24194397512E+04  0.25500000920E-02 0.  1.
    10030    2    1    2    0    0  0.00000000000E+00  0.00000000000E+00 -0.12897720461E+04  0.35491074563E+04  0.33064560795E+04 0.  0.
        2    1    3    3  502    0 -0.10240897198E+03  0.10827291548E+03  0.11224426801E+04  0.11322933330E+04  0.25500000920E-02 0. -1.
       -2    1    3    3    0  502  0.10240897198E+03 -0.10827291548E+03 -0.24122147261E+04  0.24168141234E+04  0.25500000920E-02 0.  1.
</event>
<event>
 5   0  0.2291682E-08  0.3298601E+04  0.7818609E-02  0.8163251E-01
        1   -1    0    0  501    0  0.00000000000E+00  0.00000000000E+00  0.15170367134E+04  0.15170367134E+04  0.50400001928E-02 0. -1.
       -1   -1    0    0    0  501  0.00000000000E+00  0.00000000000E+00 -0.17930956664E+04  0.17930956664E+04  0.50400001928E-02 0.  1.
    10030    2    1    2    0    0  0.00000000000E+00  0.00000000000E+00 -0.27605895306E+03  0.33101323798E+04  0.32986008892E+04 0.  0.
        2    1    3    3  502    0 -0.12009828217E+04 -0.85502849185E+03  0.60398667932E+03  0.15931834071E+04  0.25500000920E-02 0. -1.
       -2    1    3    3    0  502  0.12009828217E+04  0.85502849185E+03 -0.88004563238E+03  0.17169489727E+04  0.25500000920E-02 0.  1.
</event>
<event>
 5   0  0.6821287E-08  0.3300090E+04  0.7818609E-02  0.8162873E-01
       -2   -1    0    0    0  501  0.00000000000E+00  0.00000000000E+00  0.11279632611E+04  0.11279632611E+04  0.25500000920E-02 0. -1.
        2   -1    0    0  501    0  0.00000000000E+00  0.00000000000E+00 -0.24137737022E+04  0.24137737022E+04  0.25500000920E-02 0.  1.
    10030    2    1    2    0    0  0.00000000000E+00  0.00000000000E+00 -0.12858104412E+04  0.35417369633E+04  0.33000897301E+04 0.  0.
        5    1    3    3  502    0 -0.57263104554E+03 -0.57625459083E+03  0.89845219941E+03  0.12112861398E+04  0.46999998093E+01 0. -1.
       -5    1    3    3    0  502  0.57263104554E+03  0.57625459083E+03 -0.21842626406E+04  0.23304508235E+04  0.46999998093E+01 0.  1.
</event>
<event>
 5   0  0.6821287E-08  0.3302248E+04  0.7818609E-02  0.8162324E-01
        2   -1    0    0  501    0  0.00000000000E+00  0.00000000000E+00  0.17602952144E+04  0.17602952144E+04  0.25500000920E-02 0. -1.
       -2   -1    0    0    0  501  0.00000000000E+00  0.00000000000E+00 -0.15487229911E+04  0.15487229911E+04  0.25500000920E-02 0.  1.
    10030    2    1    2    0    0  0.00000000000E+00  0.00000000000E+00  0.21157222327E+03  0.33090182055E+04  0.33022475193E+04 0.  0.
        5    1    3    3  502    0  0.17146421561E+03 -0.25447047567E+03  0.17314664297E+04  0.17584519577E+04  0.46999998093E+01 0. -1.
       -5    1    3    3    0  502 -0.17146421561E+03  0.25447047567E+03 -0.15198942064E+04  0.15505662479E+04  0.46999998093E+01 0.  1.
</event>
<event>
 5   0  0.6603516E-08  0.3299960E+04  0.7818609E-02  0.8162906E-01
        2   -1    0    0  501    0  0.00000000000E+00  0.00000000000E+00  0.19720339608E+04  0.19720339608E+04  0.25500000920E-02 0.  1.
       -2   -1    0    0    0  501  0.00000000000E+00  0.00000000000E+00 -0.13805210261E+04  0.13805210261E+04  0.25500000920E-02 0. -1.
    10030    2    1    2    0    0  0.00000000000E+00  0.00000000000E+00  0.59151293470E+03  0.33525549868E+04  0.32999602100E+04 0.  0.
        1    1    3    3  502    0 -0.49313027797E+03 -0.15585545226E+04  0.68212035892E+02  0.16361303594E+04  0.50400001928E-02 0. -1.
       -1    1    3    3    0  502  0.49313027797E+03  0.15585545226E+04  0.52330089881E+03  0.17164246275E+04  0.50400001928E-02 0.  1.
</event>
<event>
 5   0  0.6706080E-08  0.3297293E+04  0.7818609E-02  0.8163584E-01
        2   -1    0    0  501    0  0.00000000000E+00  0.00000000000E+00  0.17327767332E+04  0.17327767332E+04  0.25500000920E-02 0.  1.
       -2   -1    0    0    0  501  0.00000000000E+00  0.00000000000E+00 -0.15686012108E+04  0.15686012108E+04  0.25500000920E-02 0. -1.
    10030    2    1    2    0    0  0.00000000000E+00  0.00000000000E+00  0.16417552248E+03  0.33013779440E+04  0.32972932425E+04 0.  0.
        4    1    3    3  502    0 -0.94175379710E+03 -0.13281774779E+04 -0.17722814394E+03  0.16377933493E+04  0.12699999809E+01 0.  1.
       -4    1    3    3    0  502  0.94175379710E+03  0.13281774779E+04  0.34140366642E+03  0.16635845947E+04  0.12699999809E+01 0. -1.
</event>
<event>
 5   0  0.2291682E-08  0.3300799E+04  0.7818609E-02  0.8162692E-01
       -1   -1    0    0    0  501  0.00000000000E+00  0.00000000000E+00  0.15774154518E+04  0.15774154518E+04  0.50400001928E-02 0.  1.
        1   -1    0    0  501    0  0.00000000000E+00  0.00000000000E+00 -0.17267608772E+04  0.17267608772E+04  0.50400001928E-02 0. -1.
    10030    2    1    2    0    0  0.00000000000E+00  0.00000000000E+00 -0.14934542539E+03  0.33041763291E+04  0.33007994725E+04 0.  0.
        2    1    3    3  502    0 -0.15820577658E+04  0.15504697255E+03 -0.51883031549E+03  0.16721636386E+04  0.25500000920E-02 0. -1.
       -2    1    3    3    0  502  0.15820577658E+04 -0.15504697255E+03  0.36948489009E+03  0.16320126905E+04  0.25500000920E-02 0.  1.
</event>
<event>
 5   0  0.2291682E-08  0.3301256E+04  0.7818609E-02  0.8162576E-01
        1   -1    0    0  501    0  0.00000000000E+00  0.00000000000E+00  0.16543741492E+04  0.16543741492E+04  0.50400001928E-02 0. -1.
       -1   -1    0    0    0  501  0.00000000000E+00  0.00000000000E+00 -0.16468905787E+04  0.16468905787E+04  0.50400001928E-02 0.  1.
    10030    2    1    2    0    0  0.00000000000E+00  0.00000000000E+00  0.74835705680E+01  0.33012647279E+04  0.33012562457E+04 0.  0.
        2    1    3    3  502    0 -0.14037649144E+03  0.78009840413E+03 -0.14441273017E+04  0.16473502187E+04  0.25500000920E-02 0.  1.
       -2    1    3    3    0  502  0.14037649144E+03 -0.78009840413E+03  0.14516108722E+04  0.16539145093E+04  0.25500000920E-02 0. -1.
</event>
<event>
 5   0  0.6821287E-08  0.3304934E+04  0.7818609E-02  0.8161641E-01
       -2   -1    0    0    0  501  0.00000000000E+00  0.00000000000E+00  0.14901151896E+04  0.14901151896E+04  0.25500000920E-02 0.  1.
        2   -1    0    0  501    0  0.00000000000E+00  0.00000000000E+00 -0.18325075665E+04  0.18325075665E+04  0.25500000920E-02 0. -1.
    10030    2    1    2    0    0  0.00000000000E+00  0.00000000000E+00 -0.34239237689E+03  0.33226227560E+04  0.33049341051E+04 0.  0.
        5    1    3    3  502    0  0.26636093708E+03 -0.16287726035E+04 -0.88433490366E+02  0.16527827791E+04  0.46999998093E+01 0.  1.
       -5    1    3    3    0  502 -0.26636093708E+03  0.16287726035E+04 -0.25395888652E+03  0.16698399769E+04  0.46999998093E+01 0. -1.
</event>
<event>
 5   0  0.7084130E-08  0.3302411E+04  0.7818609E-02  0.8162282E-01
       -2   -1    0    0    0  501  0.00000000000E+00  0.00000000000E+00  0.14110037505E+04  0.14110037505E+04  0.25500000920E-02 0.  1.
        2   -1    0    0  501    0  0.00000000000E+00  0.00000000000E+00 -0.19322982454E+04  0.19322982454E+04  0.25500000920E-02 0. -1.
    10030    2    1    2    0    0  0.00000000000E+00  0.00000000000E+00 -0.52129449492E+03  0.33433019960E+04  0.33024112835E+04 0.  0.
        3    1    3    3  502    0 -0.76695505574E+03  0.14089291318E+04 -0.65687386336E+03  0.17334314635E+04  0.10100000352E+00 0.  1.
       -3    1    3    3    0  502  0.76695505574E+03 -0.14089291318E+04  0.13557936844E+03  0.16098705325E+04  0.10100000352E+00 0. -1.
</event>
<event>
 5   0  0.2291682E-08  0.3299722E+04  0.7818609E-02  0.8162966E-01
        1   -1    0    0  501    0  0.00000000000E+00  0.00000000000E+00  0.83578748323E+03  0.83578748324E+03  0.50400001928E-02 0.  1.
       -1   -1    0    0    0  501  0.00000000000E+00  0.00000000000E+00 -0.32568586770E+04  0.32568586770E+04  0.50400001928E-02 0. -1.
    10030    2    1    2    0    0  0.00000000000E+00  0.00000000000E+00 -0.24210711938E+04  0.40926461602E+04  0.32997222410E+04 0.  0.
        2    1    3    3  502    0 -0.39851225748E+03  0.76671154150E+03  0.53268553637E+03  0.10150923544E+04  0.25500000920E-02 0.  1.
       -2    1    3    3    0  502  0.39851225748E+03 -0.76671154150E+03 -0.29537567301E+04  0.30775538059E+04  0.25500000920E-02 0. -1.
</event>
<event>
 5   0  0.6706080E-08  0.3298676E+04  0.7818609E-02  0.8163232E-01
       -2   -1    0    0    0  501  0.00000000000E+00  0.00000000000E+00  0.16813064467E+04  0.16813064467E+04  0.25500000920E-02 0. -1.
        2   -1    0    0  501    0  0.00000000000E+00  0.00000000000E+00 -0.16179778231E+04  0.16179778231E+04  0.25500000920E-02 0.  1.
    10030    2    1    2    0    0  0.00000000000E+00  0.00000000000E+00  0.63328623520E+02  0.32992842698E+04  0.32986764283E+04 0.  0.
        4    1    3    3  502    0 -0.42724834476E+03 -0.97757848239E+03  0.12897172578E+04  0.16737900273E+04  0.12699999809E+01 0. -1.
       -4    1    3    3    0  502  0.42724834476E+03  0.97757848239E+03 -0.12263886343E+04  0.16254942426E+04  0.12699999809E+01 0.  1.
</event>
<event>
 5   0  0.2309822E-08  0.3298948E+04  0.7818609E-02  0.8163163E-01
        1   -1    0    0  501    0  0.00000000000E+00  0.00000000000E+00  0.18280407006E+04  0.18280407006E+04  0.50400001928E-02 0. -1.
       -1   -1    0    0    0  501  0.00000000000E+00  0.00000000000E+00 -0.14883500682E+04  0.14883500682E+04  0.50400001928E-02 0.  1.
    10030    2    1    2    0    0  0.00000000000E+00  0.00000000000E+00  0.33969063241E+03  0.33163907688E+04  0.32989480150E+04 0.  0.
        4    1    3    3  502    0  0.11583274395E+04 -0.11183712741E+04  0.52990962016E+03  0.16950759813E+04  0.12699999809E+01 0. -1.
       -4    1    3    3    0  502 -0.11583274395E+04  0.11183712741E+04 -0.19021898775E+03  0.16213147875E+04  0.12699999809E+01 0.  1.
</event>
<event>
 5   0  0.2279938E-08  0.3299080E+04  0.7818609E-02  0.8163130E-01
       -1   -1    0    0    0  501  0.00000000000E+00  0.00000000000E+00  0.15801385045E+04  0.15801385045E+04  0.50400001928E-02 0. -1.
        1   -1    0    0  501    0  0.00000000000E+00  0.00000000000E+00 -0.17219896788E+04  0.17219896788E+04  0.50400001928E-02 0.  1.
    10030    2    1    2    0    0  0.00000000000E+00  0.00000000000E+00 -0.14185117423E+03  0.33021281833E+04  0.32990799904E+04 0.  0.
        3    1    3    3  502    0  0.16963036937E+03 -0.10340209758E+04  0.12042249512E+04  0.15962868113E+04  0.10100000352E+00 0. -1.
       -3    1    3    3    0  502 -0.16963036937E+03  0.10340209758E+04 -0.13460761254E+04  0.17058413720E+04  0.10100000352E+00 0.  1.
</event>
<event>
 5   0  0.6603516E-08  0.3299261E+04  0.7818609E-02  0.8163083E-01
        2   -1    0    0  501    0  0.00000000000E+00  0.00000000000E+00  0.23500678487E+04  0.23500678487E+04  0.25500000920E-02 0.  1.
       -2   -1    0    0    0  501  0.00000000000E+00  0.00000000000E+00 -0.11579586393E+04  0.11579586393E+04  0.25500000920E-02 0. -1.
    10030    2    1    2    0    0  0.00000000000E+00  0.00000000000E+00  0.11921092093E+04  0.35080264880E+04  0.32992613527E+04 0.  0.
        1    1    3    3  502    0  0.16438368065E+04  0.12008785266E+02  0.74237669108E+03  0.18037369012E+04  0.50400001928E-02 0.  1.
       -1    1    3    3    0  502 -0.16438368065E+04 -0.12008785266E+02  0.44973251826E+03  0.17042895867E+04  0.50400001928E-02 0. -1.
</event>
<event>
 5   0  0.2291682E-08  0.3300118E+04  0.7818609E-02  0.8162865E-01
        1   -1    0    0  501    0  0.00000000000E+00  0.00000000000E+00  0.20877393234E+04  0.20877393234E+04  0.50400001928E-02 0. -1.
       -1   -1    0    0    0  501  0.00000000000E+00  0.00000000000E+00 -0.13041350835E+04  0.13041350835E+04  0.50400001928E-02 0.  1.
    10030    2    1    2    0    0  0.00000000000E+00  0.00000000000E+00  0.78360423986E+03  0.33918744070E+04  0.33001176324E+04 0.  0.
        2    1    3    3  502    0 -0.89624522715E+03 -0.65242144393E+03 -0.86438509097E+03  0.14057278660E+04  0.25500000920E-02 0.  1.
       -2    1    3    3    0  502  0.89624522715E+03  0.65242144393E+03  0.16479893308E+04  0.19861465410E+04  0.25500000920E-02 0. -1.
</event>
<event>
 5   0  0.6603516E-08  0.3281229E+04  0.7818609E-02  0.8167688E-01
        2   -1    0    0  501    0  0.00000000000E+00  0.00000000000E+00  0.29671664960E+04  0.29671664960E+04  0.25500000920E-02 0.  1.
       -2   -1    0    0    0  501  0.00000000000E+00  0.00000000000E+00 -0.90713350425E+03  0.90713350426E+03  0.25500000920E-02 0. -1.
    10030    2    1    2    0    0  0.00000000000E+00  0.00000000000E+00  0.20600329918E+04  0.38743000003E+04  0.32812291241E+04 0.  0.
        1    1    3    3  502    0  0.72179551229E+02  0.18914105433E+03  0.29523617964E+04  0.29592945786E+04  0.50400001928E-02 0.  1.
       -1    1    3    3    0  502 -0.72179551229E+02 -0.18914105433E+03 -0.89232880465E+03  0.91500542167E+03  0.50400001928E-02 0. -1.
</event>
<event>
 5   0  0.7084130E-08  0.3299428E+04  0.7818609E-02  0.8163041E-01
        2   -1    0    0  501    0  0.00000000000E+00  0.00000000000E+00  0.20780492269E+04  0.20780492269E+04  0.25500000920E-02 0.  1.
       -2   -1    0    0    0  501  0.00000000000E+00  0.00000000000E+00 -0.13096692019E+04  0.13096692019E+04  0.25500000920E-02 0. -1.
    10030    2    1    2    0    0  0.00000000000E+00  0.00000000000E+00  0.76838002501E+03  0.33877184288E+04  0.32994284793E+04 0.  0.
        3    1    3    3  502    0 -0.97807471548E+03  0.26604305905E+03  0.17206139998E+04  0.19969781183E+04  0.10100000352E+00 0.  1.
       -3    1    3    3    0  502  0.97807471548E+03 -0.26604305905E+03 -0.95223397480E+03  0.13907403105E+04  0.10100000352E+00 0. -1.
</event>
<event>
 5   0  0.2244093E-08  0.3301044E+04  0.7818609E-02  0.8162630E-01
       -1   -1    0    0    0  501  0.00000000000E+00  0.00000000000E+00  0.21925614666E+04  0.21925614666E+04  0.50400001928E-02 0. -1.
        1   -1    0    0  501    0  0.00000000000E+00  0.00000000000E+00 -0.12424841221E+04  0.12424841221E+04  0.50400001928E-02 0.  1.
    10030    2    1    2    0    0  0.00000000000E+00  0.00000000000E+00  0.95007734449E+03  0.34350455886E+04  0.33010439614E+04 0.  0.
        1    1    3    3  502    0  0.18374065816E+02  0.13616982018E+04  0.14454519858E+04  0.19859232217E+04  0.50400001928E-02 0. -1.
       -1    1    3    3    0  502 -0.18374065816E+02 -0.13616982018E+04 -0.49537464129E+03  0.14491223670E+04  0.50400001928E-02 0.  1.
</event>
<event>
 5   0  0.2244093E-08  0.3298589E+04  0.7818609E-02  0.8163255E-01
        1   -1    0    0  501    0  0.00000000000E+00  0.00000000000E+00  0.14601393399E+04  0.14601393399E+04  0.50400001928E-02 0.  1.
       -1   -1    0    0    0  501  0.00000000000E+00  0.00000000000E+00 -0.18629536889E+04  0.18629536889E+04  0.50400001928E-02 0. -1.
    10030    2    1    2    0    0  0.00000000000E+00  0.00000000000E+00 -0.40281434900E+03  0.33230930288E+04  0.32985887707E+04 0.  0.
        1    1    3    3  502    0 -0.11797944326E+04 -0.10253853146E+04  0.32865929191E+03  0.15972936100E+04  0.50400001928E-02 0. -1.
       -1    1    3    3    0  502  0.11797944326E+04  0.10253853146E+04 -0.73147364091E+03  0.17257994188E+04  0.50400001928E-02 0.  1.
</event>
<event>
 5   0  0.6603516E-08  0.3299756E+04  0.7818609E-02  0.8162958E-01
        2   -1    0    0  501    0  0.00000000000E+00  0.00000000000E+00  0.25093888742E+04  0.25093888742E+04  0.25500000920E-02 0.  1.
       -2   -1    0    0    0  501  0.00000000000E+00  0.00000000000E+00 -0.10847647568E+04  0.10847647568E+04  0.25500000920E-02 0. -1.
    10030    2    1    2    0    0  0.00000000000E+00  0.00000000000E+00  0.14246241174E+04  0.35941536310E+04  0.32997555133E+04 0.  0.
        1    1    3    3  502    0 -0.14459485606E+04 -0.51799838347E+03  0.13685667206E+04  0.20571982000E+04  0.50400001928E-02 0.  1.
       -1    1    3    3    0  502  0.14459485606E+04  0.51799838347E+03  0.56057396770E+02  0.15369554310E+04  0.50400001928E-02 0. -1.
</event>
<event>
 5   0  0.2291682E-08  0.3301219E+04  0.7818609E-02  0.8162585E-01
        1   -1    0    0  501    0  0.00000000000E+00  0.00000000000E+00  0.18084762370E+04  0.18084762370E+04  0.50400001928E-02 0.  1.
       -1   -1    0    0    0  501  0.00000000000E+00  0.00000000000E+00 -0.15065230204E+04  0.15065230204E+04  0.50400001928E-02 0. -1.
    10030    2    1    2    0    0  0.00000000000E+00  0.00000000000E+00  0.30195321666E+03  0.33149992574E+04  0.33012186131E+04 0.  0.
        2    1    3    3  502    0 -0.83584429033E+03 -0.42576609442E+03 -0.12128529295E+04  0.15332725372E+04  0.25500000920E-02 0. -1.
       -2    1    3    3    0  502  0.83584429033E+03  0.42576609442E+03  0.15148061462E+04  0.17817267201E+04  0.25500000920E-02 0.  1.
</event>
<event>
 5   0  0.2244093E-08  0.3300464E+04  0.7818609E-02  0.8162777E-01
       -1   -1    0    0    0  501  0.00000000000E+00  0.00000000000E+00  0.12919925277E+04  0.12919925277E+04  0.50400001928E-02 0. -1.
        1   -1    0    0  501    0  0.00000000000E+00  0.00000000000E+00 -0.21078030382E+04  0.21078030382E+04  0.50400001928E-02 0.  1.
    10030    2    1    2    0    0  0.00000000000E+00  0.00000000000E+00 -0.81581051050E+03  0.33997955659E+04  0.33004640735E+04 0.  0.
        1    1    3    3  502    0  0.13095179895E+04  0.87315746896E+03  0.10303123878E+03  0.15772941281E+04  0.50400001928E-02 0. -1.
       -1    1    3    3    0  502 -0.13095179895E+04 -0.87315746896E+03 -0.91884174928E+03  0.18225014378E+04  0.50400001928E-02 0.  1.
</event>
<event>
 5   0  0.7084130E-08  0.3300260E+04  0.7818609E-02  0.8162829E-01
       -2   -1    0    0    0  501  0.00000000000E+00  0.00000000000E+00  0.13490206644E+04  0.13490206644E+04  0.25500000920E-02 0.  1.
        2   -1    0    0  501    0  0.00000000000E+00  0.00000000000E+00 -0.20184492273E+04  0.20184492273E+04  0.25500000920E-02 0. -1.
    10030    2    1    2    0    0  0.00000000000E+00  0.00000000000E+00 -0.66942856290E+03  0.33674698917E+04  0.33002604246E+04 0.  0.
        3    1    3    3  502    0  0.12019762678E+04  0.10984519044E+04 -0.61709607764E+02  0.16294635990E+04  0.10100000352E+00 0.  1.
       -3    1    3    3    0  502 -0.12019762678E+04 -0.10984519044E+04 -0.60771895514E+03  0.17380062926E+04  0.10100000352E+00 0. -1.
</event>
<event>
 5   0  0.2309822E-08  0.3299424E+04  0.7818609E-02  0.8163042E-01
        1   -1    0    0  501    0  0.00000000000E+00  0.00000000000E+00  0.23295248835E+04  0.23295248835E+04  0.50400001928E-02 0.  1.
       -1   -1    0    0    0  501  0.00000000000E+00  0.00000000000E+00 -0.11682850286E+04  0.11682850286E+04  0.50400001928E-02 0. -1.
    10030    2    1    2    0    0  0.00000000000E+00  0.00000000000E+00  0.11612398549E+04  0.34978099121E+04  0.32994236134E+04 0.  0.
        4    1    3    3  502    0  0.13425623004E+03 -0.52167463044E+03  0.22336638452E+04  0.22976999241E+04  0.12699999809E+01 0.  1.
       -4    1    3    3    0  502 -0.13425623004E+03  0.52167463044E+03 -0.10724239903E+04  0.12001099879E+04  0.12699999809E+01 0. -1.
</event>
<event>
 5   0  0.2244093E-08  0.3299447E+04  0.7818609E-02  0.8163036E-01
        1   -1    0    0  501    0  0.00000000000E+00  0.00000000000E+00  0.19698621247E+04  0.19698621247E+04  0.50400001928E-02 0.  1.
       -1   -1    0    0    0  501  0.00000000000E+00  0.00000000000E+00 -0.13816129873E+04  0.13816129873E+04  0.50400001928E-02 0. -1.
    10030    2    1    2    0    0  0.00000000000E+00  0.00000000000E+00  0.58824913745E+03  0.33514751120E+04  0.32994466776E+04 0.  0.
        1    1    3    3  502    0  0.15317687917E+03  0.47751865520E+03 -0.13023137416E+04  0.13955315489E+04  0.50400001928E-02 0. -1.
       -1    1    3    3    0  502 -0.15317687917E+03 -0.47751865520E+03  0.18905628790E+04  0.19559435631E+04  0.50400001928E-02 0.  1.
</event>
<event>
 5   0  0.2244093E-08  0.3301046E+04  0.7818609E-02  0.8162629E-01
       -1   -1    0    0    0  501  0.00000000000E+00  0.00000000000E+00  0.17159713626E+04  0.17159713626E+04  0.50400001928E-02 0. -1.
        1   -1    0    0  501    0  0.00000000000E+00  0.00000000000E+00 -0.15875705666E+04  0.15875705666E+04  0.50400001928E-02 0.  1.
    10030    2    1    2    0    0  0.00000000000E+00  0.00000000000E+00  0.12840079606E+03  0.33035419292E+04  0.33010456697E+04 0.  0.
        1    1    3    3  502    0  0.12275119835E+04 -0.46099044795E+03  0.10674193165E+04  0.16907636914E+04  0.50400001928E-02 0. -1.
       -1    1    3    3    0  502 -0.12275119835E+04  0.46099044795E+03 -0.93901852042E+03  0.16127782379E+04  0.50400001928E-02 0.  1.
</event>
<event>
 5   0  0.6765252E-08  0.3305563E+04  0.7818609E-02  0.8161481E-01
        2   -1    0    0  501    0  0.00000000000E+00  0.00000000000E+00  0.27278558548E+04  0.27278558548E+04  0.25500000920E-02 0. -1.
       -2   -1    0    0    0  501  0.00000000000E+00  0.00000000000E+00 -0.10014045872E+04  0.10014045872E+04  0.25500000920E-02 0.  1.
    10030    2    1    2    0    0  0.00000000000E+00  0.00000000000E+00  0.17264512675E+04  0.37292604420E+04  0.33055634112E+04 0.  0.
        2    1    3    3  502    0 -0.19186868979E+03 -0.21030648830E+03  0.26999881217E+04  0.27149545614E+04  0.25500000920E-02 0. -1.
       -2    1    3    3    0  502  0.19186868979E+03  0.21030648830E+03 -0.97353685414E+03  0.10143058807E+04  0.25500000920E-02 0.  1.
</event>
<event>
 5   0  0.6706080E-08  0.3300898E+04  0.7818609E-02  0.8162667E-01
       -2   -1    0    0    0  501  0.00000000000E+00  0.00000000000E+00  0.13243615086E+04  0.13243615086E+04  0.25500000920E-02 0.  1.
        2   -1    0    0  501    0  0.00000000000E+00  0.00000000000E+00 -0.20568269499E+04  0.20568269499E+04  0.25500000920E-02 0. -1.
    10030    2    1    2    0    0  0.00000000000E+00  0.00000000000E+00 -0.73246544128E+03  0.33811884585E+04  0.33008983276E+04 0.  0.
        4    1    3    3  502    0 -0.73232234870E+03  0.31675230964E+03 -0.18461422194E+04  0.20111864048E+04  0.12699999809E+01 0. -1.
       -4    1    3    3    0  502  0.73232234870E+03 -0.31675230964E+03  0.11136767781E+04  0.13700020536E+04  0.12699999809E+01 0.  1.
</event>
<event>
 5   0  0.7084130E-08  0.3301471E+04  0.7818609E-02  0.8162521E-01
        2   -1    0    0  501    0  0.00000000000E+00  0.00000000000E+00  0.13584104547E+04  0.13584104547E+04  0.25500000920E-02 0. -1.
       -2   -1    0    0    0  501  0.00000000000E+00  0.00000000000E+00 -0.20059672582E+04  0.20059672582E+04  0.25500000920E-02 0.  1.
    10030    2    1    2    0    0  0.00000000000E+00  0.00000000000E+00 -0.64755680344E+03  0.33643777129E+04  0.33014705180E+04 0.  0.
        3    1    3    3  502    0 -0.13971710944E+04 -0.14141886906E+03 -0.12079749546E+04  0.18523741157E+04  0.10100000352E+00 0.  1.
       -3    1    3    3    0  502  0.13971710944E+04  0.14141886906E+03  0.56041815119E+03  0.15120035972E+04  0.10100000352E+00 0. -1.
</event>
<event>
 5   0  0.2279938E-08  0.3300534E+04  0.7818609E-02  0.8162760E-01
        1   -1    0    0  501    0  0.00000000000E+00  0.00000000000E+00  0.16210172095E+04  0.16210172095E+04  0.50400001928E-02 0.  1.
       -1   -1    0    0    0  501  0.00000000000E+00  0.00000000000E+00 -0.16800441027E+04  0.16800441027E+04  0.50400001928E-02 0. -1.
    10030    2    1    2    0    0  0.00000000000E+00  0.00000000000E+00 -0.59026893204E+02  0.33010613123E+04  0.33005335346E+04 0.  0.
        3    1    3    3  502    0  0.82919634464E+03  0.72088778209E+03 -0.12610245265E+04  0.16725515355E+04  0.10100000352E+00 0. -1.
       -3    1    3    3    0  502 -0.82919634464E+03 -0.72088778209E+03  0.12019976333E+04  0.16285097768E+04  0.10100000352E+00 0.  1.
</event>
<event>
 5   0  0.7084130E-08  0.3300165E+04  0.7818609E-02  0.8162853E-01
       -2   -1    0    0    0  501  0.00000000000E+00  0.00000000000E+00  0.14250279617E+04  0.14250279617E+04  0.25500000920E-02 0. -1.
        2   -1    0    0  501    0  0.00000000000E+00  0.00000000000E+00 -0.19106798237E+04  0.19106798237E+04  0.25500000920E-02 0.  1.
    10030    2    1    2    0    0  0.00000000000E+00  0.00000000000E+00 -0.48565186201E+03  0.33357077855E+04  0.33001649503E+04 0.  0.
        3    1    3    3  502    0  0.52438260806E+03 -0.15633222710E+04 -0.18036621605E+03  0.16587602674E+04  0.10100000352E+00 0. -1.
       -3    1    3    3    0  502 -0.52438260806E+03  0.15633222710E+04 -0.30528564596E+03  0.16769475181E+04  0.10100000352E+00 0.  1.
</event>
<event>
 5   0  0.6765252E-08  0.3301384E+04  0.7818609E-02  0.8162543E-01
       -2   -1    0    0    0  501  0.00000000000E+00  0.00000000000E+00  0.18373319185E+04  0.18373319185E+04  0.25500000920E-02 0.  1.
        2   -1    0    0  501    0  0.00000000000E+00  0.00000000000E+00 -0.14830109280E+04  0.14830109280E+04  0.25500000920E-02 0. -1.
    10030    2    1    2    0    0  0.00000000000E+00  0.00000000000E+00  0.35432099055E+03  0.33203428465E+04  0.33013835364E+04 0.  0.
        2    1    3    3  502    0  0.15591150670E+04 -0.70405178061E+02  0.71782246895E+03  0.17178666358E+04  0.25500000920E-02 0.  1.
       -2    1    3    3    0  502 -0.15591150670E+04  0.70405178061E+02 -0.36350147840E+03  0.16024762108E+04  0.25500000920E-02 0. -1.
</event>
<event>
 5   0  0.2279938E-08  0.3277855E+04  0.7818609E-02  0.8168553E-01
       -1   -1    0    0    0  501  0.00000000000E+00  0.00000000000E+00  0.12257708070E+04  0.12257708070E+04  0.50400001928E-02 0. -1.
        1   -1    0    0  501    0  0.00000000000E+00  0.00000000000E+00 -0.21913416416E+04  0.21913416416E+04  0.50400001928E-02 0.  1.
    10030    2    1    2    0    0  0.00000000000E+00  0.00000000000E+00 -0.96557083455E+03  0.34171124486E+04  0.32778545499E+04 0.  0.
        3    1    3    3  502    0  0.49769055031E+03  0.15573282125E+04 -0.36339678860E+03  0.16748206714E+04  0.10100000352E+00 0.  1.
       -3    1    3    3    0  502 -0.49769055031E+03 -0.15573282125E+04 -0.60217404595E+03  0.17422917772E+04  0.10100000352E+00 0. -1.
</event>
<event>
 5   0  0.6821287E-08  0.3300249E+04  0.7818609E-02  0.8162832E-01
       -2   -1    0    0    0  501  0.00000000000E+00  0.00000000000E+00  0.10221961675E+04  0.10221961675E+04  0.25500000920E-02 0. -1.
        2   -1    0    0  501    0  0.00000000000E+00  0.00000000000E+00 -0.26637853156E+04  0.26637853156E+04  0.25500000920E-02 0.  1.
    10030    2    1    2    0    0  0.00000000000E+00  0.00000000000E+00 -0.16415891481E+04  0.36859814832E+04  0.33002491668E+04 0.  0.
        5    1    3    3  502    0  0.15215707403E+03  0.15236425208E+04 -0.15076990001E+04  0.21489105778E+04  0.46999998093E+01 0.  1.
       -5    1    3    3    0  502 -0.15215707403E+03 -0.15236425208E+04 -0.13389014801E+03  0.15370709054E+04  0.46999998093E+01 0. -1.
</event>
<event>
 5   0  0.2200750E-08  0.3305707E+04  0.7818609E-02  0.8161445E-01
        3   -1    0    0  501    0  0.00000000000E+00  0.00000000000E+00  0.16844827465E+04  0.16844827496E+04  0.10100000352E+00 0.  1.
       -3   -1    0    0    0  501  0.00000000000E+00  0.00000000000E+00 -0.16218182827E+04  0.16218182859E+04  0.10100000352E+00 0. -1.
    10030    2    1    2    0    0  0.00000000000E+00  0.00000000000E+00  0.62664463807E+02  0.33063010355E+04  0.33057071410E+04 0.  0.
        4    1    3    3  502    0  0.13544952266E+04 -0.65698819077E+03 -0.65116306801E+03  0.16402151554E+04  0.12699999809E+01 0. -1.
       -4    1    3    3    0  502 -0.13544952266E+04  0.65698819077E+03  0.71382753182E+03  0.16660858801E+04  0.12699999809E+01 0.  1.
</event>
<event>
 5   0  0.6821287E-08  0.3298971E+04  0.7818609E-02  0.8163157E-01
        2   -1    0    0  501    0  0.00000000000E+00  0.00000000000E+00  0.27075947530E+04  0.27075947530E+04  0.25500000920E-02 0. -1.
       -2   -1    0    0    0  501  0.00000000000E+00  0.00000000000E+00 -0.10048781574E+04  0.10048781574E+04  0.25500000920E-02 0.  1.
    10030    2    1    2    0    0  0.00000000000E+00  0.00000000000E+00  0.17027165956E+04  0.37124729104E+04  0.32989712496E+04 0.  0.
        5    1    3    3  502    0 -0.65341480739E+03 -0.14986354485E+04  0.10977071262E+04  0.19692237412E+04  0.46999998093E+01 0.  1.
       -5    1    3    3    0  502  0.65341480739E+03  0.14986354485E+04  0.60500946938E+03  0.17432491692E+04  0.46999998093E+01 0. -1.
</event>
<event>
 5   0  0.6603516E-08  0.3301269E+04  0.7818609E-02  0.8162572E-01
        2   -1    0    0  501    0  0.00000000000E+00  0.00000000000E+00  0.19039458707E+04  0.19039458707E+04  0.25500000920E-02 0. -1.
       -2   -1    0    0    0  501  0.00000000000E+00  0.00000000000E+00 -0.14310253314E+04  0.14310253314E+04  0.25500000920E-02 0.  1.
    10030    2    1    2    0    0  0.00000000000E+00  0.00000000000E+00  0.47292053933E+03  0.33349712021E+04  0.33012693138E+04 0.  0.
        1    1    3    3  502    0 -0.33771535653E+03 -0.10493804202E+04 -0.10046353039E+04  0.14914902019E+04  0.50400001928E-02 0.  1.
       -1    1    3    3    0  502  0.33771535653E+03  0.10493804202E+04  0.14775558433E+04  0.18434810002E+04  0.50400001928E-02 0. -1.
</event>
<event>
 5   0  0.6706080E-08  0.3302827E+04  0.7818609E-02  0.8162176E-01
       -2   -1    0    0    0  501  0.00000000000E+00  0.00000000000E+00  0.11868862380E+04  0.11868862380E+04  0.25500000920E-02 0.  1.
        2   -1    0    0  501    0  0.00000000000E+00  0.00000000000E+00 -0.22977492389E+04  0.22977492389E+04  0.25500000920E-02 0. -1.
    10030    2    1    2    0    0  0.00000000000E+00  0.00000000000E+00 -0.11108630010E+04  0.34846354769E+04  0.33028272435E+04 0.  0.
        4    1    3    3  502    0  0.11108017851E+02  0.64911040577E+03 -0.21574689802E+04  0.22530294540E+04  0.12699999809E+01 0. -1.
       -4    1    3    3    0  502 -0.11108017851E+02 -0.64911040577E+03  0.10466059793E+04  0.12316060229E+04  0.12699999809E+01 0.  1.
</event>
<event>
 5   0  0.2279938E-08  0.3297674E+04  0.7818609E-02  0.8163487E-01
       -1   -1    0    0    0  501  0.00000000000E+00  0.00000000000E+00  0.19139973974E+04  0.19139973974E+04  0.50400001928E-02 0. -1.
        1   -1    0    0  501    0  0.00000000000E+00  0.00000000000E+00 -0.14204114429E+04  0.14204114429E+04  0.50400001928E-02 0.  1.
    10030    2    1    2    0    0  0.00000000000E+00  0.00000000000E+00  0.49358595456E+03  0.33344088403E+04  0.32976742137E+04 0.  0.
        3    1    3    3  502    0 -0.13553577831E+04 -0.33354463007E+03  0.11343045901E+04  0.17985810112E+04  0.10100000352E+00 0. -1.
       -3    1    3    3    0  502  0.13553577831E+04  0.33354463007E+03 -0.64071863552E+03  0.15358278291E+04  0.10100000352E+00 0.  1.
</event>
<event>
 5   0  0.2309822E-08  0.3299514E+04  0.7818609E-02  0.8163019E-01
       -1   -1    0    0    0  501  0.00000000000E+00  0.00000000000E+00  0.11268867675E+04  0.11268867675E+04  0.50400001928E-02 0.  1.
        1   -1    0    0  501    0  0.00000000000E+00  0.00000000000E+00 -0.24152367664E+04  0.24152367665E+04  0.50400001928E-02 0. -1.
    10030    2    1    2    0    0  0.00000000000E+00  0.00000000000E+00 -0.12883499990E+04  0.35421235339E+04  0.32995141172E+04 0.  0.
        4    1    3    3  502    0 -0.11481370085E+04  0.57112694272E+03  0.47006940836E+03  0.13657860142E+04  0.12699999809E+01 0.  1.
       -4    1    3    3    0  502  0.11481370085E+04 -0.57112694272E+03 -0.17584194073E+04  0.21763375198E+04  0.12699999809E+01 0. -1.
</event>
<event>
 5   0  0.6603516E-08  0.3299315E+04  0.7818609E-02  0.8163070E-01
       -2   -1    0    0    0  501  0.00000000000E+00  0.00000000000E+00  0.27990534363E+04  0.27990534363E+04  0.25500000920E-02 0. -1.
        2   -1    0    0  501    0  0.00000000000E+00  0.00000000000E+00 -0.97224655348E+03  0.97224655348E+03  0.25500000920E-02 0.  1.
    10030    2    1    2    0    0  0.00000000000E+00  0.00000000000E+00  0.18268068828E+04  0.37712999898E+04  0.32993151147E+04 0.  0.
        1    1    3    3  502    0  0.30983362194E+03 -0.62055255640E+03  0.26242819911E+04  0.27143946502E+04  0.50400001928E-02 0. -1.
       -1    1    3    3    0  502 -0.30983362194E+03  0.62055255640E+03 -0.79747510823E+03  0.10569053396E+04  0.50400001928E-02 0.  1.
</event>
<event>
 5   0  0.2244093E-08  0.3299178E+04  0.7818609E-02  0.8163105E-01
        1   -1    0    0  501    0  0.00000000000E+00  0.00000000000E+00  0.13003085430E+04  0.13003085430E+04  0.50400001928E-02 0. -1.
       -1   -1    0    0    0  501  0.00000000000E+00  0.00000000000E+00 -0.20926909837E+04  0.20926909837E+04  0.50400001928E-02 0.  1.
    10030    2    1    2    0    0  0.00000000000E+00  0.00000000000E+00 -0.79238244061E+03  0.33929995267E+04  0.32991780576E+04 0.  0.
        1    1    3    3  502    0  0.11947232336E+04 -0.11223013649E+04 -0.20594410434E+03  0.16520704987E+04  0.50400001928E-02 0.  1.
       -1    1    3    3    0  502 -0.11947232336E+04  0.11223013649E+04 -0.58643833628E+03  0.17409290280E+04  0.50400001928E-02 0. -1.
</event>
<event>
 5   0  0.6706080E-08  0.3299682E+04  0.7818609E-02  0.8162976E-01
        2   -1    0    0  501    0  0.00000000000E+00  0.00000000000E+00  0.18945846389E+04  0.18945846389E+04  0.25500000920E-02 0.  1.
       -2   -1    0    0    0  501  0.00000000000E+00  0.00000000000E+00 -0.14367134124E+04  0.14367134124E+04  0.25500000920E-02 0. -1.
    10030    2    1    2    0    0  0.00000000000E+00  0.00000000000E+00  0.45787122651E+03  0.33312980513E+04  0.32996819008E+04 0.  0.
        4    1    3    3  502    0  0.15594371022E+02 -0.77584702660E+03  0.16988363769E+04  0.18676799623E+04  0.12699999809E+01 0.  1.
       -4    1    3    3    0  502 -0.15594371022E+02  0.77584702660E+03 -0.12409651504E+04  0.14636180890E+04  0.12699999809E+01 0. -1.
</event>
<event>
 5   0  0.6821287E-08  0.3296322E+04  0.7818609E-02  0.8163832E-01
        2   -1    0    0  501    0  0.00000000000E+00  0.00000000000E+00  0.16340890949E+04  0.16340890949E+04  0.25500000920E-02 0. -1.
       -2   -1    0    0    0  501  0.00000000000E+00  0.00000000000E+00 -0.16623539456E+04  0.16623539456E+04  0.25500000920E-02 0.  1.
    10030    2    1    2    0    0  0.00000000000E+00  0.00000000000E+00 -0.28264850766E+02  0.32964430405E+04  0.32963218619E+04 0.  0.
        5    1    3    3  502    0  0.14883565094E+04 -0.59250898282E+03 -0.40162617967E+03  0.16515440267E+04  0.46999998093E+01 0. -1.
       -5    1    3    3    0  502 -0.14883565094E+04  0.59250898282E+03  0.37336132890E+03  0.16448990138E+04  0.46999998093E+01 0.  1.
</event>
<event>
 5   0  0.6821287E-08  0.3299734E+04  0.7818609E-02  0.8162963E-01
        2   -1    0    0  501    0  0.00000000000E+00  0.00000000000E+00  0.24759720380E+04  0.24759720380E+04  0.25500000920E-02 0. -1.
       -2   -1    0    0    0  501  0.00000000000E+00  0.00000000000E+00 -0.10993908859E+04  0.10993908859E+04  0.25500000920E-02 0.  1.
    10030    2    1    2    0    0  0.00000000000E+00  0.00000000000E+00  0.13765811521E+04  0.35753629240E+04  0.32997339847E+04 0.  0.
        5    1    3    3  502    0 -0.37743318321E+03  0.47106730018E+03  0.23520231557E+04  0.24282494155E+04  0.46999998093E+01 0. -1.
       -5    1    3    3    0  502  0.37743318321E+03 -0.47106730018E+03 -0.97544200356E+03  0.11471135085E+04  0.46999998093E+01 0.  1.
</event>
<event>
 5   0  0.2309822E-08  0.3300027E+04  0.7818609E-02  0.8162888E-01
        1   -1    0    0  501    0  0.00000000000E+00  0.00000000000E+00  0.26413407910E+04  0.26413407910E+04  0.50400001928E-02 0. -1.
       -1   -1    0    0    0  501  0.00000000000E+00  0.00000000000E+00 -0.10307434874E+04  0.10307434874E+04  0.50400001928E-02 0.  1.
    10030    2    1    2    0    0  0.00000000000E+00  0.00000000000E+00  0.16105973036E+04  0.36720842784E+04  0.33000271625E+04 0.  0.
        4    1    3    3  502    0 -0.44201379317E+03 -0.11398756605E+04  0.20383122598E+04  0.23768490057E+04  0.12699999809E+01 0. -1.
       -4    1    3    3    0  502  0.44201379317E+03  0.11398756605E+04 -0.42771495621E+03  0.12952352726E+04  0.12699999809E+01 0.  1.
</event>
<event>
 5   0  0.2309822E-08  0.3298989E+04  0.7818609E-02  0.8163153E-01
        1   -1    0    0  501    0  0.00000000000E+00  0.00000000000E+00  0.14183128011E+04  0.14183128011E+04  0.50400001928E-02 0. -1.
       -1   -1    0    0    0  501  0.00000000000E+00  0.00000000000E+00 -0.19183588114E+04  0.19183588114E+04  0.50400001928E-02 0.  1.
    10030    2    1    2    0    0  0.00000000000E+00  0.00000000000E+00 -0.50004601028E+03  0.33366716124E+04  0.32989894569E+04 0.  0.
        4    1    3    3  502    0  0.14363421160E+04 -0.15678559844E+03  0.55478631021E+03  0.15477240907E+04  0.12699999809E+01 0. -1.
       -4    1    3    3    0  502 -0.14363421160E+04  0.15678559844E+03 -0.10548323205E+04  0.17889475217E+04  0.12699999809E+01 0.  1.
</event>
<event>
 5   0  0.2244093E-08  0.3300094E+04  0.7818609E-02  0.8162872E-01
        1   -1    0    0  501    0  0.00000000000E+00  0.00000000000E+00  0.21737457128E+04  0.21737457128E+04  0.50400001928E-02 0. -1.
       -1   -1    0    0    0  501  0.00000000000E+00  0.00000000000E+00 -0.12525176178E+04  0.12525176178E+04  0.50400001928E-02 0.  1.
    10030    2    1    2    0    0  0.00000000000E+00  0.00000000000E+00  0.92122809500E+03  0.34262633305E+04  0.33000938179E+04 0.  0.
        1    1    3    3  502    0  0.12121988762E+04  0.59248646744E+03 -0.52553620103E+03  0.14479829516E+04  0.50400001928E-02 0.  1.
       -1    1    3    3    0  502 -0.12121988762E+04 -0.59248646744E+03  0.14467642960E+04  0.19782803789E+04  0.50400001928E-02 0. -1.
</event>
<event>
 5   0  0.6821287E-08  0.3301104E+04  0.7818609E-02  0.8162615E-01
        2   -1    0    0  501    0  0.00000000000E+00  0.00000000000E+00  0.11285473429E+04  0.11285473429E+04  0.25500000920E-02 0. -1.
       -2   -1    0    0    0  501  0.00000000000E+00  0.00000000000E+00 -0.24140076731E+04  0.24140076731E+04  0.25500000920E-02 0.  1.
    10030    2    1    2    0    0  0.00000000000E+00  0.00000000000E+00 -0.12854603301E+04  0.35425550160E+04  0.33011040246E+04 0.  0.
        5    1    3    3  502    0  0.52853528243E+03  0.12136643860E+04  0.41526483610E+03  0.13873708087E+04  0.46999998093E+01 0. -1.
       -5    1    3    3    0  502 -0.52853528243E+03 -0.12136643860E+04 -0.17007251662E+04  0.21551842074E+04  0.46999998093E+01 0.  1.
</event>
<event>
 5   0  0.6706080E-08  0.3297116E+04  0.7818609E-02  0.8163630E-01
        2   -1    0    0  501    0  0.00000000000E+00  0.00000000000E+00  0.15603776530E+04  0.15603776530E+04  0.25500000920E-02 0. -1.
       -2   -1    0    0    0  501  0.00000000000E+00  0.00000000000E+00 -0.17417219377E+04  0.17417219377E+04  0.25500000920E-02 0.  1.
    10030    2    1    2    0    0  0.00000000000E+00  0.00000000000E+00 -0.18134428471E+03  0.33020995907E+04  0.32971163094E+04 0.  0.
        4    1    3    3  502    0 -0.12580950301E+03 -0.67103094485E+03 -0.15934839135E+04  0.17335810208E+04  0.12699999809E+01 0.  1.
       -4    1    3    3    0  502  0.12580950301E+03  0.67103094485E+03  0.14121396288E+04  0.15685185699E+04  0.12699999809E+01 0. -1.
</event>
<event>
 5   0  0.6603516E-08  0.3300361E+04  0.7818609E-02  0.8162804E-01
       -2   -1    0    0    0  501  0.00000000000E+00  0.00000000000E+00  0.21350640086E+04  0.21350640086E+04  0.25500000920E-02 0. -1.
        2   -1    0    0  501    0  0.00000000000E+00  0.00000000000E+00 -0.12754161068E+04  0.12754161068E+04  0.25500000920E-02 0.  1.
    10030    2    1    2    0    0  0.00000000000E+00  0.00000000000E+00  0.85964790178E+03  0.34104801154E+04  0.33003606019E+04 0.  0.
        1    1    3    3  502    0 -0.10712011820E+03 -0.13821451099E+04 -0.49519450657E+03  0.14720792859E+04  0.50400001928E-02 0.  1.
       -1    1    3    3    0  502  0.10712011820E+03  0.13821451099E+04  0.13548424083E+04  0.19384008295E+04  0.50400001928E-02 0. -1.
</event>
<event>
 5   0  0.6603516E-08  0.3299791E+04  0.7818609E-02  0.8162949E-01
        2   -1    0    0  501    0  0.00000000000E+00  0.00000000000E+00  0.18120583638E+04  0.18120583638E+04  0.25500000920E-02 0. -1.
       -2   -1    0    0    0  501  0.00000000000E+00  0.00000000000E+00 -0.15022445233E+04  0.15022445233E+04  0.25500000920E-02 0.  1.
    10030    2    1    2    0    0  0.00000000000E+00  0.00000000000E+00  0.30981384043E+03  0.33143028871E+04  0.32997907527E+04 0.  0.
        1    1    3    3  502    0  0.56969526198E+03  0.17607068903E+01 -0.14003210737E+04  0.15117721062E+04  0.50400001928E-02 0.  1.
       -1    1    3    3    0  502 -0.56969526198E+03 -0.17607068903E+01  0.17101349141E+04  0.18025307809E+04  0.50400001928E-02 0. -1.
</event>
<event>
 5   0  0.2291682E-08  0.3299113E+04  0.7818609E-02  0.8163121E-01
       -1   -1    0    0    0  501  0.00000000000E+00  0.00000000000E+00  0.11994004799E+04  0.11994004799E+04  0.50400001928E-02 0.  1.
        1   -1    0    0  501    0  0.00000000000E+00  0.00000000000E+00 -0.22686643944E+04  0.22686643944E+04  0.50400001928E-02 0. -1.
    10030    2    1    2    0    0  0.00000000000E+00  0.00000000000E+00 -0.10692639146E+04  0.34680648743E+04  0.32991133132E+04 0.  0.
        2    1    3    3  502    0 -0.42793674112E+03  0.56110037248E+03 -0.21019852806E+04  0.22172743633E+04  0.25500000920E-02 0. -1.
       -2    1    3    3    0  502  0.42793674112E+03 -0.56110037248E+03  0.10327213661E+04  0.12507905110E+04  0.25500000920E-02 0.  1.
</event>
<event>
 5   0  0.2383270E-08  0.3302000E+04  0.7818609E-02  0.8162387E-01
        1   -1    0    0  501    0  0.00000000000E+00  0.00000000000E+00  0.16055726935E+04  0.16055726935E+04  0.50400001928E-02 0. -1.
       -1   -1    0    0    0  501  0.00000000000E+00  0.00000000000E+00 -0.16977129312E+04  0.16977129312E+04  0.50400001928E-02 0.  1.
    10030    2    1    2    0    0  0.00000000000E+00  0.00000000000E+00 -0.92140237766E+02  0.33032856247E+04  0.33020003173E+04 0.  0.
        5    1    3    3  502    0 -0.14585201050E+04 -0.46046469152E+03 -0.66797986474E+03  0.16689900594E+04  0.46999998093E+01 0.  1.
       -5    1    3    3    0  502  0.14585201050E+04  0.46046469152E+03  0.57583962697E+03  0.16342955653E+04  0.46999998093E+01 0. -1.
</event>
<event>
 5   0  0.6821287E-08  0.3300148E+04  0.7818609E-02  0.8162858E-01
       -2   -1    0    0    0  501  0.00000000000E+00  0.00000000000E+00  0.12655139175E+04  0.12655139175E+04  0.25500000920E-02 0. -1.
        2   -1    0    0  501    0  0.00000000000E+00  0.00000000000E+00 -0.21514933120E+04  0.21514933120E+04  0.25500000920E-02 0.  1.
    10030    2    1    2    0    0  0.00000000000E+00  0.00000000000E+00 -0.88597939453E+03  0.34170072294E+04  0.33001483177E+04 0.  0.
        5    1    3    3  502    0  0.14836863907E+04  0.67494843976E+03 -0.70867268100E+03  0.17773912796E+04  0.46999998093E+01 0.  1.
       -5    1    3    3    0  502 -0.14836863907E+04 -0.67494843976E+03 -0.17730671353E+03  0.16396159498E+04  0.46999998093E+01 0. -1.
</event>
<event>
 5   0  0.2309822E-08  0.3301582E+04  0.7818609E-02  0.8162493E-01
        1   -1    0    0  501    0  0.00000000000E+00  0.00000000000E+00  0.20129305286E+04  0.20129305287E+04  0.50400001928E-02 0.  1.
       -1   -1    0    0    0  501  0.00000000000E+00  0.00000000000E+00 -0.13538031483E+04  0.13538031484E+04  0.50400001928E-02 0. -1.
    10030    2    1    2    0    0  0.00000000000E+00  0.00000000000E+00  0.65912738030E+03  0.33667336770E+04  0.33015824613E+04 0.  0.
        4    1    3    3  502    0 -0.87606799111E+03  0.10851856503E+04  0.12301603077E+04  0.18596825041E+04  0.12699999809E+01 0.  1.
       -4    1    3    3    0  502  0.87606799111E+03 -0.10851856503E+04 -0.57103292737E+03  0.15070511729E+04  0.12699999809E+01 0. -1.
</event>
<event>
 5   0  0.6765252E-08  0.3302196E+04  0.7818609E-02  0.8162337E-01
       -2   -1    0    0    0  501  0.00000000000E+00  0.00000000000E+00  0.15481803565E+04  0.15481803565E+04  0.25500000920E-02 0.  1.
        2   -1    0    0  501    0  0.00000000000E+00  0.00000000000E+00 -0.17608573166E+04  0.17608573166E+04  0.25500000920E-02 0. -1.
    10030    2    1    2    0    0  0.00000000000E+00  0.00000000000E+00 -0.21267696010E+03  0.33090376732E+04  0.33021960622E+04 0.  0.
        2    1    3    3  502    0 -0.10972859700E+04 -0.49970225483E+03 -0.12366763401E+04  0.17271673960E+04  0.25500000920E-02 0. -1.
       -2    1    3    3    0  502  0.10972859700E+04  0.49970225483E+03  0.10239993800E+04  0.15818702772E+04  0.25500000920E-02 0.  1.
</event>
<event>
 5   0  0.2244093E-08  0.3299198E+04  0.7818609E-02  0.8163100E-01
       -1   -1    0    0    0  501  0.00000000000E+00  0.00000000000E+00  0.17591986405E+04  0.17591986405E+04  0.50400001928E-02 0. -1.
        1   -1    0    0  501    0  0.00000000000E+00  0.00000000000E+00 -0.15468271278E+04  0.15468271278E+04  0.50400001928E-02 0.  1.
    10030    2    1    2    0    0  0.00000000000E+00  0.00000000000E+00  0.21237151267E+03  0.33060257683E+04  0.32991975874E+04 0.  0.
        1    1    3    3  502    0 -0.24508078271E+03 -0.12892778088E+04  0.11076912425E+04  0.17173472995E+04  0.50400001928E-02 0. -1.
       -1    1    3    3    0  502  0.24508078271E+03  0.12892778088E+04 -0.89531972988E+03  0.15886784687E+04  0.50400001928E-02 0.  1.
</event>
<event>
 5   0  0.7084130E-08  0.3300410E+04  0.7818609E-02  0.8162791E-01
        2   -1    0    0  501    0  0.00000000000E+00  0.00000000000E+00  0.15158014696E+04  0.15158014696E+04  0.25500000920E-02 0.  1.
       -2   -1    0    0    0  501  0.00000000000E+00  0.00000000000E+00 -0.17965254827E+04  0.17965254827E+04  0.25500000920E-02 0. -1.
    10030    2    1    2    0    0  0.00000000000E+00  0.00000000000E+00 -0.28072401312E+03  0.33123269523E+04  0.33004096514E+04 0.  0.
        3    1    3    3  502    0  0.41546465023E+03  0.13497019914E+04  0.71645933048E+03  0.15835467545E+04  0.10100000352E+00 0.  1.
       -3    1    3    3    0  502 -0.41546465023E+03 -0.13497019914E+04 -0.99718334360E+03  0.17287801978E+04  0.10100000352E+00 0. -1.
</event>
<event>
 5   0  0.6821287E-08  0.3299341E+04  0.7818609E-02  0.8163063E-01
        2   -1    0    0  501    0  0.00000000000E+00  0.00000000000E+00  0.20566579551E+04  0.20566579551E+04  0.25500000920E-02 0. -1.
       -2   -1    0    0    0  501  0.00000000000E+00  0.00000000000E+00 -0.13232207222E+04  0.13232207222E+04  0.25500000920E-02 0.  1.
    10030    2    1    2    0    0  0.00000000000E+00  0.00000000000E+00  0.73343723284E+03  0.33798786773E+04  0.32993407976E+04 0.  0.
        5    1    3    3  502    0  0.10429586627E+04 -0.48233204447E+03  0.15792428376E+04  0.19530583717E+04  0.46999998093E+01 0. -1.
       -5    1    3    3    0  502 -0.10429586627E+04  0.48233204447E+03 -0.84580560480E+03  0.14268203055E+04  0.46999998093E+01 0.  1.
</event>
<event>
 5   0  0.2244093E-08  0.3312204E+04  0.7818609E-02  0.8159797E-01
        1   -1    0    0  501    0  0.00000000000E+00  0.00000000000E+00  0.34056545442E+04  0.34056545442E+04  0.50400001928E-02 0.  1.
       -1   -1    0    0    0  501  0.00000000000E+00  0.00000000000E+00 -0.80532937510E+03  0.80532937511E+03  0.50400001928E-02 0. -1.
    10030    2    1    2    0    0  0.00000000000E+00  0.00000000000E+00  0.26003251691E+04  0.42109839193E+04  0.33122038862E+04 0.  0.
        1    1    3    3  502    0 -0.36395693886E+03 -0.15906713480E+04  0.16596966073E+04  0.23275078558E+04  0.50400001928E-02 0. -1.
       -1    1    3    3    0  502  0.36395693886E+03  0.15906713480E+04  0.94062856187E+03  0.18834760636E+04  0.50400001928E-02 0.  1.
</event>
<event>
 5   0  0.2309822E-08  0.3299671E+04  0.7818609E-02  0.8162979E-01
        1   -1    0    0  501    0  0.00000000000E+00  0.00000000000E+00  0.15993370903E+04  0.15993370904E+04  0.50400001928E-02 0.  1.
       -1   -1    0    0    0  501  0.00000000000E+00  0.00000000000E+00 -0.17019286709E+04  0.17019286709E+04  0.50400001928E-02 0. -1.
    10030    2    1    2    0    0  0.00000000000E+00  0.00000000000E+00 -0.10259158053E+03  0.33012657612E+04  0.32996712857E+04 0.  0.
        4    1    3    3  502    0 -0.12619415132E+04 -0.89572765726E+03 -0.62352638017E+03  0.16684157690E+04  0.12699999809E+01 0.  1.
       -4    1    3    3    0  502  0.12619415132E+04  0.89572765726E+03  0.52093479964E+03  0.16328499922E+04  0.12699999809E+01 0. -1.
</event>
<event>
 5   0  0.2200750E-08  0.3300620E+04  0.7818609E-02  0.8162738E-01
       -3   -1    0    0    0  501  0.00000000000E+00  0.00000000000E+00  0.10481165424E+04  0.10481165473E+04  0.10100000352E+00 0. -1.
        3   -1    0    0  501    0  0.00000000000E+00  0.00000000000E+00 -0.25984929432E+04  0.25984929451E+04  0.10100000352E+00 0.  1.
    10030    2    1    2    0    0  0.00000000000E+00  0.00000000000E+00 -0.15503764007E+04  0.36466094924E+04  0.33006202154E+04 0.  0.
        4    1    3    3  502    0  0.14753132554E+04 -0.15372213501E+03  0.24068998911E+02  0.14834960822E+04  0.12699999809E+01 0. -1.
       -4    1    3    3    0  502 -0.14753132554E+04  0.15372213501E+03 -0.15744453996E+04  0.21631134103E+04  0.12699999809E+01 0.  1.
</event>
<event>
 5   0  0.2383270E-08  0.3303653E+04  0.7818609E-02  0.8161967E-01
        1   -1    0    0  501    0  0.00000000000E+00  0.00000000000E+00  0.14428584240E+04  0.14428584241E+04  0.50400001928E-02 0.  1.
       -1   -1    0    0    0  501  0.00000000000E+00  0.00000000000E+00 -0.18910587087E+04  0.18910587087E+04  0.50400001928E-02 0. -1.
    10030    2    1    2    0    0  0.00000000000E+00  0.00000000000E+00 -0.44820028463E+03  0.33339171327E+04  0.33036525170E+04 0.  0.
        5    1    3    3  502    0  0.12646496747E+04 -0.10481207360E+04 -0.40066588355E+03  0.16906954537E+04  0.46999998093E+01 0.  1.
       -5    1    3    3    0  502 -0.12646496747E+04  0.10481207360E+04 -0.47534401072E+02  0.16432216790E+04  0.46999998093E+01 0. -1.
</event>
<event>
 5   0  0.6821287E-08  0.3306511E+04  0.7818609E-02  0.8161241E-01
       -2   -1    0    0    0  501  0.00000000000E+00  0.00000000000E+00  0.16363823597E+04  0.16363823597E+04  0.25500000920E-02 0.  1.
        2   -1    0    0  501    0  0.00000000000E+00  0.00000000000E+00 -0.16703023635E+04  0.16703023635E+04  0.25500000920E-02 0. -1.
    10030    2    1    2    0    0  0.00000000000E+00  0.00000000000E+00 -0.33920003728E+02  0.33066847232E+04  0.33065107427E+04 0.  0.
        5    1    3    3  502    0  0.86602287972E+03  0.86606329193E+03 -0.11275003007E+04  0.16647342947E+04  0.46999998093E+01 0. -1.
       -5    1    3    3    0  502 -0.86602287972E+03 -0.86606329193E+03  0.10935802969E+04  0.16419504285E+04  0.46999998093E+01 0.  1.
</event>
<event>
 5   0  0.6821287E-08  0.3300695E+04  0.7818609E-02  0.8162719E-01
       -2   -1    0    0    0  501  0.00000000000E+00  0.00000000000E+00  0.18410776053E+04  0.18410776053E+04  0.25500000920E-02 0.  1.
        2   -1    0    0  501    0  0.00000000000E+00  0.00000000000E+00 -0.14793764544E+04  0.14793764544E+04  0.25500000920E-02 0. -1.
    10030    2    1    2    0    0  0.00000000000E+00  0.00000000000E+00  0.36170115088E+03  0.33204540597E+04  0.33006949935E+04 0.  0.
        5    1    3    3  502    0 -0.57929552776E+03  0.14578568436E+04  0.69645648931E+03  0.17163926172E+04  0.46999998093E+01 0.  1.
       -5    1    3    3    0  502  0.57929552776E+03 -0.14578568436E+04 -0.33475533843E+03  0.16040614425E+04  0.46999998093E+01 0. -1.
</event>
<event>
 5   0  0.7084130E-08  0.3298721E+04  0.7818609E-02  0.8163221E-01
        2   -1    0    0  501    0  0.00000000000E+00  0.00000000000E+00  0.12598068430E+04  0.12598068430E+04  0.25500000920E-02 0.  1.
       -2   -1    0    0    0  501  0.00000000000E+00  0.00000000000E+00 -0.21593709944E+04  0.21593709944E+04  0.25500000920E-02 0. -1.
    10030    2    1    2    0    0  0.00000000000E+00  0.00000000000E+00 -0.89956415137E+03  0.34191778374E+04  0.32987211797E+04 0.  0.
        3    1    3    3  502    0  0.13812685935E+04 -0.88466080647E+02  0.48000306914E+03  0.14649683039E+04  0.10100000352E+00 0. -1.
       -3    1    3    3    0  502 -0.13812685935E+04  0.88466080647E+02 -0.13795672205E+04  0.19542095335E+04  0.10100000352E+00 0.  1.
</event>
<event>
 5   0  0.6821287E-08  0.3298828E+04  0.7818609E-02  0.8163194E-01
       -2   -1    0    0    0  501  0.00000000000E+00  0.00000000000E+00  0.21135734356E+04  0.21135734356E+04  0.25500000920E-02 0.  1.
        2   -1    0    0  501    0  0.00000000000E+00  0.00000000000E+00 -0.12871883309E+04  0.12871883309E+04  0.25500000920E-02 0. -1.
    10030    2    1    2    0    0  0.00000000000E+00  0.00000000000E+00  0.82638510466E+03  0.34007617665E+04  0.32988283149E+04 0.  0.
        5    1    3    3  502    0 -0.36099907256E+03 -0.79736974891E+03  0.18543987648E+04  0.20505939909E+04  0.46999998093E+01 0.  1.
       -5    1    3    3    0  502  0.36099907256E+03  0.79736974891E+03 -0.10280136601E+04  0.13501677756E+04  0.46999998093E+01 0. -1.
</event>
<event>
 5   0  0.2291682E-08  0.3300075E+04  0.7818609E-02  0.8162876E-01
       -1   -1    0    0    0  501  0.00000000000E+00  0.00000000000E+00  0.13769150297E+04  0.13769150297E+04  0.50400001928E-02 0.  1.
        1   -1    0    0  501    0  0.00000000000E+00  0.00000000000E+00 -0.19773356509E+04  0.19773356509E+04  0.50400001928E-02 0. -1.
    10030    2    1    2    0    0  0.00000000000E+00  0.00000000000E+00 -0.60042062121E+03  0.33542506807E+04  0.33000746516E+04 0.  0.
        2    1    3    3  502    0 -0.20450330397E+03  0.87056670787E+03 -0.17096672641E+04  0.19294222317E+04  0.25500000920E-02 0. -1.
       -2    1    3    3    0  502  0.20450330397E+03 -0.87056670787E+03  0.11092466429E+04  0.14248284490E+04  0.25500000920E-02 0.  1.
</event>
<event>
 5   0  0.7084130E-08  0.3301723E+04  0.7818609E-02  0.8162457E-01
        2   -1    0    0  501    0  0.00000000000E+00  0.00000000000E+00  0.20445404409E+04  0.20445404409E+04  0.25500000920E-02 0. -1.
       -2   -1    0    0    0  501  0.00000000000E+00  0.00000000000E+00 -0.13329858279E+04  0.13329858279E+04  0.25500000920E-02 0.  1.
    10030    2    1    2    0    0  0.00000000000E+00  0.00000000000E+00  0.71155461300E+03  0.33775262688E+04  0.33017228426E+04 0.  0.
        3    1    3    3  502    0  0.46076605710E+03 -0.52541076267E+03 -0.11742152796E+04  0.13664345436E+04  0.10100000352E+00 0.  1.
       -3    1    3    3    0  502 -0.46076605710E+03  0.52541076267E+03  0.18857698926E+04  0.20110917252E+04  0.10100000352E+00 0. -1.
</event>
<event>
 5   0  0.6765252E-08  0.3298686E+04  0.7818609E-02  0.8163230E-01
        2   -1    0    0  501    0  0.00000000000E+00  0.00000000000E+00  0.31774642418E+04  0.31774642418E+04  0.25500000920E-02 0. -1.
       -2   -1    0    0    0  501  0.00000000000E+00  0.00000000000E+00 -0.85613297111E+03  0.85613297111E+03  0.25500000920E-02 0.  1.
    10030    2    1    2    0    0  0.00000000000E+00  0.00000000000E+00  0.23213312707E+04  0.40335972129E+04  0.32986857394E+04 0.  0.
        2    1    3    3  502    0  0.13340916442E+04  0.80830745599E+03  0.50539387105E+03  0.16396903438E+04  0.25500000920E-02 0. -1.
       -2    1    3    3    0  502 -0.13340916442E+04 -0.80830745599E+03  0.18159373996E+04  0.23939068691E+04  0.25500000920E-02 0.  1.
</event>
<event>
 5   0  0.7084130E-08  0.3300106E+04  0.7818609E-02  0.8162868E-01
       -2   -1    0    0    0  501  0.00000000000E+00  0.00000000000E+00  0.11643056669E+04  0.11643056670E+04  0.25500000920E-02 0.  1.
        2   -1    0    0  501    0  0.00000000000E+00  0.00000000000E+00 -0.23384543509E+04  0.23384543509E+04  0.25500000920E-02 0. -1.
    10030    2    1    2    0    0  0.00000000000E+00  0.00000000000E+00 -0.11741486840E+04  0.35027600179E+04  0.33001064545E+04 0.  0.
        3    1    3    3  502    0 -0.14842184197E+04  0.72083600901E+03 -0.57336723817E+03  0.17467852957E+04  0.10100000352E+00 0. -1.
       -3    1    3    3    0  502  0.14842184197E+04 -0.72083600901E+03 -0.60078144581E+03  0.17559747222E+04  0.10100000352E+00 0.  1.
</event>
<event>
 5   0  0.2291682E-08  0.3291768E+04  0.7818609E-02  0.8164993E-01
        1   -1    0    0  501    0  0.00000000000E+00  0.00000000000E+00  0.17616516172E+04  0.17616516172E+04  0.50400001928E-02 0. -1.
       -1   -1    0    0    0  501  0.00000000000E+00  0.00000000000E+00 -0.15377245409E+04  0.15377245409E+04  0.50400001928E-02 0.  1.
    10030    2    1    2    0    0  0.00000000000E+00  0.00000000000E+00  0.22392707639E+03  0.32993761581E+04  0.32917684756E+04 0.  0.
        2    1    3    3  502    0  0.11497958968E+04  0.11316524358E+04  0.43870325841E+03  0.16718637471E+04  0.25500000920E-02 0.  1.
       -2    1    3    3    0  502 -0.11497958968E+04 -0.11316524358E+04 -0.21477618202E+03  0.16275124111E+04  0.25500000920E-02 0. -1.
</event>
<event>
 5   0  0.6765252E-08  0.3299355E+04  0.7818609E-02  0.8163060E-01
        2   -1    0    0  501    0  0.00000000000E+00  0.00000000000E+00  0.22477842121E+04  0.22477842121E+04  0.25500000920E-02 0. -1.
       -2   -1    0    0    0  501  0.00000000000E+00  0.00000000000E+00 -0.12107192141E+04  0.12107192141E+04  0.25500000920E-02 0.  1.
    10030    2    1    2    0    0  0.00000000000E+00  0.00000000000E+00  0.10370649980E+04  0.34585034262E+04  0.32993548065E+04 0.  0.
        2    1    3    3  502    0  0.68616584362E+02 -0.57523255140E+03  0.21376537556E+04  0.22147605520E+04  0.25500000920E-02 0. -1.
       -2    1    3    3    0  502 -0.68616584362E+02  0.57523255140E+03 -0.11005887576E+04  0.12437428742E+04  0.25500000920E-02 0.  1.
</event>
<event>
 5   0  0.2309822E-08  0.3298571E+04  0.7818609E-02  0.8163259E-01
        1   -1    0    0  501    0  0.00000000000E+00  0.00000000000E+00  0.27867818590E+04  0.27867818590E+04  0.50400001928E-02 0. -1.
       -1   -1    0    0    0  501  0.00000000000E+00  0.00000000000E+00 -0.97608724489E+03  0.97608724491E+03  0.50400001928E-02 0.  1.
    10030    2    1    2    0    0  0.00000000000E+00  0.00000000000E+00  0.18106946141E+04  0.37628691039E+04  0.32985707371E+04 0.  0.
        4    1    3    3  502    0  0.28655889347E+02  0.10951980618E+04  0.23117030665E+04  0.25581736914E+04  0.12699999809E+01 0. -1.
       -4    1    3    3    0  502 -0.28655889347E+02 -0.10951980618E+04 -0.50100845245E+03  0.12046954125E+04  0.12699999809E+01 0.  1.
</event>
<event>
 5   0  0.2309822E-08  0.3300455E+04  0.7818609E-02  0.8162780E-01
       -1   -1    0    0    0  501  0.00000000000E+00  0.00000000000E+00  0.20926958509E+04  0.20926958509E+04  0.50400001928E-02 0. -1.
        1   -1    0    0  501    0  0.00000000000E+00  0.00000000000E+00 -0.13013122957E+04  0.13013122957E+04  0.50400001928E-02 0.  1.
    10030    2    1    2    0    0  0.00000000000E+00  0.00000000000E+00  0.79138355521E+03  0.33940081466E+04  0.33004550244E+04 0.  0.
        4    1    3    3  502    0  0.70765094293E+03 -0.14662959277E+04  0.11888602370E+03  0.16324610575E+04  0.12699999809E+01 0.  1.
       -4    1    3    3    0  502 -0.70765094293E+03  0.14662959277E+04  0.67249753151E+03  0.17615470892E+04  0.12699999809E+01 0. -1.
</event>
<event>
 5   0  0.6706080E-08  0.3295925E+04  0.7818609E-02  0.8163933E-01
       -2   -1    0    0    0  501  0.00000000000E+00  0.00000000000E+00  0.16144067281E+04  0.16144067281E+04  0.25500000920E-02 0. -1.
        2   -1    0    0  501    0  0.00000000000E+00  0.00000000000E+00 -0.16822157093E+04  0.16822157093E+04  0.25500000920E-02 0.  1.
    10030    2    1    2    0    0  0.00000000000E+00  0.00000000000E+00 -0.67808981228E+02  0.32966224373E+04  0.32959249743E+04 0.  0.
        4    1    3    3  502    0  0.15041987688E+04  0.53723521656E+03  0.37182051340E+03  0.16399657682E+04  0.12699999809E+01 0.  1.
       -4    1    3    3    0  502 -0.15041987688E+04 -0.53723521656E+03 -0.43962949463E+03  0.16566566691E+04  0.12699999809E+01 0. -1.
</event>
<event>
 5   0  0.2279938E-08  0.3301596E+04  0.7818609E-02  0.8162490E-01
        1   -1    0    0  501    0  0.00000000000E+00  0.00000000000E+00  0.30942680381E+04  0.30942680381E+04  0.50400001928E-02 0.  1.
       -1   -1    0    0    0  501  0.00000000000E+00  0.00000000000E+00 -0.88070368611E+03  0.88070368613E+03  0.50400001928E-02 0. -1.
    10030    2    1    2    0    0  0.00000000000E+00  0.00000000000E+00  0.22135643520E+04  0.39749717243E+04  0.33015955337E+04 0.  0.
        3    1    3    3  502    0 -0.43613820862E+03 -0.97313789971E+03 -0.41035341069E+03  0.11426302292E+04  0.10100000352E+00 0. -1.
       -3    1    3    3    0  502  0.43613820862E+03  0.97313789971E+03  0.26239177627E+04  0.28323414950E+04  0.10100000352E+00 0.  1.
</event>
<event>
 5   0  0.2291682E-08  0.3298852E+04  0.7818609E-02  0.8163188E-01
        1   -1    0    0  501    0  0.00000000000E+00  0.00000000000E+00  0.12115683691E+04  0.12115683691E+04  0.50400001928E-02 0.  1.
       -1   -1    0    0    0  501  0.00000000000E+00  0.00000000000E+00 -0.22455242520E+04  0.22455242520E+04  0.50400001928E-02 0. -1.
    10030    2    1    2    0    0  0.00000000000E+00  0.00000000000E+00 -0.10339558829E+04  0.34570926211E+04  0.32988520160E+04 0.  0.
        2    1    3    3  502    0 -0.30207196807E+03 -0.55976125193E+03  0.10778722640E+04  0.12515545336E+04  0.25500000920E-02 0.  1.
       -2    1    3    3    0  502  0.30207196807E+03  0.55976125193E+03 -0.21118281470E+04  0.22055380875E+04  0.25500000920E-02 0. -1.
</event>
<event>
 5   0  0.6603516E-08  0.3300331E+04  0.7818609E-02  0.8162811E-01
       -2   -1    0    0    0  501  0.00000000000E+00  0.00000000000E+00  0.17822865260E+04  0.17822865260E+04  0.25500000920E-02 0.  1.
        2   -1    0    0  501    0  0.00000000000E+00  0.00000000000E+00 -0.15278383209E+04  0.15278383209E+04  0.25500000920E-02 0. -1.
    10030    2    1    2    0    0  0.00000000000E+00  0.00000000000E+00  0.25444820511E+03  0.33101248469E+04  0.33003306824E+04 0.  0.
        1    1    3    3  502    0 -0.73664444822E+02  0.14499046162E+04  0.91402379893E+03  0.17155434566E+04  0.50400001928E-02 0.  1.
       -1    1    3    3    0  502  0.73664444822E+02 -0.14499046162E+04 -0.65957559382E+03  0.15945813903E+04  0.50400001928E-02 0. -1.
</event>
<event>
 5   0  0.7084130E-08  0.3307854E+04  0.7818609E-02  0.8160900E-01
       -2   -1    0    0    0  501  0.00000000000E+00  0.00000000000E+00  0.12071632716E+04  0.12071632716E+04  0.25500000920E-02 0. -1.
        2   -1    0    0  501    0  0.00000000000E+00  0.00000000000E+00 -0.22660352170E+04  0.22660352170E+04  0.25500000920E-02 0.  1.
    10030    2    1    2    0    0  0.00000000000E+00  0.00000000000E+00 -0.10588719455E+04  0.34731984886E+04  0.33078539787E+04 0.  0.
        3    1    3    3  502    0  0.13596311089E+04 -0.91324297630E+03 -0.28801925029E+03  0.16629986725E+04  0.10100000352E+00 0.  1.
       -3    1    3    3    0  502 -0.13596311089E+04  0.91324297630E+03 -0.77085269517E+03  0.18101998160E+04  0.10100000352E+00 0. -1.
</event>
<event>
 5   0  0.6765252E-08  0.3301429E+04  0.7818609E-02  0.8162532E-01
       -2   -1    0    0    0  501  0.00000000000E+00  0.00000000000E+00  0.12821693781E+04  0.12821693781E+04  0.25500000920E-02 0.  1.
        2   -1    0    0  501    0  0.00000000000E+00  0.00000000000E+00 -0.21251940776E+04  0.21251940776E+04  0.25500000920E-02 0. -1.
    10030    2    1    2    0    0  0.00000000000E+00  0.00000000000E+00 -0.84302469950E+03  0.34073634557E+04  0.33014292473E+04 0.  0.
        2    1    3    3  502    0 -0.22295117725E+03  0.15920897893E+04 -0.34787068829E+02  0.16080010152E+04  0.25500000920E-02 0. -1.
       -2    1    3    3    0  502  0.22295117725E+03 -0.15920897893E+04 -0.80823763067E+03  0.17993624405E+04  0.25500000920E-02 0.  1.
</event>
<event>
 5   0  0.2244093E-08  0.3301520E+04  0.7818609E-02  0.8162509E-01
       -1   -1    0    0    0  501  0.00000000000E+00  0.00000000000E+00  0.13032646082E+04  0.13032646082E+04  0.50400001928E-02 0.  1.
        1   -1    0    0  501    0  0.00000000000E+00  0.00000000000E+00 -0.20909094583E+04  0.20909094583E+04  0.50400001928E-02 0. -1.
    10030    2    1    2    0    0  0.00000000000E+00  0.00000000000E+00 -0.78764485013E+03  0.33941740666E+04  0.33015198294E+04 0.  0.
        1    1    3    3  502    0  0.72132202018E+03  0.10581945951E+04 -0.14646522707E+04  0.19455815409E+04  0.50400001928E-02 0. -1.
       -1    1    3    3    0  502 -0.72132202018E+03 -0.10581945951E+04  0.67700742058E+03  0.14485925257E+04  0.50400001928E-02 0.  1.
</event>
<event>
 5   0  0.6706080E-08  0.3300551E+04  0.7818609E-02  0.8162755E-01
       -2   -1    0    0    0  501  0.00000000000E+00  0.00000000000E+00  0.13707146378E+04  0.13707146378E+04  0.25500000920E-02 0. -1.
        2   -1    0    0  501    0  0.00000000000E+00  0.00000000000E+00 -0.19868531217E+04  0.19868531217E+04  0.25500000920E-02 0.  1.
    10030    2    1    2    0    0  0.00000000000E+00  0.00000000000E+00 -0.61613848387E+03  0.33575677595E+04  0.33005506553E+04 0.  0.
        4    1    3    3  502    0  0.11190054830E+04  0.66528741732E+03  0.72366352151E+03  0.14894532970E+04  0.12699999809E+01 0. -1.
       -4    1    3    3    0  502 -0.11190054830E+04 -0.66528741732E+03 -0.13398020054E+04  0.18681144625E+04  0.12699999809E+01 0.  1.
</event>
<event>
 5   0  0.2279938E-08  0.3299014E+04  0.7818609E-02  0.8163146E-01
        1   -1    0    0  501    0  0.00000000000E+00  0.00000000000E+00  0.19048695476E+04  0.19048695476E+04  0.50400001928E-02 0. -1.
       -1   -1    0    0    0  501  0.00000000000E+00  0.00000000000E+00 -0.14283780797E+04  0.14283780797E+04  0.50400001928E-02 0.  1.
    10030    2    1    2    0    0  0.00000000000E+00  0.00000000000E+00  0.47649146795E+03  0.33332476273E+04  0.32990143416E+04 0.  0.
        3    1    3    3  502    0  0.53307545192E+03  0.62317470923E+02 -0.13376898156E+04  0.14413420682E+04  0.10100000352E+00 0.  1.
       -3    1    3    3    0  502 -0.53307545192E+03 -0.62317470923E+02  0.18141812836E+04  0.18919055591E+04  0.10100000352E+00 0. -1.
</event>
<event>
 5   0  0.7084130E-08  0.3299613E+04  0.7818609E-02  0.8162994E-01
       -2   -1    0    0    0  501  0.00000000000E+00  0.00000000000E+00  0.14713370459E+04  0.14713370459E+04  0.25500000920E-02 0. -1.
        2   -1    0    0  501    0  0.00000000000E+00  0.00000000000E+00 -0.18499238776E+04  0.18499238776E+04  0.25500000920E-02 0.  1.
    10030    2    1    2    0    0  0.00000000000E+00  0.00000000000E+00 -0.37858683177E+03  0.33212609235E+04  0.32996130277E+04 0.  0.
        3    1    3    3  502    0 -0.12432384483E+04  0.88757875889E+03 -0.81661872284E+03  0.17321385745E+04  0.10100000352E+00 0.  1.
       -3    1    3    3    0  502  0.12432384483E+04 -0.88757875889E+03  0.43803189107E+03  0.15891223490E+04  0.10100000352E+00 0. -1.
</event>
<event>
 5   0  0.7084130E-08  0.3300246E+04  0.7818609E-02  0.8162833E-01
        2   -1    0    0  501    0  0.00000000000E+00  0.00000000000E+00  0.24721277344E+04  0.24721277344E+04  0.25500000920E-02 0. -1.
       -2   -1    0    0    0  501  0.00000000000E+00  0.00000000000E+00 -0.11014425257E+04  0.11014425257E+04  0.25500000920E-02 0.  1.
    10030    2    1    2    0    0  0.00000000000E+00  0.00000000000E+00  0.13706852087E+04  0.35735702601E+04  0.33002464245E+04 0.  0.
        3    1    3    3  502    0 -0.35484278798E+03 -0.15812199239E+04  0.34855840336E+03  0.16576075600E+04  0.10100000352E+00 0.  1.
       -3    1    3    3    0  502  0.35484278798E+03  0.15812199239E+04  0.10221268054E+04  0.19159627002E+04  0.10100000352E+00 0. -1.
</event>
<event>
 5   0  0.2244093E-08  0.3299909E+04  0.7818609E-02  0.8162918E-01
       -1   -1    0    0    0  501  0.00000000000E+00  0.00000000000E+00  0.12632129787E+04  0.12632129787E+04  0.50400001928E-02 0.  1.
        1   -1    0    0  501    0  0.00000000000E+00  0.00000000000E+00 -0.21551000226E+04  0.21551000226E+04  0.50400001928E-02 0. -1.
    10030    2    1    2    0    0  0.00000000000E+00  0.00000000000E+00 -0.89188704389E+03  0.34183130014E+04  0.32999092831E+04 0.  0.
        1    1    3    3  502    0  0.95148520621E+03  0.65814061489E+03  0.77264924358E+03  0.13912081154E+04  0.50400001928E-02 0.  1.
       -1    1    3    3    0  502 -0.95148520621E+03 -0.65814061489E+03 -0.16645362875E+04  0.20271048860E+04  0.50400001928E-02 0. -1.
</event>
<event>
 5   0  0.2244093E-08  0.3302645E+04  0.7818609E-02  0.8162223E-01
        1   -1    0    0  501    0  0.00000000000E+00  0.00000000000E+00  0.16415005228E+04  0.16415005228E+04  0.50400001928E-02 0. -1.
       -1   -1    0    0    0  501  0.00000000000E+00  0.00000000000E+00 -0.16612036166E+04  0.16612036166E+04  0.50400001928E-02 0.  1.
    10030    2    1    2    0    0  0.00000000000E+00  0.00000000000E+00 -0.19703093791E+02  0.33027041393E+04  0.33026453670E+04 0.  0.
        1    1    3    3  502    0  0.13865601980E+04  0.36987918832E+03 -0.82687698454E+03  0.16562262359E+04  0.50400001928E-02 0.  1.
       -1    1    3    3    0  502 -0.13865601980E+04 -0.36987918832E+03  0.80717389075E+03  0.16464779035E+04  0.50400001928E-02 0. -1.
</event>
<event>
 5   0  0.6603516E-08  0.3299975E+04  0.7818609E-02  0.8162902E-01
       -2   -1    0    0    0  501  0.00000000000E+00  0.00000000000E+00  0.10104147520E+04  0.10104147520E+04  0.25500000920E-02 0. -1.
        2   -1    0    0  501    0  0.00000000000E+00  0.00000000000E+00 -0.26943977019E+04  0.26943977019E+04  0.25500000920E-02 0.  1.
    10030    2    1    2    0    0  0.00000000000E+00  0.00000000000E+00 -0.16839829500E+04  0.37048124539E+04  0.32999752640E+04 0.  0.
        1    1    3    3  502    0  0.14228240212E+04  0.53874517362E+03 -0.15589119249E+04  0.21782747640E+04  0.50400001928E-02 0.  1.
       -1    1    3    3    0  502 -0.14228240212E+04 -0.53874517362E+03 -0.12507102505E+03  0.15265376900E+04  0.50400001928E-02 0. -1.
</event>
<event>
 5   0  0.2309822E-08  0.3298833E+04  0.7818609E-02  0.8163192E-01
        1   -1    0    0  501    0  0.00000000000E+00  0.00000000000E+00  0.18409707440E+04  0.18409707440E+04  0.50400001928E-02 0. -1.
       -1   -1    0    0    0  501  0.00000000000E+00  0.00000000000E+00 -0.14777932418E+04  0.14777932418E+04  0.50400001928E-02 0.  1.
    10030    2    1    2    0    0  0.00000000000E+00  0.00000000000E+00  0.36317750223E+03  0.33187639858E+04  0.32988325959E+04 0.  0.
        4    1    3    3  502    0  0.15580518613E+04  0.45087244920E+03  0.48300023466E+03  0.16923659201E+04  0.12699999809E+01 0. -1.
       -4    1    3    3    0  502 -0.15580518613E+04 -0.45087244920E+03 -0.11982273243E+03  0.16263980657E+04  0.12699999809E+01 0.  1.
</event>
<event>
 5   0  0.6821287E-08  0.3299197E+04  0.7818609E-02  0.8163100E-01
        2   -1    0    0  501    0  0.00000000000E+00  0.00000000000E+00  0.80128410413E+03  0.80128410414E+03  0.25500000920E-02 0.  1.
       -2   -1    0    0    0  501  0.00000000000E+00  0.00000000000E+00 -0.33960174629E+04  0.33960174629E+04  0.25500000920E-02 0. -1.
    10030    2    1    2    0    0  0.00000000000E+00  0.00000000000E+00 -0.25947333588E+04  0.41973015671E+04  0.32991967570E+04 0.  0.
        5    1    3    3  502    0  0.14447256715E+04  0.31160601217E+02 -0.23095204038E+04  0.27243549391E+04  0.46999998093E+01 0. -1.
       -5    1    3    3    0  502 -0.14447256715E+04 -0.31160601217E+02 -0.28521295501E+03  0.14729466279E+04  0.46999998093E+01 0.  1.
</event>
<event>
 5   0  0.2291682E-08  0.3299483E+04  0.7818609E-02  0.8163027E-01
       -1   -1    0    0    0  501  0.00000000000E+00  0.00000000000E+00  0.15039881486E+04  0.15039881486E+04  0.50400001928E-02 0. -1.
        1   -1    0    0  501    0  0.00000000000E+00  0.00000000000E+00 -0.18096195104E+04  0.18096195104E+04  0.50400001928E-02 0.  1.
    10030    2    1    2    0    0  0.00000000000E+00  0.00000000000E+00 -0.30563136174E+03  0.33136076590E+04  0.32994825638E+04 0.  0.
        2    1    3    3  502    0  0.78023676520E+03  0.57449020913E+02 -0.16114716947E+04  0.17913433012E+04  0.25500000920E-02 0.  1.
       -2    1    3    3    0  502 -0.78023676520E+03 -0.57449020913E+02  0.13058403330E+04  0.15222643578E+04  0.25500000920E-02 0. -1.
</event>
<event>
 5   0  0.2383270E-08  0.3303241E+04  0.7818609E-02  0.8162071E-01
       -1   -1    0    0    0  501  0.00000000000E+00  0.00000000000E+00  0.21329492881E+04  0.21329492881E+04  0.50400001928E-02 0.  1.
        1   -1    0    0  501    0  0.00000000000E+00  0.00000000000E+00 -0.12789098300E+04  0.12789098300E+04  0.50400001928E-02 0. -1.
    10030    2    1    2    0    0  0.00000000000E+00  0.00000000000E+00  0.85403945807E+03  0.34118591181E+04  0.33032407187E+04 0.  0.
        5    1    3    3  502    0  0.12878608719E+02  0.12082998541E+04  0.15899523225E+04  0.19970290117E+04  0.46999998093E+01 0.  1.
       -5    1    3    3    0  502 -0.12878608719E+02 -0.12082998541E+04 -0.73591286442E+03  0.14148301064E+04  0.46999998093E+01 0. -1.
</event>
<event>
 5   0  0.2244093E-08  0.3299002E+04  0.7818609E-02  0.8163149E-01
        1   -1    0    0  501    0  0.00000000000E+00  0.00000000000E+00  0.14623799567E+04  0.14623799567E+04  0.50400001928E-02 0.  1.
       -1   -1    0    0    0  501  0.00000000000E+00  0.00000000000E+00 -0.18605652916E+04  0.18605652916E+04  0.50400001928E-02 0. -1.
    10030    2    1    2    0    0  0.00000000000E+00  0.00000000000E+00 -0.39818533492E+03  0.33229452483E+04  0.32990019040E+04 0.  0.
        1    1    3    3  502    0  0.79552700467E+03  0.75300807083E+03 -0.14413192071E+04  0.18103274363E+04  0.50400001928E-02 0.  1.
       -1    1    3    3    0  502 -0.79552700467E+03 -0.75300807083E+03  0.10431338722E+04  0.15126178120E+04  0.50400001928E-02 0. -1.
</event>
<event>
 5   0  0.6821287E-08  0.3300017E+04  0.7818609E-02  0.8162891E-01
       -2   -1    0    0    0  501  0.00000000000E+00  0.00000000000E+00  0.11339734208E+04  0.11339734208E+04  0.25500000920E-02 0.  1.
        2   -1    0    0  501    0  0.00000000000E+00  0.00000000000E+00 -0.24008745833E+04  0.24008745833E+04  0.25500000920E-02 0. -1.
    10030    2    1    2    0    0  0.00000000000E+00  0.00000000000E+00 -0.12669011625E+04  0.35348480041E+04  0.33000169479E+04 0.  0.
        5    1    3    3  502    0  0.14710570109E+04 -0.54437080250E+03 -0.85002174843E+02  0.15708582875E+04  0.46999998093E+01 0.  1.
       -5    1    3    3    0  502 -0.14710570109E+04  0.54437080250E+03 -0.11818989877E+04  0.19639897166E+04  0.46999998093E+01 0. -1.
</event>
<event>
 5   0  0.2291682E-08  0.3300035E+04  0.7818609E-02  0.8162887E-01
        1   -1    0    0  501    0  0.00000000000E+00  0.00000000000E+00  0.19844877812E+04  0.19844877812E+04  0.50400001928E-02 0.  1.
       -1   -1    0    0    0  501  0.00000000000E+00  0.00000000000E+00 -0.13719195226E+04  0.13719195226E+04  0.50400001928E-02 0. -1.
    10030    2    1    2    0    0  0.00000000000E+00  0.00000000000E+00  0.61256825860E+03  0.33564073039E+04  0.33000348662E+04 0.  0.
        2    1    3    3  502    0  0.67841291906E+03 -0.10805958568E+03  0.18321234922E+04  0.19566802124E+04  0.25500000920E-02 0.  1.
       -2    1    3    3    0  502 -0.67841291906E+03  0.10805958568E+03 -0.12195552336E+04  0.13997270915E+04  0.25500000920E-02 0. -1.
</event>
<event>
 5   0  0.2279938E-08  0.3301544E+04  0.7818609E-02  0.8162503E-01
       -1   -1    0    0    0  501  0.00000000000E+00  0.00000000000E+00  0.10520279699E+04  0.10520279699E+04  0.50400001928E-02 0.  1.
        1   -1    0    0  501    0  0.00000000000E+00  0.00000000000E+00 -0.25902806857E+04  0.25902806857E+04  0.50400001928E-02 0. -1.
    10030    2    1    2    0    0  0.00000000000E+00  0.00000000000E+00 -0.15382527158E+04  0.36423086556E+04  0.33015437185E+04 0.  0.
        3    1    3    3  502    0 -0.35477671605E+03 -0.13425648566E+04 -0.17538340317E+04  0.22370249738E+04  0.10100000352E+00 0. -1.
       -3    1    3    3    0  502  0.35477671605E+03  0.13425648566E+04  0.21558131584E+03  0.14052836818E+04  0.10100000352E+00 0.  1.
</event>
<event>
 5   0  0.7084130E-08  0.3294143E+04  0.7818609E-02  0.8164387E-01
       -2   -1    0    0    0  501  0.00000000000E+00  0.00000000000E+00  0.10236247581E+04  0.10236247581E+04  0.25500000920E-02 0.  1.
        2   -1    0    0  501    0  0.00000000000E+00  0.00000000000E+00 -0.26502331056E+04  0.26502331056E+04  0.25500000920E-02 0. -1.
    10030    2    1    2    0    0  0.00000000000E+00  0.00000000000E+00 -0.16266083474E+04  0.36738578637E+04  0.32941428152E+04 0.  0.
        3    1    3    3  502    0  0.10316873942E+04  0.12261759010E+04 -0.38868362403E+03  0.16489272845E+04  0.10100000352E+00 0.  1.
       -3    1    3    3    0  502 -0.10316873942E+04 -0.12261759010E+04 -0.12379247234E+04  0.20249305792E+04  0.10100000352E+00 0. -1.
</event>
<event>
 5   0  0.6821287E-08  0.3299996E+04  0.7818609E-02  0.8162896E-01
       -2   -1    0    0    0  501  0.00000000000E+00  0.00000000000E+00  0.10995918085E+04  0.10995918085E+04  0.25500000920E-02 0.  1.
        2   -1    0    0  501    0  0.00000000000E+00  0.00000000000E+00 -0.24759123373E+04  0.24759123373E+04  0.25500000920E-02 0. -1.
    10030    2    1    2    0    0  0.00000000000E+00  0.00000000000E+00 -0.13763205288E+04  0.35755041459E+04  0.32999957120E+04 0.  0.
        5    1    3    3  502    0 -0.11690394841E+04  0.49350932912E+03 -0.18308498079E+04  0.22276081080E+04  0.46999998093E+01 0. -1.
       -5    1    3    3    0  502  0.11690394841E+04 -0.49350932912E+03  0.45452927915E+03  0.13478960379E+04  0.46999998093E+01 0.  1.
</event>
<event>
 5   0  0.6603516E-08  0.3304158E+04  0.7818609E-02  0.8161838E-01
        2   -1    0    0  501    0  0.00000000000E+00  0.00000000000E+00  0.18473259486E+04  0.18473259486E+04  0.25500000920E-02 0. -1.
       -2   -1    0    0    0  501  0.00000000000E+00  0.00000000000E+00 -0.14774681941E+04  0.14774681941E+04  0.25500000920E-02 0.  1.
    10030    2    1    2    0    0  0.00000000000E+00  0.00000000000E+00  0.36985775445E+03  0.33247941427E+04  0.33041581882E+04 0.  0.
        1    1    3    3  502    0  0.34671266358E+03 -0.12544497670E+04  0.12088850797E+04  0.17763043166E+04  0.50400001928E-02 0. -1.
       -1    1    3    3    0  502 -0.34671266358E+03  0.12544497670E+04 -0.83902732530E+03  0.15484898261E+04  0.50400001928E-02 0.  1.
</event>
<event>
 5   0  0.2309822E-08  0.3309191E+04  0.7818609E-02  0.8160561E-01
       -1   -1    0    0    0  501  0.00000000000E+00  0.00000000000E+00  0.15731286611E+04  0.15731286611E+04  0.50400001928E-02 0.  1.
        1   -1    0    0  501    0  0.00000000000E+00  0.00000000000E+00 -0.17402811686E+04  0.17402811686E+04  0.50400001928E-02 0. -1.
    10030    2    1    2    0    0  0.00000000000E+00  0.00000000000E+00 -0.16715250750E+03  0.33134098297E+04  0.33091909493E+04 0.  0.
        4    1    3    3  502    0 -0.37818800749E+03 -0.14451323942E+04 -0.79599637206E+03  0.16926445708E+04  0.12699999809E+01 0. -1.
       -4    1    3    3    0  502  0.37818800749E+03  0.14451323942E+04  0.62884386456E+03  0.16207652590E+04  0.12699999809E+01 0.  1.
</event>
<event>
 5   0  0.2279938E-08  0.3299904E+04  0.7818609E-02  0.8162920E-01
       -1   -1    0    0    0  501  0.00000000000E+00  0.00000000000E+00  0.14073282032E+04  0.14073282032E+04  0.50400001928E-02 0. -1.
        1   -1    0    0  501    0  0.00000000000E+00  0.00000000000E+00 -0.19344044437E+04  0.19344044437E+04  0.50400001928E-02 0.  1.
    10030    2    1    2    0    0  0.00000000000E+00  0.00000000000E+00 -0.52707624049E+03  0.33417326468E+04  0.32999041985E+04 0.  0.
        3    1    3    3  502    0  0.70816719609E+03  0.12976860938E+04 -0.10055274070E+04  0.17878969076E+04  0.10100000352E+00 0. -1.
       -3    1    3    3    0  502 -0.70816719609E+03 -0.12976860938E+04  0.47845116648E+03  0.15538357393E+04  0.10100000352E+00 0.  1.
</event>
<event>
 5   0  0.2244093E-08  0.3307648E+04  0.7818609E-02  0.8160952E-01
       -1   -1    0    0    0  501  0.00000000000E+00  0.00000000000E+00  0.13201195770E+04  0.13201195770E+04  0.50400001928E-02 0.  1.
        1   -1    0    0  501    0  0.00000000000E+00  0.00000000000E+00 -0.20718834160E+04  0.20718834160E+04  0.50400001928E-02 0. -1.
    10030    2    1    2    0    0  0.00000000000E+00  0.00000000000E+00 -0.75176383897E+03  0.33920029930E+04  0.33076480216E+04 0.  0.
        1    1    3    3  502    0  0.18537151794E+02 -0.95614164167E+03  0.10078189912E+04  0.13893342233E+04  0.50400001928E-02 0.  1.
       -1    1    3    3    0  502 -0.18537151794E+02  0.95614164167E+03 -0.17595828301E+04  0.20026687697E+04  0.50400001928E-02 0. -1.
</event>
<event>
 5   0  0.6765252E-08  0.3303609E+04  0.7818609E-02  0.8161978E-01
       -2   -1    0    0    0  501  0.00000000000E+00  0.00000000000E+00  0.11907400985E+04  0.11907400985E+04  0.25500000920E-02 0.  1.
        2   -1    0    0  501    0  0.00000000000E+00  0.00000000000E+00 -0.22913974779E+04  0.22913974779E+04  0.25500000920E-02 0. -1.
    10030    2    1    2    0    0  0.00000000000E+00  0.00000000000E+00 -0.11006573794E+04  0.34821375764E+04  0.33036094554E+04 0.  0.
        2    1    3    3  502    0 -0.11319623840E+03 -0.13296684208E+04 -0.15763964006E+04  0.20653951460E+04  0.25500000920E-02 0. -1.
       -2    1    3    3    0  502  0.11319623840E+03  0.13296684208E+04  0.47573902119E+03  0.14167424303E+04  0.25500000920E-02 0.  1.
</event>
<event>
 5   0  0.2244093E-08  0.3300277E+04  0.7818609E-02  0.8162825E-01
        1   -1    0    0  501    0  0.00000000000E+00  0.00000000000E+00  0.11327161604E+04  0.11327161604E+04  0.50400001928E-02 0. -1.
       -1   -1    0    0    0  501  0.00000000000E+00  0.00000000000E+00 -0.24039179936E+04  0.24039179936E+04  0.50400001928E-02 0.  1.
    10030    2    1    2    0    0  0.00000000000E+00  0.00000000000E+00 -0.12712018332E+04  0.35366341540E+04  0.33002768125E+04 0.  0.
        1    1    3    3  502    0 -0.41788487415E+03  0.68007354678E+02  0.10735210434E+04  0.11539931538E+04  0.50400001928E-02 0. -1.
       -1    1    3    3    0  502  0.41788487415E+03 -0.68007354678E+02 -0.23447228766E+04  0.23826410003E+04  0.50400001928E-02 0.  1.
</event>
<event>
 5   0  0.2291682E-08  0.3300813E+04  0.7818609E-02  0.8162689E-01
       -1   -1    0    0    0  501  0.00000000000E+00  0.00000000000E+00  0.12308260889E+04  0.12308260889E+04  0.50400001928E-02 0. -1.
        1   -1    0    0  501    0  0.00000000000E+00  0.00000000000E+00 -0.22130185315E+04  0.22130185315E+04  0.50400001928E-02 0.  1.
    10030    2    1    2    0    0  0.00000000000E+00  0.00000000000E+00 -0.98219244260E+03  0.34438446205E+04  0.33008125932E+04 0.  0.
        2    1    3    3  502    0  0.98772715061E+03 -0.47699460938E+02 -0.18697014560E+04  0.21151037084E+04  0.25500000920E-02 0.  1.
       -2    1    3    3    0  502 -0.98772715061E+03  0.47699460938E+02  0.88750901340E+03  0.13287409121E+04  0.25500000920E-02 0. -1.
</event>
<event>
 5   0  0.2309822E-08  0.3300517E+04  0.7818609E-02  0.8162764E-01
        1   -1    0    0  501    0  0.00000000000E+00  0.00000000000E+00  0.20590194123E+04  0.20590194123E+04  0.50400001928E-02 0.  1.
       -1   -1    0    0    0  501  0.00000000000E+00  0.00000000000E+00 -0.13226457823E+04  0.13226457823E+04  0.50400001928E-02 0. -1.
    10030    2    1    2    0    0  0.00000000000E+00  0.00000000000E+00  0.73637362994E+03  0.33816651946E+04  0.33005171361E+04 0.  0.
        4    1    3    3  502    0 -0.65168382978E+03  0.76614394642E+02  0.19196117569E+04  0.20286627343E+04  0.12699999809E+01 0.  1.
       -4    1    3    3    0  502  0.65168382978E+03 -0.76614394642E+02 -0.11832381270E+04  0.13530024603E+04  0.12699999809E+01 0. -1.
</event>
<event>
 5   0  0.6603516E-08  0.3294481E+04  0.7818609E-02  0.8164301E-01
       -2   -1    0    0    0  501  0.00000000000E+00  0.00000000000E+00  0.20659733204E+04  0.20659733204E+04  0.25500000920E-02 0.  1.
        2   -1    0    0  501    0  0.00000000000E+00  0.00000000000E+00 -0.13133767520E+04  0.13133767521E+04  0.25500000920E-02 0. -1.
    10030    2    1    2    0    0  0.00000000000E+00  0.00000000000E+00  0.75259656832E+03  0.33793500724E+04  0.32944810391E+04 0.  0.
        1    1    3    3  502    0 -0.13924889606E+04  0.55635055630E+03 -0.32306452518E+03  0.15339237707E+04  0.50400001928E-02 0. -1.
       -1    1    3    3    0  502  0.13924889606E+04 -0.55635055630E+03  0.10756610935E+04  0.18454263017E+04  0.50400001928E-02 0.  1.
</event>
<event>
 5   0  0.7084130E-08  0.3300120E+04  0.7818609E-02  0.8162865E-01
        2   -1    0    0  501    0  0.00000000000E+00  0.00000000000E+00  0.28747938284E+04  0.28747938285E+04  0.25500000920E-02 0.  1.
       -2   -1    0    0    0  501  0.00000000000E+00  0.00000000000E+00 -0.94709333523E+03  0.94709333523E+03  0.25500000920E-02 0. -1.
    10030    2    1    2    0    0  0.00000000000E+00  0.00000000000E+00  0.19277004932E+04  0.38218871637E+04  0.33001200433E+04 0.  0.
        3    1    3    3  502    0 -0.13684425511E+04  0.59985748598E+03  0.17747176785E+04  0.23199325136E+04  0.10100000352E+00 0.  1.
       -3    1    3    3    0  502  0.13684425511E+04 -0.59985748598E+03  0.15298281474E+03  0.15019546501E+04  0.10100000352E+00 0. -1.
</event>
<event>
 5   0  0.2291682E-08  0.3299446E+04  0.7818609E-02  0.8163036E-01
        1   -1    0    0  501    0  0.00000000000E+00  0.00000000000E+00  0.18184597178E+04  0.18184597178E+04  0.50400001928E-02 0.  1.
       -1   -1    0    0    0  501  0.00000000000E+00  0.00000000000E+00 -0.14966435024E+04  0.14966435024E+04  0.50400001928E-02 0. -1.
    10030    2    1    2    0    0  0.00000000000E+00  0.00000000000E+00  0.32181621539E+03  0.33151032201E+04  0.32994459662E+04 0.  0.
        2    1    3    3  502    0 -0.23953600812E+03  0.14807690510E+04  0.85084816758E+03  0.17245280763E+04  0.25500000920E-02 0.  1.
       -2    1    3    3    0  502  0.23953600812E+03 -0.14807690510E+04 -0.52903195219E+03  0.15905751438E+04  0.25500000920E-02 0. -1.
</event>
<event>
 5   0  0.2383270E-08  0.3304685E+04  0.7818609E-02  0.8161704E-01
        1   -1    0    0  501    0  0.00000000000E+00  0.00000000000E+00  0.99730542979E+03  0.99730542981E+03  0.50400001928E-02 0.  1.
       -1   -1    0    0    0  501  0.00000000000E+00  0.00000000000E+00 -0.27376119066E+04  0.27376119066E+04  0.50400001928E-02 0. -1.
    10030    2    1    2    0    0  0.00000000000E+00  0.00000000000E+00 -0.17403064768E+04  0.37349173364E+04  0.33046846864E+04 0.  0.
        5    1    3    3  502    0  0.16033165238E+04 -0.35261089794E+03 -0.10823604528E+04  0.19663378552E+04  0.46999998093E+01 0. -1.
       -5    1    3    3    0  502 -0.16033165238E+04  0.35261089794E+03 -0.65794602396E+03  0.17685794812E+04  0.46999998093E+01 0.  1.
</event>
<event>
 5   0  0.6821287E-08  0.3300202E+04  0.7818609E-02  0.8162844E-01
       -2   -1    0    0    0  501  0.00000000000E+00  0.00000000000E+00  0.13445152571E+04  0.13445152571E+04  0.25500000920E-02 0.  1.
        2   -1    0    0  501    0  0.00000000000E+00  0.00000000000E+00 -0.20251413340E+04  0.20251413340E+04  0.25500000920E-02 0. -1.
    10030    2    1    2    0    0  0.00000000000E+00  0.00000000000E+00 -0.68062607686E+03  0.33696565911E+04  0.33002020674E+04 0.  0.
        5    1    3    3  502    0  0.54523084522E+03  0.12346513622E+04 -0.13095916636E+04  0.18806097618E+04  0.46999998093E+01 0. -1.
       -5    1    3    3    0  502 -0.54523084522E+03 -0.12346513622E+04  0.62896558677E+03  0.14890468293E+04  0.46999998093E+01 0.  1.
</event>
<event>
 5   0  0.6603516E-08  0.3300428E+04  0.7818609E-02  0.8162786E-01
       -2   -1    0    0    0  501  0.00000000000E+00  0.00000000000E+00  0.15542271871E+04  0.15542271871E+04  0.25500000920E-02 0. -1.
        2   -1    0    0  501    0  0.00000000000E+00  0.00000000000E+00 -0.17521293439E+04  0.17521293439E+04  0.25500000920E-02 0.  1.
    10030    2    1    2    0    0  0.00000000000E+00  0.00000000000E+00 -0.19790215684E+03  0.33063565310E+04  0.33004284944E+04 0.  0.
        1    1    3    3  502    0 -0.13247214323E+04  0.54986721003E+03  0.71858224054E+03  0.16042447626E+04  0.50400001928E-02 0. -1.
       -1    1    3    3    0  502  0.13247214323E+04 -0.54986721003E+03 -0.91648439738E+03  0.17021117685E+04  0.50400001928E-02 0.  1.
</event>
<event>
 5   0  0.2200750E-08  0.3297619E+04  0.7818609E-02  0.8163501E-01
       -3   -1    0    0    0  501  0.00000000000E+00  0.00000000000E+00  0.16009495158E+04  0.16009495189E+04  0.10100000352E+00 0. -1.
        3   -1    0    0  501    0  0.00000000000E+00  0.00000000000E+00 -0.16981007430E+04  0.16981007460E+04  0.10100000352E+00 0.  1.
    10030    2    1    2    0    0  0.00000000000E+00  0.00000000000E+00 -0.97151227228E+02  0.32990502649E+04  0.32976194883E+04 0.  0.
        4    1    3    3  502    0  0.12396273226E+04  0.34458940913E+03  0.98296545002E+03  0.16191480626E+04  0.12699999809E+01 0. -1.
       -4    1    3    3    0  502 -0.12396273226E+04 -0.34458940913E+03 -0.10801166772E+04  0.16799022023E+04  0.12699999809E+01 0.  1.
</event>
<event>
 5   0  0.2309822E-08  0.3294996E+04  0.7818609E-02  0.8164170E-01
       -1   -1    0    0    0  501  0.00000000000E+00  0.00000000000E+00  0.18783328696E+04  0.18783328696E+04  0.50400001928E-02 0.  1.
        1   -1    0    0  501    0  0.00000000000E+00  0.00000000000E+00 -0.14450310681E+04  0.14450310681E+04  0.50400001928E-02 0. -1.
    10030    2    1    2    0    0  0.00000000000E+00  0.00000000000E+00  0.43330180157E+03  0.33233639377E+04  0.32949958135E+04 0.  0.
        4    1    3    3  502    0  0.31163765175E+02  0.56981872417E+03 -0.13421592342E+04  0.14584435476E+04  0.12699999809E+01 0. -1.
       -4    1    3    3    0  502 -0.31163765175E+02 -0.56981872417E+03  0.17754610358E+04  0.18649203901E+04  0.12699999809E+01 0.  1.
</event>
<event>
 5   0  0.6706080E-08  0.3300554E+04  0.7818609E-02  0.8162754E-01
        2   -1    0    0  501    0  0.00000000000E+00  0.00000000000E+00  0.19903512772E+04  0.19903512772E+04  0.25500000920E-02 0.  1.
       -2   -1    0    0    0  501  0.00000000000E+00  0.00000000000E+00 -0.13683086445E+04  0.13683086445E+04  0.25500000920E-02 0. -1.
    10030    2    1    2    0    0  0.00000000000E+00  0.00000000000E+00  0.62204263264E+03  0.33586599217E+04  0.33005544130E+04 0.  0.
        4    1    3    3  502    0  0.35538031542E+03  0.42031456814E+03  0.18941912316E+04  0.19725418981E+04  0.12699999809E+01 0.  1.
       -4    1    3    3    0  502 -0.35538031542E+03 -0.42031456814E+03 -0.12721485990E+04  0.13861180237E+04  0.12699999809E+01 0. -1.
</event>
<event>
 5   0  0.6603516E-08  0.3318224E+04  0.7818609E-02  0.8158274E-01
       -2   -1    0    0    0  501  0.00000000000E+00  0.00000000000E+00  0.95376682306E+03  0.95376682306E+03  0.25500000920E-02 0.  1.
        2   -1    0    0  501    0  0.00000000000E+00  0.00000000000E+00 -0.28860858389E+04  0.28860858389E+04  0.25500000920E-02 0. -1.
    10030    2    1    2    0    0  0.00000000000E+00  0.00000000000E+00 -0.19323190159E+04  0.38398526620E+04  0.33182241767E+04 0.  0.
        1    1    3    3  502    0  0.26300129681E+03  0.11993122915E+04  0.32510958307E+03  0.12701243623E+04  0.50400001928E-02 0.  1.
       -1    1    3    3    0  502 -0.26300129681E+03 -0.11993122915E+04 -0.22574285990E+04  0.25697282997E+04  0.50400001928E-02 0. -1.
</event>
<event>
 5   0  0.6821287E-08  0.3291641E+04  0.7818609E-02  0.8165026E-01
       -2   -1    0    0    0  501  0.00000000000E+00  0.00000000000E+00  0.14829408753E+04  0.14829408753E+04  0.25500000920E-02 0.  1.
        2   -1    0    0  501    0  0.00000000000E+00  0.00000000000E+00 -0.18265903587E+04  0.18265903587E+04  0.25500000920E-02 0. -1.
    10030    2    1    2    0    0  0.00000000000E+00  0.00000000000E+00 -0.34364948338E+03  0.33095312341E+04  0.32916412353E+04 0.  0.
        5    1    3    3  502    0 -0.83008332986E+03 -0.13872912258E+04  0.13821485029E+03  0.16225722525E+04  0.46999998093E+01 0.  1.
       -5    1    3    3    0  502  0.83008332986E+03  0.13872912258E+04 -0.48186433367E+03  0.16869589816E+04  0.46999998093E+01 0. -1.
</event>
<event>
 5   0  0.6821287E-08  0.3294300E+04  0.7818609E-02  0.8164347E-01
       -2   -1    0    0    0  501  0.00000000000E+00  0.00000000000E+00  0.16227877690E+04  0.16227877690E+04  0.25500000920E-02 0.  1.
        2   -1    0    0  501    0  0.00000000000E+00  0.00000000000E+00 -0.16718784270E+04  0.16718784270E+04  0.25500000920E-02 0. -1.
    10030    2    1    2    0    0  0.00000000000E+00  0.00000000000E+00 -0.49090657995E+02  0.32946661960E+04  0.32943004493E+04 0.  0.
        5    1    3    3  502    0  0.51569448836E+03 -0.84163993915E+02  0.15376964032E+04  0.16240556337E+04  0.46999998093E+01 0.  1.
       -5    1    3    3    0  502 -0.51569448836E+03  0.84163993915E+02 -0.15867870612E+04  0.16706105622E+04  0.46999998093E+01 0. -1.
</event>
<event>
 5   0  0.6821287E-08  0.3298984E+04  0.7818609E-02  0.8163154E-01
        2   -1    0    0  501    0  0.00000000000E+00  0.00000000000E+00  0.31097456411E+04  0.31097456411E+04  0.25500000920E-02 0.  1.
       -2   -1    0    0    0  501  0.00000000000E+00  0.00000000000E+00 -0.87493433667E+03  0.87493433668E+03  0.25500000920E-02 0. -1.
    10030    2    1    2    0    0  0.00000000000E+00  0.00000000000E+00  0.22348113045E+04  0.39846799778E+04  0.32989836252E+04 0.  0.
        5    1    3    3  502    0  0.92641279430E+03 -0.46081959722E+03 -0.43420352655E+03  0.11221186030E+04  0.46999998093E+01 0. -1.
       -5    1    3    3    0  502 -0.92641279430E+03  0.46081959722E+03  0.26690148310E+04  0.28625613749E+04  0.46999998093E+01 0.  1.
</event>
<event>
 5   0  0.2383270E-08  0.3299046E+04  0.7818609E-02  0.8163138E-01
        1   -1    0    0  501    0  0.00000000000E+00  0.00000000000E+00  0.24892975923E+04  0.24892975923E+04  0.50400001928E-02 0.  1.
       -1   -1    0    0    0  501  0.00000000000E+00  0.00000000000E+00 -0.10930499132E+04  0.10930499132E+04  0.50400001928E-02 0. -1.
    10030    2    1    2    0    0  0.00000000000E+00  0.00000000000E+00  0.13962476791E+04  0.35823475054E+04  0.32990462362E+04 0.  0.
        5    1    3    3  502    0 -0.96297110456E+01  0.72265007493E+03  0.23082180651E+04  0.24187204444E+04  0.46999998093E+01 0.  1.
       -5    1    3    3    0  502  0.96297110456E+01 -0.72265007493E+03 -0.91197038603E+03  0.11636270610E+04  0.46999998093E+01 0. -1.
</event>
<event>
 5   0  0.6603516E-08  0.3300468E+04  0.7818609E-02  0.8162776E-01
       -2   -1    0    0    0  501  0.00000000000E+00  0.00000000000E+00  0.30628959318E+04  0.30628959318E+04  0.25500000920E-02 0. -1.
        2   -1    0    0  501    0  0.00000000000E+00  0.00000000000E+00 -0.88911660741E+03  0.88911660741E+03  0.25500000920E-02 0.  1.
    10030    2    1    2    0    0  0.00000000000E+00  0.00000000000E+00  0.21737793244E+04  0.39520125392E+04  0.33004676273E+04 0.  0.
        1    1    3    3  502    0 -0.14190754347E+04  0.62709473915E+03  0.17602650481E+04  0.23463921115E+04  0.50400001928E-02 0. -1.
       -1    1    3    3    0  502  0.14190754347E+04 -0.62709473915E+03  0.41351427622E+03  0.16056204277E+04  0.50400001928E-02 0.  1.
</event>
<event>
 5   0  0.2291682E-08  0.3302995E+04  0.7818609E-02  0.8162134E-01
        1   -1    0    0  501    0  0.00000000000E+00  0.00000000000E+00  0.12362689860E+04  0.12362689860E+04  0.50400001928E-02 0.  1.
       -1   -1    0    0    0  501  0.00000000000E+00  0.00000000000E+00 -0.22061903203E+04  0.22061903203E+04  0.50400001928E-02 0. -1.
    10030    2    1    2    0    0  0.00000000000E+00  0.00000000000E+00 -0.96992133434E+03  0.34424593063E+04  0.33029954103E+04 0.  0.
        2    1    3    3  502    0 -0.16381601038E+04 -0.77733368087E+02 -0.28223904697E+03  0.16641123405E+04  0.25500000920E-02 0.  1.
       -2    1    3    3    0  502  0.16381601038E+04  0.77733368087E+02 -0.68768228737E+03  0.17783469657E+04  0.25500000920E-02 0. -1.
</event>
<event>
 5   0  0.2291682E-08  0.3302954E+04  0.7818609E-02  0.8162144E-01
        1   -1    0    0  501    0  0.00000000000E+00  0.00000000000E+00  0.26696240165E+04  0.26696240165E+04  0.50400001928E-02 0.  1.
       -1   -1    0    0    0  501  0.00000000000E+00  0.00000000000E+00 -0.10216328198E+04  0.10216328198E+04  0.50400001928E-02 0. -1.
    10030    2    1    2    0    0  0.00000000000E+00  0.00000000000E+00  0.16479911968E+04  0.36912568363E+04  0.33029535339E+04 0.  0.
        2    1    3    3  502    0 -0.69629533181E+03  0.61187489688E+03  0.23514861634E+04  0.25275888224E+04  0.25500000920E-02 0.  1.
       -2    1    3    3    0  502  0.69629533181E+03 -0.61187489688E+03 -0.70349496664E+03  0.11636680139E+04  0.25500000920E-02 0. -1.
</event>
<event>
 5   0  0.2279938E-08  0.3300836E+04  0.7818609E-02  0.8162683E-01
        1   -1    0    0  501    0  0.00000000000E+00  0.00000000000E+00  0.32249176959E+04  0.32249176959E+04  0.50400001928E-02 0. -1.
       -1   -1    0    0    0  501  0.00000000000E+00  0.00000000000E+00 -0.84463545046E+03  0.84463545048E+03  0.50400001928E-02 0.  1.
    10030    2    1    2    0    0  0.00000000000E+00  0.00000000000E+00  0.23802822455E+04  0.40695531464E+04  0.33008361431E+04 0.  0.
        3    1    3    3  502    0 -0.12381464670E+04  0.10823579180E+04  0.10185330904E+04  0.19344030094E+04  0.10100000352E+00 0.  1.
       -3    1    3    3    0  502  0.12381464670E+04 -0.10823579180E+04  0.13617491551E+04  0.21351501371E+04  0.10100000352E+00 0. -1.
</event>
<event>
 5   0  0.6603516E-08  0.3298998E+04  0.7818609E-02  0.8163150E-01
        2   -1    0    0  501    0  0.00000000000E+00  0.00000000000E+00  0.25636178305E+04  0.25636178305E+04  0.25500000920E-02 0.  1.
       -2   -1    0    0    0  501  0.00000000000E+00  0.00000000000E+00 -0.10613307553E+04  0.10613307553E+04  0.25500000920E-02 0. -1.
    10030    2    1    2    0    0  0.00000000000E+00  0.00000000000E+00  0.15022870752E+04  0.36249485858E+04  0.32989976953E+04 0.  0.
        1    1    3    3  502    0 -0.28817938120E+03 -0.10050948265E+04  0.21529610330E+04  0.23934293755E+04  0.50400001928E-02 0.  1.
       -1    1    3    3    0  502  0.28817938120E+03  0.10050948265E+04 -0.65067395777E+03  0.12315192103E+04  0.50400001928E-02 0. -1.
</event>
<event>
 5   0  0.2309822E-08  0.3301787E+04  0.7818609E-02  0.8162441E-01
       -1   -1    0    0    0  501  0.00000000000E+00  0.00000000000E+00  0.16027280366E+04  0.16027280366E+04  0.50400001928E-02 0. -1.
        1   -1    0    0  501    0  0.00000000000E+00  0.00000000000E+00 -0.17005059663E+04  0.17005059663E+04  0.50400001928E-02 0.  1.
    10030    2    1    2    0    0  0.00000000000E+00  0.00000000000E+00 -0.97777929668E+02  0.33032340029E+04  0.33017865398E+04 0.  0.
        4    1    3    3  502    0  0.80579610941E+03 -0.73989379427E+03 -0.12858357692E+04  0.16882314519E+04  0.12699999809E+01 0.  1.
       -4    1    3    3    0  502 -0.80579610941E+03  0.73989379427E+03  0.11880578396E+04  0.16150025510E+04  0.12699999809E+01 0. -1.
</event>
<event>
 5   0  0.2309822E-08  0.3299277E+04  0.7818609E-02  0.8163079E-01
       -1   -1    0    0    0  501  0.00000000000E+00  0.00000000000E+00  0.11994000702E+04  0.11994000702E+04  0.50400001928E-02 0.  1.
        1   -1    0    0  501    0  0.00000000000E+00  0.00000000000E+00 -0.22688903437E+04  0.22688903437E+04  0.50400001928E-02 0. -1.
    10030    2    1    2    0    0  0.00000000000E+00  0.00000000000E+00 -0.10694902735E+04  0.34682904139E+04  0.32992770344E+04 0.  0.
        4    1    3    3  502    0  0.31201281421E+03 -0.32812915392E+03  0.11327960758E+04  0.12199382362E+04  0.12699999809E+01 0.  1.
       -4    1    3    3    0  502 -0.31201281421E+03  0.32812915392E+03 -0.22022863493E+04  0.22483521777E+04  0.12699999809E+01 0. -1.
</event>
<event>
 5   0  0.2383270E-08  0.3300250E+04  0.7818609E-02  0.8162832E-01
        1   -1    0    0  501    0  0.00000000000E+00  0.00000000000E+00  0.14511023826E+04  0.14511023826E+04  0.50400001928E-02 0.  1.
       -1   -1    0    0    0  501  0.00000000000E+00  0.00000000000E+00 -0.18764438761E+04  0.18764438761E+04  0.50400001928E-02 0. -1.
    10030    2    1    2    0    0  0.00000000000E+00  0.00000000000E+00 -0.42534149349E+03  0.33275462587E+04  0.33002497962E+04 0.  0.
        5    1    3    3  502    0  0.16389485337E+04  0.36479583268E+02 -0.22946840024E+02  0.16395217911E+04  0.46999998093E+01 0.  1.
       -5    1    3    3    0  502 -0.16389485337E+04 -0.36479583268E+02 -0.40239465347E+03  0.16880244676E+04  0.46999998093E+01 0. -1.
</event>
<event>
 5   0  0.6765252E-08  0.3299613E+04  0.7818609E-02  0.8162994E-01
       -2   -1    0    0    0  501  0.00000000000E+00  0.00000000000E+00  0.10463277007E+04  0.10463277007E+04  0.25500000920E-02 0.  1.
        2   -1    0    0  501    0  0.00000000000E+00  0.00000000000E+00 -0.26013478195E+04  0.26013478195E+04  0.25500000920E-02 0. -1.
    10030    2    1    2    0    0  0.00000000000E+00  0.00000000000E+00 -0.15550201188E+04  0.36476755202E+04  0.32996134820E+04 0.  0.
        2    1    3    3  502    0 -0.15164125370E+04 -0.62107259630E+03 -0.98907163356E+03  0.19140273897E+04  0.25500000920E-02 0.  1.
       -2    1    3    3    0  502  0.15164125370E+04  0.62107259630E+03 -0.56594848522E+03  0.17336481305E+04  0.25500000920E-02 0. -1.
</event>
<event>
 5   0  0.6706080E-08  0.3301542E+04  0.7818609E-02  0.8162503E-01
        2   -1    0    0  501    0  0.00000000000E+00  0.00000000000E+00  0.16185787697E+04  0.16185787697E+04  0.25500000920E-02 0.  1.
       -2   -1    0    0    0  501  0.00000000000E+00  0.00000000000E+00 -0.16836036410E+04  0.16836036410E+04  0.25500000920E-02 0. -1.
    10030    2    1    2    0    0  0.00000000000E+00  0.00000000000E+00 -0.65024871211E+02  0.33021824107E+04  0.33015421305E+04 0.  0.
        4    1    3    3  502    0 -0.14880072044E+04  0.18711396530E+03  0.65745206455E+03  0.16375047806E+04  0.12699999809E+01 0.  1.
       -4    1    3    3    0  502  0.14880072044E+04 -0.18711396530E+03 -0.72247693576E+03  0.16646776301E+04  0.12699999809E+01 0. -1.
</event>
<event>
 5   0  0.6821287E-08  0.3300260E+04  0.7818609E-02  0.8162829E-01
        2   -1    0    0  501    0  0.00000000000E+00  0.00000000000E+00  0.22349772885E+04  0.22349772885E+04  0.25500000920E-02 0.  1.
       -2   -1    0    0    0  501  0.00000000000E+00  0.00000000000E+00 -0.12183251429E+04  0.12183251429E+04  0.25500000920E-02 0. -1.
    10030    2    1    2    0    0  0.00000000000E+00  0.00000000000E+00  0.10166521455E+04  0.34533024314E+04  0.33002600046E+04 0.  0.
        5    1    3    3  502    0 -0.10107494720E+04  0.38791406370E+03  0.18113922469E+04  0.21102738633E+04  0.46999998093E+01 0.  1.
       -5    1    3    3    0  502  0.10107494720E+04 -0.38791406370E+03 -0.79474010136E+03  0.13430285681E+04  0.46999998093E+01 0. -1.
</event>
<event>
 5   0  0.7084130E-08  0.3299768E+04  0.7818609E-02  0.8162954E-01
       -2   -1    0    0    0  501  0.00000000000E+00  0.00000000000E+00  0.14598657692E+04  0.14598657692E+04  0.25500000920E-02 0. -1.
        2   -1    0    0  501    0  0.00000000000E+00  0.00000000000E+00 -0.18646357050E+04  0.18646357050E+04  0.25500000920E-02 0.  1.
    10030    2    1    2    0    0  0.00000000000E+00  0.00000000000E+00 -0.40476993578E+03  0.33245014743E+04  0.32997683785E+04 0.  0.
        3    1    3    3  502    0  0.15031409914E+04 -0.16742869005E+03 -0.86660845000E+03  0.17431223199E+04  0.10100000352E+00 0.  1.
       -3    1    3    3    0  502 -0.15031409914E+04  0.16742869005E+03  0.46183851422E+03  0.15813791544E+04  0.10100000352E+00 0. -1.
</event>
<event>
 5   0  0.6821287E-08  0.3302423E+04  0.7818609E-02  0.8162279E-01
        2   -1    0    0  501    0  0.00000000000E+00  0.00000000000E+00  0.29206122867E+04  0.29206122867E+04  0.25500000920E-02 0.  1.
       -2   -1    0    0    0  501  0.00000000000E+00  0.00000000000E+00 -0.93353705563E+03  0.93353705564E+03  0.25500000920E-02 0. -1.
    10030    2    1    2    0    0  0.00000000000E+00  0.00000000000E+00  0.19870752311E+04  0.38541493424E+04  0.33024232284E+04 0.  0.
        5    1    3    3  502    0 -0.29974849636E+02  0.26870359691E+03  0.28945954837E+04  0.29071988613E+04  0.46999998093E+01 0.  1.
       -5    1    3    3    0  502  0.29974849636E+02 -0.26870359691E+03 -0.90752025266E+03  0.94695048106E+03  0.46999998093E+01 0. -1.
</event>
<event>
 5   0  0.6765252E-08  0.3299939E+04  0.7818609E-02  0.8162911E-01
       -2   -1    0    0    0  501  0.00000000000E+00  0.00000000000E+00  0.14129240986E+04  0.14129240986E+04  0.25500000920E-02 0. -1.
        2   -1    0    0  501    0  0.00000000000E+00  0.00000000000E+00 -0.19267840333E+04  0.19267840333E+04  0.25500000920E-02 0.  1.
    10030    2    1    2    0    0  0.00000000000E+00  0.00000000000E+00 -0.51385993462E+03  0.33397081319E+04  0.32999391470E+04 0.  0.
        2    1    3    3  502    0 -0.32329436537E+03 -0.46714011391E+03  0.13108224555E+04  0.14286338378E+04  0.25500000920E-02 0. -1.
       -2    1    3    3    0  502  0.32329436537E+03  0.46714011391E+03 -0.18246823901E+04  0.19110742941E+04  0.25500000920E-02 0.  1.
</event>
<event>
 5   0  0.2244093E-08  0.3302910E+04  0.7818609E-02  0.8162155E-01
        1   -1    0    0  501    0  0.00000000000E+00  0.00000000000E+00  0.21246640163E+04  0.21246640163E+04  0.50400001928E-02 0. -1.
       -1   -1    0    0    0  501  0.00000000000E+00  0.00000000000E+00 -0.12836400434E+04  0.12836400435E+04  0.50400001928E-02 0.  1.
    10030    2    1    2    0    0  0.00000000000E+00  0.00000000000E+00  0.84102397282E+03  0.34083040597E+04  0.33029101170E+04 0.  0.
        1    1    3    3  502    0  0.12293814947E+04 -0.10341960841E+04  0.25729537747E+02  0.16067365712E+04  0.50400001928E-02 0.  1.
       -1    1    3    3    0  502 -0.12293814947E+04  0.10341960841E+04  0.81529443507E+03  0.18015674886E+04  0.50400001928E-02 0. -1.
</event>
<event>
 5   0  0.2309822E-08  0.3300296E+04  0.7818609E-02  0.8162820E-01
        1   -1    0    0  501    0  0.00000000000E+00  0.00000000000E+00  0.14873076389E+04  0.14873076389E+04  0.50400001928E-02 0.  1.
       -1   -1    0    0    0  501  0.00000000000E+00  0.00000000000E+00 -0.18308174979E+04  0.18308174979E+04  0.50400001928E-02 0. -1.
    10030    2    1    2    0    0  0.00000000000E+00  0.00000000000E+00 -0.34350985903E+03  0.33181251368E+04  0.33002962594E+04 0.  0.
        4    1    3    3  502    0 -0.85156588331E+03 -0.99623224436E+03  0.83633018031E+03  0.15547002675E+04  0.12699999809E+01 0.  1.
       -4    1    3    3    0  502  0.85156588331E+03  0.99623224436E+03 -0.11798400393E+04  0.17634248693E+04  0.12699999809E+01 0. -1.
</event>
<event>
 5   0  0.6706080E-08  0.3299691E+04  0.7818609E-02  0.8162974E-01
        2   -1    0    0  501    0  0.00000000000E+00  0.00000000000E+00  0.89197449932E+03  0.89197449932E+03  0.25500000920E-02 0. -1.
       -2   -1    0    0    0  501  0.00000000000E+00  0.00000000000E+00 -0.30516460275E+04  0.30516460275E+04  0.25500000920E-02 0.  1.
    10030    2    1    2    0    0  0.00000000000E+00  0.00000000000E+00 -0.21596715282E+04  0.39436205268E+04  0.32996911598E+04 0.  0.
        4    1    3    3  502    0  0.11211669646E+03  0.10588046956E+04  0.42640745551E+03  0.11469361221E+04  0.12699999809E+01 0. -1.
       -4    1    3    3    0  502 -0.11211669646E+03 -0.10588046956E+04 -0.25860789837E+04  0.27966844047E+04  0.12699999809E+01 0.  1.
</event>
<event>
 5   0  0.6706080E-08  0.3299392E+04  0.7818609E-02  0.8163050E-01
        2   -1    0    0  501    0  0.00000000000E+00  0.00000000000E+00  0.11223745052E+04  0.11223745052E+04  0.25500000920E-02 0. -1.
       -2   -1    0    0    0  501  0.00000000000E+00  0.00000000000E+00 -0.24247671309E+04  0.24247671309E+04  0.25500000920E-02 0.  1.
    10030    2    1    2    0    0  0.00000000000E+00  0.00000000000E+00 -0.13023926257E+04  0.35471416361E+04  0.32993919493E+04 0.  0.
        4    1    3    3  502    0  0.50236003645E+03 -0.70701808693E+03  0.85747836027E+03  0.12196355737E+04  0.12699999809E+01 0. -1.
       -4    1    3    3    0  502 -0.50236003645E+03  0.70701808693E+03 -0.21598709859E+04  0.23275060623E+04  0.12699999809E+01 0.  1.
</event>
<event>
 5   0  0.2291682E-08  0.3300412E+04  0.7818609E-02  0.8162791E-01
       -1   -1    0    0    0  501  0.00000000000E+00  0.00000000000E+00  0.76710966312E+03  0.76710966314E+03  0.50400001928E-02 0. -1.
        1   -1    0    0  501    0  0.00000000000E+00  0.00000000000E+00 -0.35499222686E+04  0.35499222686E+04  0.50400001928E-02 0.  1.
    10030    2    1    2    0    0  0.00000000000E+00  0.00000000000E+00 -0.27828126054E+04  0.43170319317E+04  0.33004118989E+04 0.  0.
        2    1    3    3  502    0 -0.37920339038E+03 -0.10001925346E+04 -0.30350515699E+04  0.32180301971E+04  0.25500000920E-02 0.  1.
       -2    1    3    3    0  502  0.37920339038E+03  0.10001925346E+04  0.25223896446E+03  0.10990017346E+04  0.25500000920E-02 0. -1.
</event>
<event>
 5   0  0.2291682E-08  0.3298795E+04  0.7818609E-02  0.8163202E-01
        1   -1    0    0  501    0  0.00000000000E+00  0.00000000000E+00  0.14287754289E+04  0.14287754289E+04  0.50400001928E-02 0.  1.
       -1   -1    0    0    0  501  0.00000000000E+00  0.00000000000E+00 -0.19040862886E+04  0.19040862886E+04  0.50400001928E-02 0. -1.
    10030    2    1    2    0    0  0.00000000000E+00  0.00000000000E+00 -0.47531085971E+03  0.33328617176E+04  0.32987947519E+04 0.  0.
        2    1    3    3  502    0 -0.14761354025E+04  0.24865008546E+03  0.46210758404E+03  0.15666352513E+04  0.25500000920E-02 0.  1.
       -2    1    3    3    0  502  0.14761354025E+04 -0.24865008546E+03 -0.93741844375E+03  0.17662264663E+04  0.25500000920E-02 0. -1.
</event>
<event>
 5   0  0.6765252E-08  0.3300518E+04  0.7818609E-02  0.8162764E-01
        2   -1    0    0  501    0  0.00000000000E+00  0.00000000000E+00  0.25825873937E+04  0.25825873937E+04  0.25500000920E-02 0.  1.
       -2   -1    0    0    0  501  0.00000000000E+00  0.00000000000E+00 -0.10545062774E+04  0.10545062774E+04  0.25500000920E-02 0. -1.
    10030    2    1    2    0    0  0.00000000000E+00  0.00000000000E+00  0.15280811164E+04  0.36370936711E+04  0.33005179100E+04 0.  0.
        2    1    3    3  502    0  0.62949059434E+03 -0.26692072216E+03 -0.89107170757E+03  0.11231713441E+04  0.25500000920E-02 0. -1.
       -2    1    3    3    0  502 -0.62949059434E+03  0.26692072216E+03  0.24191528239E+04  0.25139223269E+04  0.25500000920E-02 0.  1.
</event>
<event>
 5   0  0.7084130E-08  0.3304200E+04  0.7818609E-02  0.8161828E-01
       -2   -1    0    0    0  501  0.00000000000E+00  0.00000000000E+00  0.11697970219E+04  0.11697970219E+04  0.25500000920E-02 0. -1.
        2   -1    0    0  501    0  0.00000000000E+00  0.00000000000E+00 -0.23332544824E+04  0.23332544824E+04  0.25500000920E-02 0.  1.
    10030    2    1    2    0    0  0.00000000000E+00  0.00000000000E+00 -0.11634574605E+04  0.35030515043E+04  0.33041998395E+04 0.  0.
        3    1    3    3  502    0 -0.66852946678E+03 -0.40763598896E+02  0.10194053623E+04  0.12197461301E+04  0.10100000352E+00 0. -1.
       -3    1    3    3    0  502  0.66852946678E+03  0.40763598896E+02 -0.21828628227E+04  0.22833053743E+04  0.10100000352E+00 0.  1.
</event>
<event>
 5   0  0.6765252E-08  0.3300046E+04  0.7818609E-02  0.8162884E-01
       -2   -1    0    0    0  501  0.00000000000E+00  0.00000000000E+00  0.18276530335E+04  0.18276530335E+04  0.25500000920E-02 0. -1.
        2   -1    0    0  501    0  0.00000000000E+00  0.00000000000E+00 -0.14896569415E+04  0.14896569415E+04  0.25500000920E-02 0.  1.
    10030    2    1    2    0    0  0.00000000000E+00  0.00000000000E+00  0.33799609199E+03  0.33173099750E+04  0.33000460772E+04 0.  0.
        2    1    3    3  502    0  0.26524647190E+03  0.42400164288E+03  0.17496242953E+04  0.18197027941E+04  0.25500000920E-02 0. -1.
       -2    1    3    3    0  502 -0.26524647190E+03 -0.42400164288E+03 -0.14116282033E+04  0.14976071809E+04  0.25500000920E-02 0.  1.
</event>
<event>
 5   0  0.6603516E-08  0.3298812E+04  0.7818609E-02  0.8163198E-01
        2   -1    0    0  501    0  0.00000000000E+00  0.00000000000E+00  0.22193911039E+04  0.22193911039E+04  0.25500000920E-02 0. -1.
       -2   -1    0    0    0  501  0.00000000000E+00  0.00000000000E+00 -0.12258050015E+04  0.12258050015E+04  0.25500000920E-02 0.  1.
    10030    2    1    2    0    0  0.00000000000E+00  0.00000000000E+00  0.99358610242E+03  0.34451961054E+04  0.32988123411E+04 0.  0.
        1    1    3    3  502    0  0.12185242623E+03  0.13193687746E+04 -0.52912036341E+03  0.14267271415E+04  0.50400001928E-02 0.  1.
       -1    1    3    3    0  502 -0.12185242623E+03 -0.13193687746E+04  0.15227064658E+04  0.20184689639E+04  0.50400001928E-02 0. -1.
</event>
<event>
 5   0  0.2383270E-08  0.3300722E+04  0.7818609E-02  0.8162712E-01
       -1   -1    0    0    0  501  0.00000000000E+00  0.00000000000E+00  0.12447636268E+04  0.12447636268E+04  0.50400001928E-02 0. -1.
        1   -1    0    0  501    0  0.00000000000E+00  0.00000000000E+00 -0.21881195411E+04  0.21881195412E+04  0.50400001928E-02 0.  1.
    10030    2    1    2    0    0  0.00000000000E+00  0.00000000000E+00 -0.94335591436E+03  0.34328831680E+04  0.33007221125E+04 0.  0.
        5    1    3    3  502    0 -0.98340068535E+02 -0.97707356332E+03  0.90782686243E+03  0.13373538123E+04  0.46999998093E+01 0. -1.
       -5    1    3    3    0  502  0.98340068535E+02  0.97707356332E+03 -0.18511827768E+04  0.20955293556E+04  0.46999998093E+01 0.  1.
</event>
<event>
 5   0  0.6821287E-08  0.3315363E+04  0.7818609E-02  0.8158997E-01
        2   -1    0    0  501    0  0.00000000000E+00  0.00000000000E+00  0.18279181210E+04  0.18279181211E+04  0.25500000920E-02 0. -1.
       -2   -1    0    0    0  501  0.00000000000E+00  0.00000000000E+00 -0.15032994184E+04  0.15032994184E+04  0.25500000920E-02 0.  1.
    10030    2    1    2    0    0  0.00000000000E+00  0.00000000000E+00  0.32461870263E+03  0.33312175395E+04  0.33153631767E+04 0.  0.
        5    1    3    3  502    0 -0.90056984260E+03 -0.10614300904E+04  0.10667395352E+04  0.17537431979E+04  0.46999998093E+01 0. -1.
       -5    1    3    3    0  502  0.90056984260E+03  0.10614300904E+04 -0.74212083257E+03  0.15774743416E+04  0.46999998093E+01 0.  1.
</event>
<event>
 5   0  0.6706080E-08  0.3301060E+04  0.7818609E-02  0.8162626E-01
       -2   -1    0    0    0  501  0.00000000000E+00  0.00000000000E+00  0.27510790306E+04  0.27510790306E+04  0.25500000920E-02 0.  1.
        2   -1    0    0  501    0  0.00000000000E+00  0.00000000000E+00 -0.99024772391E+03  0.99024772392E+03  0.25500000920E-02 0. -1.
    10030    2    1    2    0    0  0.00000000000E+00  0.00000000000E+00  0.17608313067E+04  0.37413267545E+04  0.33010602832E+04 0.  0.
        4    1    3    3  502    0  0.14582780430E+04  0.70682115944E+03  0.52547473739E+03  0.17036127244E+04  0.12699999809E+01 0. -1.
       -4    1    3    3    0  502 -0.14582780430E+04 -0.70682115944E+03  0.12353565693E+04  0.20377140301E+04  0.12699999809E+01 0.  1.
</event>
<event>
 5   0  0.6765252E-08  0.3304264E+04  0.7818609E-02  0.8161811E-01
        2   -1    0    0  501    0  0.00000000000E+00  0.00000000000E+00  0.24290395949E+04  0.24290395949E+04  0.25500000920E-02 0. -1.
       -2   -1    0    0    0  501  0.00000000000E+00  0.00000000000E+00 -0.11237118931E+04  0.11237118931E+04  0.25500000920E-02 0.  1.
    10030    2    1    2    0    0  0.00000000000E+00  0.00000000000E+00  0.13053277018E+04  0.35527514880E+04  0.33042643245E+04 0.  0.
        2    1    3    3  502    0 -0.15813173879E+04  0.25328541304E+03  0.10891779716E+04  0.19367567827E+04  0.25500000920E-02 0.  1.
       -2    1    3    3    0  502  0.15813173879E+04 -0.25328541304E+03  0.21614973026E+03  0.16159947053E+04  0.25500000920E-02 0. -1.
</event>
<event>
 5   0  0.2279938E-08  0.3300164E+04  0.7818609E-02  0.8162854E-01
        1   -1    0    0  501    0  0.00000000000E+00  0.00000000000E+00  0.32407640386E+04  0.32407640386E+04  0.50400001928E-02 0.  1.
       -1   -1    0    0    0  501  0.00000000000E+00  0.00000000000E+00 -0.84016329356E+03  0.84016329358E+03  0.50400001928E-02 0. -1.
    10030    2    1    2    0    0  0.00000000000E+00  0.00000000000E+00  0.24006007450E+04  0.40809273321E+04  0.33001642313E+04 0.  0.
        3    1    3    3  502    0  0.82733349366E+03 -0.12802819541E+04  0.41902995921E+03  0.15808822564E+04  0.10100000352E+00 0.  1.
       -3    1    3    3    0  502 -0.82733349366E+03  0.12802819541E+04  0.19815707858E+04  0.25000450758E+04  0.10100000352E+00 0. -1.
</event>
<event>
 5   0  0.2383270E-08  0.3301198E+04  0.7818609E-02  0.8162591E-01
        1   -1    0    0  501    0  0.00000000000E+00  0.00000000000E+00  0.10586268040E+04  0.10586268040E+04  0.50400001928E-02 0. -1.
       -1   -1    0    0    0  501  0.00000000000E+00  0.00000000000E+00 -0.25735947550E+04  0.25735947550E+04  0.50400001928E-02 0.  1.
    10030    2    1    2    0    0  0.00000000000E+00  0.00000000000E+00 -0.15149679509E+04  0.36322215590E+04  0.33011975950E+04 0.  0.
        5    1    3    3  502    0  0.77336427360E+03  0.14425748729E+04 -0.99176672354E+03  0.19138280715E+04  0.46999998093E+01 0.  1.
       -5    1    3    3    0  502 -0.77336427360E+03 -0.14425748729E+04 -0.52320122739E+03  0.17183934875E+04  0.46999998093E+01 0. -1.
</event>
<event>
 5   0  0.6603516E-08  0.3299178E+04  0.7818609E-02  0.8163105E-01
       -2   -1    0    0    0  501  0.00000000000E+00  0.00000000000E+00  0.21310148847E+04  0.21310148847E+04  0.25500000920E-02 0. -1.
        2   -1    0    0  501    0  0.00000000000E+00  0.00000000000E+00 -0.12769240684E+04  0.12769240684E+04  0.25500000920E-02 0.  1.
    10030    2    1    2    0    0  0.00000000000E+00  0.00000000000E+00  0.85409081625E+03  0.34079389531E+04  0.32991781985E+04 0.  0.
        1    1    3    3  502    0 -0.12381005211E+04  0.64870711043E+03 -0.47786488209E+03  0.14771826769E+04  0.50400001928E-02 0.  1.
       -1    1    3    3    0  502  0.12381005211E+04 -0.64870711043E+03  0.13319556983E+04  0.19307562761E+04  0.50400001928E-02 0. -1.
</event>
<event>
 5   0  0.6821287E-08  0.3298489E+04  0.7818609E-02  0.8163280E-01
       -2   -1    0    0    0  501  0.00000000000E+00  0.00000000000E+00  0.11271116353E+04  0.11271116353E+04  0.25500000920E-02 0.  1.
        2   -1    0    0  501    0  0.00000000000E+00  0.00000000000E+00 -0.24132543074E+04  0.24132543074E+04  0.25500000920E-02 0. -1.
    10030    2    1    2    0    0  0.00000000000E+00  0.00000000000E+00 -0.12861426721E+04  0.35403659427E+04  0.32984887502E+04 0.  0.
        5    1    3    3  502    0  0.13096227927E+04 -0.10006188689E+04 -0.57835980074E+03  0.17466745916E+04  0.46999998093E+01 0. -1.
       -5    1    3    3    0  502 -0.13096227927E+04  0.10006188689E+04 -0.70778287132E+03  0.17936913511E+04  0.46999998093E+01 0.  1.
</event>
<event>
 5   0  0.6821287E-08  0.3299791E+04  0.7818609E-02  0.8162949E-01
        2   -1    0    0  501    0  0.00000000000E+00  0.00000000000E+00  0.20591791657E+04  0.20591791657E+04  0.25500000920E-02 0.  1.
       -2   -1    0    0    0  501  0.00000000000E+00  0.00000000000E+00 -0.13219614100E+04  0.13219614100E+04  0.25500000920E-02 0. -1.
    10030    2    1    2    0    0  0.00000000000E+00  0.00000000000E+00  0.73721775571E+03  0.33811405756E+04  0.32997911408E+04 0.  0.
        5    1    3    3  502    0  0.39268584483E+03 -0.10549313309E+04 -0.86738376546E+03  0.14210766947E+04  0.46999998093E+01 0. -1.
       -5    1    3    3    0  502 -0.39268584483E+03  0.10549313309E+04  0.16046015212E+04  0.19600638809E+04  0.46999998093E+01 0.  1.
</event>
<event>
 5   0  0.2309822E-08  0.3299435E+04  0.7818609E-02  0.8163039E-01
        1   -1    0    0  501    0  0.00000000000E+00  0.00000000000E+00  0.17520074165E+04  0.17520074165E+04  0.50400001928E-02 0.  1.
       -1   -1    0    0    0  501  0.00000000000E+00  0.00000000000E+00 -0.15533996337E+04  0.15533996337E+04  0.50400001928E-02 0. -1.
    10030    2    1    2    0    0  0.00000000000E+00  0.00000000000E+00  0.19860778279E+03  0.33054070502E+04  0.32994349086E+04 0.  0.
        4    1    3    3  502    0 -0.21546255773E+03  0.11514244173E+03  0.17337852090E+04  0.17509125219E+04  0.12699999809E+01 0.  1.
       -4    1    3    3    0  502  0.21546255773E+03 -0.11514244173E+03 -0.15351774262E+04  0.15544945283E+04  0.12699999809E+01 0. -1.
</event>
<event>
 5   0  0.2309822E-08  0.3312605E+04  0.7818609E-02  0.8159695E-01
       -1   -1    0    0    0  501  0.00000000000E+00  0.00000000000E+00  0.13005980414E+04  0.13005980414E+04  0.50400001928E-02 0.  1.
        1   -1    0    0  501    0  0.00000000000E+00  0.00000000000E+00 -0.21092896041E+04  0.21092896041E+04  0.50400001928E-02 0. -1.
    10030    2    1    2    0    0  0.00000000000E+00  0.00000000000E+00 -0.80869156275E+03  0.34098876455E+04  0.33126049736E+04 0.  0.
        4    1    3    3  502    0  0.31724480694E+03 -0.16101361871E+04 -0.17381916787E+03  0.16502719547E+04  0.12699999809E+01 0.  1.
       -4    1    3    3    0  502 -0.31724480694E+03  0.16101361871E+04 -0.63487239488E+03  0.17596156908E+04  0.12699999809E+01 0. -1.
</event>
<event>
 5   0  0.2291682E-08  0.3300028E+04  0.7818609E-02  0.8162888E-01
        1   -1    0    0  501    0  0.00000000000E+00  0.00000000000E+00  0.22299817360E+04  0.22299817361E+04  0.50400001928E-02 0.  1.
       -1   -1    0    0    0  501  0.00000000000E+00  0.00000000000E+00 -0.12208824256E+04  0.12208824256E+04  0.50400001928E-02 0. -1.
    10030    2    1    2    0    0  0.00000000000E+00  0.00000000000E+00  0.10090993105E+04  0.34508641616E+04  0.33000275823E+04 0.  0.
        2    1    3    3  502    0  0.13390174832E+04 -0.74183741256E+03  0.11485349046E+04  0.19137458019E+04  0.25500000920E-02 0.  1.
       -2    1    3    3    0  502 -0.13390174832E+04  0.74183741256E+03 -0.13943559411E+03  0.15371183598E+04  0.25500000920E-02 0. -1.
</event>
<event>
 5   0  0.6603516E-08  0.3298285E+04  0.7818609E-02  0.8163332E-01
       -2   -1    0    0    0  501  0.00000000000E+00  0.00000000000E+00  0.26516880660E+04  0.26516880660E+04  0.25500000920E-02 0.  1.
        2   -1    0    0  501    0  0.00000000000E+00  0.00000000000E+00 -0.10256377100E+04  0.10256377100E+04  0.25500000920E-02 0. -1.
    10030    2    1    2    0    0  0.00000000000E+00  0.00000000000E+00  0.16260503561E+04  0.36773257760E+04  0.32982851760E+04 0.  0.
        1    1    3    3  502    0 -0.57177247121E+03  0.15225196186E+04  0.50834058101E+03  0.17039365875E+04  0.50400001928E-02 0.  1.
       -1    1    3    3    0  502  0.57177247121E+03 -0.15225196186E+04  0.11177097750E+04  0.19733891885E+04  0.50400001928E-02 0. -1.
</event>
<event>
 5   0  0.6821287E-08  0.3300174E+04  0.7818609E-02  0.8162851E-01
        2   -1    0    0  501    0  0.00000000000E+00  0.00000000000E+00  0.21627721816E+04  0.21627721816E+04  0.25500000920E-02 0.  1.
       -2   -1    0    0    0  501  0.00000000000E+00  0.00000000000E+00 -0.12589337267E+04  0.12589337267E+04  0.25500000920E-02 0. -1.
    10030    2    1    2    0    0  0.00000000000E+00  0.00000000000E+00  0.90383845496E+03  0.34217059083E+04  0.33001738394E+04 0.  0.
        5    1    3    3  502    0  0.98053540355E+03 -0.10177568510E+04  0.13350406107E+04  0.19441281356E+04  0.46999998093E+01 0.  1.
       -5    1    3    3    0  502 -0.98053540355E+03  0.10177568510E+04 -0.43120215572E+03  0.14775777727E+04  0.46999998093E+01 0. -1.
</event>
<event>
 5   0  0.7084130E-08  0.3299882E+04  0.7818609E-02  0.8162925E-01
        2   -1    0    0  501    0  0.00000000000E+00  0.00000000000E+00  0.93222169031E+03  0.93222169032E+03  0.25500000920E-02 0.  1.
       -2   -1    0    0    0  501  0.00000000000E+00  0.00000000000E+00 -0.29202344983E+04  0.29202344983E+04  0.25500000920E-02 0. -1.
    10030    2    1    2    0    0  0.00000000000E+00  0.00000000000E+00 -0.19880128080E+04  0.38524561887E+04  0.32998823859E+04 0.  0.
        3    1    3    3  502    0  0.15758245078E+03  0.94794797662E+03  0.57180314023E+03  0.11182112665E+04  0.10100000352E+00 0.  1.
       -3    1    3    3    0  502 -0.15758245078E+03 -0.94794797662E+03 -0.25598159483E+04  0.27342449222E+04  0.10100000352E+00 0. -1.
</event>
<event>
 5   0  0.2309822E-08  0.3300031E+04  0.7818609E-02  0.8162888E-01
        1   -1    0    0  501    0  0.00000000000E+00  0.00000000000E+00  0.29546704759E+04  0.29546704759E+04  0.50400001928E-02 0.  1.
       -1   -1    0    0    0  501  0.00000000000E+00  0.00000000000E+00 -0.92143968366E+03  0.92143968368E+03  0.50400001928E-02 0. -1.
    10030    2    1    2    0    0  0.00000000000E+00  0.00000000000E+00  0.20332307923E+04  0.38761101596E+04  0.33000306839E+04 0.  0.
        4    1    3    3  502    0 -0.13143191689E+04 -0.92549881538E+03  0.57938877159E+03  0.17087059128E+04  0.12699999809E+01 0. -1.
       -4    1    3    3    0  502  0.13143191689E+04  0.92549881538E+03  0.14538420207E+04  0.21674042468E+04  0.12699999809E+01 0.  1.
</event>
<event>
 5   0  0.6603516E-08  0.3299983E+04  0.7818609E-02  0.8162900E-01
        2   -1    0    0  501    0  0.00000000000E+00  0.00000000000E+00  0.17137719606E+04  0.17137719606E+04  0.25500000920E-02 0.  1.
       -2   -1    0    0    0  501  0.00000000000E+00  0.00000000000E+00 -0.15885845772E+04  0.15885845772E+04  0.25500000920E-02 0. -1.
    10030    2    1    2    0    0  0.00000000000E+00  0.00000000000E+00  0.12518738343E+03  0.33023565378E+04  0.32999828517E+04 0.  0.
        1    1    3    3  502    0  0.39644372471E+02 -0.12625110526E+04 -0.99975639796E+03  0.16109061703E+04  0.50400001928E-02 0. -1.
       -1    1    3    3    0  502 -0.39644372471E+02  0.12625110526E+04  0.11249437814E+04  0.16914503674E+04  0.50400001928E-02 0.  1.
</event>
<event>
 5   0  0.2309822E-08  0.3298768E+04  0.7818609E-02  0.8163209E-01
        1   -1    0    0  501    0  0.00000000000E+00  0.00000000000E+00  0.19522038234E+04  0.19522038234E+04  0.50400001928E-02 0.  1.
       -1   -1    0    0    0  501  0.00000000000E+00  0.00000000000E+00 -0.13935370209E+04  0.13935370209E+04  0.50400001928E-02 0. -1.
    10030    2    1    2    0    0  0.00000000000E+00  0.00000000000E+00  0.55866680249E+03  0.33457408442E+04  0.32987684370E+04 0.  0.
        4    1    3    3  502    0 -0.73308779176E+03  0.12660387936E+04  0.10518847676E+04  0.18018698939E+04  0.12699999809E+01 0.  1.
       -4    1    3    3    0  502  0.73308779176E+03 -0.12660387936E+04 -0.49321796508E+03  0.15438709504E+04  0.12699999809E+01 0. -1.
</event>
<event>
 5   0  0.7084130E-08  0.3299776E+04  0.7818609E-02  0.8162952E-01
       -2   -1    0    0    0  501  0.00000000000E+00  0.00000000000E+00  0.22700704606E+04  0.22700704606E+04  0.25500000920E-02 0.  1.
        2   -1    0    0  501    0  0.00000000000E+00  0.00000000000E+00 -0.11991394629E+04  0.11991394629E+04  0.25500000920E-02 0. -1.
    10030    2    1    2    0    0  0.00000000000E+00  0.00000000000E+00  0.10709309977E+04  0.34692099235E+04  0.32997764003E+04 0.  0.
        3    1    3    3  502    0 -0.41191508828E+03  0.23541947612E+03  0.21968048650E+04  0.22474536692E+04  0.10100000352E+00 0.  1.
       -3    1    3    3    0  502  0.41191508828E+03 -0.23541947612E+03 -0.11258738674E+04  0.12217562544E+04  0.10100000352E+00 0. -1.
</event>
<event>
 5   0  0.6706080E-08  0.3299747E+04  0.7818609E-02  0.8162960E-01
        2   -1    0    0  501    0  0.00000000000E+00  0.00000000000E+00  0.26351337053E+04  0.26351337053E+04  0.25500000920E-02 0.  1.
       -2   -1    0    0    0  501  0.00000000000E+00  0.00000000000E+00 -0.10329959800E+04  0.10329959800E+04  0.25500000920E-02 0. -1.
    10030    2    1    2    0    0  0.00000000000E+00  0.00000000000E+00  0.16021377253E+04  0.36681296853E+04  0.32997469747E+04 0.  0.
        4    1    3    3  502    0  0.91450002525E+03 -0.10569109556E+04 -0.17357345607E+03  0.14083679994E+04  0.12699999809E+01 0. -1.
       -4    1    3    3    0  502 -0.91450002525E+03  0.10569109556E+04  0.17757111814E+04  0.22597616859E+04  0.12699999809E+01 0.  1.
</event>
<event>
 5   0  0.2244093E-08  0.3299496E+04  0.7818609E-02  0.8163024E-01
       -1   -1    0    0    0  501  0.00000000000E+00  0.00000000000E+00  0.11518128109E+04  0.11518128109E+04  0.50400001928E-02 0. -1.
        1   -1    0    0  501    0  0.00000000000E+00  0.00000000000E+00 -0.23629439450E+04  0.23629439450E+04  0.50400001928E-02 0.  1.
    10030    2    1    2    0    0  0.00000000000E+00  0.00000000000E+00 -0.12111311340E+04  0.35147567559E+04  0.32994963903E+04 0.  0.
        1    1    3    3  502    0  0.10192846886E+04 -0.69712063760E+03  0.55976584277E+03  0.13558230927E+04  0.50400001928E-02 0. -1.
       -1    1    3    3    0  502 -0.10192846886E+04  0.69712063760E+03 -0.17708969768E+04  0.21589336632E+04  0.50400001928E-02 0.  1.
</event>
<event>
 5   0  0.6603516E-08  0.3299795E+04  0.7818609E-02  0.8162948E-01
        2   -1    0    0  501    0  0.00000000000E+00  0.00000000000E+00  0.18816822361E+04  0.18816822361E+04  0.25500000920E-02 0. -1.
       -2   -1    0    0    0  501  0.00000000000E+00  0.00000000000E+00 -0.14466638549E+04  0.14466638549E+04  0.25500000920E-02 0.  1.
    10030    2    1    2    0    0  0.00000000000E+00  0.00000000000E+00  0.43501838123E+03  0.33283460910E+04  0.32997949496E+04 0.  0.
        1    1    3    3  502    0  0.13323730674E+04  0.65923433832E+02 -0.76176595845E+03  0.15361807398E+04  0.50400001928E-02 0.  1.
       -1    1    3    3    0  502 -0.13323730674E+04 -0.65923433832E+02  0.11967843397E+04  0.17921653511E+04  0.50400001928E-02 0. -1.
</event>
<event>
 5   0  0.2383270E-08  0.3299303E+04  0.7818609E-02  0.8163073E-01
       -1   -1    0    0    0  501  0.00000000000E+00  0.00000000000E+00  0.15939101095E+04  0.15939101095E+04  0.50400001928E-02 0. -1.
        1   -1    0    0  501    0  0.00000000000E+00  0.00000000000E+00 -0.17073423059E+04  0.17073423060E+04  0.50400001928E-02 0.  1.
    10030    2    1    2    0    0  0.00000000000E+00  0.00000000000E+00 -0.11343219648E+03  0.33012524154E+04  0.32993030548E+04 0.  0.
        5    1    3    3  502    0 -0.12842702320E+04 -0.10352307818E+04 -0.40114990627E+02  0.16500557878E+04  0.46999998093E+01 0. -1.
       -5    1    3    3    0  502  0.12842702320E+04  0.10352307818E+04 -0.73317205851E+02  0.16511966276E+04  0.46999998093E+01 0.  1.
</event>
<event>
 5   0  0.2383270E-08  0.3299350E+04  0.7818609E-02  0.8163061E-01
        1   -1    0    0  501    0  0.00000000000E+00  0.00000000000E+00  0.24682199162E+04  0.24682199162E+04  0.50400001928E-02 0.  1.
       -1   -1    0    0    0  501  0.00000000000E+00  0.00000000000E+00 -0.11025873123E+04  0.11025873123E+04  0.50400001928E-02 0. -1.
    10030    2    1    2    0    0  0.00000000000E+00  0.00000000000E+00  0.13656326039E+04  0.35708072285E+04  0.32993502169E+04 0.  0.
        5    1    3    3  502    0 -0.62438556572E+03 -0.48986024677E+02 -0.96890441326E+03  0.11537134901E+04  0.46999998093E+01 0. -1.
       -5    1    3    3    0  502  0.62438556572E+03  0.48986024677E+02  0.23345370172E+04  0.24170937383E+04  0.46999998093E+01 0.  1.
</event>
<event>
 5   0  0.2244093E-08  0.3300471E+04  0.7818609E-02  0.8162775E-01
       -1   -1    0    0    0  501  0.00000000000E+00  0.00000000000E+00  0.10689514157E+04  0.10689514157E+04  0.50400001928E-02 0. -1.
        1   -1    0    0  501    0  0.00000000000E+00  0.00000000000E+00 -0.25476159578E+04  0.25476159578E+04  0.50400001928E-02 0.  1.
    10030    2    1    2    0    0  0.00000000000E+00  0.00000000000E+00 -0.14786645421E+04  0.36165673735E+04  0.33004712904E+04 0.  0.
        1    1    3    3  502    0 -0.31384612254E+03 -0.95260927057E+03 -0.21753025129E+04  0.23953924174E+04  0.50400001928E-02 0.  1.
       -1    1    3    3    0  502  0.31384612254E+03  0.95260927057E+03  0.69663797071E+03  0.12211749560E+04  0.50400001928E-02 0. -1.
</event>
<event>
 5   0  0.2279938E-08  0.3301200E+04  0.7818609E-02  0.8162590E-01
        1   -1    0    0  501    0  0.00000000000E+00  0.00000000000E+00  0.10074261246E+04  0.10074261246E+04  0.50400001928E-02 0.  1.
       -1   -1    0    0    0  501  0.00000000000E+00  0.00000000000E+00 -0.27043967749E+04  0.27043967749E+04  0.50400001928E-02 0. -1.
    10030    2    1    2    0    0  0.00000000000E+00  0.00000000000E+00 -0.16969706503E+04  0.37118228994E+04  0.33011997590E+04 0.  0.
        3    1    3    3  502    0 -0.16460697364E+04 -0.31957306852E+02 -0.98111096127E+03  0.19165452187E+04  0.10100000352E+00 0. -1.
       -3    1    3    3    0  502  0.16460697364E+04  0.31957306852E+02 -0.71585968901E+03  0.17952776808E+04  0.10100000352E+00 0.  1.
</event>
<event>
 5   0  0.2279938E-08  0.3299116E+04  0.7818609E-02  0.8163120E-01
        1   -1    0    0  501    0  0.00000000000E+00  0.00000000000E+00  0.25739242642E+04  0.25739242642E+04  0.50400001928E-02 0.  1.
       -1   -1    0    0    0  501  0.00000000000E+00  0.00000000000E+00 -0.10571570938E+04  0.10571570938E+04  0.50400001928E-02 0. -1.
    10030    2    1    2    0    0  0.00000000000E+00  0.00000000000E+00  0.15167671703E+04  0.36310813580E+04  0.32991164240E+04 0.  0.
        3    1    3    3  502    0  0.46325837609E+03  0.15770473528E+04  0.91150705240E+03  0.18795030707E+04  0.10100000352E+00 0.  1.
       -3    1    3    3    0  502 -0.46325837609E+03 -0.15770473528E+04  0.60526011794E+03  0.17515782873E+04  0.10100000352E+00 0. -1.
</event>
<event>
 5   0  0.2309822E-08  0.3300458E+04  0.7818609E-02  0.8162779E-01
       -1   -1    0    0    0  501  0.00000000000E+00  0.00000000000E+00  0.14688652463E+04  0.14688652463E+04  0.50400001928E-02 0. -1.
        1   -1    0    0  501    0  0.00000000000E+00  0.00000000000E+00 -0.18539855862E+04  0.18539855862E+04  0.50400001928E-02 0.  1.
    10030    2    1    2    0    0  0.00000000000E+00  0.00000000000E+00 -0.38512033986E+03  0.33228508325E+04  0.33004575409E+04 0.  0.
        4    1    3    3  502    0 -0.13643829681E+04  0.12030440502E+03 -0.11192614316E+04  0.17688306303E+04  0.12699999809E+01 0.  1.
       -4    1    3    3    0  502  0.13643829681E+04 -0.12030440502E+03  0.73414109170E+03  0.15540202022E+04  0.12699999809E+01 0. -1.
</event>
<event>
 5   0  0.2279938E-08  0.3300138E+04  0.7818609E-02  0.8162860E-01
        1   -1    0    0  501    0  0.00000000000E+00  0.00000000000E+00  0.15373164939E+04  0.15373164939E+04  0.50400001928E-02 0. -1.
       -1   -1    0    0    0  501  0.00000000000E+00  0.00000000000E+00 -0.17710908920E+04  0.17710908920E+04  0.50400001928E-02 0.  1.
    10030    2    1    2    0    0  0.00000000000E+00  0.00000000000E+00 -0.23377439803E+03  0.33084073859E+04  0.33001377186E+04 0.  0.
        3    1    3    3  502    0  0.12915571230E+03 -0.12607789952E+04 -0.11761722667E+04  0.17290535225E+04  0.10100000352E+00 0.  1.
       -3    1    3    3    0  502 -0.12915571230E+03  0.12607789952E+04  0.94239786867E+03  0.15793538634E+04  0.10100000352E+00 0. -1.
</event>
<event>
 5   0  0.2244093E-08  0.3298764E+04  0.7818609E-02  0.8163210E-01
       -1   -1    0    0    0  501  0.00000000000E+00  0.00000000000E+00  0.17483352427E+04  0.17483352428E+04  0.50400001928E-02 0.  1.
        1   -1    0    0  501    0  0.00000000000E+00  0.00000000000E+00 -0.15560289363E+04  0.15560289363E+04  0.50400001928E-02 0. -1.
    10030    2    1    2    0    0  0.00000000000E+00  0.00000000000E+00  0.19230630646E+03  0.33043641791E+04  0.32987635430E+04 0.  0.
        1    1    3    3  502    0  0.43053167378E+03 -0.58885175794E+03  0.15779741268E+04  0.17384206222E+04  0.50400001928E-02 0.  1.
       -1    1    3    3    0  502 -0.43053167378E+03  0.58885175794E+03 -0.13856678203E+04  0.15659435568E+04  0.50400001928E-02 0. -1.
</event>
<event>
 5   0  0.2383270E-08  0.3298670E+04  0.7818609E-02  0.8163234E-01
        1   -1    0    0  501    0  0.00000000000E+00  0.00000000000E+00  0.16616905847E+04  0.16616905847E+04  0.50400001928E-02 0.  1.
       -1   -1    0    0    0  501  0.00000000000E+00  0.00000000000E+00 -0.16370714844E+04  0.16370714844E+04  0.50400001928E-02 0. -1.
    10030    2    1    2    0    0  0.00000000000E+00  0.00000000000E+00  0.24619100350E+02  0.32987620691E+04  0.32986702000E+04 0.  0.
        5    1    3    3  502    0  0.36210738381E+03 -0.81617577713E+03 -0.13744588662E+04  0.16390313973E+04  0.46999998093E+01 0. -1.
       -5    1    3    3    0  502 -0.36210738381E+03  0.81617577713E+03  0.13990779665E+04  0.16597306718E+04  0.46999998093E+01 0.  1.
</event>
<event>
 5   0  0.7084130E-08  0.3299997E+04  0.7818609E-02  0.8162896E-01
        2   -1    0    0  501    0  0.00000000000E+00  0.00000000000E+00  0.10249182321E+04  0.10249182321E+04  0.25500000920E-02 0. -1.
       -2   -1    0    0    0  501  0.00000000000E+00  0.00000000000E+00 -0.26563053546E+04  0.26563053546E+04  0.25500000920E-02 0.  1.
    10030    2    1    2    0    0  0.00000000000E+00  0.00000000000E+00 -0.16313871225E+04  0.36812235867E+04  0.32999974473E+04 0.  0.
        3    1    3    3  502    0  0.92894770544E+03 -0.24854776559E+03 -0.23114000400E+04  0.25034556090E+04  0.10100000352E+00 0.  1.
       -3    1    3    3    0  502 -0.92894770544E+03  0.24854776559E+03  0.68001291746E+03  0.11777679777E+04  0.10100000352E+00 0. -1.
</event>
<event>
 5   0  0.6765252E-08  0.3299643E+04  0.7818609E-02  0.8162986E-01
       -2   -1    0    0    0  501  0.00000000000E+00  0.00000000000E+00  0.21624582277E+04  0.21624582277E+04  0.25500000920E-02 0. -1.
        2   -1    0    0  501    0  0.00000000000E+00  0.00000000000E+00 -0.12587112871E+04  0.12587112871E+04  0.25500000920E-02 0.  1.
    10030    2    1    2    0    0  0.00000000000E+00  0.00000000000E+00  0.90374694066E+03  0.34211695148E+04  0.32996427558E+04 0.  0.
        2    1    3    3  502    0 -0.98128569458E+03 -0.57988950324E+03 -0.78483390600E+03  0.13838922322E+04  0.25500000920E-02 0. -1.
       -2    1    3    3    0  502  0.98128569458E+03  0.57988950324E+03  0.16885808467E+04  0.20372772826E+04  0.25500000920E-02 0.  1.
</event>
<event>
 5   0  0.2383270E-08  0.3299522E+04  0.7818609E-02  0.8163017E-01
       -1   -1    0    0    0  501  0.00000000000E+00  0.00000000000E+00  0.14457769054E+04  0.14457769054E+04  0.50400001928E-02 0.  1.
        1   -1    0    0  501    0  0.00000000000E+00  0.00000000000E+00 -0.18825249158E+04  0.18825249158E+04  0.50400001928E-02 0. -1.
    10030    2    1    2    0    0  0.00000000000E+00  0.00000000000E+00 -0.43674801043E+03  0.33283018212E+04  0.32995218121E+04 0.  0.
        5    1    3    3  502    0  0.13611043074E+04  0.60535021747E+03  0.49677760507E+03  0.15703069446E+04  0.46999998093E+01 0.  1.
       -5    1    3    3    0  502 -0.13611043074E+04 -0.60535021747E+03 -0.93352561550E+03  0.17579948766E+04  0.46999998093E+01 0. -1.
</event>
<event>
 5   0  0.7084130E-08  0.3315796E+04  0.7818609E-02  0.8158888E-01
       -2   -1    0    0    0  501  0.00000000000E+00  0.00000000000E+00  0.14181389751E+04  0.14181389751E+04  0.25500000920E-02 0.  1.
        2   -1    0    0  501    0  0.00000000000E+00  0.00000000000E+00 -0.19381920039E+04  0.19381920039E+04  0.25500000920E-02 0. -1.
    10030    2    1    2    0    0  0.00000000000E+00  0.00000000000E+00 -0.52005302888E+03  0.33563309790E+04  0.33157959056E+04 0.  0.
        3    1    3    3  502    0  0.43623438739E+03  0.15754401756E+04 -0.53965245674E+03  0.17214926581E+04  0.10100000352E+00 0. -1.
       -3    1    3    3    0  502 -0.43623438739E+03 -0.15754401756E+04  0.19599427856E+02  0.16348383209E+04  0.10100000352E+00 0.  1.
</event>
<event>
 5   0  0.6603516E-08  0.3287855E+04  0.7818609E-02  0.8165993E-01
        2   -1    0    0  501    0  0.00000000000E+00  0.00000000000E+00  0.16284002522E+04  0.16284002522E+04  0.25500000920E-02 0.  1.
       -2   -1    0    0    0  501  0.00000000000E+00  0.00000000000E+00 -0.16596029187E+04  0.16596029187E+04  0.25500000920E-02 0. -1.
    10030    2    1    2    0    0  0.00000000000E+00  0.00000000000E+00 -0.31202666469E+02  0.32880031710E+04  0.32878551133E+04 0.  0.
        1    1    3    3  502    0 -0.10781110850E+04 -0.95690090786E+03  0.77469683805E+03  0.16365017721E+04  0.50400001928E-02 0.  1.
       -1    1    3    3    0  502  0.10781110850E+04  0.95690090786E+03 -0.80589950452E+03  0.16515013989E+04  0.50400001928E-02 0. -1.
</event>
<event>
 5   0  0.6706080E-08  0.3299823E+04  0.7818609E-02  0.8162940E-01
        2   -1    0    0  501    0  0.00000000000E+00  0.00000000000E+00  0.23960114388E+04  0.23960114388E+04  0.25500000920E-02 0.  1.
       -2   -1    0    0    0  501  0.00000000000E+00  0.00000000000E+00 -0.11361413542E+04  0.11361413542E+04  0.25500000920E-02 0. -1.
    10030    2    1    2    0    0  0.00000000000E+00  0.00000000000E+00  0.12598700846E+04  0.35321527931E+04  0.32998228321E+04 0.  0.
        4    1    3    3  502    0 -0.94015950407E+03  0.42924143548E+03  0.20065872045E+04  0.22571091965E+04  0.12699999809E+01 0.  1.
       -4    1    3    3    0  502  0.94015950407E+03 -0.42924143548E+03 -0.74671711989E+03  0.12750435965E+04  0.12699999809E+01 0. -1.
</event>
<event>
 5   0  0.6765252E-08  0.3299524E+04  0.7818609E-02  0.8163016E-01
        2   -1    0    0  501    0  0.00000000000E+00  0.00000000000E+00  0.23546263565E+04  0.23546263565E+04  0.25500000920E-02 0.  1.
       -2   -1    0    0    0  501  0.00000000000E+00  0.00000000000E+00 -0.11559010104E+04  0.11559010104E+04  0.25500000920E-02 0. -1.
    10030    2    1    2    0    0  0.00000000000E+00  0.00000000000E+00  0.11987253461E+04  0.35105273669E+04  0.32995241988E+04 0.  0.
        2    1    3    3  502    0 -0.52544197629E+03  0.14803683412E+04  0.63006192549E+02  0.15721162413E+04  0.25500000920E-02 0. -1.
       -2    1    3    3    0  502  0.52544197629E+03 -0.14803683412E+04  0.11357191535E+04  0.19384111256E+04  0.25500000920E-02 0.  1.
</event>
<event>
 5   0  0.2383270E-08  0.3298679E+04  0.7818609E-02  0.8163232E-01
       -1   -1    0    0    0  501  0.00000000000E+00  0.00000000000E+00  0.11740621034E+04  0.11740621034E+04  0.50400001928E-02 0. -1.
        1   -1    0    0  501    0  0.00000000000E+00  0.00000000000E+00 -0.23170163532E+04  0.23170163532E+04  0.50400001928E-02 0.  1.
    10030    2    1    2    0    0  0.00000000000E+00  0.00000000000E+00 -0.11429542498E+04  0.34910784566E+04  0.32986791861E+04 0.  0.
        5    1    3    3  502    0  0.17968267956E+03  0.12396374358E+04 -0.17070527861E+04  0.21173186208E+04  0.46999998093E+01 0.  1.
       -5    1    3    3    0  502 -0.17968267956E+03 -0.12396374358E+04  0.56409853633E+03  0.13737598357E+04  0.46999998093E+01 0. -1.
</event>
<event>
 5   0  0.6765252E-08  0.3301303E+04  0.7818609E-02  0.8162564E-01
       -2   -1    0    0    0  501  0.00000000000E+00  0.00000000000E+00  0.29981180391E+04  0.29981180391E+04  0.25500000920E-02 0.  1.
        2   -1    0    0  501    0  0.00000000000E+00  0.00000000000E+00 -0.90878671813E+03  0.90878671814E+03  0.25500000920E-02 0. -1.
    10030    2    1    2    0    0  0.00000000000E+00  0.00000000000E+00  0.20893313210E+04  0.39069047572E+04  0.33013026843E+04 0.  0.
        2    1    3    3  502    0 -0.14100593711E+04 -0.35090773322E+03  0.11791072616E+03  0.14578431351E+04  0.25500000920E-02 0. -1.
       -2    1    3    3    0  502  0.14100593711E+04  0.35090773322E+03  0.19714205948E+04  0.24490616221E+04  0.25500000920E-02 0.  1.
</event>
<event>
 5   0  0.2383270E-08  0.3300056E+04  0.7818609E-02  0.8162881E-01
        1   -1    0    0  501    0  0.00000000000E+00  0.00000000000E+00  0.24166248575E+04  0.24166248575E+04  0.50400001928E-02 0. -1.
       -1   -1    0    0    0  501  0.00000000000E+00  0.00000000000E+00 -0.11266097464E+04  0.11266097464E+04  0.50400001928E-02 0.  1.
    10030    2    1    2    0    0  0.00000000000E+00  0.00000000000E+00  0.12900151111E+04  0.35432346039E+04  0.33000564346E+04 0.  0.
        5    1    3    3  502    0 -0.55928655393E+03  0.15419761258E+04  0.45270265768E+03  0.17016032464E+04  0.46999998093E+01 0.  1.
       -5    1    3    3    0  502  0.55928655393E+03 -0.15419761258E+04  0.83731245345E+03  0.18416313575E+04  0.46999998093E+01 0. -1.
</event>
<event>
 5   0  0.2309822E-08  0.3301145E+04  0.7818609E-02  0.8162604E-01
        1   -1    0    0  501    0  0.00000000000E+00  0.00000000000E+00  0.18542329396E+04  0.18542329396E+04  0.50400001928E-02 0. -1.
       -1   -1    0    0    0  501  0.00000000000E+00  0.00000000000E+00 -0.14692816156E+04  0.14692816156E+04  0.50400001928E-02 0.  1.
    10030    2    1    2    0    0  0.00000000000E+00  0.00000000000E+00  0.38495132403E+03  0.33235145552E+04  0.33011454795E+04 0.  0.
        4    1    3    3  502    0  0.14808351550E+04  0.30707302321E+03 -0.47323268629E+03  0.15846505565E+04  0.12699999809E+01 0.  1.
       -4    1    3    3    0  502 -0.14808351550E+04 -0.30707302321E+03  0.85818401033E+03  0.17388639988E+04  0.12699999809E+01 0. -1.
</event>
<event>
 5   0  0.2291682E-08  0.3300872E+04  0.7818609E-02  0.8162674E-01
        1   -1    0    0  501    0  0.00000000000E+00  0.00000000000E+00  0.27113706371E+04  0.27113706371E+04  0.50400001928E-02 0. -1.
       -1   -1    0    0    0  501  0.00000000000E+00  0.00000000000E+00 -0.10046352421E+04  0.10046352421E+04  0.50400001928E-02 0.  1.
    10030    2    1    2    0    0  0.00000000000E+00  0.00000000000E+00  0.17067353950E+04  0.37160058792E+04  0.33008717009E+04 0.  0.
        2    1    3    3  502    0 -0.27178523790E+03 -0.53156622553E+03  0.25855497453E+04  0.26535819854E+04  0.25500000920E-02 0. -1.
       -2    1    3    3    0  502  0.27178523790E+03  0.53156622553E+03 -0.87881435037E+03  0.10624238938E+04  0.25500000920E-02 0.  1.
</event>
<event>
 5   0  0.2309822E-08  0.3298872E+04  0.7818609E-02  0.8163182E-01
       -1   -1    0    0    0  501  0.00000000000E+00  0.00000000000E+00  0.34644460488E+04  0.34644460488E+04  0.50400001928E-02 0.  1.
        1   -1    0    0  501    0  0.00000000000E+00  0.00000000000E+00 -0.78530290598E+03  0.78530290600E+03  0.50400001928E-02 0. -1.
    10030    2    1    2    0    0  0.00000000000E+00  0.00000000000E+00  0.26791431429E+04  0.42497489548E+04  0.32988722617E+04 0.  0.
        4    1    3    3  502    0 -0.50535368650E+03 -0.44781761168E+02  0.33614360313E+04  0.33995060759E+04  0.12699999809E+01 0.  1.
       -4    1    3    3    0  502  0.50535368650E+03  0.44781761168E+02 -0.68229288847E+03  0.85024287892E+03  0.12699999809E+01 0. -1.
</event>
<event>
 5   0  0.6603516E-08  0.3299248E+04  0.7818609E-02  0.8163087E-01
       -2   -1    0    0    0  501  0.00000000000E+00  0.00000000000E+00  0.16827365052E+04  0.16827365052E+04  0.25500000920E-02 0. -1.
        2   -1    0    0  501    0  0.00000000000E+00  0.00000000000E+00 -0.16171627118E+04  0.16171627118E+04  0.25500000920E-02 0.  1.
    10030    2    1    2    0    0  0.00000000000E+00  0.00000000000E+00  0.65573793443E+02  0.32998992170E+04  0.32992476294E+04 0.  0.
        1    1    3    3  502    0 -0.11940141449E+04 -0.14058437700E+03  0.11625342024E+04  0.16723993294E+04  0.50400001928E-02 0. -1.
       -1    1    3    3    0  502  0.11940141449E+04  0.14058437700E+03 -0.10969604090E+04  0.16274998876E+04  0.50400001928E-02 0.  1.
</event>
<event>
 5   0  0.6706080E-08  0.3300621E+04  0.7818609E-02  0.8162737E-01
       -2   -1    0    0    0  501  0.00000000000E+00  0.00000000000E+00  0.10848465850E+04  0.10848465850E+04  0.25500000920E-02 0.  1.
        2   -1    0    0  501    0  0.00000000000E+00  0.00000000000E+00 -0.25105160808E+04  0.25105160808E+04  0.25500000920E-02 0. -1.
    10030    2    1    2    0    0  0.00000000000E+00  0.00000000000E+00 -0.14256694958E+04  0.35953626658E+04  0.33006210305E+04 0.  0.
        4    1    3    3  502    0  0.55943235757E+03 -0.13723010047E+04  0.78200671152E+02  0.14840119838E+04  0.12699999809E+01 0.  1.
       -4    1    3    3    0  502 -0.55943235757E+03  0.13723010047E+04 -0.15038701669E+04  0.21113506819E+04  0.12699999809E+01 0. -1.
</event>
<event>
 5   0  0.2279938E-08  0.3302932E+04  0.7818609E-02  0.8162150E-01
        1   -1    0    0  501    0  0.00000000000E+00  0.00000000000E+00  0.19300908483E+04  0.19300908483E+04  0.50400001928E-02 0. -1.
       -1   -1    0    0    0  501  0.00000000000E+00  0.00000000000E+00 -0.14130633465E+04  0.14130633465E+04  0.50400001928E-02 0.  1.
    10030    2    1    2    0    0  0.00000000000E+00  0.00000000000E+00  0.51702750176E+03  0.33431541948E+04  0.33029324141E+04 0.  0.
        3    1    3    3  502    0 -0.15103645874E+03  0.12616936485E+04  0.13261849290E+04  0.18366952253E+04  0.10100000352E+00 0. -1.
       -3    1    3    3    0  502  0.15103645874E+03 -0.12616936485E+04 -0.80915742723E+03  0.15064589695E+04  0.10100000352E+00 0.  1.
</event>
<event>
 5   0  0.7084130E-08  0.3299089E+04  0.7818609E-02  0.8163127E-01
        2   -1    0    0  501    0  0.00000000000E+00  0.00000000000E+00  0.14010765013E+04  0.14010765013E+04  0.25500000920E-02 0.  1.
       -2   -1    0    0    0  501  0.00000000000E+00  0.00000000000E+00 -0.19420755328E+04  0.19420755328E+04  0.25500000920E-02 0. -1.
    10030    2    1    2    0    0  0.00000000000E+00  0.00000000000E+00 -0.54099903155E+03  0.33431520341E+04  0.32990885970E+04 0.  0.
        3    1    3    3  502    0  0.15695958884E+04  0.50661947751E+03 -0.29734551367E+03  0.16759203181E+04  0.10100000352E+00 0. -1.
       -3    1    3    3    0  502 -0.15695958884E+04 -0.50661947751E+03 -0.24365351787E+03  0.16672317160E+04  0.10100000352E+00 0.  1.
</event>
<event>
 5   0  0.2279938E-08  0.3300283E+04  0.7818609E-02  0.8162823E-01
        1   -1    0    0  501    0  0.00000000000E+00  0.00000000000E+00  0.10961302057E+04  0.10961302057E+04  0.50400001928E-02 0. -1.
       -1   -1    0    0    0  501  0.00000000000E+00  0.00000000000E+00 -0.24841644499E+04  0.24841644499E+04  0.50400001928E-02 0.  1.
    10030    2    1    2    0    0  0.00000000000E+00  0.00000000000E+00 -0.13880342443E+04  0.35802946556E+04  0.33002834360E+04 0.  0.
        3    1    3    3  502    0 -0.10474883641E+04  0.55071431101E+03  0.55353037071E+03  0.13064891913E+04  0.10100000352E+00 0. -1.
       -3    1    3    3    0  502  0.10474883641E+04 -0.55071431101E+03 -0.19415646150E+04  0.22738054644E+04  0.10100000352E+00 0.  1.
</event>
<event>
 5   0  0.2291682E-08  0.3301634E+04  0.7818609E-02  0.8162480E-01
       -1   -1    0    0    0  501  0.00000000000E+00  0.00000000000E+00  0.92167939737E+03  0.92167939739E+03  0.50400001928E-02 0. -1.
        1   -1    0    0  501    0  0.00000000000E+00  0.00000000000E+00 -0.29567730558E+04  0.29567730558E+04  0.50400001928E-02 0.  1.
    10030    2    1    2    0    0  0.00000000000E+00  0.00000000000E+00 -0.20350936584E+04  0.38784524532E+04  0.33016340247E+04 0.  0.
        2    1    3    3  502    0  0.11643800317E+04 -0.76858787970E+03  0.19053767373E+02  0.13953032764E+04  0.25500000920E-02 0. -1.
       -2    1    3    3    0  502 -0.11643800317E+04  0.76858787970E+03 -0.20541474258E+04  0.24831491768E+04  0.25500000920E-02 0.  1.
</event>
<event>
 5   0  0.6765252E-08  0.3299506E+04  0.7818609E-02  0.8163021E-01
        2   -1    0    0  501    0  0.00000000000E+00  0.00000000000E+00  0.18869810435E+04  0.18869810435E+04  0.25500000920E-02 0.  1.
       -2   -1    0    0    0  501  0.00000000000E+00  0.00000000000E+00 -0.14423488628E+04  0.14423488628E+04  0.25500000920E-02 0. -1.
    10030    2    1    2    0    0  0.00000000000E+00  0.00000000000E+00  0.44463218074E+03  0.33293299064E+04  0.32995060008E+04 0.  0.
        2    1    3    3  502    0  0.89082697871E+03  0.50980199635E+03 -0.10809521552E+04  0.14906134118E+04  0.25500000920E-02 0. -1.
       -2    1    3    3    0  502 -0.89082697871E+03 -0.50980199635E+03  0.15255843359E+04  0.18387164946E+04  0.25500000920E-02 0.  1.
</event>
<event>
 5   0  0.2383270E-08  0.3301384E+04  0.7818609E-02  0.8162543E-01
       -1   -1    0    0    0  501  0.00000000000E+00  0.00000000000E+00  0.22031291472E+04  0.22031291473E+04  0.50400001928E-02 0.  1.
        1   -1    0    0  501    0  0.00000000000E+00  0.00000000000E+00 -0.12367793849E+04  0.12367793849E+04  0.50400001928E-02 0. -1.
    10030    2    1    2    0    0  0.00000000000E+00  0.00000000000E+00  0.96634976238E+03  0.34399085321E+04  0.33013843833E+04 0.  0.
        5    1    3    3  502    0  0.12129990197E+04 -0.73010695191E+03  0.13675153903E+04  0.19683859418E+04  0.46999998093E+01 0.  1.
       -5    1    3    3    0  502 -0.12129990197E+04  0.73010695191E+03 -0.40116562796E+03  0.14715225904E+04  0.46999998093E+01 0. -1.
</event>
<event>
 5   0  0.2244093E-08  0.3299821E+04  0.7818609E-02  0.8162941E-01
        1   -1    0    0  501    0  0.00000000000E+00  0.00000000000E+00  0.24360670699E+04  0.24360670699E+04  0.50400001928E-02 0. -1.
       -1   -1    0    0    0  501  0.00000000000E+00  0.00000000000E+00 -0.11174586408E+04  0.11174586408E+04  0.50400001928E-02 0.  1.
    10030    2    1    2    0    0  0.00000000000E+00  0.00000000000E+00  0.13186084291E+04  0.35535257108E+04  0.32998207205E+04 0.  0.
        1    1    3    3  502    0 -0.70269573393E+03 -0.84548735143E+02 -0.94567799869E+03  0.11812013632E+04  0.50400001928E-02 0.  1.
       -1    1    3    3    0  502  0.70269573393E+03  0.84548735143E+02  0.22642864278E+04  0.23723243476E+04  0.50400001928E-02 0. -1.
</event>
<event>
 5   0  0.6706080E-08  0.3298337E+04  0.7818609E-02  0.8163319E-01
       -2   -1    0    0    0  501  0.00000000000E+00  0.00000000000E+00  0.94047067106E+03  0.94047067106E+03  0.25500000920E-02 0.  1.
        2   -1    0    0  501    0  0.00000000000E+00  0.00000000000E+00 -0.28919109941E+04  0.28919109941E+04  0.25500000920E-02 0. -1.
    10030    2    1    2    0    0  0.00000000000E+00  0.00000000000E+00 -0.19514403230E+04  0.38323816651E+04  0.32983374438E+04 0.  0.
        4    1    3    3  502    0  0.95540886240E+03 -0.45362410058E+03 -0.24459765023E+04  0.26648421307E+04  0.12699999809E+01 0. -1.
       -4    1    3    3    0  502 -0.95540886240E+03  0.45362410058E+03  0.49453617926E+03  0.11675395344E+04  0.12699999809E+01 0.  1.
</event>
<event>
 5   0  0.2244093E-08  0.3300960E+04  0.7818609E-02  0.8162651E-01
       -1   -1    0    0    0  501  0.00000000000E+00  0.00000000000E+00  0.13805701341E+04  0.13805701341E+04  0.50400001928E-02 0. -1.
        1   -1    0    0  501    0  0.00000000000E+00  0.00000000000E+00 -0.19731584975E+04  0.19731584976E+04  0.50400001928E-02 0.  1.
    10030    2    1    2    0    0  0.00000000000E+00  0.00000000000E+00 -0.59258836346E+03  0.33537286316E+04  0.33009596735E+04 0.  0.
        1    1    3    3  502    0  0.55500386941E+02 -0.16493310905E+04 -0.26921567562E+03  0.16720796688E+04  0.50400001928E-02 0.  1.
       -1    1    3    3    0  502 -0.55500386941E+02  0.16493310905E+04 -0.32337268785E+03  0.16816489628E+04  0.50400001928E-02 0. -1.
</event>
<event>
 5   0  0.6706080E-08  0.3294942E+04  0.7818609E-02  0.8164183E-01
        2   -1    0    0  501    0  0.00000000000E+00  0.00000000000E+00  0.17423564890E+04  0.17423564890E+04  0.25500000920E-02 0. -1.
       -2   -1    0    0    0  501  0.00000000000E+00  0.00000000000E+00 -0.15577532114E+04  0.15577532114E+04  0.25500000920E-02 0.  1.
    10030    2    1    2    0    0  0.00000000000E+00  0.00000000000E+00  0.18460327762E+03  0.33001097004E+04  0.32949424372E+04 0.  0.
        4    1    3    3  502    0 -0.11878156612E+04  0.42997629494E+03 -0.96688892686E+03  0.15908052895E+04  0.12699999809E+01 0.  1.
       -4    1    3    3    0  502  0.11878156612E+04 -0.42997629494E+03  0.11514922045E+04  0.17093044109E+04  0.12699999809E+01 0. -1.
</event>
<event>
 5   0  0.6821287E-08  0.3310961E+04  0.7818609E-02  0.8160112E-01
        2   -1    0    0  501    0  0.00000000000E+00  0.00000000000E+00  0.27927014580E+04  0.27927014580E+04  0.25500000920E-02 0.  1.
       -2   -1    0    0    0  501  0.00000000000E+00  0.00000000000E+00 -0.98134930307E+03  0.98134930308E+03  0.25500000920E-02 0. -1.
    10030    2    1    2    0    0  0.00000000000E+00  0.00000000000E+00  0.18113521550E+04  0.37740507611E+04  0.33109609660E+04 0.  0.
        5    1    3    3  502    0 -0.53185581837E+03  0.61297055104E+03 -0.73904780726E+03  0.10976416808E+04  0.46999998093E+01 0. -1.
       -5    1    3    3    0  502  0.53185581837E+03 -0.61297055104E+03  0.25503999622E+04  0.26764090803E+04  0.46999998093E+01 0.  1.
</event>
<event>
 5   0  0.2309822E-08  0.3300455E+04  0.7818609E-02  0.8162779E-01
       -1   -1    0    0    0  501  0.00000000000E+00  0.00000000000E+00  0.20420903819E+04  0.20420903820E+04  0.50400001928E-02 0. -1.
        1   -1    0    0  501    0  0.00000000000E+00  0.00000000000E+00 -0.13335607673E+04  0.13335607673E+04  0.50400001928E-02 0.  1.
    10030    2    1    2    0    0  0.00000000000E+00  0.00000000000E+00  0.70852961464E+03  0.33756511493E+04  0.33004554938E+04 0.  0.
        4    1    3    3  502    0  0.40902939633E+03 -0.10820685003E+04 -0.84943991832E+03  0.14351749281E+04  0.12699999809E+01 0.  1.
       -4    1    3    3    0  502 -0.40902939633E+03  0.10820685003E+04  0.15579695330E+04  0.19404762212E+04  0.12699999809E+01 0. -1.
</event>
<event>
 5   0  0.6821287E-08  0.3300195E+04  0.7818609E-02  0.8162846E-01
       -2   -1    0    0    0  501  0.00000000000E+00  0.00000000000E+00  0.15222095226E+04  0.15222095226E+04  0.25500000920E-02 0. -1.
        2   -1    0    0  501    0  0.00000000000E+00  0.00000000000E+00 -0.17887302527E+04  0.17887302527E+04  0.25500000920E-02 0.  1.
    10030    2    1    2    0    0  0.00000000000E+00  0.00000000000E+00 -0.26652073008E+03  0.33109397754E+04  0.33001952816E+04 0.  0.
        5    1    3    3  502    0 -0.82415829521E+03  0.13990677243E+04  0.16124729603E+03  0.16317629035E+04  0.46999998093E+01 0. -1.
       -5    1    3    3    0  502  0.82415829521E+03 -0.13990677243E+04 -0.42776802611E+03  0.16791768719E+04  0.46999998093E+01 0.  1.
</event>
<event>
 5   0  0.2291682E-08  0.3299698E+04  0.7818609E-02  0.8162972E-01
        1   -1    0    0  501    0  0.00000000000E+00  0.00000000000E+00  0.19065529867E+04  0.19065529867E+04  0.50400001928E-02 0. -1.
       -1   -1    0    0    0  501  0.00000000000E+00  0.00000000000E+00 -0.14277082980E+04  0.14277082980E+04  0.50400001928E-02 0.  1.
    10030    2    1    2    0    0  0.00000000000E+00  0.00000000000E+00  0.47884468868E+03  0.33342612847E+04  0.32996978769E+04 0.  0.
        2    1    3    3  502    0  0.15948096722E+04 -0.41488584879E+03  0.15824806343E+03  0.16554729257E+04  0.25500000920E-02 0. -1.
       -2    1    3    3    0  502 -0.15948096722E+04  0.41488584879E+03  0.32059662525E+03  0.16787883590E+04  0.25500000920E-02 0.  1.
</event>
<event>
 5   0  0.6765252E-08  0.3296667E+04  0.7818609E-02  0.8163744E-01
        2   -1    0    0  501    0  0.00000000000E+00  0.00000000000E+00  0.17455113206E+04  0.17455113206E+04  0.25500000920E-02 0. -1.
       -2   -1    0    0    0  501  0.00000000000E+00  0.00000000000E+00 -0.15565660415E+04  0.15565660415E+04  0.25500000920E-02 0.  1.
    10030    2    1    2    0    0  0.00000000000E+00  0.00000000000E+00  0.18894527907E+03  0.33020773621E+04  0.32966671938E+04 0.  0.
        2    1    3    3  502    0 -0.26333901861E+03  0.14238855124E+04  0.88329680854E+03  0.16961752985E+04  0.25500000920E-02 0. -1.
       -2    1    3    3    0  502  0.26333901861E+03 -0.14238855124E+04 -0.69435152947E+03  0.16059020636E+04  0.25500000920E-02 0.  1.
</event>
<event>
 5   0  0.2383270E-08  0.3299850E+04  0.7818609E-02  0.8162933E-01
       -1   -1    0    0    0  501  0.00000000000E+00  0.00000000000E+00  0.16928367418E+04  0.16928367418E+04  0.50400001928E-02 0.  1.
        1   -1    0    0  501    0  0.00000000000E+00  0.00000000000E+00 -0.16081012561E+04  0.16081012561E+04  0.50400001928E-02 0. -1.
    10030    2    1    2    0    0  0.00000000000E+00  0.00000000000E+00  0.84735485734E+02  0.33009379979E+04  0.32998502335E+04 0.  0.
        5    1    3    3  502    0  0.34847706705E+03  0.14878564422E+04  0.66472855232E+03  0.16664450777E+04  0.46999998093E+01 0.  1.
       -5    1    3    3    0  502 -0.34847706705E+03 -0.14878564422E+04 -0.57999306659E+03  0.16344929202E+04  0.46999998093E+01 0. -1.
</event>
</LesHouchesEvents>
