<LesHouchesEvents version="3.0">
<header>
<!--
#*********************************************************************
#                                                                    *
#                        MadGraph5_aMC@NLO                           *
#                                                                    *
#                           Going Beyond                             *
#                                                                    *
#                   http://madgraph.hep.uiuc.edu                     *
#                   http://madgraph.phys.ucl.ac.be                   *
#                   http://amcatnlo.cern.ch                          *
#                                                                    *
#                     The MadGraph5_aMC@NLO team                     *
#                                                                    *
#....................................................................*
#                                                                    *
# This file contains all the information necessary to reproduce      *
# the events generated:                                              *
#                                                                    *
# 1. software version                                                *
# 2. proc_card          : code generation info including model       *
# 3. param_card         : model primary parameters in the LH format  *
# 4. run_card           : running parameters (collider and cuts)     *
# 5. pythia_card        : present only if pythia has been run        *
# 6. pgs_card           : present only if pgs has been run           *
# 7. delphes_cards      : present only if delphes has been run       *
#                                                                    *
#                                                                    *
#*********************************************************************
-->
<MGVersion>
#5.2.2.3
</MGVersion>
<MG5ProcCard>
#************************************************************
#*                     MadGraph5_aMC@NLO                    *
#*                                                          *
#*                *                       *                 *
#*                  *        * *        *                   *
#*                    * * * * 5 * * * *                     *
#*                  *        * *        *                   *
#*                *                       *                 *
#*                                                          *
#*                                                          *
#*         VERSION 2.2.3                 2015-02-10         *
#*                                                          *
#*    The MadGraph5_aMC@NLO Development Team - Find us at   *
#*    https://server06.fynu.ucl.ac.be/projects/madgraph     *
#*                                                          *
#************************************************************
#*                                                          *
#*               Command File for MadGraph5_aMC@NLO         *
#*                                                          *
#*     run as ./bin/mg5_aMC  filename                       *
#*                                                          *
#************************************************************
set group_subprocesses Auto
set ignore_six_quark_processes False
set loop_optimized_output True
set gauge unitary
set complex_mass_scheme False
import model sm
define p = g u c d s u~ c~ d~ s~
define j = g u c d s u~ c~ d~ s~
define l+ = e+ mu+
define l- = e- mu-
define vl = ve vm vt
define vl~ = ve~ vm~ vt~
import model Zprime_UFO
generate p p > zph, zph > j j
add process p p > zph, zph > b b~
output Dijet_signal
</MG5ProcCard>
<MGProcCard>
#*********************************************************************
#                        MadGraph/MadEvent                           *
#                   http://madgraph.hep.uiuc.edu                     *
#                                                                    *
#                          proc_card.dat                             *
#*********************************************************************
#                                                                    *
#            This Files is generated by MADGRAPH 5                   *
#                                                                    *
# WARNING: This Files is generated for MADEVENT (compatibility issue)*
#          This files is NOT a valid MG4 proc_card.dat               *
#          Running this in MG4 will NEVER reproduce the result of MG5*
#                                                                    *
#*********************************************************************
#*********************************************************************
# Process(es) requested : mg2 input                                  *
#*********************************************************************
# Begin PROCESS # This is TAG. Do not modify this line
p p > zph , zph > j j           #Process
# Be carefull the coupling are here in MG5 convention
          
end_coup           # End the couplings input

done               # this tells MG there are no more procs
# End PROCESS  # This is TAG. Do not modify this line
#*********************************************************************
# Model information                                                  *
#*********************************************************************
# Begin MODEL  # This is TAG. Do not modify this line
Zprime_UFO
# End   MODEL  # This is TAG. Do not modify this line
#*********************************************************************
# Start multiparticle definitions                                    *
#*********************************************************************
# Begin MULTIPARTICLES # This is TAG. Do not modify this line

# End  MULTIPARTICLES # This is TAG. Do not modify this line
</MGProcCard>
<MGRunCard>
#*********************************************************************
#                       MadGraph5_aMC@NLO                            *
#                                                                    *
#                     run_card.dat MadEvent                          *
#                                                                    *
#  This file is used to set the parameters of the run.               *
#                                                                    *
#  Some notation/conventions:                                        *
#                                                                    *
#   Lines starting with a '# ' are info or comments                  *
#                                                                    *
#   mind the format:   value    = variable     ! comment             *
#*********************************************************************
#
#*******************                                                 
# Running parameters
#*******************                                                 
#                                                                    
#*********************************************************************
# Tag name for the run (one word)                                    *
#*********************************************************************
  tag_1     = run_tag ! name of the run 
#*********************************************************************
# Run to generate the grid pack                                      *
#*********************************************************************
  .false.     = gridpack  !True = setting up the grid pack
#*********************************************************************
# Number of events and rnd seed                                      *
# Warning: Do not generate more than 1M events in a single run       *
# If you want to run Pythia, avoid more than 50k events in a run.    *
#*********************************************************************
  2000 = nevents ! Number of unweighted events requested 
 3027 = iseed   ! rnd seed (0=assigned automatically=default))
#*********************************************************************
# Collider type and energy                                           *
# lpp: 0=No PDF, 1=proton, -1=antiproton, 2=photon from proton,      *
#                                         3=photon from electron     *
#*********************************************************************
        1     = lpp1    ! beam 1 type 
        1     = lpp2    ! beam 2 type
     4000     = ebeam1  ! beam 1 total energy in GeV
     4000     = ebeam2  ! beam 2 total energy in GeV
#*********************************************************************
# Beam polarization from -100 (left-handed) to 100 (right-handed)    *
#*********************************************************************
        0     = polbeam1 ! beam polarization for beam 1
        0     = polbeam2 ! beam polarization for beam 2
#*********************************************************************
# PDF CHOICE: this automatically fixes also alpha_s and its evol.    *
#*********************************************************************
 'nn23lo1'    = pdlabel     ! PDF set                                     
 230000    = lhaid     ! if pdlabel=lhapdf, this is the lhapdf number
#*********************************************************************
# Renormalization and factorization scales                           *
#*********************************************************************
 F        = fixed_ren_scale  ! if .true. use fixed ren scale
 F        = fixed_fac_scale  ! if .true. use fixed fac scale
 91.1880  = scale            ! fixed ren scale
 91.1880  = dsqrt_q2fact1    ! fixed fact scale for pdf1
 91.1880  = dsqrt_q2fact2    ! fixed fact scale for pdf2
 1        = scalefact        ! scale factor for event-by-event scales
#*********************************************************************
# Matching - Warning! ickkw > 1 is still beta
#*********************************************************************
 0        = ickkw            ! 0 no matching, 1 MLM, 2 CKKW matching
 1        = highestmult      ! for ickkw=2, highest mult group
 1        = ktscheme         ! for ickkw=1, 1 Durham kT, 2 Pythia pTE
 1        = alpsfact         ! scale factor for QCD emission vx
 F        = chcluster        ! cluster only according to channel diag
 T        = pdfwgt           ! for ickkw=1, perform pdf reweighting
 5        = asrwgtflavor     ! highest quark flavor for a_s reweight
 T        = clusinfo         ! include clustering tag in output
 3.0      = lhe_version       ! Change the way clustering information pass to shower.        
#*********************************************************************
#**********************************************************
#
#**********************************************************
# Automatic ptj and mjj cuts if xqcut > 0
# (turn off for VBF and single top processes)
#**********************************************************
   T  = auto_ptj_mjj  ! Automatic setting of ptj and mjj
#**********************************************************
#                                                                    
#**********************************
# BW cutoff (M+/-bwcutoff*Gamma)
#**********************************
  15  = bwcutoff      ! (M+/-bwcutoff*Gamma)
#**********************************************************
# Apply pt/E/eta/dr/mij cuts on decay products or not
# (note that etmiss/ptll/ptheavy/ht/sorted cuts always apply)
#**********************************************************
   T  = cut_decays    ! Cut decay products 
#*************************************************************
# Number of helicities to sum per event (0 = all helicities)
# 0 gives more stable result, but longer run time (needed for
# long decay chains e.g.).
# Use >=2 if most helicities contribute, e.g. pure QCD.
#*************************************************************
   0  = nhel          ! Number of helicities used per event
#*******************                                                 
# Standard Cuts
#*******************                                                 
#                                                                    
#*********************************************************************
# Minimum and maximum pt's (for max, -1 means no cut)                *
#*********************************************************************
 20  = ptj       ! minimum pt for the jets 
  0  = ptb       ! minimum pt for the b 
 10  = pta       ! minimum pt for the photons 
 10  = ptl       ! minimum pt for the charged leptons 
  0  = misset    ! minimum missing Et (sum of neutrino's momenta)
  0  = ptheavy   ! minimum pt for one heavy final state
 1.0 = ptonium   ! minimum pt for the quarkonium states
 -1  = ptjmax    ! maximum pt for the jets
 -1  = ptbmax    ! maximum pt for the b
 -1  = ptamax    ! maximum pt for the photons
 -1  = ptlmax    ! maximum pt for the charged leptons
 -1  = missetmax ! maximum missing Et (sum of neutrino's momenta)
#*********************************************************************
# Minimum and maximum E's (in the center of mass frame)              *
#*********************************************************************
  0  = ej     ! minimum E for the jets 
  0  = eb     ! minimum E for the b 
  0  = ea     ! minimum E for the photons 
  0  = el     ! minimum E for the charged leptons 
 -1   = ejmax ! maximum E for the jets
 -1   = ebmax ! maximum E for the b
 -1   = eamax ! maximum E for the photons
 -1   = elmax ! maximum E for the charged leptons
#*********************************************************************
# Maximum and minimum absolute rapidity (for max, -1 means no cut)   *
#*********************************************************************
   5  = etaj    ! max rap for the jets 
  -1  = etab    ! max rap for the b
 2.5  = etaa    ! max rap for the photons 
 2.5  = etal    ! max rap for the charged leptons 
 0.6  = etaonium ! max rap for the quarkonium states
   0  = etajmin ! min rap for the jets
   0  = etabmin ! min rap for the b
   0  = etaamin ! min rap for the photons
   0  = etalmin ! main rap for the charged leptons
#*********************************************************************
# Minimum and maximum DeltaR distance                                *
#*********************************************************************
 0.4 = drjj    ! min distance between jets 
 0   = drbb    ! min distance between b's 
 0.4 = drll    ! min distance between leptons 
 0.4 = draa    ! min distance between gammas 
 0   = drbj    ! min distance between b and jet 
 0.4 = draj    ! min distance between gamma and jet 
 0.4 = drjl    ! min distance between jet and lepton 
 0   = drab    ! min distance between gamma and b 
 0   = drbl    ! min distance between b and lepton 
 0.4 = dral    ! min distance between gamma and lepton 
 -1  = drjjmax ! max distance between jets
 -1  = drbbmax ! max distance between b's
 -1  = drllmax ! max distance between leptons
 -1  = draamax ! max distance between gammas
 -1  = drbjmax ! max distance between b and jet
 -1  = drajmax ! max distance between gamma and jet
 -1  = drjlmax ! max distance between jet and lepton
 -1  = drabmax ! max distance between gamma and b
 -1  = drblmax ! max distance between b and lepton
 -1  = dralmax ! maxdistance between gamma and lepton
#*********************************************************************
# Minimum and maximum invariant mass for pairs                       *
# WARNING: for four lepton final state mmll cut require to have      *
#          different lepton masses for each flavor!                  *           
#*********************************************************************
 0   = mmjj    ! min invariant mass of a jet pair 
 0   = mmbb    ! min invariant mass of a b pair 
 0   = mmaa    ! min invariant mass of gamma gamma pair
 0   = mmll    ! min invariant mass of l+l- (same flavour) lepton pair
 -1  = mmjjmax ! max invariant mass of a jet pair
 -1  = mmbbmax ! max invariant mass of a b pair
 -1  = mmaamax ! max invariant mass of gamma gamma pair
 -1  = mmllmax ! max invariant mass of l+l- (same flavour) lepton pair
#*********************************************************************
# Minimum and maximum invariant mass for all letpons                 *
#*********************************************************************
 0   = mmnl    ! min invariant mass for all letpons (l+- and vl) 
 -1  = mmnlmax ! max invariant mass for all letpons (l+- and vl) 
#*********************************************************************
# Minimum and maximum pt for 4-momenta sum of leptons                *
#*********************************************************************
 0   = ptllmin  ! Minimum pt for 4-momenta sum of leptons(l and vl)
 -1  = ptllmax  ! Maximum pt for 4-momenta sum of leptons(l and vl)
#*********************************************************************
# Inclusive cuts                                                     *
#*********************************************************************
 0  = xptj ! minimum pt for at least one jet  
 0  = xptb ! minimum pt for at least one b 
 0  = xpta ! minimum pt for at least one photon 
 0  = xptl ! minimum pt for at least one charged lepton 
#*********************************************************************
# Control the pt's of the jets sorted by pt                          *
#*********************************************************************
 0   = ptj1min ! minimum pt for the leading jet in pt
 0   = ptj2min ! minimum pt for the second jet in pt
 0   = ptj3min ! minimum pt for the third jet in pt
 0   = ptj4min ! minimum pt for the fourth jet in pt
 -1  = ptj1max ! maximum pt for the leading jet in pt 
 -1  = ptj2max ! maximum pt for the second jet in pt
 -1  = ptj3max ! maximum pt for the third jet in pt
 -1  = ptj4max ! maximum pt for the fourth jet in pt
 0   = cutuse  ! reject event if fails any (0) / all (1) jet pt cuts
#*********************************************************************
# Control the pt's of leptons sorted by pt                           *
#*********************************************************************
 0   = ptl1min ! minimum pt for the leading lepton in pt
 0   = ptl2min ! minimum pt for the second lepton in pt
 0   = ptl3min ! minimum pt for the third lepton in pt
 0   = ptl4min ! minimum pt for the fourth lepton in pt
 -1  = ptl1max ! maximum pt for the leading lepton in pt 
 -1  = ptl2max ! maximum pt for the second lepton in pt
 -1  = ptl3max ! maximum pt for the third lepton in pt
 -1  = ptl4max ! maximum pt for the fourth lepton in pt
#*********************************************************************
# Control the Ht(k)=Sum of k leading jets                            *
#*********************************************************************
 0   = htjmin ! minimum jet HT=Sum(jet pt)
 -1  = htjmax ! maximum jet HT=Sum(jet pt)
 0   = ihtmin  !inclusive Ht for all partons (including b)
 -1  = ihtmax  !inclusive Ht for all partons (including b)
 0   = ht2min ! minimum Ht for the two leading jets
 0   = ht3min ! minimum Ht for the three leading jets
 0   = ht4min ! minimum Ht for the four leading jets
 -1  = ht2max ! maximum Ht for the two leading jets
 -1  = ht3max ! maximum Ht for the three leading jets
 -1  = ht4max ! maximum Ht for the four leading jets
#***********************************************************************
# Photon-isolation cuts, according to hep-ph/9801442                   *
# When ptgmin=0, all the other parameters are ignored                  *
# When ptgmin>0, pta and draj are not going to be used                 *
#***********************************************************************
   0 = ptgmin ! Min photon transverse momentum
 0.4 = R0gamma ! Radius of isolation code
 1.0 = xn ! n parameter of eq.(3.4) in hep-ph/9801442
 1.0 = epsgamma ! epsilon_gamma parameter of eq.(3.4) in hep-ph/9801442
 .true. = isoEM ! isolate photons from EM energy (photons and leptons)
#*********************************************************************
# WBF cuts                                                           *
#*********************************************************************
 0   = xetamin ! minimum rapidity for two jets in the WBF case  
 0   = deltaeta ! minimum rapidity for two jets in the WBF case 
#*********************************************************************
# KT DURHAM CUT                                                      *
#*********************************************************************
 -1    =  ktdurham        
 0.4  =  dparameter 
#*********************************************************************
# maximal pdg code for quark to be considered as a light jet         *
# (otherwise b cuts are applied)                                     *
#*********************************************************************
 4 = maxjetflavor    ! Maximum jet pdg code
#*********************************************************************
# Jet measure cuts                                                   *
#*********************************************************************
 0   = xqcut   ! minimum kt jet measure between partons
#*********************************************************************
#
#*********************************************************************
# Store info for systematics studies                                 *
# WARNING: If use_syst is T, matched Pythia output is                *
#          meaningful ONLY if plotted taking matchscale              *
#          reweighting into account!                                 *
#*********************************************************************
   F  = use_syst      ! Enable systematics studies
#
#**************************************
# Parameter of the systematics study
#  will be used by SysCalc (if installed)
#**************************************                                  
#
0.5 1 2 = sys_scalefact  # factorization/renormalization scale factor
0.5 1 2 = sys_alpsfact  # \alpha_s emission scale factors
30 50 = sys_matchscale # variation of merging scale
# PDF sets and number of members (0 or none for all members).
CT10nlo.LHgrid = sys_pdf # matching scales
# MSTW2008nlo68cl.LHgrid 1  = sys_pdf
</MGRunCard>
<slha>
######################################################################
## PARAM_CARD AUTOMATICALY GENERATED BY MG5 FOLLOWING UFO MODEL   ####
######################################################################
##                                                                  ##
##  Width set on Auto will be computed following the information    ##
##        present in the decay.py files of the model.               ##
##        See  arXiv:1402.1178 for more details.                    ##
##                                                                  ##
######################################################################

###################################
## INFORMATION FOR CKMBLOCK
###################################
Block ckmblock 
    1 2.277360e-01 # cabi 

###################################
## INFORMATION FOR FRBLOCK
###################################
Block frblock 
    1 1.600000e+00 # gz 

###################################
## INFORMATION FOR MASS
###################################
Block mass 
    1 5.040000e-03 # MD 
    2 2.550000e-03 # MU 
    3 1.010000e-01 # MS 
    4 1.270000e+00 # MC 
    5 4.700000e+00 # MB 
    6 1.720000e+02 # MT 
   11 5.110000e-04 # Me 
   13 1.056600e-01 # MM 
   15 1.777000e+00 # MTA 
   23 9.118760e+01 # MZ 
   25 1.200000e+02 # MH 
  10030 3.400000e+03 # MZph 
  10031 3.000000e+02 # MZpl 
## Dependent parameters, given by model restrictions.
## Those values should be edited following the 
## analytical expression. MG5 ignores those values 
## but they are important for interfacing the output of MG5
## to external program such as Pythia.
  12 0.000000 # ve : 0.0 
  14 0.000000 # vm : 0.0 
  16 0.000000 # vt : 0.0 
  21 0.000000 # g : 0.0 
  22 0.000000 # a : 0.0 
  24 79.824360 # w+ : cmath.sqrt(MZ__exp__2/2. + cmath.sqrt(MZ__exp__4/4. - (aEW*cmath.pi*MZ__exp__2)/(Gf*sqrt__2))) 

###################################
## INFORMATION FOR SMINPUTS
###################################
Block sminputs 
    1 1.279000e+02 # aEWM1 
    2 1.166370e-05 # Gf 
    3 1.184000e-01 # aS 

###################################
## INFORMATION FOR YUKAWA
###################################
Block yukawa 
    1 5.040000e-03 # ymdo 
    2 2.550000e-03 # ymup 
    3 1.010000e-01 # yms 
    4 1.270000e+00 # ymc 
    5 4.700000e+00 # ymb 
    6 1.720000e+02 # ymt 
   11 5.110000e-04 # yme 
   13 1.056600e-01 # ymm 
   15 1.777000e+00 # ymtau 

###################################
## INFORMATION FOR DECAY
###################################
DECAY   6 1.508336e+00 # WT 
DECAY  23 2.495200e+00 # WZ 
DECAY  24 2.085000e+00 # WW 
DECAY  25 5.753088e-03 # WH 
## Dependent parameters, given by model restrictions.
## Those values should be edited following the 
## analytical expression. MG5 ignores those values 
## but they are important for interfacing the output of MG5
## to external program such as Pythia.
DECAY  1 0.000000 # d : 0.0 
DECAY  2 0.000000 # u : 0.0 
DECAY  3 0.000000 # s : 0.0 
DECAY  4 0.000000 # c : 0.0 
DECAY  5 0.000000 # b : 0.0 
DECAY  11 0.000000 # e- : 0.0 
DECAY  12 0.000000 # ve : 0.0 
DECAY  13 0.000000 # mu- : 0.0 
DECAY  14 0.000000 # vm : 0.0 
DECAY  15 0.000000 # ta- : 0.0 
DECAY  16 0.000000 # vt : 0.0 
DECAY  21 0.000000 # g : 0.0 
DECAY  22 0.000000 # a : 0.0 
DECAY  10030 0.308725 # zph : (gz__exp__2*MZph*(5 + cmath.sqrt(1 - (4*MT__exp__2)/MZph__exp__2)))/(144.*cmath.pi) 
DECAY  10031 0.132629 # zpl : (5*gz__exp__2*MZpl)/(144.*cmath.pi) 
#===========================================================
# QUANTUM NUMBERS OF NEW STATE(S) (NON SM PDG CODE)
#===========================================================

Block QNUMBERS 10030  # zph 
        1 0  # 3 times electric charge
        2 3  # number of spin states (2S+1)
        3 1  # colour rep (1: singlet, 3: triplet, 8: octet)
        4 0  # Particle/Antiparticle distinction (0=own anti)
Block QNUMBERS 10031  # zpl 
        1 0  # 3 times electric charge
        2 3  # number of spin states (2S+1)
        3 1  # colour rep (1: singlet, 3: triplet, 8: octet)
        4 0  # Particle/Antiparticle distinction (0=own anti)
</slha>
## END BANNER##
<MGGenerationInfo>
#  Number of Events        :         3977
#  Integrated weight (pb)  :  0.11209E-02
#  Max wgt                 :  0.57245E-06
#  Average wgt             :  0.28185E-06
</MGGenerationInfo>
</header>
<init>
     2212     2212  0.40000000000E+04  0.40000000000E+04 0 0  247000  247000 2   1
  0.11217281841E-02  0.50508290820E-05  0.57245180000E-06   0
</init>
<event>
 5   0  0.4189587E-06  0.2775020E+04  0.7818609E-02  0.8311066E-01
       -2   -1    0    0    0  501  0.00000000000E+00  0.00000000000E+00  0.92074653557E+03  0.92074653557E+03  0.25500000920E-02 0. -1.
        2   -1    0    0  501    0  0.00000000000E+00  0.00000000000E+00 -0.20908946162E+04  0.20908946162E+04  0.25500000920E-02 0.  1.
    10030    2    1    2    0    0  0.00000000000E+00  0.00000000000E+00 -0.11701480806E+04  0.30116411518E+04  0.27750199813E+04 0.  0.
        1    1    3    3  502    0 -0.23296395532E+03 -0.13670607190E+03 -0.20620851785E+04  0.20797009492E+04  0.50400001928E-02 0.  1.
       -1    1    3    3    0  502  0.23296395532E+03  0.13670607190E+03  0.89193709789E+03  0.93194020258E+03  0.50400001928E-02 0. -1.
</event>
<event>
 5   0  0.4173467E-06  0.3388348E+04  0.7818609E-02  0.8140772E-01
       -2   -1    0    0    0  501  0.00000000000E+00  0.00000000000E+00  0.15117018317E+04  0.15117018317E+04  0.25500000920E-02 0.  1.
        2   -1    0    0  501    0  0.00000000000E+00  0.00000000000E+00 -0.18986717244E+04  0.18986717244E+04  0.25500000920E-02 0. -1.
    10030    2    1    2    0    0  0.00000000000E+00  0.00000000000E+00 -0.38696989271E+03  0.34103735561E+04  0.33883479889E+04 0.  0.
        4    1    3    3  502    0  0.13518405489E+03  0.12166891449E+04  0.98528845777E+03  0.15714331554E+04  0.12699999809E+01 0.  1.
       -4    1    3    3    0  502 -0.13518405489E+03 -0.12166891449E+04 -0.13722583505E+04  0.18389404007E+04  0.12699999809E+01 0. -1.
</event>
<event>
 5   0  0.4344980E-06  0.3383200E+04  0.7818609E-02  0.8142042E-01
        2   -1    0    0  501    0  0.00000000000E+00  0.00000000000E+00  0.17908012806E+04  0.17908012806E+04  0.25500000920E-02 0. -1.
       -2   -1    0    0    0  501  0.00000000000E+00  0.00000000000E+00 -0.15978939205E+04  0.15978939205E+04  0.25500000920E-02 0.  1.
    10030    2    1    2    0    0  0.00000000000E+00  0.00000000000E+00  0.19290736006E+03  0.33886952011E+04  0.33831999522E+04 0.  0.
        3    1    3    3  502    0 -0.84172518048E+03  0.97857491112E+03 -0.99866585940E+03  0.16320060187E+04  0.10100000352E+00 0.  1.
       -3    1    3    3    0  502  0.84172518048E+03 -0.97857491112E+03  0.11915732195E+04  0.17566891824E+04  0.10100000352E+00 0. -1.
</event>
<event>
 5   0  0.4189587E-06  0.3356957E+04  0.7818609E-02  0.8148552E-01
        2   -1    0    0  501    0  0.00000000000E+00  0.00000000000E+00  0.11364709377E+04  0.11364709377E+04  0.25500000920E-02 0. -1.
       -2   -1    0    0    0  501  0.00000000000E+00  0.00000000000E+00 -0.24789817317E+04  0.24789817317E+04  0.25500000920E-02 0.  1.
    10030    2    1    2    0    0  0.00000000000E+00  0.00000000000E+00 -0.13425107939E+04  0.36154526694E+04  0.33569573684E+04 0.  0.
        1    1    3    3  502    0  0.65774996461E+02 -0.12610696557E+04  0.51963301195E+03  0.13655187636E+04  0.50400001928E-02 0. -1.
       -1    1    3    3    0  502 -0.65774996461E+02  0.12610696557E+04 -0.18621438059E+04  0.22499339058E+04  0.50400001928E-02 0.  1.
</event>
<event>
 5   0  0.4189587E-06  0.3306613E+04  0.7818609E-02  0.8161215E-01
       -2   -1    0    0    0  501  0.00000000000E+00  0.00000000000E+00  0.16391144305E+04  0.16391144305E+04  0.25500000920E-02 0.  1.
        2   -1    0    0  501    0  0.00000000000E+00  0.00000000000E+00 -0.16676215860E+04  0.16676215860E+04  0.25500000920E-02 0. -1.
    10030    2    1    2    0    0  0.00000000000E+00  0.00000000000E+00 -0.28507155542E+02  0.33067360165E+04  0.33066131350E+04 0.  0.
        1    1    3    3  502    0 -0.25630571766E+01 -0.10614532629E+04  0.12533632530E+04  0.16424399662E+04  0.50400001928E-02 0.  1.
       -1    1    3    3    0  502  0.25630571766E+01  0.10614532629E+04 -0.12818704086E+04  0.16642960503E+04  0.50400001928E-02 0. -1.
</event>
<event>
 5   0  0.1571391E-06  0.2722703E+04  0.7818609E-02  0.8327676E-01
        1   -1    0    0  501    0  0.00000000000E+00  0.00000000000E+00  0.21500764867E+04  0.21500764867E+04  0.50400001928E-02 0. -1.
       -1   -1    0    0    0  501  0.00000000000E+00  0.00000000000E+00 -0.86195926330E+03  0.86195926331E+03  0.50400001928E-02 0.  1.
    10030    2    1    2    0    0  0.00000000000E+00  0.00000000000E+00  0.12881172234E+04  0.30120357500E+04  0.27227033217E+04 0.  0.
        1    1    3    3  502    0 -0.52431966396E+02  0.13452878552E+04  0.42079597662E+03  0.14105381167E+04  0.50400001928E-02 0.  1.
       -1    1    3    3    0  502  0.52431966396E+02 -0.13452878552E+04  0.86732124681E+03  0.16014976334E+04  0.50400001928E-02 0. -1.
</event>
<event>
 5   0  0.1571391E-06  0.3421242E+04  0.7818609E-02  0.8132712E-01
       -1   -1    0    0    0  501  0.00000000000E+00  0.00000000000E+00  0.17797461397E+04  0.17797461397E+04  0.50400001928E-02 0. -1.
        1   -1    0    0  501    0  0.00000000000E+00  0.00000000000E+00 -0.16441807032E+04  0.16441807032E+04  0.50400001928E-02 0.  1.
    10030    2    1    2    0    0  0.00000000000E+00  0.00000000000E+00  0.13556543657E+03  0.34239268429E+04  0.34212420315E+04 0.  0.
        1    1    3    3  502    0 -0.72959814746E+03 -0.87199615398E+03  0.13468833160E+04  0.17626075616E+04  0.50400001928E-02 0. -1.
       -1    1    3    3    0  502  0.72959814746E+03  0.87199615398E+03 -0.12113178794E+04  0.16613192813E+04  0.50400001928E-02 0.  1.
</event>
<event>
 5   0  0.4173467E-06  0.3393396E+04  0.7818609E-02  0.8139529E-01
        2   -1    0    0  501    0  0.00000000000E+00  0.00000000000E+00  0.84373915113E+03  0.84373915113E+03  0.25500000920E-02 0.  1.
       -2   -1    0    0    0  501  0.00000000000E+00  0.00000000000E+00 -0.34119365934E+04  0.34119365934E+04  0.25500000920E-02 0. -1.
    10030    2    1    2    0    0  0.00000000000E+00  0.00000000000E+00 -0.25681974422E+04  0.42556757445E+04  0.33933962250E+04 0.  0.
        4    1    3    3  502    0 -0.48591762056E+03  0.52512108644E+03  0.64531458248E+03  0.96348358193E+03  0.12699999809E+01 0.  1.
       -4    1    3    3    0  502  0.48591762056E+03 -0.52512108644E+03 -0.32135120247E+04  0.32921921626E+04  0.12699999809E+01 0. -1.
</event>
<event>
 5   0  0.4400349E-06  0.3467469E+04  0.7818609E-02  0.8121543E-01
        2   -1    0    0  501    0  0.00000000000E+00  0.00000000000E+00  0.11111667077E+04  0.11111667077E+04  0.25500000920E-02 0.  1.
       -2   -1    0    0    0  501  0.00000000000E+00  0.00000000000E+00 -0.27051166068E+04  0.27051166068E+04  0.25500000920E-02 0. -1.
    10030    2    1    2    0    0  0.00000000000E+00  0.00000000000E+00 -0.15939498990E+04  0.38162833145E+04  0.34674691139E+04 0.  0.
        5    1    3    3  502    0 -0.11485805614E+04  0.12455325360E+03 -0.22197111028E+04  0.25023769278E+04  0.46999998093E+01 0. -1.
       -5    1    3    3    0  502  0.11485805614E+04 -0.12455325360E+03  0.62576120372E+03  0.13139063867E+04  0.46999998093E+01 0.  1.
</event>
<event>
 5   0  0.4189587E-06  0.3293402E+04  0.7818609E-02  0.8164576E-01
        2   -1    0    0  501    0  0.00000000000E+00  0.00000000000E+00  0.19054894604E+04  0.19054894604E+04  0.25500000920E-02 0. -1.
       -2   -1    0    0    0  501  0.00000000000E+00  0.00000000000E+00 -0.14230591226E+04  0.14230591226E+04  0.25500000920E-02 0.  1.
    10030    2    1    2    0    0  0.00000000000E+00  0.00000000000E+00  0.48243033782E+03  0.33285485829E+04  0.32934019855E+04 0.  0.
        1    1    3    3  502    0  0.16246932267E+03 -0.37966256855E+03 -0.13698744017E+04  0.14307675643E+04  0.50400001928E-02 0.  1.
       -1    1    3    3    0  502 -0.16246932267E+03  0.37966256855E+03  0.18523047395E+04  0.18977810186E+04  0.50400001928E-02 0. -1.
</event>
<event>
 5   0  0.4400349E-06  0.3467539E+04  0.7818609E-02  0.8121526E-01
        2   -1    0    0  501    0  0.00000000000E+00  0.00000000000E+00  0.20184505190E+04  0.20184505190E+04  0.25500000920E-02 0.  1.
       -2   -1    0    0    0  501  0.00000000000E+00  0.00000000000E+00 -0.14892398393E+04  0.14892398393E+04  0.25500000920E-02 0. -1.
    10030    2    1    2    0    0  0.00000000000E+00  0.00000000000E+00  0.52921067977E+03  0.35076903583E+04  0.34675391427E+04 0.  0.
        5    1    3    3  502    0 -0.14125282077E+04 -0.10720371373E+03  0.12757829633E+04  0.19064031141E+04  0.46999998093E+01 0.  1.
       -5    1    3    3    0  502  0.14125282077E+04  0.10720371373E+03 -0.74657228358E+03  0.16012872442E+04  0.46999998093E+01 0. -1.
</event>
<event>
 5   0  0.4400349E-06  0.3441517E+04  0.7818609E-02  0.8127791E-01
        2   -1    0    0  501    0  0.00000000000E+00  0.00000000000E+00  0.28139398579E+04  0.28139398579E+04  0.25500000920E-02 0.  1.
       -2   -1    0    0    0  501  0.00000000000E+00  0.00000000000E+00 -0.10522649578E+04  0.10522649578E+04  0.25500000920E-02 0. -1.
    10030    2    1    2    0    0  0.00000000000E+00  0.00000000000E+00  0.17616749001E+04  0.38662048158E+04  0.34415172851E+04 0.  0.
        5    1    3    3  502    0 -0.19046577402E+03  0.73704314790E+02 -0.10385943249E+04  0.10584941185E+04  0.46999998093E+01 0. -1.
       -5    1    3    3    0  502  0.19046577402E+03 -0.73704314790E+02  0.28002692250E+04  0.28077106973E+04  0.46999998093E+01 0.  1.
</event>
<event>
 5   0  0.1654257E-06  0.3457531E+04  0.7818609E-02  0.8123929E-01
       -1   -1    0    0    0  501  0.00000000000E+00  0.00000000000E+00  0.11362263173E+04  0.11362263173E+04  0.50400001928E-02 0.  1.
        1   -1    0    0  501    0  0.00000000000E+00  0.00000000000E+00 -0.26303123711E+04  0.26303123711E+04  0.50400001928E-02 0. -1.
    10030    2    1    2    0    0  0.00000000000E+00  0.00000000000E+00 -0.14940860538E+04  0.37665386884E+04  0.34575309912E+04 0.  0.
        3    1    3    3  502    0  0.15370016641E+04 -0.43302026037E+03 -0.14686233009E+04  0.21695011112E+04  0.10100000352E+00 0. -1.
       -3    1    3    3    0  502 -0.15370016641E+04  0.43302026037E+03 -0.25462752929E+02  0.15970375773E+04  0.10100000352E+00 0.  1.
</event>
<event>
 5   0  0.1401125E-06  0.3339167E+04  0.7818609E-02  0.8153000E-01
       -3   -1    0    0    0  501  0.00000000000E+00  0.00000000000E+00  0.93761967370E+03  0.93761967914E+03  0.10100000352E+00 0. -1.
        3   -1    0    0  501    0  0.00000000000E+00  0.00000000000E+00 -0.29729635413E+04  0.29729635430E+04  0.10100000352E+00 0.  1.
    10030    2    1    2    0    0  0.00000000000E+00  0.00000000000E+00 -0.20353438676E+04  0.39105832222E+04  0.33391670336E+04 0.  0.
        5    1    3    3  502    0 -0.13123880051E+04 -0.20223020588E+03  0.16755536688E+03  0.13384155644E+04  0.46999998093E+01 0. -1.
       -5    1    3    3    0  502  0.13123880051E+04  0.20223020588E+03 -0.22028992345E+04  0.25721676577E+04  0.46999998093E+01 0.  1.
</event>
<event>
 5   0  0.1571391E-06  0.3260314E+04  0.7818609E-02  0.8173068E-01
        1   -1    0    0  501    0  0.00000000000E+00  0.00000000000E+00  0.19389845678E+04  0.19389845678E+04  0.50400001928E-02 0. -1.
       -1   -1    0    0    0  501  0.00000000000E+00  0.00000000000E+00 -0.13705169750E+04  0.13705169750E+04  0.50400001928E-02 0.  1.
    10030    2    1    2    0    0  0.00000000000E+00  0.00000000000E+00  0.56846759276E+03  0.33095015428E+04  0.32603136441E+04 0.  0.
        1    1    3    3  502    0 -0.66226510743E+02  0.57063741992E+03  0.18328313113E+04  0.19207507989E+04  0.50400001928E-02 0. -1.
       -1    1    3    3    0  502  0.66226510743E+02 -0.57063741992E+03 -0.12643637186E+04  0.13887507439E+04  0.50400001928E-02 0.  1.
</event>
<event>
 5   0  0.1571391E-06  0.3401368E+04  0.7818609E-02  0.8137571E-01
       -1   -1    0    0    0  501  0.00000000000E+00  0.00000000000E+00  0.10893941529E+04  0.10893941529E+04  0.50400001928E-02 0. -1.
        1   -1    0    0  501    0  0.00000000000E+00  0.00000000000E+00 -0.26549856963E+04  0.26549856963E+04  0.50400001928E-02 0.  1.
    10030    2    1    2    0    0  0.00000000000E+00  0.00000000000E+00 -0.15655915434E+04  0.37443798492E+04  0.34013678975E+04 0.  0.
        1    1    3    3  502    0 -0.22282583842E+03  0.13926474514E+04  0.26341716587E+03  0.14347497627E+04  0.50400001928E-02 0. -1.
       -1    1    3    3    0  502  0.22282583842E+03 -0.13926474514E+04 -0.18290087092E+04  0.23096300865E+04  0.50400001928E-02 0.  1.
</event>
<event>
 5   0  0.1654257E-06  0.3315002E+04  0.7818609E-02  0.8159089E-01
        1   -1    0    0  501    0  0.00000000000E+00  0.00000000000E+00  0.17113946372E+04  0.17113946372E+04  0.50400001928E-02 0. -1.
       -1   -1    0    0    0  501  0.00000000000E+00  0.00000000000E+00 -0.16053047167E+04  0.16053047167E+04  0.50400001928E-02 0.  1.
    10030    2    1    2    0    0  0.00000000000E+00  0.00000000000E+00  0.10608992049E+03  0.33166993539E+04  0.33150021920E+04 0.  0.
        3    1    3    3  502    0 -0.91646880085E+03 -0.90411827815E+03  0.10975933223E+04  0.16917612228E+04  0.10100000352E+00 0. -1.
       -3    1    3    3    0  502  0.91646880085E+03  0.90411827815E+03 -0.99150340177E+03  0.16249381310E+04  0.10100000352E+00 0.  1.
</event>
<event>
 5   0  0.4173467E-06  0.3422432E+04  0.7818609E-02  0.8132423E-01
       -2   -1    0    0    0  501  0.00000000000E+00  0.00000000000E+00  0.18374249804E+04  0.18374249804E+04  0.25500000920E-02 0.  1.
        2   -1    0    0  501    0  0.00000000000E+00  0.00000000000E+00 -0.15936764721E+04  0.15936764721E+04  0.25500000920E-02 0. -1.
    10030    2    1    2    0    0  0.00000000000E+00  0.00000000000E+00  0.24374850829E+03  0.34311014524E+04  0.34224324451E+04 0.  0.
        4    1    3    3  502    0 -0.15087258679E+04 -0.30541824052E+03 -0.62749840621E+03  0.16623146239E+04  0.12699999809E+01 0. -1.
       -4    1    3    3    0  502  0.15087258679E+04  0.30541824052E+03  0.87124691450E+03  0.17687868286E+04  0.12699999809E+01 0.  1.
</event>
<event>
 5   0  0.1550164E-06  0.3320972E+04  0.7818609E-02  0.8157579E-01
        1   -1    0    0  501    0  0.00000000000E+00  0.00000000000E+00  0.16487195994E+04  0.16487195994E+04  0.50400001928E-02 0. -1.
       -1   -1    0    0    0  501  0.00000000000E+00  0.00000000000E+00 -0.16723365348E+04  0.16723365348E+04  0.50400001928E-02 0.  1.
    10030    2    1    2    0    0  0.00000000000E+00  0.00000000000E+00 -0.23616935406E+02  0.33210561342E+04  0.33209721599E+04 0.  0.
        4    1    3    3  502    0 -0.21810205696E+03 -0.16460121099E+04 -0.28780504117E+02  0.16606487599E+04  0.12699999809E+01 0.  1.
       -4    1    3    3    0  502  0.21810205696E+03  0.16460121099E+04  0.51635687117E+01  0.16604073743E+04  0.12699999809E+01 0. -1.
</event>
<event>
 5   0  0.1571391E-06  0.3211220E+04  0.7818609E-02  0.8185860E-01
        1   -1    0    0  501    0  0.00000000000E+00  0.00000000000E+00  0.95474988139E+03  0.95474988140E+03  0.50400001928E-02 0. -1.
       -1   -1    0    0    0  501  0.00000000000E+00  0.00000000000E+00 -0.27001664528E+04  0.27001664528E+04  0.50400001928E-02 0.  1.
    10030    2    1    2    0    0  0.00000000000E+00  0.00000000000E+00 -0.17454165714E+04  0.36549163342E+04  0.32112200800E+04 0.  0.
        1    1    3    3  502    0  0.75850101182E+03 -0.12814695202E+04 -0.18933593378E+03  0.15011115921E+04  0.50400001928E-02 0. -1.
       -1    1    3    3    0  502 -0.75850101182E+03  0.12814695202E+04 -0.15560806376E+04  0.21538047421E+04  0.50400001928E-02 0.  1.
</event>
<event>
 5   0  0.2722449E-06  0.3294619E+04  0.7818609E-02  0.8164266E-01
       -2   -1    0    0    0  501  0.00000000000E+00  0.00000000000E+00  0.14205776463E+04  0.14205776463E+04  0.25500000920E-02 0.  1.
        2   -1    0    0  501    0  0.00000000000E+00  0.00000000000E+00 -0.19102284955E+04  0.19102284955E+04  0.25500000920E-02 0. -1.
    10030    2    1    2    0    0  0.00000000000E+00  0.00000000000E+00 -0.48965084917E+03  0.33308061418E+04  0.32946185819E+04 0.  0.
        2    1    3    3  502    0  0.56356346901E+03 -0.11341511156E+04  0.82018036661E+03  0.15088400745E+04  0.25500000920E-02 0.  1.
       -2    1    3    3    0  502 -0.56356346901E+03  0.11341511156E+04 -0.13098312158E+04  0.18219660673E+04  0.25500000920E-02 0. -1.
</event>
<event>
 5   0  0.1654257E-06  0.3278127E+04  0.7818609E-02  0.8168483E-01
       -1   -1    0    0    0  501  0.00000000000E+00  0.00000000000E+00  0.13128431023E+04  0.13128431023E+04  0.50400001928E-02 0. -1.
        1   -1    0    0  501    0  0.00000000000E+00  0.00000000000E+00 -0.20463446895E+04  0.20463446895E+04  0.50400001928E-02 0.  1.
    10030    2    1    2    0    0  0.00000000000E+00  0.00000000000E+00 -0.73350158720E+03  0.33591877919E+04  0.32781272158E+04 0.  0.
        3    1    3    3  502    0 -0.23063574803E+03  0.15743279047E+04 -0.76996298362E+03  0.17676380303E+04  0.10100000352E+00 0.  1.
       -3    1    3    3    0  502  0.23063574803E+03 -0.15743279047E+04  0.36461396411E+02  0.15915497616E+04  0.10100000352E+00 0. -1.
</event>
<event>
 5   0  0.4189587E-06  0.3424200E+04  0.7818609E-02  0.8131992E-01
       -2   -1    0    0    0  501  0.00000000000E+00  0.00000000000E+00  0.21944439800E+04  0.21944439801E+04  0.25500000920E-02 0. -1.
        2   -1    0    0  501    0  0.00000000000E+00  0.00000000000E+00 -0.13357763665E+04  0.13357763665E+04  0.25500000920E-02 0.  1.
    10030    2    1    2    0    0  0.00000000000E+00  0.00000000000E+00  0.85866761353E+03  0.35302203466E+04  0.34241999978E+04 0.  0.
        1    1    3    3  502    0  0.12650460700E+04  0.45136414049E+03 -0.66524269547E+03  0.14988725732E+04  0.50400001928E-02 0.  1.
       -1    1    3    3    0  502 -0.12650460700E+04 -0.45136414049E+03  0.15239103090E+04  0.20313477734E+04  0.50400001928E-02 0. -1.
</event>
<event>
 5   0  0.1550164E-06  0.1712035E+04  0.7818609E-02  0.8754530E-01
        1   -1    0    0  501    0  0.00000000000E+00  0.00000000000E+00  0.37645854696E+03  0.37645854699E+03  0.50400001928E-02 0.  1.
       -1   -1    0    0    0  501  0.00000000000E+00  0.00000000000E+00 -0.19464727610E+04  0.19464727610E+04  0.50400001928E-02 0. -1.
    10030    2    1    2    0    0  0.00000000000E+00  0.00000000000E+00 -0.15700142140E+04  0.23229313080E+04  0.17120354054E+04 0.  0.
        4    1    3    3  502    0  0.74636182675E+03  0.40734736779E+03 -0.91916705413E+03  0.12521411824E+04  0.12699999809E+01 0. -1.
       -4    1    3    3    0  502 -0.74636182675E+03 -0.40734736779E+03 -0.65084715987E+03  0.10707901255E+04  0.12699999809E+01 0.  1.
</event>
<event>
 5   0  0.2722449E-06  0.3362625E+04  0.7818609E-02  0.8147141E-01
       -2   -1    0    0    0  501  0.00000000000E+00  0.00000000000E+00  0.10275415438E+04  0.10275415438E+04  0.25500000920E-02 0. -1.
        2   -1    0    0  501    0  0.00000000000E+00  0.00000000000E+00 -0.27510432769E+04  0.27510432769E+04  0.25500000920E-02 0.  1.
    10030    2    1    2    0    0  0.00000000000E+00  0.00000000000E+00 -0.17235017332E+04  0.37785848207E+04  0.33626247223E+04 0.  0.
        2    1    3    3  502    0 -0.69046353472E+03  0.71330972810E+03  0.66303340462E+03  0.11938023105E+04  0.25500000920E-02 0. -1.
       -2    1    3    3    0  502  0.69046353472E+03 -0.71330972810E+03 -0.23865351378E+04  0.25847825102E+04  0.25500000920E-02 0.  1.
</event>
<event>
 5   0  0.1562618E-06  0.3093585E+04  0.7818609E-02  0.8217501E-01
        1   -1    0    0  501    0  0.00000000000E+00  0.00000000000E+00  0.15954632049E+04  0.15954632049E+04  0.50400001928E-02 0.  1.
       -1   -1    0    0    0  501  0.00000000000E+00  0.00000000000E+00 -0.14996069535E+04  0.14996069536E+04  0.50400001928E-02 0. -1.
    10030    2    1    2    0    0  0.00000000000E+00  0.00000000000E+00  0.95856251345E+02  0.30950701585E+04  0.30935854384E+04 0.  0.
        2    1    3    3  502    0  0.26463896668E+03  0.10640531083E+04  0.11394718708E+04  0.15813408692E+04  0.25500000920E-02 0.  1.
       -2    1    3    3    0  502 -0.26463896668E+03 -0.10640531083E+04 -0.10436156195E+04  0.15137292893E+04  0.25500000920E-02 0. -1.
</event>
<event>
 5   0  0.4189587E-06  0.3386636E+04  0.7818609E-02  0.8141194E-01
        2   -1    0    0  501    0  0.00000000000E+00  0.00000000000E+00  0.24882320609E+04  0.24882320609E+04  0.25500000920E-02 0.  1.
       -2   -1    0    0    0  501  0.00000000000E+00  0.00000000000E+00 -0.11523548862E+04  0.11523548862E+04  0.25500000920E-02 0. -1.
    10030    2    1    2    0    0  0.00000000000E+00  0.00000000000E+00  0.13358771747E+04  0.36405869472E+04  0.33866363097E+04 0.  0.
        1    1    3    3  502    0  0.13203190927E+04  0.10533354737E+04  0.53818884898E+03  0.17726830974E+04  0.50400001928E-02 0. -1.
       -1    1    3    3    0  502 -0.13203190927E+04 -0.10533354737E+04  0.79768832573E+03  0.18679038497E+04  0.50400001928E-02 0.  1.
</event>
<event>
 5   0  0.4344980E-06  0.2953134E+04  0.7818609E-02  0.8257242E-01
       -2   -1    0    0    0  501  0.00000000000E+00  0.00000000000E+00  0.12593320141E+04  0.12593320141E+04  0.25500000920E-02 0.  1.
        2   -1    0    0  501    0  0.00000000000E+00  0.00000000000E+00 -0.17312747789E+04  0.17312747789E+04  0.25500000920E-02 0. -1.
    10030    2    1    2    0    0  0.00000000000E+00  0.00000000000E+00 -0.47194276480E+03  0.29906067931E+04  0.29531337622E+04 0.  0.
        3    1    3    3  502    0  0.65272257809E+03 -0.13957955432E+02 -0.15771666146E+04  0.17069552217E+04  0.10100000352E+00 0. -1.
       -3    1    3    3    0  502 -0.65272257809E+03  0.13957955432E+02  0.11052238498E+04  0.12836515714E+04  0.10100000352E+00 0.  1.
</event>
<event>
 5   0  0.1562618E-06  0.2931832E+04  0.7818609E-02  0.8263469E-01
       -1   -1    0    0    0  501  0.00000000000E+00  0.00000000000E+00  0.15283516016E+04  0.15283516016E+04  0.50400001928E-02 0.  1.
        1   -1    0    0  501    0  0.00000000000E+00  0.00000000000E+00 -0.14060311520E+04  0.14060311520E+04  0.50400001928E-02 0. -1.
    10030    2    1    2    0    0  0.00000000000E+00  0.00000000000E+00  0.12232044956E+03  0.29343827536E+04  0.29318321665E+04 0.  0.
        2    1    3    3  502    0  0.60695500152E+03  0.87290956418E+03 -0.94894741605E+03  0.14250847973E+04  0.25500000920E-02 0. -1.
       -2    1    3    3    0  502 -0.60695500152E+03 -0.87290956418E+03  0.10712678656E+04  0.15092979563E+04  0.25500000920E-02 0.  1.
</event>
<event>
 5   0  0.4189587E-06  0.3398211E+04  0.7818609E-02  0.8138345E-01
        2   -1    0    0  501    0  0.00000000000E+00  0.00000000000E+00  0.18039910437E+04  0.18039910437E+04  0.25500000920E-02 0.  1.
       -2   -1    0    0    0  501  0.00000000000E+00  0.00000000000E+00 -0.16003182682E+04  0.16003182682E+04  0.25500000920E-02 0. -1.
    10030    2    1    2    0    0  0.00000000000E+00  0.00000000000E+00  0.20367277552E+03  0.34043093119E+04  0.33982111900E+04 0.  0.
        1    1    3    3  502    0  0.32872008976E+03  0.14501551413E+03 -0.15618283521E+04  0.16026210402E+04  0.50400001928E-02 0. -1.
       -1    1    3    3    0  502 -0.32872008976E+03 -0.14501551413E+03  0.17655011277E+04  0.18016882717E+04  0.50400001928E-02 0.  1.
</event>
<event>
 5   0  0.4189587E-06  0.2965154E+04  0.7818609E-02  0.8253752E-01
       -2   -1    0    0    0  501  0.00000000000E+00  0.00000000000E+00  0.10749562250E+04  0.10749562250E+04  0.25500000920E-02 0.  1.
        2   -1    0    0  501    0  0.00000000000E+00  0.00000000000E+00 -0.20447661872E+04  0.20447661872E+04  0.25500000920E-02 0. -1.
    10030    2    1    2    0    0  0.00000000000E+00  0.00000000000E+00 -0.96980996217E+03  0.31197224122E+04  0.29651537172E+04 0.  0.
        1    1    3    3  502    0  0.86884138857E+03 -0.83625899028E+03 -0.13923129186E+04  0.18419418342E+04  0.50400001928E-02 0. -1.
       -1    1    3    3    0  502 -0.86884138857E+03  0.83625899028E+03  0.42250295643E+03  0.12777805780E+04  0.50400001928E-02 0.  1.
</event>
<event>
 5   0  0.1654257E-06  0.3518754E+04  0.7818609E-02  0.8109360E-01
        1   -1    0    0  501    0  0.00000000000E+00  0.00000000000E+00  0.12883422669E+04  0.12883422669E+04  0.50400001928E-02 0. -1.
       -1   -1    0    0    0  501  0.00000000000E+00  0.00000000000E+00 -0.24026284768E+04  0.24026284768E+04  0.50400001928E-02 0.  1.
    10030    2    1    2    0    0  0.00000000000E+00  0.00000000000E+00 -0.11142862099E+04  0.36909707437E+04  0.35187542217E+04 0.  0.
        3    1    3    3  502    0  0.94304565625E+03 -0.56646055983E+03 -0.19973663775E+04  0.22802818097E+04  0.10100000352E+00 0.  1.
       -3    1    3    3    0  502 -0.94304565625E+03  0.56646055983E+03  0.88308016763E+03  0.14106889339E+04  0.10100000352E+00 0. -1.
</event>
<event>
 5   0  0.4344980E-06  0.3465956E+04  0.7818609E-02  0.8121906E-01
       -2   -1    0    0    0  501  0.00000000000E+00  0.00000000000E+00  0.14497735913E+04  0.14497735913E+04  0.25500000920E-02 0.  1.
        2   -1    0    0  501    0  0.00000000000E+00  0.00000000000E+00 -0.20715047023E+04  0.20715047023E+04  0.25500000920E-02 0. -1.
    10030    2    1    2    0    0  0.00000000000E+00  0.00000000000E+00 -0.62173111104E+03  0.35212782936E+04  0.34659560365E+04 0.  0.
        3    1    3    3  502    0 -0.55549709926E+02  0.12263392538E+04  0.93185903533E+03  0.15412186761E+04  0.10100000352E+00 0.  1.
       -3    1    3    3    0  502  0.55549709926E+02 -0.12263392538E+04 -0.15535901464E+04  0.19800596175E+04  0.10100000352E+00 0. -1.
</event>
<event>
 5   0  0.1562618E-06  0.3231454E+04  0.7818609E-02  0.8180559E-01
        1   -1    0    0  501    0  0.00000000000E+00  0.00000000000E+00  0.90602579902E+03  0.90602579903E+03  0.50400001928E-02 0.  1.
       -1   -1    0    0    0  501  0.00000000000E+00  0.00000000000E+00 -0.28813452059E+04  0.28813452059E+04  0.50400001928E-02 0. -1.
    10030    2    1    2    0    0  0.00000000000E+00  0.00000000000E+00 -0.19753194069E+04  0.37873710049E+04  0.32314536001E+04 0.  0.
        2    1    3    3  502    0 -0.83496819064E+02 -0.72717574681E+03 -0.26758826708E+04  0.27741853495E+04  0.25500000920E-02 0. -1.
       -2    1    3    3    0  502  0.83496819064E+02  0.72717574681E+03  0.70056326393E+03  0.10131856554E+04  0.25500000920E-02 0.  1.
</event>
<event>
 5   0  0.1550164E-06  0.2163783E+04  0.7818609E-02  0.8533656E-01
        1   -1    0    0  501    0  0.00000000000E+00  0.00000000000E+00  0.12354980516E+04  0.12354980516E+04  0.50400001928E-02 0. -1.
       -1   -1    0    0    0  501  0.00000000000E+00  0.00000000000E+00 -0.94738221783E+03  0.94738221784E+03  0.50400001928E-02 0.  1.
    10030    2    1    2    0    0  0.00000000000E+00  0.00000000000E+00  0.28811583373E+03  0.21828802694E+04  0.21637826917E+04 0.  0.
        4    1    3    3  502    0  0.10208980493E+04  0.25778150580E+03  0.39485445723E+03  0.11245424790E+04  0.12699999809E+01 0. -1.
       -4    1    3    3    0  502 -0.10208980493E+04 -0.25778150580E+03 -0.10673862350E+03  0.10583377904E+04  0.12699999809E+01 0.  1.
</event>
<event>
 5   0  0.1654257E-06  0.1829114E+04  0.7818609E-02  0.8690968E-01
       -1   -1    0    0    0  501  0.00000000000E+00  0.00000000000E+00  0.10048466162E+04  0.10048466162E+04  0.50400001928E-02 0. -1.
        1   -1    0    0  501    0  0.00000000000E+00  0.00000000000E+00 -0.83238063185E+03  0.83238063187E+03  0.50400001928E-02 0.  1.
    10030    2    1    2    0    0  0.00000000000E+00  0.00000000000E+00  0.17246598434E+03  0.18372272481E+04  0.18291143883E+04 0.  0.
        3    1    3    3  502    0 -0.79355331101E+03  0.65718179447E+02  0.53808282676E+03  0.96103011148E+03  0.10100000352E+00 0. -1.
       -3    1    3    3    0  502  0.79355331101E+03 -0.65718179447E+02 -0.36561684241E+03  0.87619713660E+03  0.10100000352E+00 0.  1.
</event>
<event>
 5   0  0.2722449E-06  0.3303071E+04  0.7818609E-02  0.8162115E-01
       -2   -1    0    0    0  501  0.00000000000E+00  0.00000000000E+00  0.14988583901E+04  0.14988583901E+04  0.25500000920E-02 0. -1.
        2   -1    0    0  501    0  0.00000000000E+00  0.00000000000E+00 -0.18197641224E+04  0.18197641224E+04  0.25500000920E-02 0.  1.
    10030    2    1    2    0    0  0.00000000000E+00  0.00000000000E+00 -0.32090573225E+03  0.33186225125E+04  0.33030705247E+04 0.  0.
        2    1    3    3  502    0 -0.96885114097E+03  0.10290889825E+04  0.69789508849E+03  0.15763103190E+04  0.25500000920E-02 0. -1.
       -2    1    3    3    0  502  0.96885114097E+03 -0.10290889825E+04 -0.10188008207E+04  0.17423121935E+04  0.25500000920E-02 0.  1.
</event>
<event>
 5   0  0.2722449E-06  0.2225295E+04  0.7818609E-02  0.8507973E-01
       -2   -1    0    0    0  501  0.00000000000E+00  0.00000000000E+00  0.78361637286E+03  0.78361637286E+03  0.25500000920E-02 0.  1.
        2   -1    0    0  501    0  0.00000000000E+00  0.00000000000E+00 -0.15798346944E+04  0.15798346944E+04  0.25500000920E-02 0. -1.
    10030    2    1    2    0    0  0.00000000000E+00  0.00000000000E+00 -0.79621832154E+03  0.23634510673E+04  0.22252948865E+04 0.  0.
        2    1    3    3  502    0  0.19607567765E+03 -0.40186374540E+02 -0.15605574075E+04  0.15733404076E+04  0.25500000920E-02 0. -1.
       -2    1    3    3    0  502 -0.19607567765E+03  0.40186374540E+02  0.76433908600E+03  0.79011065963E+03  0.25500000920E-02 0.  1.
</event>
<event>
 5   0  0.4400349E-06  0.3046035E+04  0.7818609E-02  0.8230706E-01
       -2   -1    0    0    0  501  0.00000000000E+00  0.00000000000E+00  0.91553640338E+03  0.91553640339E+03  0.25500000920E-02 0. -1.
        2   -1    0    0  501    0  0.00000000000E+00  0.00000000000E+00 -0.25335774842E+04  0.25335774842E+04  0.25500000920E-02 0.  1.
    10030    2    1    2    0    0  0.00000000000E+00  0.00000000000E+00 -0.16180410809E+04  0.34491138876E+04  0.30460350737E+04 0.  0.
        5    1    3    3  502    0 -0.18823709967E+03  0.17744497966E+03  0.89046928731E+03  0.92729583636E+03  0.46999998093E+01 0. -1.
       -5    1    3    3    0  502  0.18823709967E+03 -0.17744497966E+03 -0.25085103682E+04  0.25218180513E+04  0.46999998093E+01 0.  1.
</event>
<event>
 5   0  0.1654257E-06  0.3449235E+04  0.7818609E-02  0.8125927E-01
       -1   -1    0    0    0  501  0.00000000000E+00  0.00000000000E+00  0.24513702935E+04  0.24513702935E+04  0.50400001928E-02 0.  1.
        1   -1    0    0  501    0  0.00000000000E+00  0.00000000000E+00 -0.12133239873E+04  0.12133239873E+04  0.50400001928E-02 0. -1.
    10030    2    1    2    0    0  0.00000000000E+00  0.00000000000E+00  0.12380463062E+04  0.36646942808E+04  0.34492354972E+04 0.  0.
        3    1    3    3  502    0  0.14495288963E+04 -0.18229992895E+03 -0.35470740271E+03  0.15033910460E+04  0.10100000352E+00 0. -1.
       -3    1    3    3    0  502 -0.14495288963E+04  0.18229992895E+03  0.15927537089E+04  0.21613032348E+04  0.10100000352E+00 0.  1.
</event>
<event>
 5   0  0.1654257E-06  0.3453337E+04  0.7818609E-02  0.8124938E-01
        1   -1    0    0  501    0  0.00000000000E+00  0.00000000000E+00  0.15538956446E+04  0.15538956446E+04  0.50400001928E-02 0. -1.
       -1   -1    0    0    0  501  0.00000000000E+00  0.00000000000E+00 -0.19186515351E+04  0.19186515351E+04  0.50400001928E-02 0.  1.
    10030    2    1    2    0    0  0.00000000000E+00  0.00000000000E+00 -0.36475589049E+03  0.34725471798E+04  0.34533370898E+04 0.  0.
        3    1    3    3  502    0 -0.16244259244E+04 -0.58533900678E+03 -0.18066046127E+03  0.17360931856E+04  0.10100000352E+00 0.  1.
       -3    1    3    3    0  502  0.16244259244E+04  0.58533900678E+03 -0.18409542922E+03  0.17364539942E+04  0.10100000352E+00 0. -1.
</event>
<event>
 5   0  0.2722449E-06  0.3456108E+04  0.7818609E-02  0.8124271E-01
       -2   -1    0    0    0  501  0.00000000000E+00  0.00000000000E+00  0.12208965560E+04  0.12208965560E+04  0.25500000920E-02 0. -1.
        2   -1    0    0  501    0  0.00000000000E+00  0.00000000000E+00 -0.24458836201E+04  0.24458836201E+04  0.25500000920E-02 0.  1.
    10030    2    1    2    0    0  0.00000000000E+00  0.00000000000E+00 -0.12249870641E+04  0.36667801761E+04  0.34561081512E+04 0.  0.
        2    1    3    3  502    0  0.16011926963E+04  0.48307230318E+03 -0.15125928728E+03  0.16793023173E+04  0.25500000920E-02 0. -1.
       -2    1    3    3    0  502 -0.16011926963E+04 -0.48307230318E+03 -0.10737277769E+04  0.19874778589E+04  0.25500000920E-02 0.  1.
</event>
<event>
 5   0  0.4344980E-06  0.1946213E+04  0.7818609E-02  0.8632189E-01
        2   -1    0    0  501    0  0.00000000000E+00  0.00000000000E+00  0.11235407244E+04  0.11235407244E+04  0.25500000920E-02 0.  1.
       -2   -1    0    0    0  501  0.00000000000E+00  0.00000000000E+00 -0.84281407493E+03  0.84281407494E+03  0.25500000920E-02 0. -1.
    10030    2    1    2    0    0  0.00000000000E+00  0.00000000000E+00  0.28072664950E+03  0.19663547994E+04  0.19462126670E+04 0.  0.
        3    1    3    3  502    0 -0.59632765091E+03  0.20135976270E+02  0.91703475347E+03  0.10940588988E+04  0.10100000352E+00 0.  1.
       -3    1    3    3    0  502  0.59632765091E+03 -0.20135976270E+02 -0.63630810397E+03  0.87229590057E+03  0.10100000352E+00 0. -1.
</event>
<event>
 5   0  0.4173467E-06  0.3453810E+04  0.7818609E-02  0.8124824E-01
       -2   -1    0    0    0  501  0.00000000000E+00  0.00000000000E+00  0.11944866895E+04  0.11944866895E+04  0.25500000920E-02 0. -1.
        2   -1    0    0  501    0  0.00000000000E+00  0.00000000000E+00 -0.24966387328E+04  0.24966387328E+04  0.25500000920E-02 0.  1.
    10030    2    1    2    0    0  0.00000000000E+00  0.00000000000E+00 -0.13021520433E+04  0.36911254223E+04  0.34538104955E+04 0.  0.
        4    1    3    3  502    0 -0.91416401189E+02  0.83881677335E+03  0.95918094588E+03  0.12774976468E+04  0.12699999809E+01 0. -1.
       -4    1    3    3    0  502  0.91416401189E+02 -0.83881677335E+03 -0.22613329892E+04  0.24136277755E+04  0.12699999809E+01 0.  1.
</event>
<event>
 5   0  0.2722449E-06  0.3596807E+04  0.7818609E-02  0.8091224E-01
       -2   -1    0    0    0  501  0.00000000000E+00  0.00000000000E+00  0.11400135979E+04  0.11400135979E+04  0.25500000920E-02 0.  1.
        2   -1    0    0  501    0  0.00000000000E+00  0.00000000000E+00 -0.28370318748E+04  0.28370318748E+04  0.25500000920E-02 0. -1.
    10030    2    1    2    0    0  0.00000000000E+00  0.00000000000E+00 -0.16970182770E+04  0.39770454727E+04  0.35968068699E+04 0.  0.
        2    1    3    3  502    0  0.87707025175E+02  0.12620143739E+04  0.56485411819E+03  0.13854360241E+04  0.25500000920E-02 0.  1.
       -2    1    3    3    0  502 -0.87707025175E+02 -0.12620143739E+04 -0.22618723951E+04  0.25916094486E+04  0.25500000920E-02 0. -1.
</event>
<event>
 5   0  0.4189587E-06  0.3361131E+04  0.7818609E-02  0.8147512E-01
       -2   -1    0    0    0  501  0.00000000000E+00  0.00000000000E+00  0.16512422797E+04  0.16512422797E+04  0.25500000920E-02 0.  1.
        2   -1    0    0  501    0  0.00000000000E+00  0.00000000000E+00 -0.17104096417E+04  0.17104096417E+04  0.25500000920E-02 0. -1.
    10030    2    1    2    0    0  0.00000000000E+00  0.00000000000E+00 -0.59167361951E+02  0.33616519214E+04  0.33611311881E+04 0.  0.
        1    1    3    3  502    0 -0.52388124362E+03  0.36329806302E+03 -0.15847727124E+04  0.17081983462E+04  0.50400001928E-02 0. -1.
       -1    1    3    3    0  502  0.52388124362E+03 -0.36329806302E+03  0.15256053504E+04  0.16534535752E+04  0.50400001928E-02 0.  1.
</event>
<event>
 5   0  0.1654257E-06  0.3298656E+04  0.7818609E-02  0.8163237E-01
       -1   -1    0    0    0  501  0.00000000000E+00  0.00000000000E+00  0.25000798771E+04  0.25000798771E+04  0.50400001928E-02 0.  1.
        1   -1    0    0  501    0  0.00000000000E+00  0.00000000000E+00 -0.10880784656E+04  0.10880784656E+04  0.50400001928E-02 0. -1.
    10030    2    1    2    0    0  0.00000000000E+00  0.00000000000E+00  0.14120014115E+04  0.35881583427E+04  0.32986561364E+04 0.  0.
        3    1    3    3  502    0  0.11269423990E+04  0.29809237150E+01  0.20159658382E+04  0.23095727587E+04  0.10100000352E+00 0.  1.
       -3    1    3    3    0  502 -0.11269423990E+04 -0.29809237150E+01 -0.60396442671E+03  0.12785855840E+04  0.10100000352E+00 0. -1.
</event>
<event>
 5   0  0.4400349E-06  0.3478721E+04  0.7818609E-02  0.8118851E-01
        2   -1    0    0  501    0  0.00000000000E+00  0.00000000000E+00  0.19253949964E+04  0.19253949964E+04  0.25500000920E-02 0. -1.
       -2   -1    0    0    0  501  0.00000000000E+00  0.00000000000E+00 -0.15713013160E+04  0.15713013160E+04  0.25500000920E-02 0.  1.
    10030    2    1    2    0    0  0.00000000000E+00  0.00000000000E+00  0.35409368032E+03  0.34966963124E+04  0.34787214270E+04 0.  0.
        5    1    3    3  502    0  0.67920987948E+03 -0.20681430119E+03  0.17730975395E+04  0.19099725627E+04  0.46999998093E+01 0. -1.
       -5    1    3    3    0  502 -0.67920987948E+03  0.20681430119E+03 -0.14190038592E+04  0.15867237497E+04  0.46999998093E+01 0.  1.
</event>
<event>
 5   0  0.2101998E-06  0.2043835E+04  0.7818609E-02  0.8586396E-01
        1   -1    0    0  501    0  0.00000000000E+00  0.00000000000E+00  0.15628281603E+04  0.15628281603E+04  0.50400001928E-02 0.  1.
       -1   -1    0    0    0  501  0.00000000000E+00  0.00000000000E+00 -0.66822134571E+03  0.66822134573E+03  0.50400001928E-02 0. -1.
    10030    2    1    2    0    0  0.00000000000E+00  0.00000000000E+00  0.89460681458E+03  0.22310495060E+04  0.20438347648E+04 0.  0.
        5    1    3    3  502    0  0.87351707505E+03 -0.21756130577E+03 -0.80660908263E+02  0.90382148364E+03  0.46999998093E+01 0. -1.
       -5    1    3    3    0  502 -0.87351707505E+03  0.21756130577E+03  0.97526772284E+03  0.13272280224E+04  0.46999998093E+01 0.  1.
</event>
<event>
 5   0  0.1571391E-06  0.1694205E+04  0.7818609E-02  0.8764677E-01
       -1   -1    0    0    0  501  0.00000000000E+00  0.00000000000E+00  0.91020642517E+03  0.91020642518E+03  0.50400001928E-02 0. -1.
        1   -1    0    0  501    0  0.00000000000E+00  0.00000000000E+00 -0.78837318992E+03  0.78837318994E+03  0.50400001928E-02 0.  1.
    10030    2    1    2    0    0  0.00000000000E+00  0.00000000000E+00  0.12183323525E+03  0.16985796151E+04  0.16942046428E+04 0.  0.
        1    1    3    3  502    0  0.77269661595E+03 -0.12196459036E+03  0.38678968085E+03  0.87266355420E+03  0.50400001928E-02 0.  1.
       -1    1    3    3    0  502 -0.77269661595E+03  0.12196459036E+03 -0.26495644561E+03  0.82591606092E+03  0.50400001928E-02 0. -1.
</event>
<event>
 5   0  0.4189587E-06  0.3528045E+04  0.7818609E-02  0.8107176E-01
       -2   -1    0    0    0  501  0.00000000000E+00  0.00000000000E+00  0.22395554908E+04  0.22395554908E+04  0.25500000920E-02 0. -1.
        2   -1    0    0  501    0  0.00000000000E+00  0.00000000000E+00 -0.13894612411E+04  0.13894612411E+04  0.25500000920E-02 0.  1.
    10030    2    1    2    0    0  0.00000000000E+00  0.00000000000E+00  0.85009424979E+03  0.36290167319E+04  0.35280450971E+04 0.  0.
        1    1    3    3  502    0  0.15490772944E+04  0.73734553636E+03  0.84722835390E+03  0.19134039792E+04  0.50400001928E-02 0. -1.
       -1    1    3    3    0  502 -0.15490772944E+04 -0.73734553636E+03  0.28658958808E+01  0.17156127527E+04  0.50400001928E-02 0.  1.
</event>
<event>
 5   0  0.1571391E-06  0.3322063E+04  0.7818609E-02  0.8157304E-01
        1   -1    0    0  501    0  0.00000000000E+00  0.00000000000E+00  0.30697590115E+04  0.30697590115E+04  0.50400001928E-02 0. -1.
       -1   -1    0    0    0  501  0.00000000000E+00  0.00000000000E+00 -0.89877576289E+03  0.89877576291E+03  0.50400001928E-02 0.  1.
    10030    2    1    2    0    0  0.00000000000E+00  0.00000000000E+00  0.21709832486E+04  0.39685347744E+04  0.33220626108E+04 0.  0.
        1    1    3    3  502    0  0.11671897114E+04  0.54714936771E+03 -0.16588826605E+03  0.12997011848E+04  0.50400001928E-02 0.  1.
       -1    1    3    3    0  502 -0.11671897114E+04 -0.54714936771E+03  0.23368715146E+04  0.26688335896E+04  0.50400001928E-02 0. -1.
</event>
<event>
 5   0  0.1654257E-06  0.1734670E+04  0.7818609E-02  0.8741834E-01
        1   -1    0    0  501    0  0.00000000000E+00  0.00000000000E+00  0.73186275014E+03  0.73186275015E+03  0.50400001928E-02 0.  1.
       -1   -1    0    0    0  501  0.00000000000E+00  0.00000000000E+00 -0.10278837817E+04  0.10278837817E+04  0.50400001928E-02 0. -1.
    10030    2    1    2    0    0  0.00000000000E+00  0.00000000000E+00 -0.29602103155E+03  0.17597465319E+04  0.17346698260E+04 0.  0.
        3    1    3    3  502    0  0.47789337366E+03  0.78200698889E+02 -0.87797671113E+03  0.10026667150E+04  0.10100000352E+00 0. -1.
       -3    1    3    3    0  502 -0.47789337366E+03 -0.78200698889E+02  0.58195567957E+03  0.75707981685E+03  0.10100000352E+00 0.  1.
</event>
<event>
 5   0  0.1562618E-06  0.2584545E+04  0.7818609E-02  0.8373470E-01
       -1   -1    0    0    0  501  0.00000000000E+00  0.00000000000E+00  0.14150594618E+04  0.14150594618E+04  0.50400001928E-02 0.  1.
        1   -1    0    0  501    0  0.00000000000E+00  0.00000000000E+00 -0.11801403625E+04  0.11801403625E+04  0.50400001928E-02 0. -1.
    10030    2    1    2    0    0  0.00000000000E+00  0.00000000000E+00  0.23491909932E+03  0.25951998243E+04  0.25845454426E+04 0.  0.
        2    1    3    3  502    0  0.10123542285E+04 -0.19944770186E+02  0.92370783316E+03  0.13705820073E+04  0.25500000920E-02 0.  1.
       -2    1    3    3    0  502 -0.10123542285E+04  0.19944770186E+02 -0.68878873384E+03  0.12246178170E+04  0.25500000920E-02 0. -1.
</event>
<event>
 5   0  0.1654257E-06  0.3170653E+04  0.7818609E-02  0.8196611E-01
       -1   -1    0    0    0  501  0.00000000000E+00  0.00000000000E+00  0.11734488367E+04  0.11734488368E+04  0.50400001928E-02 0.  1.
        1   -1    0    0  501    0  0.00000000000E+00  0.00000000000E+00 -0.21417715661E+04  0.21417715661E+04  0.50400001928E-02 0. -1.
    10030    2    1    2    0    0  0.00000000000E+00  0.00000000000E+00 -0.96832272938E+03  0.33152204029E+04  0.31706525214E+04 0.  0.
        3    1    3    3  502    0  0.13912179109E+04 -0.11230175056E+02 -0.12788456473E+04  0.18897247399E+04  0.10100000352E+00 0. -1.
       -3    1    3    3    0  502 -0.13912179109E+04  0.11230175056E+02  0.31052291797E+03  0.14254956630E+04  0.10100000352E+00 0.  1.
</event>
<event>
 5   0  0.2722449E-06  0.2354777E+04  0.7818609E-02  0.8456631E-01
        2   -1    0    0  501    0  0.00000000000E+00  0.00000000000E+00  0.21520636772E+04  0.21520636772E+04  0.25500000920E-02 0. -1.
       -2   -1    0    0    0  501  0.00000000000E+00  0.00000000000E+00 -0.64414604875E+03  0.64414604876E+03  0.25500000920E-02 0.  1.
    10030    2    1    2    0    0  0.00000000000E+00  0.00000000000E+00  0.15079176284E+04  0.27962097259E+04  0.23547766895E+04 0.  0.
        2    1    3    3  502    0  0.63235209283E+03 -0.74866982731E+03 -0.20962010131E+02  0.98021175544E+03  0.25500000920E-02 0. -1.
       -2    1    3    3    0  502 -0.63235209283E+03  0.74866982731E+03  0.15288796385E+04  0.18159979705E+04  0.25500000920E-02 0.  1.
</event>
<event>
 5   0  0.4189587E-06  0.3352866E+04  0.7818609E-02  0.8149572E-01
        2   -1    0    0  501    0  0.00000000000E+00  0.00000000000E+00  0.22104615558E+04  0.22104615558E+04  0.25500000920E-02 0. -1.
       -2   -1    0    0    0  501  0.00000000000E+00  0.00000000000E+00 -0.12714210326E+04  0.12714210326E+04  0.25500000920E-02 0.  1.
    10030    2    1    2    0    0  0.00000000000E+00  0.00000000000E+00  0.93904052316E+03  0.34818825884E+04  0.33528658272E+04 0.  0.
        1    1    3    3  502    0  0.94775265047E+03  0.39345257939E+03 -0.90715557272E+03  0.13696609989E+04  0.50400001928E-02 0.  1.
       -1    1    3    3    0  502 -0.94775265047E+03 -0.39345257939E+03  0.18461960959E+04  0.21122215895E+04  0.50400001928E-02 0. -1.
</event>
<event>
 5   0  0.1550164E-06  0.2957609E+04  0.7818609E-02  0.8255941E-01
       -1   -1    0    0    0  501  0.00000000000E+00  0.00000000000E+00  0.13391468109E+04  0.13391468109E+04  0.50400001928E-02 0. -1.
        1   -1    0    0  501    0  0.00000000000E+00  0.00000000000E+00 -0.16330265290E+04  0.16330265291E+04  0.50400001928E-02 0.  1.
    10030    2    1    2    0    0  0.00000000000E+00  0.00000000000E+00 -0.29387971819E+03  0.29721733399E+04  0.29576086749E+04 0.  0.
        4    1    3    3  502    0 -0.11575851716E+04 -0.82322935415E+03  0.26636476731E+03  0.14452203297E+04  0.12699999809E+01 0. -1.
       -4    1    3    3    0  502  0.11575851716E+04  0.82322935415E+03 -0.56024448550E+03  0.15269530103E+04  0.12699999809E+01 0.  1.
</event>
<event>
 5   0  0.2722449E-06  0.3415488E+04  0.7818609E-02  0.8134116E-01
       -2   -1    0    0    0  501  0.00000000000E+00  0.00000000000E+00  0.12683007467E+04  0.12683007467E+04  0.25500000920E-02 0. -1.
        2   -1    0    0  501    0  0.00000000000E+00  0.00000000000E+00 -0.22994457615E+04  0.22994457615E+04  0.25500000920E-02 0.  1.
    10030    2    1    2    0    0  0.00000000000E+00  0.00000000000E+00 -0.10311450147E+04  0.35677465082E+04  0.34154875355E+04 0.  0.
        2    1    3    3  502    0  0.36199150384E+03 -0.63556376483E+03 -0.21275476392E+04  0.22497640110E+04  0.25500000920E-02 0.  1.
       -2    1    3    3    0  502 -0.36199150384E+03  0.63556376483E+03  0.10964026245E+04  0.13179824972E+04  0.25500000920E-02 0. -1.
</event>
<event>
 5   0  0.1654257E-06  0.3338791E+04  0.7818609E-02  0.8153095E-01
        1   -1    0    0  501    0  0.00000000000E+00  0.00000000000E+00  0.27571072078E+04  0.27571072078E+04  0.50400001928E-02 0. -1.
       -1   -1    0    0    0  501  0.00000000000E+00  0.00000000000E+00 -0.10107988080E+04  0.10107988080E+04  0.50400001928E-02 0.  1.
    10030    2    1    2    0    0  0.00000000000E+00  0.00000000000E+00  0.17463083998E+04  0.37679060158E+04  0.33387906069E+04 0.  0.
        3    1    3    3  502    0  0.72989115293E+03 -0.85659447485E+03 -0.51836029659E+03  0.12390288926E+04  0.10100000352E+00 0.  1.
       -3    1    3    3    0  502 -0.72989115293E+03  0.85659447485E+03  0.22646686964E+04  0.25288771232E+04  0.10100000352E+00 0. -1.
</event>
<event>
 5   0  0.2722449E-06  0.3388950E+04  0.7818609E-02  0.8140624E-01
       -2   -1    0    0    0  501  0.00000000000E+00  0.00000000000E+00  0.13748402282E+04  0.13748402282E+04  0.25500000920E-02 0.  1.
        2   -1    0    0  501    0  0.00000000000E+00  0.00000000000E+00 -0.20884213546E+04  0.20884213546E+04  0.25500000920E-02 0. -1.
    10030    2    1    2    0    0  0.00000000000E+00  0.00000000000E+00 -0.71358112638E+03  0.34632615827E+04  0.33889500980E+04 0.  0.
        2    1    3    3  502    0  0.13425552830E+04  0.85237692525E+03  0.24105417549E+03  0.16084490126E+04  0.25500000920E-02 0.  1.
       -2    1    3    3    0  502 -0.13425552830E+04 -0.85237692525E+03 -0.95463530187E+03  0.18548125701E+04  0.25500000920E-02 0. -1.
</event>
<event>
 5   0  0.1562618E-06  0.3547652E+04  0.7818609E-02  0.8102589E-01
       -1   -1    0    0    0  501  0.00000000000E+00  0.00000000000E+00  0.13409801497E+04  0.13409801497E+04  0.50400001928E-02 0. -1.
        1   -1    0    0  501    0  0.00000000000E+00  0.00000000000E+00 -0.23463875739E+04  0.23463875739E+04  0.50400001928E-02 0.  1.
    10030    2    1    2    0    0  0.00000000000E+00  0.00000000000E+00 -0.10054074243E+04  0.36873677236E+04  0.35476522716E+04 0.  0.
        2    1    3    3  502    0 -0.14746434996E+04  0.73285781094E+03  0.18266257585E+03  0.16568100792E+04  0.25500000920E-02 0. -1.
       -2    1    3    3    0  502  0.14746434996E+04 -0.73285781094E+03 -0.11880700001E+04  0.20305576444E+04  0.25500000920E-02 0.  1.
</event>
<event>
 5   0  0.1562618E-06  0.3409435E+04  0.7818609E-02  0.8135595E-01
        1   -1    0    0  501    0  0.00000000000E+00  0.00000000000E+00  0.22890692321E+04  0.22890692321E+04  0.50400001928E-02 0. -1.
       -1   -1    0    0    0  501  0.00000000000E+00  0.00000000000E+00 -0.12695385670E+04  0.12695385670E+04  0.50400001928E-02 0.  1.
    10030    2    1    2    0    0  0.00000000000E+00  0.00000000000E+00  0.10195306651E+04  0.35586077991E+04  0.34094349519E+04 0.  0.
        2    1    3    3  502    0 -0.14382637519E+04  0.48297016282E+03  0.13210769095E+04  0.20117422795E+04  0.25500000920E-02 0. -1.
       -2    1    3    3    0  502  0.14382637519E+04 -0.48297016282E+03 -0.30154624444E+03  0.15468655196E+04  0.25500000920E-02 0.  1.
</event>
<event>
 5   0  0.1562618E-06  0.2885658E+04  0.7818609E-02  0.8277157E-01
       -1   -1    0    0    0  501  0.00000000000E+00  0.00000000000E+00  0.13908381246E+04  0.13908381246E+04  0.50400001928E-02 0.  1.
        1   -1    0    0  501    0  0.00000000000E+00  0.00000000000E+00 -0.14967632387E+04  0.14967632387E+04  0.50400001928E-02 0. -1.
    10030    2    1    2    0    0  0.00000000000E+00  0.00000000000E+00 -0.10592511417E+03  0.28876013633E+04  0.28856578979E+04 0.  0.
        2    1    3    3  502    0  0.94130585546E+03  0.10923629391E+04 -0.35139779610E+01  0.14419867726E+04  0.25500000920E-02 0.  1.
       -2    1    3    3    0  502 -0.94130585546E+03 -0.10923629391E+04 -0.10241113621E+03  0.14456145908E+04  0.25500000920E-02 0. -1.
</event>
<event>
 5   0  0.2722449E-06  0.3443006E+04  0.7818609E-02  0.8127431E-01
        2   -1    0    0  501    0  0.00000000000E+00  0.00000000000E+00  0.18987281511E+04  0.18987281511E+04  0.25500000920E-02 0.  1.
       -2   -1    0    0    0  501  0.00000000000E+00  0.00000000000E+00 -0.15608201409E+04  0.15608201409E+04  0.25500000920E-02 0. -1.
    10030    2    1    2    0    0  0.00000000000E+00  0.00000000000E+00  0.33790801020E+03  0.34595482919E+04  0.34430063260E+04 0.  0.
        2    1    3    3  502    0  0.59285700837E+03  0.14706251807E+03 -0.14482713887E+04  0.15718132306E+04  0.25500000920E-02 0. -1.
       -2    1    3    3    0  502 -0.59285700837E+03 -0.14706251807E+03  0.17861793989E+04  0.18877350613E+04  0.25500000920E-02 0.  1.
</event>
<event>
 5   0  0.2101998E-06  0.3412636E+04  0.7818609E-02  0.8134812E-01
        1   -1    0    0  501    0  0.00000000000E+00  0.00000000000E+00  0.16359425666E+04  0.16359425666E+04  0.50400001928E-02 0.  1.
       -1   -1    0    0    0  501  0.00000000000E+00  0.00000000000E+00 -0.17797209254E+04  0.17797209254E+04  0.50400001928E-02 0. -1.
    10030    2    1    2    0    0  0.00000000000E+00  0.00000000000E+00 -0.14377835881E+03  0.34156634921E+04  0.34126360595E+04 0.  0.
        5    1    3    3  502    0  0.13727774766E+04 -0.94972673992E+03 -0.42575656680E+03  0.17227273797E+04  0.46999998093E+01 0. -1.
       -5    1    3    3    0  502 -0.13727774766E+04  0.94972673992E+03  0.28197820799E+03  0.16929361123E+04  0.46999998093E+01 0.  1.
</event>
<event>
 5   0  0.4400349E-06  0.3462177E+04  0.7818609E-02  0.8122812E-01
        2   -1    0    0  501    0  0.00000000000E+00  0.00000000000E+00  0.15562291560E+04  0.15562291560E+04  0.25500000920E-02 0. -1.
       -2   -1    0    0    0  501  0.00000000000E+00  0.00000000000E+00 -0.19255949515E+04  0.19255949515E+04  0.25500000920E-02 0.  1.
    10030    2    1    2    0    0  0.00000000000E+00  0.00000000000E+00 -0.36936579551E+03  0.34818241075E+04  0.34621767754E+04 0.  0.
        5    1    3    3  502    0  0.31337945596E+03  0.11845305013E+04  0.10450916248E+04  0.16104526650E+04  0.46999998093E+01 0. -1.
       -5    1    3    3    0  502 -0.31337945596E+03 -0.11845305013E+04 -0.14144574203E+04  0.18713714425E+04  0.46999998093E+01 0.  1.
</event>
<event>
 5   0  0.4344980E-06  0.1831870E+04  0.7818609E-02  0.8689532E-01
        2   -1    0    0  501    0  0.00000000000E+00  0.00000000000E+00  0.73246477903E+03  0.73246477903E+03  0.25500000920E-02 0. -1.
       -2   -1    0    0    0  501  0.00000000000E+00  0.00000000000E+00 -0.11453618299E+04  0.11453618299E+04  0.25500000920E-02 0.  1.
    10030    2    1    2    0    0  0.00000000000E+00  0.00000000000E+00 -0.41289705085E+03  0.18778266089E+04  0.18318703007E+04 0.  0.
        3    1    3    3  502    0  0.61681704136E+03  0.64253793140E+03 -0.42539266835E+03  0.98705480510E+03  0.10100000352E+00 0.  1.
       -3    1    3    3    0  502 -0.61681704136E+03 -0.64253793140E+03  0.12495617498E+02  0.89077180380E+03  0.10100000352E+00 0. -1.
</event>
<event>
 5   0  0.2722449E-06  0.2715613E+04  0.7818609E-02  0.8329957E-01
        2   -1    0    0  501    0  0.00000000000E+00  0.00000000000E+00  0.12325227124E+04  0.12325227124E+04  0.25500000920E-02 0.  1.
       -2   -1    0    0    0  501  0.00000000000E+00  0.00000000000E+00 -0.14958247402E+04  0.14958247402E+04  0.25500000920E-02 0. -1.
    10030    2    1    2    0    0  0.00000000000E+00  0.00000000000E+00 -0.26330202778E+03  0.27283474527E+04  0.27156126131E+04 0.  0.
        2    1    3    3  502    0  0.26275509764E+03  0.65458630329E+02 -0.14684215832E+04  0.14931801699E+04  0.25500000920E-02 0. -1.
       -2    1    3    3    0  502 -0.26275509764E+03 -0.65458630329E+02  0.12051195554E+04  0.12351672828E+04  0.25500000920E-02 0.  1.
</event>
<event>
 5   0  0.1550164E-06  0.1997207E+04  0.7818609E-02  0.8607928E-01
       -1   -1    0    0    0  501  0.00000000000E+00  0.00000000000E+00  0.67505026274E+03  0.67505026276E+03  0.50400001928E-02 0. -1.
        1   -1    0    0  501    0  0.00000000000E+00  0.00000000000E+00 -0.14772360325E+04  0.14772360325E+04  0.50400001928E-02 0.  1.
    10030    2    1    2    0    0  0.00000000000E+00  0.00000000000E+00 -0.80218576973E+03  0.21522862952E+04  0.19972066211E+04 0.  0.
        4    1    3    3  502    0  0.24770660123E+03 -0.89161948464E+03  0.33671860752E+01  0.92539549195E+03  0.12699999809E+01 0. -1.
       -4    1    3    3    0  502 -0.24770660123E+03  0.89161948464E+03 -0.80555295581E+03  0.12268908033E+04  0.12699999809E+01 0.  1.
</event>
<event>
 5   0  0.4400349E-06  0.3543483E+04  0.7818609E-02  0.8103562E-01
        2   -1    0    0  501    0  0.00000000000E+00  0.00000000000E+00  0.26295377158E+04  0.26295377158E+04  0.25500000920E-02 0. -1.
       -2   -1    0    0    0  501  0.00000000000E+00  0.00000000000E+00 -0.11937715225E+04  0.11937715225E+04  0.25500000920E-02 0.  1.
    10030    2    1    2    0    0  0.00000000000E+00  0.00000000000E+00  0.14357661933E+04  0.38233092383E+04  0.35434826047E+04 0.  0.
        5    1    3    3  502    0  0.12370399598E+04 -0.10282095271E+04  0.15192039974E+04  0.22125744212E+04  0.46999998093E+01 0. -1.
       -5    1    3    3    0  502 -0.12370399598E+04  0.10282095271E+04 -0.83437804116E+02  0.16107348170E+04  0.46999998093E+01 0.  1.
</event>
<event>
 5   0  0.2722449E-06  0.3196512E+04  0.7818609E-02  0.8189739E-01
        2   -1    0    0  501    0  0.00000000000E+00  0.00000000000E+00  0.18162150057E+04  0.18162150057E+04  0.25500000920E-02 0. -1.
       -2   -1    0    0    0  501  0.00000000000E+00  0.00000000000E+00 -0.14064537863E+04  0.14064537863E+04  0.25500000920E-02 0.  1.
    10030    2    1    2    0    0  0.00000000000E+00  0.00000000000E+00  0.40976121944E+03  0.32226687920E+04  0.31965121439E+04 0.  0.
        2    1    3    3  502    0  0.12524844627E+04 -0.37595433891E+03  0.11312923168E+04  0.17291273233E+04  0.25500000920E-02 0.  1.
       -2    1    3    3    0  502 -0.12524844627E+04  0.37595433891E+03 -0.72153109735E+03  0.14935414687E+04  0.25500000920E-02 0. -1.
</event>
<event>
 5   0  0.1562618E-06  0.3435028E+04  0.7818609E-02  0.8129362E-01
        1   -1    0    0  501    0  0.00000000000E+00  0.00000000000E+00  0.25567638012E+04  0.25567638012E+04  0.50400001928E-02 0.  1.
       -1   -1    0    0    0  501  0.00000000000E+00  0.00000000000E+00 -0.11537454875E+04  0.11537454875E+04  0.50400001928E-02 0. -1.
    10030    2    1    2    0    0  0.00000000000E+00  0.00000000000E+00  0.14030183137E+04  0.37105092887E+04  0.34350282085E+04 0.  0.
        2    1    3    3  502    0 -0.66720137062E+03  0.68090547364E+03 -0.84172422165E+03  0.12717270141E+04  0.25500000920E-02 0. -1.
       -2    1    3    3    0  502  0.66720137062E+03 -0.68090547364E+03  0.22447425354E+04  0.24387822747E+04  0.25500000920E-02 0.  1.
</event>
<event>
 5   0  0.4344980E-06  0.2167889E+04  0.7818609E-02  0.8531914E-01
       -2   -1    0    0    0  501  0.00000000000E+00  0.00000000000E+00  0.13215196748E+04  0.13215196748E+04  0.25500000920E-02 0. -1.
        2   -1    0    0  501    0  0.00000000000E+00  0.00000000000E+00 -0.88907906032E+03  0.88907906032E+03  0.25500000920E-02 0.  1.
    10030    2    1    2    0    0  0.00000000000E+00  0.00000000000E+00  0.43244061443E+03  0.22105987351E+04  0.21678888077E+04 0.  0.
        3    1    3    3  502    0  0.82330127225E+03 -0.49007684314E+03  0.73309430671E+03  0.12064110285E+04  0.10100000352E+00 0. -1.
       -3    1    3    3    0  502 -0.82330127225E+03  0.49007684314E+03 -0.30065369227E+03  0.10041877065E+04  0.10100000352E+00 0.  1.
</event>
<event>
 5   0  0.4344980E-06  0.3348897E+04  0.7818609E-02  0.8150564E-01
       -2   -1    0    0    0  501  0.00000000000E+00  0.00000000000E+00  0.16307352733E+04  0.16307352733E+04  0.25500000920E-02 0. -1.
        2   -1    0    0  501    0  0.00000000000E+00  0.00000000000E+00 -0.17193333258E+04  0.17193333258E+04  0.25500000920E-02 0.  1.
    10030    2    1    2    0    0  0.00000000000E+00  0.00000000000E+00 -0.88598052434E+02  0.33500685991E+04  0.33488968339E+04 0.  0.
        3    1    3    3  502    0  0.69721048886E+03 -0.75679636652E+03  0.12771227796E+04  0.16400871351E+04  0.10100000352E+00 0. -1.
       -3    1    3    3    0  502 -0.69721048886E+03  0.75679636652E+03 -0.13657208320E+04  0.17099814641E+04  0.10100000352E+00 0.  1.
</event>
<event>
 5   0  0.2101998E-06  0.3390759E+04  0.7818609E-02  0.8140178E-01
        1   -1    0    0  501    0  0.00000000000E+00  0.00000000000E+00  0.23205277563E+04  0.23205277563E+04  0.50400001928E-02 0.  1.
       -1   -1    0    0    0  501  0.00000000000E+00  0.00000000000E+00 -0.12386457666E+04  0.12386457666E+04  0.50400001928E-02 0. -1.
    10030    2    1    2    0    0  0.00000000000E+00  0.00000000000E+00  0.10818819896E+04  0.35591735229E+04  0.33907591372E+04 0.  0.
        5    1    3    3  502    0  0.10802523717E+04  0.72954780435E+03 -0.59692334115E+03  0.14337101348E+04  0.46999998093E+01 0. -1.
       -5    1    3    3    0  502 -0.10802523717E+04 -0.72954780435E+03  0.16788053308E+04  0.21254633881E+04  0.46999998093E+01 0.  1.
</event>
<event>
 5   0  0.1571391E-06  0.3316767E+04  0.7818609E-02  0.8158642E-01
        1   -1    0    0  501    0  0.00000000000E+00  0.00000000000E+00  0.18549392823E+04  0.18549392823E+04  0.50400001928E-02 0.  1.
       -1   -1    0    0    0  501  0.00000000000E+00  0.00000000000E+00 -0.14826556899E+04  0.14826556899E+04  0.50400001928E-02 0. -1.
    10030    2    1    2    0    0  0.00000000000E+00  0.00000000000E+00  0.37228359245E+03  0.33375949722E+04  0.33167672703E+04 0.  0.
        1    1    3    3  502    0 -0.94404909573E+03 -0.84922534077E+03 -0.88724478221E+03  0.15490692942E+04  0.50400001928E-02 0. -1.
       -1    1    3    3    0  502  0.94404909573E+03  0.84922534077E+03  0.12595283747E+04  0.17885256781E+04  0.50400001928E-02 0.  1.
</event>
<event>
 5   0  0.4189587E-06  0.3396586E+04  0.7818609E-02  0.8138745E-01
       -2   -1    0    0    0  501  0.00000000000E+00  0.00000000000E+00  0.17791359418E+04  0.17791359418E+04  0.25500000920E-02 0. -1.
        2   -1    0    0  501    0  0.00000000000E+00  0.00000000000E+00 -0.16211233296E+04  0.16211233296E+04  0.25500000920E-02 0.  1.
    10030    2    1    2    0    0  0.00000000000E+00  0.00000000000E+00  0.15801261221E+03  0.34002592714E+04  0.33965858045E+04 0.  0.
        1    1    3    3  502    0 -0.56856885506E+03 -0.14418793208E+04  0.77395610270E+03  0.17324244768E+04  0.50400001928E-02 0. -1.
       -1    1    3    3    0  502  0.56856885506E+03  0.14418793208E+04 -0.61594349049E+03  0.16678347947E+04  0.50400001928E-02 0.  1.
</event>
<event>
 5   0  0.4173467E-06  0.1831670E+04  0.7818609E-02  0.8689637E-01
       -2   -1    0    0    0  501  0.00000000000E+00  0.00000000000E+00  0.85063913638E+03  0.85063913638E+03  0.25500000920E-02 0.  1.
        2   -1    0    0  501    0  0.00000000000E+00  0.00000000000E+00 -0.98602804010E+03  0.98602804010E+03  0.25500000920E-02 0. -1.
    10030    2    1    2    0    0  0.00000000000E+00  0.00000000000E+00 -0.13538890372E+03  0.18366671765E+04  0.18316703202E+04 0.  0.
        4    1    3    3  502    0 -0.47434297532E+03  0.33581621709E+03  0.64203488960E+03  0.86601628290E+03  0.12699999809E+01 0.  1.
       -4    1    3    3    0  502  0.47434297532E+03 -0.33581621709E+03 -0.77742379331E+03  0.97065089358E+03  0.12699999809E+01 0. -1.
</event>
<event>
 5   0  0.4173467E-06  0.3209706E+04  0.7818609E-02  0.8186259E-01
       -2   -1    0    0    0  501  0.00000000000E+00  0.00000000000E+00  0.20594182097E+04  0.20594182097E+04  0.25500000920E-02 0. -1.
        2   -1    0    0  501    0  0.00000000000E+00  0.00000000000E+00 -0.12506218135E+04  0.12506218135E+04  0.25500000920E-02 0.  1.
    10030    2    1    2    0    0  0.00000000000E+00  0.00000000000E+00  0.80879639625E+03  0.33100400232E+04  0.32097061150E+04 0.  0.
        4    1    3    3  502    0 -0.52938010186E+03  0.10023369439E+04 -0.76717303347E+03  0.13687507872E+04  0.12699999809E+01 0.  1.
       -4    1    3    3    0  502  0.52938010186E+03 -0.10023369439E+04  0.15759694297E+04  0.19412892360E+04  0.12699999809E+01 0. -1.
</event>
<event>
 5   0  0.2722449E-06  0.3176031E+04  0.7818609E-02  0.8195176E-01
        2   -1    0    0  501    0  0.00000000000E+00  0.00000000000E+00  0.25677762229E+04  0.25677762229E+04  0.25500000920E-02 0.  1.
       -2   -1    0    0    0  501  0.00000000000E+00  0.00000000000E+00 -0.98209232117E+03  0.98209232118E+03  0.25500000920E-02 0. -1.
    10030    2    1    2    0    0  0.00000000000E+00  0.00000000000E+00  0.15856839018E+04  0.35498685441E+04  0.31760310521E+04 0.  0.
        2    1    3    3  502    0 -0.11744388972E+04 -0.10687081767E+04  0.77194889461E+03  0.17656015932E+04  0.25500000920E-02 0. -1.
       -2    1    3    3    0  502  0.11744388972E+04  0.10687081767E+04  0.81373500714E+03  0.17842669509E+04  0.25500000920E-02 0.  1.
</event>
<event>
 5   0  0.1550164E-06  0.3210864E+04  0.7818609E-02  0.8185954E-01
        1   -1    0    0  501    0  0.00000000000E+00  0.00000000000E+00  0.17430265761E+04  0.17430265761E+04  0.50400001928E-02 0.  1.
       -1   -1    0    0    0  501  0.00000000000E+00  0.00000000000E+00 -0.14786995690E+04  0.14786995690E+04  0.50400001928E-02 0. -1.
    10030    2    1    2    0    0  0.00000000000E+00  0.00000000000E+00  0.26432700710E+03  0.32217261451E+04  0.32108644610E+04 0.  0.
        4    1    3    3  502    0 -0.61496653252E+03  0.26181135000E+03 -0.13324598956E+04  0.14906978250E+04  0.12699999809E+01 0. -1.
       -4    1    3    3    0  502  0.61496653252E+03 -0.26181135000E+03  0.15967869027E+04  0.17310283200E+04  0.12699999809E+01 0.  1.
</event>
<event>
 5   0  0.4173467E-06  0.2875060E+04  0.7818609E-02  0.8280337E-01
       -2   -1    0    0    0  501  0.00000000000E+00  0.00000000000E+00  0.88448652619E+03  0.88448652620E+03  0.25500000920E-02 0.  1.
        2   -1    0    0  501    0  0.00000000000E+00  0.00000000000E+00 -0.23363758288E+04  0.23363758288E+04  0.25500000920E-02 0. -1.
    10030    2    1    2    0    0  0.00000000000E+00  0.00000000000E+00 -0.14518893026E+04  0.32208623550E+04  0.28750603059E+04 0.  0.
        4    1    3    3  502    0  0.13654033411E+04 -0.20473020914E+03 -0.11744060004E+04  0.18125870487E+04  0.12699999809E+01 0. -1.
       -4    1    3    3    0  502 -0.13654033411E+04  0.20473020914E+03 -0.27748330218E+03  0.14082753063E+04  0.12699999809E+01 0.  1.
</event>
<event>
 5   0  0.4173467E-06  0.2317222E+04  0.7818609E-02  0.8471161E-01
       -2   -1    0    0    0  501  0.00000000000E+00  0.00000000000E+00  0.11457276547E+04  0.11457276547E+04  0.25500000920E-02 0. -1.
        2   -1    0    0  501    0  0.00000000000E+00  0.00000000000E+00 -0.11716393207E+04  0.11716393207E+04  0.25500000920E-02 0.  1.
    10030    2    1    2    0    0  0.00000000000E+00  0.00000000000E+00 -0.25911666032E+02  0.23173669753E+04  0.23172221050E+04 0.  0.
        4    1    3    3  502    0  0.39841044304E+03  0.38559935471E+03  0.10044377132E+04  0.11473074898E+04  0.12699999809E+01 0. -1.
       -4    1    3    3    0  502 -0.39841044304E+03 -0.38559935471E+03 -0.10303493793E+04  0.11700594855E+04  0.12699999809E+01 0.  1.
</event>
<event>
 5   0  0.4189587E-06  0.2782188E+04  0.7818609E-02  0.8308820E-01
       -2   -1    0    0    0  501  0.00000000000E+00  0.00000000000E+00  0.13303906248E+04  0.13303906248E+04  0.25500000920E-02 0. -1.
        2   -1    0    0  501    0  0.00000000000E+00  0.00000000000E+00 -0.14545675418E+04  0.14545675418E+04  0.25500000920E-02 0.  1.
    10030    2    1    2    0    0  0.00000000000E+00  0.00000000000E+00 -0.12417691703E+03  0.27849581666E+04  0.27821883623E+04 0.  0.
        1    1    3    3  502    0 -0.77542877036E+03 -0.21808584654E+02  0.10937808399E+04  0.13409406840E+04  0.50400001928E-02 0. -1.
       -1    1    3    3    0  502  0.77542877036E+03  0.21808584654E+02 -0.12179577570E+04  0.14440174826E+04  0.50400001928E-02 0.  1.
</event>
<event>
 5   0  0.1654257E-06  0.3500956E+04  0.7818609E-02  0.8113563E-01
       -1   -1    0    0    0  501  0.00000000000E+00  0.00000000000E+00  0.11807266191E+04  0.11807266191E+04  0.50400001928E-02 0. -1.
        1   -1    0    0  501    0  0.00000000000E+00  0.00000000000E+00 -0.25951592765E+04  0.25951592765E+04  0.50400001928E-02 0.  1.
    10030    2    1    2    0    0  0.00000000000E+00  0.00000000000E+00 -0.14144326575E+04  0.37758858956E+04  0.35009562343E+04 0.  0.
        3    1    3    3  502    0 -0.82206247978E+03 -0.60106177646E+03  0.82835860698E+03  0.13127223513E+04  0.10100000352E+00 0. -1.
       -3    1    3    3    0  502  0.82206247978E+03  0.60106177646E+03 -0.22427912644E+04  0.24631635443E+04  0.10100000352E+00 0.  1.
</event>
<event>
 5   0  0.4400349E-06  0.2510658E+04  0.7818609E-02  0.8399198E-01
       -2   -1    0    0    0  501  0.00000000000E+00  0.00000000000E+00  0.88831137440E+03  0.88831137440E+03  0.25500000920E-02 0. -1.
        2   -1    0    0  501    0  0.00000000000E+00  0.00000000000E+00 -0.17739853546E+04  0.17739853546E+04  0.25500000920E-02 0.  1.
    10030    2    1    2    0    0  0.00000000000E+00  0.00000000000E+00 -0.88567398022E+03  0.26622967290E+04  0.25106583746E+04 0.  0.
        5    1    3    3  502    0  0.50413406309E+03 -0.12749504163E+03 -0.16543957711E+04  0.17342011408E+04  0.46999998093E+01 0.  1.
       -5    1    3    3    0  502 -0.50413406309E+03  0.12749504163E+03  0.76872179087E+03  0.92809558827E+03  0.46999998093E+01 0. -1.
</event>
<event>
 5   0  0.4173467E-06  0.3253299E+04  0.7818609E-02  0.8174881E-01
        2   -1    0    0  501    0  0.00000000000E+00  0.00000000000E+00  0.16175452730E+04  0.16175452730E+04  0.25500000920E-02 0.  1.
       -2   -1    0    0    0  501  0.00000000000E+00  0.00000000000E+00 -0.16358049143E+04  0.16358049143E+04  0.25500000920E-02 0. -1.
    10030    2    1    2    0    0  0.00000000000E+00  0.00000000000E+00 -0.18259641273E+02  0.32533501872E+04  0.32532989451E+04 0.  0.
        4    1    3    3  502    0  0.53127911291E+02 -0.70457085447E+03 -0.14743300992E+04  0.16348986263E+04  0.12699999809E+01 0. -1.
       -4    1    3    3    0  502 -0.53127911291E+02  0.70457085447E+03  0.14560704579E+04  0.16184515610E+04  0.12699999809E+01 0.  1.
</event>
<event>
 5   0  0.4173467E-06  0.3367809E+04  0.7818609E-02  0.8145853E-01
        2   -1    0    0  501    0  0.00000000000E+00  0.00000000000E+00  0.14114542058E+04  0.14114542058E+04  0.25500000920E-02 0.  1.
       -2   -1    0    0    0  501  0.00000000000E+00  0.00000000000E+00 -0.20089451593E+04  0.20089451593E+04  0.25500000920E-02 0. -1.
    10030    2    1    2    0    0  0.00000000000E+00  0.00000000000E+00 -0.59749095353E+03  0.34203993651E+04  0.33678088391E+04 0.  0.
        4    1    3    3  502    0  0.12593105943E+04 -0.43115940051E+03 -0.13462440340E+04  0.18931815057E+04  0.12699999809E+01 0. -1.
       -4    1    3    3    0  502 -0.12593105943E+04  0.43115940051E+03  0.74875308048E+03  0.15272178594E+04  0.12699999809E+01 0.  1.
</event>
<event>
 5   0  0.4189587E-06  0.2576616E+04  0.7818609E-02  0.8376188E-01
       -2   -1    0    0    0  501  0.00000000000E+00  0.00000000000E+00  0.97559221578E+03  0.97559221578E+03  0.25500000920E-02 0.  1.
        2   -1    0    0  501    0  0.00000000000E+00  0.00000000000E+00 -0.17012621752E+04  0.17012621752E+04  0.25500000920E-02 0. -1.
    10030    2    1    2    0    0  0.00000000000E+00  0.00000000000E+00 -0.72566995941E+03  0.26768543910E+04  0.25766164908E+04 0.  0.
        1    1    3    3  502    0  0.91435906420E+02  0.29582447924E+03 -0.16620309470E+04  0.16906269595E+04  0.50400001928E-02 0. -1.
       -1    1    3    3    0  502 -0.91435906420E+02 -0.29582447924E+03  0.93636098757E+03  0.98622743146E+03  0.50400001928E-02 0.  1.
</event>
<event>
 5   0  0.1571391E-06  0.3449899E+04  0.7818609E-02  0.8125767E-01
        1   -1    0    0  501    0  0.00000000000E+00  0.00000000000E+00  0.13027644244E+04  0.13027644244E+04  0.50400001928E-02 0. -1.
       -1   -1    0    0    0  501  0.00000000000E+00  0.00000000000E+00 -0.22839513531E+04  0.22839513531E+04  0.50400001928E-02 0.  1.
    10030    2    1    2    0    0  0.00000000000E+00  0.00000000000E+00 -0.98118692871E+03  0.35867157775E+04  0.34498988796E+04 0.  0.
        1    1    3    3  502    0 -0.43555461900E+03  0.15530107993E+04 -0.11263172294E+04  0.19672673611E+04  0.50400001928E-02 0.  1.
       -1    1    3    3    0  502  0.43555461900E+03 -0.15530107993E+04  0.14513030066E+03  0.16194484163E+04  0.50400001928E-02 0. -1.
</event>
<event>
 5   0  0.2722449E-06  0.3401509E+04  0.7818609E-02  0.8137536E-01
        2   -1    0    0  501    0  0.00000000000E+00  0.00000000000E+00  0.14734905474E+04  0.14734905474E+04  0.25500000920E-02 0. -1.
       -2   -1    0    0    0  501  0.00000000000E+00  0.00000000000E+00 -0.19630708586E+04  0.19630708586E+04  0.25500000920E-02 0.  1.
    10030    2    1    2    0    0  0.00000000000E+00  0.00000000000E+00 -0.48958031123E+03  0.34365614060E+04  0.34015092850E+04 0.  0.
        2    1    3    3  502    0  0.28935296319E+03  0.12419061101E+03 -0.19333653468E+04  0.19588389442E+04  0.25500000920E-02 0.  1.
       -2    1    3    3    0  502 -0.28935296319E+03 -0.12419061101E+03  0.14437850356E+04  0.14777224618E+04  0.25500000920E-02 0. -1.
</event>
<event>
 5   0  0.1550164E-06  0.1811101E+04  0.7818609E-02  0.8700419E-01
        1   -1    0    0  501    0  0.00000000000E+00  0.00000000000E+00  0.10364490692E+04  0.10364490693E+04  0.50400001928E-02 0. -1.
       -1   -1    0    0    0  501  0.00000000000E+00  0.00000000000E+00 -0.79118338948E+03  0.79118338950E+03  0.50400001928E-02 0.  1.
    10030    2    1    2    0    0  0.00000000000E+00  0.00000000000E+00  0.24526567976E+03  0.18276324588E+04  0.18111005358E+04 0.  0.
        4    1    3    3  502    0  0.85967521848E+03 -0.94282229570E+02  0.39357773241E+03  0.95017664907E+03  0.12699999809E+01 0.  1.
       -4    1    3    3    0  502 -0.85967521848E+03  0.94282229570E+02 -0.14831205265E+03  0.87745580969E+03  0.12699999809E+01 0. -1.
</event>
<event>
 5   0  0.1401125E-06  0.2606627E+04  0.7818609E-02  0.8365954E-01
       -4   -1    0    0    0  501  0.00000000000E+00  0.00000000000E+00  0.12649965586E+04  0.12649971961E+04  0.12699999809E+01 0.  1.
        4   -1    0    0  501    0  0.00000000000E+00  0.00000000000E+00 -0.13427898782E+04  0.13427904788E+04  0.12699999809E+01 0. -1.
    10030    2    1    2    0    0  0.00000000000E+00  0.00000000000E+00 -0.77793319631E+02  0.26077876750E+04  0.26066270844E+04 0.  0.
        1    1    3    3  502    0  0.83558136112E+03 -0.34463800041E+03  0.90048606741E+03  0.12758709653E+04  0.50400001928E-02 0.  1.
       -1    1    3    3    0  502 -0.83558136112E+03  0.34463800041E+03 -0.97827938705E+03  0.13319167097E+04  0.50400001928E-02 0. -1.
</event>
<event>
 5   0  0.4344980E-06  0.3588583E+04  0.7818609E-02  0.8093112E-01
        2   -1    0    0  501    0  0.00000000000E+00  0.00000000000E+00  0.26205043734E+04  0.26205043734E+04  0.25500000920E-02 0.  1.
       -2   -1    0    0    0  501  0.00000000000E+00  0.00000000000E+00 -0.12285734042E+04  0.12285734042E+04  0.25500000920E-02 0. -1.
    10030    2    1    2    0    0  0.00000000000E+00  0.00000000000E+00  0.13919309692E+04  0.38490777776E+04  0.35885829954E+04 0.  0.
        3    1    3    3  502    0 -0.39444974150E+03  0.91110638234E+03 -0.90710845395E+03  0.13448238531E+04  0.10100000352E+00 0. -1.
       -3    1    3    3    0  502  0.39444974150E+03 -0.91110638234E+03  0.22990394232E+04  0.25042539244E+04  0.10100000352E+00 0.  1.
</event>
<event>
 5   0  0.1571391E-06  0.2737960E+04  0.7818609E-02  0.8322792E-01
        1   -1    0    0  501    0  0.00000000000E+00  0.00000000000E+00  0.12319725134E+04  0.12319725134E+04  0.50400001928E-02 0. -1.
       -1   -1    0    0    0  501  0.00000000000E+00  0.00000000000E+00 -0.15212237726E+04  0.15212237727E+04  0.50400001928E-02 0.  1.
    10030    2    1    2    0    0  0.00000000000E+00  0.00000000000E+00 -0.28925125926E+03  0.27531962860E+04  0.27379597328E+04 0.  0.
        1    1    3    3  502    0 -0.13974679713E+03 -0.11039817919E+04  0.65718293531E+03  0.12923600020E+04  0.50400001928E-02 0. -1.
       -1    1    3    3    0  502  0.13974679713E+03  0.11039817919E+04 -0.94643419457E+03  0.14608362841E+04  0.50400001928E-02 0.  1.
</event>
<event>
 5   0  0.2722449E-06  0.3419030E+04  0.7818609E-02  0.8133251E-01
        2   -1    0    0  501    0  0.00000000000E+00  0.00000000000E+00  0.15318502736E+04  0.15318502736E+04  0.25500000920E-02 0.  1.
       -2   -1    0    0    0  501  0.00000000000E+00  0.00000000000E+00 -0.19077857644E+04  0.19077857644E+04  0.25500000920E-02 0. -1.
    10030    2    1    2    0    0  0.00000000000E+00  0.00000000000E+00 -0.37593549082E+03  0.34396360380E+04  0.34190303568E+04 0.  0.
        2    1    3    3  502    0 -0.12402537571E+04  0.66332156805E+03  0.78959693331E+03  0.16129749539E+04  0.25500000920E-02 0.  1.
       -2    1    3    3    0  502  0.12402537571E+04 -0.66332156805E+03 -0.11655324241E+04  0.18266610842E+04  0.25500000920E-02 0. -1.
</event>
<event>
 5   0  0.2101998E-06  0.3536302E+04  0.7818609E-02  0.8105240E-01
       -1   -1    0    0    0  501  0.00000000000E+00  0.00000000000E+00  0.13140101386E+04  0.13140101386E+04  0.50400001928E-02 0.  1.
        1   -1    0    0  501    0  0.00000000000E+00  0.00000000000E+00 -0.23792490607E+04  0.23792490607E+04  0.50400001928E-02 0. -1.
    10030    2    1    2    0    0  0.00000000000E+00  0.00000000000E+00 -0.10652389221E+04  0.36932591993E+04  0.35363016772E+04 0.  0.
        5    1    3    3  502    0 -0.31416899129E+03  0.12854251380E+04  0.69217052685E+03  0.14933660197E+04  0.46999998093E+01 0.  1.
       -5    1    3    3    0  502  0.31416899129E+03 -0.12854251380E+04 -0.17574094489E+04  0.21998931796E+04  0.46999998093E+01 0. -1.
</event>
<event>
 5   0  0.4189587E-06  0.3352968E+04  0.7818609E-02  0.8149547E-01
        2   -1    0    0  501    0  0.00000000000E+00  0.00000000000E+00  0.11649494427E+04  0.11649494427E+04  0.25500000920E-02 0. -1.
       -2   -1    0    0    0  501  0.00000000000E+00  0.00000000000E+00 -0.24126352192E+04  0.24126352192E+04  0.25500000920E-02 0.  1.
    10030    2    1    2    0    0  0.00000000000E+00  0.00000000000E+00 -0.12476857766E+04  0.35775846619E+04  0.33529676730E+04 0.  0.
        1    1    3    3  502    0  0.16592297673E+04 -0.22095813864E+03 -0.72354876493E+03  0.18235648425E+04  0.50400001928E-02 0. -1.
       -1    1    3    3    0  502 -0.16592297673E+04  0.22095813864E+03 -0.52413701163E+03  0.17540198194E+04  0.50400001928E-02 0.  1.
</event>
<event>
 5   0  0.4344980E-06  0.2926850E+04  0.7818609E-02  0.8264933E-01
       -2   -1    0    0    0  501  0.00000000000E+00  0.00000000000E+00  0.10755867951E+04  0.10755867951E+04  0.25500000920E-02 0.  1.
        2   -1    0    0  501    0  0.00000000000E+00  0.00000000000E+00 -0.19911113094E+04  0.19911113094E+04  0.25500000920E-02 0. -1.
    10030    2    1    2    0    0  0.00000000000E+00  0.00000000000E+00 -0.91552451429E+03  0.30666981045E+04  0.29268502060E+04 0.  0.
        3    1    3    3  502    0 -0.11119113052E+04 -0.41904105786E+03 -0.13527849172E+04  0.18005469173E+04  0.10100000352E+00 0. -1.
       -3    1    3    3    0  502  0.11119113052E+04  0.41904105786E+03  0.43726040291E+03  0.12661511873E+04  0.10100000352E+00 0.  1.
</event>
<event>
 5   0  0.1654257E-06  0.3453451E+04  0.7818609E-02  0.8124911E-01
        1   -1    0    0  501    0  0.00000000000E+00  0.00000000000E+00  0.30402035514E+04  0.30402035514E+04  0.50400001928E-02 0. -1.
       -1   -1    0    0    0  501  0.00000000000E+00  0.00000000000E+00 -0.98071758008E+03  0.98071758009E+03  0.50400001928E-02 0.  1.
    10030    2    1    2    0    0  0.00000000000E+00  0.00000000000E+00  0.20594859713E+04  0.40209211314E+04  0.34534510681E+04 0.  0.
        3    1    3    3  502    0 -0.90621747320E+03 -0.95628527115E+03  0.23293394251E+04  0.26761042200E+04  0.10100000352E+00 0. -1.
       -3    1    3    3    0  502  0.90621747320E+03  0.95628527115E+03 -0.26985345388E+03  0.13448169114E+04  0.10100000352E+00 0.  1.
</event>
<event>
 5   0  0.2722449E-06  0.3405249E+04  0.7818609E-02  0.8136619E-01
       -2   -1    0    0    0  501  0.00000000000E+00  0.00000000000E+00  0.14534369565E+04  0.14534369565E+04  0.25500000920E-02 0.  1.
        2   -1    0    0  501    0  0.00000000000E+00  0.00000000000E+00 -0.19945346574E+04  0.19945346574E+04  0.25500000920E-02 0. -1.
    10030    2    1    2    0    0  0.00000000000E+00  0.00000000000E+00 -0.54109770088E+03  0.34479716138E+04  0.34052491139E+04 0.  0.
        2    1    3    3  502    0 -0.12093120686E+04  0.70115070062E+02 -0.14820459784E+04  0.19141086919E+04  0.25500000920E-02 0. -1.
       -2    1    3    3    0  502  0.12093120686E+04 -0.70115070062E+02  0.94094827749E+03  0.15338629219E+04  0.25500000920E-02 0.  1.
</event>
<event>
 5   0  0.2722449E-06  0.3344393E+04  0.7818609E-02  0.8151691E-01
        2   -1    0    0  501    0  0.00000000000E+00  0.00000000000E+00  0.27141155546E+04  0.27141155546E+04  0.25500000920E-02 0.  1.
       -2   -1    0    0    0  501  0.00000000000E+00  0.00000000000E+00 -0.10302586055E+04  0.10302586055E+04  0.25500000920E-02 0. -1.
    10030    2    1    2    0    0  0.00000000000E+00  0.00000000000E+00  0.16838569491E+04  0.37443741600E+04  0.33443928635E+04 0.  0.
        2    1    3    3  502    0  0.42162637619E+03 -0.16145945451E+04  0.72157011933E+03  0.18180615455E+04  0.25500000920E-02 0. -1.
       -2    1    3    3    0  502 -0.42162637619E+03  0.16145945451E+04  0.96228682976E+03  0.19263126145E+04  0.25500000920E-02 0.  1.
</event>
<event>
 5   0  0.4173467E-06  0.3521471E+04  0.7818609E-02  0.8108720E-01
       -2   -1    0    0    0  501  0.00000000000E+00  0.00000000000E+00  0.15231280053E+04  0.15231280053E+04  0.25500000920E-02 0. -1.
        2   -1    0    0  501    0  0.00000000000E+00  0.00000000000E+00 -0.20354094139E+04  0.20354094139E+04  0.25500000920E-02 0.  1.
    10030    2    1    2    0    0  0.00000000000E+00  0.00000000000E+00 -0.51228140857E+03  0.35585374192E+04  0.35214707612E+04 0.  0.
        4    1    3    3  502    0  0.12929036446E+04 -0.10072227802E+02 -0.14639141371E+04  0.19531378593E+04  0.12699999809E+01 0.  1.
       -4    1    3    3    0  502 -0.12929036446E+04  0.10072227802E+02  0.95163272848E+03  0.16053995599E+04  0.12699999809E+01 0. -1.
</event>
<event>
 5   0  0.1562618E-06  0.3470656E+04  0.7818609E-02  0.8120780E-01
        1   -1    0    0  501    0  0.00000000000E+00  0.00000000000E+00  0.20676292920E+04  0.20676292921E+04  0.50400001928E-02 0.  1.
       -1   -1    0    0    0  501  0.00000000000E+00  0.00000000000E+00 -0.14564324662E+04  0.14564324662E+04  0.50400001928E-02 0. -1.
    10030    2    1    2    0    0  0.00000000000E+00  0.00000000000E+00  0.61119682583E+03  0.35240617583E+04  0.34706555168E+04 0.  0.
        2    1    3    3  502    0  0.15221846563E+04 -0.18625629690E+03  0.11302690273E+04  0.19050579021E+04  0.25500000920E-02 0.  1.
       -2    1    3    3    0  502 -0.15221846563E+04  0.18625629690E+03 -0.51907220149E+03  0.16190038562E+04  0.25500000920E-02 0. -1.
</event>
<event>
 5   0  0.1654257E-06  0.2358326E+04  0.7818609E-02  0.8455272E-01
        1   -1    0    0  501    0  0.00000000000E+00  0.00000000000E+00  0.81490605964E+03  0.81490605966E+03  0.50400001928E-02 0. -1.
       -1   -1    0    0    0  501  0.00000000000E+00  0.00000000000E+00 -0.17062402830E+04  0.17062402830E+04  0.50400001928E-02 0.  1.
    10030    2    1    2    0    0  0.00000000000E+00  0.00000000000E+00 -0.89133422335E+03  0.25211463427E+04  0.23583261402E+04 0.  0.
        3    1    3    3  502    0 -0.95833884369E+03  0.55967426608E+03 -0.19688428610E+02  0.11099712915E+04  0.10100000352E+00 0.  1.
       -3    1    3    3    0  502  0.95833884369E+03 -0.55967426608E+03 -0.87164579474E+03  0.14111750512E+04  0.10100000352E+00 0. -1.
</event>
<event>
 5   0  0.1550164E-06  0.2054528E+04  0.7818609E-02  0.8581543E-01
        1   -1    0    0  501    0  0.00000000000E+00  0.00000000000E+00  0.12073654003E+04  0.12073654003E+04  0.50400001928E-02 0. -1.
       -1   -1    0    0    0  501  0.00000000000E+00  0.00000000000E+00 -0.87402832144E+03  0.87402832145E+03  0.50400001928E-02 0.  1.
    10030    2    1    2    0    0  0.00000000000E+00  0.00000000000E+00  0.33333707884E+03  0.20813937217E+04  0.20545282224E+04 0.  0.
        4    1    3    3  502    0  0.91023287571E+03 -0.23603879759E+03 -0.25229910494E+03  0.97359881534E+03  0.12699999809E+01 0. -1.
       -4    1    3    3    0  502 -0.91023287571E+03  0.23603879759E+03  0.58563618378E+03  0.11077949064E+04  0.12699999809E+01 0.  1.
</event>
<event>
 5   0  0.1562618E-06  0.2706308E+04  0.7818609E-02  0.8332961E-01
        1   -1    0    0  501    0  0.00000000000E+00  0.00000000000E+00  0.15872715076E+04  0.15872715076E+04  0.50400001928E-02 0.  1.
       -1   -1    0    0    0  501  0.00000000000E+00  0.00000000000E+00 -0.11535683832E+04  0.11535683833E+04  0.50400001928E-02 0. -1.
    10030    2    1    2    0    0  0.00000000000E+00  0.00000000000E+00  0.43370312432E+03  0.27408398908E+04  0.27063083540E+04 0.  0.
        2    1    3    3  502    0 -0.70857922503E+03  0.56015090926E+03  0.12372654165E+04  0.15318874861E+04  0.25500000920E-02 0.  1.
       -2    1    3    3    0  502  0.70857922503E+03 -0.56015090926E+03 -0.80356229221E+03  0.12089524047E+04  0.25500000920E-02 0. -1.
</event>
<event>
 5   0  0.1550164E-06  0.3814533E+04  0.7818609E-02  0.8043043E-01
        1   -1    0    0  501    0  0.00000000000E+00  0.00000000000E+00  0.23872965966E+04  0.23872965966E+04  0.50400001928E-02 0. -1.
       -1   -1    0    0    0  501  0.00000000000E+00  0.00000000000E+00 -0.15237595352E+04  0.15237595352E+04  0.50400001928E-02 0.  1.
    10030    2    1    2    0    0  0.00000000000E+00  0.00000000000E+00  0.86353706133E+03  0.39110561318E+04  0.38145332362E+04 0.  0.
        4    1    3    3  502    0  0.25207756155E+02 -0.54027662935E+03  0.23070184288E+04  0.23695716725E+04  0.12699999809E+01 0. -1.
       -4    1    3    3    0  502 -0.25207756155E+02  0.54027662935E+03 -0.14434813675E+04  0.15414844593E+04  0.12699999809E+01 0.  1.
</event>
<event>
 5   0  0.2722449E-06  0.3349680E+04  0.7818609E-02  0.8150368E-01
        2   -1    0    0  501    0  0.00000000000E+00  0.00000000000E+00  0.13695831723E+04  0.13695831723E+04  0.25500000920E-02 0. -1.
       -2   -1    0    0    0  501  0.00000000000E+00  0.00000000000E+00 -0.20481329025E+04  0.20481329025E+04  0.25500000920E-02 0.  1.
    10030    2    1    2    0    0  0.00000000000E+00  0.00000000000E+00 -0.67854973020E+03  0.34177160748E+04  0.33496796014E+04 0.  0.
        2    1    3    3  502    0  0.11063030947E+04 -0.26125689633E+02  0.94343921578E+03  0.14541893422E+04  0.25500000920E-02 0. -1.
       -2    1    3    3    0  502 -0.11063030947E+04  0.26125689633E+02 -0.16219889460E+04  0.19635267327E+04  0.25500000920E-02 0.  1.
</event>
<event>
 5   0  0.1562618E-06  0.3060201E+04  0.7818609E-02  0.8226746E-01
       -1   -1    0    0    0  501  0.00000000000E+00  0.00000000000E+00  0.19383263828E+04  0.19383263828E+04  0.50400001928E-02 0. -1.
        1   -1    0    0  501    0  0.00000000000E+00  0.00000000000E+00 -0.12078500861E+04  0.12078500861E+04  0.50400001928E-02 0.  1.
    10030    2    1    2    0    0  0.00000000000E+00  0.00000000000E+00  0.73047629665E+03  0.31461764689E+04  0.30602010969E+04 0.  0.
        2    1    3    3  502    0 -0.27612228225E+03 -0.13805876611E+04  0.98118775288E+03  0.17160988349E+04  0.25500000920E-02 0. -1.
       -2    1    3    3    0  502  0.27612228225E+03  0.13805876611E+04 -0.25071145623E+03  0.14300776339E+04  0.25500000920E-02 0.  1.
</event>
<event>
 5   0  0.2722449E-06  0.1859795E+04  0.7818609E-02  0.8675132E-01
        2   -1    0    0  501    0  0.00000000000E+00  0.00000000000E+00  0.23080170821E+04  0.23080170821E+04  0.25500000920E-02 0.  1.
       -2   -1    0    0    0  501  0.00000000000E+00  0.00000000000E+00 -0.37465452725E+03  0.37465452726E+03  0.25500000920E-02 0. -1.
    10030    2    1    2    0    0  0.00000000000E+00  0.00000000000E+00  0.19333625548E+04  0.26826716093E+04  0.18597946648E+04 0.  0.
        2    1    3    3  502    0  0.73232022104E+03  0.55357616256E+03  0.75287850015E+03  0.11872512413E+04  0.25500000920E-02 0.  1.
       -2    1    3    3    0  502 -0.73232022104E+03 -0.55357616256E+03  0.11804840547E+04  0.14954203681E+04  0.25500000920E-02 0. -1.
</event>
<event>
 5   0  0.1550164E-06  0.2375897E+04  0.7818609E-02  0.8448583E-01
        1   -1    0    0  501    0  0.00000000000E+00  0.00000000000E+00  0.15198721758E+04  0.15198721758E+04  0.50400001928E-02 0. -1.
       -1   -1    0    0    0  501  0.00000000000E+00  0.00000000000E+00 -0.92851322123E+03  0.92851322125E+03  0.50400001928E-02 0.  1.
    10030    2    1    2    0    0  0.00000000000E+00  0.00000000000E+00  0.59135895458E+03  0.24483853971E+04  0.23758968074E+04 0.  0.
        4    1    3    3  502    0 -0.64586010307E+03 -0.72000881587E+03 -0.41505260949E+03  0.10525294529E+04  0.12699999809E+01 0.  1.
       -4    1    3    3    0  502  0.64586010307E+03  0.72000881587E+03  0.10064115641E+04  0.13958559442E+04  0.12699999809E+01 0. -1.
</event>
<event>
 5   0  0.1654257E-06  0.1902700E+04  0.7818609E-02  0.8653514E-01
       -1   -1    0    0    0  501  0.00000000000E+00  0.00000000000E+00  0.10222452600E+04  0.10222452600E+04  0.50400001928E-02 0. -1.
        1   -1    0    0  501    0  0.00000000000E+00  0.00000000000E+00 -0.88537149853E+03  0.88537149854E+03  0.50400001928E-02 0.  1.
    10030    2    1    2    0    0  0.00000000000E+00  0.00000000000E+00  0.13687376143E+03  0.19076167585E+04  0.19026999950E+04 0.  0.
        3    1    3    3  502    0 -0.49455561624E+03  0.61196088765E+03 -0.46772108147E+03  0.91533841055E+03  0.10100000352E+00 0.  1.
       -3    1    3    3    0  502  0.49455561624E+03 -0.61196088765E+03  0.60459484290E+03  0.99227834796E+03  0.10100000352E+00 0. -1.
</event>
<event>
 5   0  0.2722449E-06  0.3359606E+04  0.7818609E-02  0.8147892E-01
        2   -1    0    0  501    0  0.00000000000E+00  0.00000000000E+00  0.19204964421E+04  0.19204964421E+04  0.25500000920E-02 0. -1.
       -2   -1    0    0    0  501  0.00000000000E+00  0.00000000000E+00 -0.14692755209E+04  0.14692755209E+04  0.25500000920E-02 0.  1.
    10030    2    1    2    0    0  0.00000000000E+00  0.00000000000E+00  0.45122092113E+03  0.33897719630E+04  0.33596061735E+04 0.  0.
        2    1    3    3  502    0 -0.38208781891E+03 -0.28099610907E+03  0.18515350604E+04  0.19113168222E+04  0.25500000920E-02 0. -1.
       -2    1    3    3    0  502  0.38208781891E+03  0.28099610907E+03 -0.14003141393E+04  0.14784551408E+04  0.25500000920E-02 0.  1.
</event>
<event>
 5   0  0.4189587E-06  0.3436269E+04  0.7818609E-02  0.8129062E-01
       -2   -1    0    0    0  501  0.00000000000E+00  0.00000000000E+00  0.15188353326E+04  0.15188353326E+04  0.25500000920E-02 0.  1.
        2   -1    0    0  501    0  0.00000000000E+00  0.00000000000E+00 -0.19435851208E+04  0.19435851208E+04  0.25500000920E-02 0. -1.
    10030    2    1    2    0    0  0.00000000000E+00  0.00000000000E+00 -0.42474978820E+03  0.34624204534E+04  0.34362687633E+04 0.  0.
        1    1    3    3  502    0 -0.74851011750E+02 -0.84107404494E+01 -0.19419207163E+04  0.19433809412E+04  0.50400001928E-02 0. -1.
       -1    1    3    3    0  502  0.74851011750E+02  0.84107404494E+01  0.15171709281E+04  0.15190395122E+04  0.50400001928E-02 0.  1.
</event>
<event>
 5   0  0.4344980E-06  0.2006052E+04  0.7818609E-02  0.8603797E-01
        2   -1    0    0  501    0  0.00000000000E+00  0.00000000000E+00  0.15892749157E+04  0.15892749157E+04  0.25500000920E-02 0. -1.
       -2   -1    0    0    0  501  0.00000000000E+00  0.00000000000E+00 -0.63303135862E+03  0.63303135862E+03  0.25500000920E-02 0.  1.
    10030    2    1    2    0    0  0.00000000000E+00  0.00000000000E+00  0.95624355710E+03  0.22223062743E+04  0.20060517033E+04 0.  0.
        3    1    3    3  502    0 -0.11863101982E+03  0.68735166410E+03 -0.32036786438E+03  0.76756837333E+03  0.10100000352E+00 0.  1.
       -3    1    3    3    0  502  0.11863101982E+03 -0.68735166410E+03  0.12766114215E+04  0.14547379010E+04  0.10100000352E+00 0. -1.
</event>
<event>
 5   0  0.1562618E-06  0.3341811E+04  0.7818609E-02  0.8152337E-01
       -1   -1    0    0    0  501  0.00000000000E+00  0.00000000000E+00  0.14550996117E+04  0.14550996117E+04  0.50400001928E-02 0. -1.
        1   -1    0    0  501    0  0.00000000000E+00  0.00000000000E+00 -0.19187179315E+04  0.19187179315E+04  0.50400001928E-02 0.  1.
    10030    2    1    2    0    0  0.00000000000E+00  0.00000000000E+00 -0.46361831982E+03  0.33738175432E+04  0.33418113154E+04 0.  0.
        2    1    3    3  502    0  0.13481370847E+04 -0.46748339034E+03 -0.11095678013E+04  0.18075273235E+04  0.25500000920E-02 0.  1.
       -2    1    3    3    0  502 -0.13481370847E+04  0.46748339034E+03  0.64594948149E+03  0.15662902196E+04  0.25500000920E-02 0. -1.
</event>
<event>
 5   0  0.1571391E-06  0.3412744E+04  0.7818609E-02  0.8134786E-01
        1   -1    0    0  501    0  0.00000000000E+00  0.00000000000E+00  0.22890797904E+04  0.22890797904E+04  0.50400001928E-02 0.  1.
       -1   -1    0    0    0  501  0.00000000000E+00  0.00000000000E+00 -0.12719981712E+04  0.12719981712E+04  0.50400001928E-02 0. -1.
    10030    2    1    2    0    0  0.00000000000E+00  0.00000000000E+00  0.10170816192E+04  0.35610779616E+04  0.34127439441E+04 0.  0.
        1    1    3    3  502    0 -0.54650869015E+03  0.23470297020E+03 -0.11603335377E+04  0.13038907743E+04  0.50400001928E-02 0. -1.
       -1    1    3    3    0  502  0.54650869015E+03 -0.23470297020E+03  0.21774151569E+04  0.22571871872E+04  0.50400001928E-02 0.  1.
</event>
<event>
 5   0  0.1654257E-06  0.1817194E+04  0.7818609E-02  0.8697209E-01
        1   -1    0    0  501    0  0.00000000000E+00  0.00000000000E+00  0.12565804305E+04  0.12565804305E+04  0.50400001928E-02 0. -1.
       -1   -1    0    0    0  501  0.00000000000E+00  0.00000000000E+00 -0.65697998560E+03  0.65697998562E+03  0.50400001928E-02 0.  1.
    10030    2    1    2    0    0  0.00000000000E+00  0.00000000000E+00  0.59960044491E+03  0.19135604161E+04  0.18171936531E+04 0.  0.
        3    1    3    3  502    0  0.65109492003E+03  0.92638003465E+02 -0.36037668806E+03  0.74991850361E+03  0.10100000352E+00 0.  1.
       -3    1    3    3    0  502 -0.65109492003E+03 -0.92638003465E+02  0.95997713297E+03  0.11636419125E+04  0.10100000352E+00 0. -1.
</event>
<event>
 5   0  0.4189587E-06  0.2422941E+04  0.7818609E-02  0.8430964E-01
        2   -1    0    0  501    0  0.00000000000E+00  0.00000000000E+00  0.18641440606E+04  0.18641440606E+04  0.25500000920E-02 0. -1.
       -2   -1    0    0    0  501  0.00000000000E+00  0.00000000000E+00 -0.78731113211E+03  0.78731113211E+03  0.25500000920E-02 0.  1.
    10030    2    1    2    0    0  0.00000000000E+00  0.00000000000E+00  0.10768329285E+04  0.26514551927E+04  0.24229414939E+04 0.  0.
        1    1    3    3  502    0 -0.46880774754E+03  0.32203176107E+03 -0.63212774787E+03  0.85033560960E+03  0.50400001928E-02 0.  1.
       -1    1    3    3    0  502  0.46880774754E+03 -0.32203176107E+03  0.17089606764E+04  0.18011195831E+04  0.50400001928E-02 0. -1.
</event>
<event>
 5   0  0.2722449E-06  0.3247702E+04  0.7818609E-02  0.8176332E-01
        2   -1    0    0  501    0  0.00000000000E+00  0.00000000000E+00  0.20073814156E+04  0.20073814156E+04  0.25500000920E-02 0. -1.
       -2   -1    0    0    0  501  0.00000000000E+00  0.00000000000E+00 -0.13135981024E+04  0.13135981024E+04  0.25500000920E-02 0.  1.
    10030    2    1    2    0    0  0.00000000000E+00  0.00000000000E+00  0.69378331313E+03  0.33209795180E+04  0.32477022144E+04 0.  0.
        2    1    3    3  502    0 -0.18340592167E+03  0.11259637698E+04  0.15285868871E+04  0.19073568137E+04  0.25500000920E-02 0. -1.
       -2    1    3    3    0  502  0.18340592167E+03 -0.11259637698E+04 -0.83480357402E+03  0.14136227043E+04  0.25500000920E-02 0.  1.
</event>
<event>
 5   0  0.4400349E-06  0.2684691E+04  0.7818609E-02  0.8339989E-01
        2   -1    0    0  501    0  0.00000000000E+00  0.00000000000E+00  0.11812509738E+04  0.11812509738E+04  0.25500000920E-02 0. -1.
       -2   -1    0    0    0  501  0.00000000000E+00  0.00000000000E+00 -0.15254090806E+04  0.15254090806E+04  0.25500000920E-02 0.  1.
    10030    2    1    2    0    0  0.00000000000E+00  0.00000000000E+00 -0.34415810676E+03  0.27066600544E+04  0.26846906428E+04 0.  0.
        5    1    3    3  502    0  0.27378736914E+02 -0.46777569832E+03  0.10961117176E+04  0.11920766278E+04  0.46999998093E+01 0. -1.
       -5    1    3    3    0  502 -0.27378736914E+02  0.46777569832E+03 -0.14402698243E+04  0.15145834266E+04  0.46999998093E+01 0.  1.
</event>
<event>
 5   0  0.4400349E-06  0.1702450E+04  0.7818609E-02  0.8759968E-01
       -2   -1    0    0    0  501  0.00000000000E+00  0.00000000000E+00  0.30161700317E+03  0.30161700319E+03  0.25500000920E-02 0.  1.
        2   -1    0    0  501    0  0.00000000000E+00  0.00000000000E+00 -0.24023315290E+04  0.24023315290E+04  0.25500000920E-02 0. -1.
    10030    2    1    2    0    0  0.00000000000E+00  0.00000000000E+00 -0.21007145258E+04  0.27039485322E+04  0.17024500421E+04 0.  0.
        5    1    3    3  502    0 -0.34745920740E+02 -0.92361460002E+02  0.29248071555E+03  0.30871504218E+03  0.46999998093E+01 0.  1.
       -5    1    3    3    0  502  0.34745920740E+02  0.92361460002E+02 -0.23931952414E+04  0.23952334900E+04  0.46999998093E+01 0. -1.
</event>
<event>
 5   0  0.4173467E-06  0.3333313E+04  0.7818609E-02  0.8154470E-01
        2   -1    0    0  501    0  0.00000000000E+00  0.00000000000E+00  0.20910582284E+04  0.20910582284E+04  0.25500000920E-02 0.  1.
       -2   -1    0    0    0  501  0.00000000000E+00  0.00000000000E+00 -0.13283914577E+04  0.13283914577E+04  0.25500000920E-02 0. -1.
    10030    2    1    2    0    0  0.00000000000E+00  0.00000000000E+00  0.76266677073E+03  0.34194496861E+04  0.33333129995E+04 0.  0.
        4    1    3    3  502    0 -0.98315426029E+03  0.65273200619E+03  0.15886446714E+04  0.19790009793E+04  0.12699999809E+01 0.  1.
       -4    1    3    3    0  502  0.98315426029E+03 -0.65273200619E+03 -0.82597790066E+03  0.14404487067E+04  0.12699999809E+01 0. -1.
</event>
<event>
 5   0  0.1571391E-06  0.3408672E+04  0.7818609E-02  0.8135781E-01
        1   -1    0    0  501    0  0.00000000000E+00  0.00000000000E+00  0.22965517686E+04  0.22965517686E+04  0.50400001928E-02 0. -1.
       -1   -1    0    0    0  501  0.00000000000E+00  0.00000000000E+00 -0.12648361571E+04  0.12648361571E+04  0.50400001928E-02 0.  1.
    10030    2    1    2    0    0  0.00000000000E+00  0.00000000000E+00  0.10317156115E+04  0.35613879258E+04  0.34086723009E+04 0.  0.
        1    1    3    3  502    0  0.31134160016E+03  0.12625120072E+04  0.16669867530E+04  0.21141700487E+04  0.50400001928E-02 0.  1.
       -1    1    3    3    0  502 -0.31134160016E+03 -0.12625120072E+04 -0.63527114143E+03  0.14472178770E+04  0.50400001928E-02 0. -1.
</event>
<event>
 5   0  0.4189587E-06  0.3393203E+04  0.7818609E-02  0.8139577E-01
       -2   -1    0    0    0  501  0.00000000000E+00  0.00000000000E+00  0.10865065017E+04  0.10865065017E+04  0.25500000920E-02 0.  1.
        2   -1    0    0  501    0  0.00000000000E+00  0.00000000000E+00 -0.26492765897E+04  0.26492765897E+04  0.25500000920E-02 0. -1.
    10030    2    1    2    0    0  0.00000000000E+00  0.00000000000E+00 -0.15627700880E+04  0.37357830913E+04  0.33932027581E+04 0.  0.
        1    1    3    3  502    0 -0.43506021119E+02 -0.14999201183E+04  0.90255473896E+02  0.15032628465E+04  0.50400001928E-02 0.  1.
       -1    1    3    3    0  502  0.43506021119E+02  0.14999201183E+04 -0.16530255619E+04  0.22325202448E+04  0.50400001928E-02 0. -1.
</event>
<event>
 5   0  0.4400349E-06  0.3345917E+04  0.7818609E-02  0.8151309E-01
       -2   -1    0    0    0  501  0.00000000000E+00  0.00000000000E+00  0.12596156901E+04  0.12596156901E+04  0.25500000920E-02 0.  1.
        2   -1    0    0  501    0  0.00000000000E+00  0.00000000000E+00 -0.22219395712E+04  0.22219395712E+04  0.25500000920E-02 0. -1.
    10030    2    1    2    0    0  0.00000000000E+00  0.00000000000E+00 -0.96232388116E+03  0.34815552613E+04  0.33459168826E+04 0.  0.
        5    1    3    3  502    0  0.62753290984E+02 -0.31588501360E+03 -0.21893720165E+04  0.22129376932E+04  0.46999998093E+01 0. -1.
       -5    1    3    3    0  502 -0.62753290984E+02  0.31588501360E+03  0.12270481354E+04  0.12686175680E+04  0.46999998093E+01 0.  1.
</event>
<event>
 5   0  0.1562618E-06  0.3340402E+04  0.7818609E-02  0.8152691E-01
        1   -1    0    0  501    0  0.00000000000E+00  0.00000000000E+00  0.12962980429E+04  0.12962980429E+04  0.50400001928E-02 0.  1.
       -1   -1    0    0    0  501  0.00000000000E+00  0.00000000000E+00 -0.21519517595E+04  0.21519517595E+04  0.50400001928E-02 0. -1.
    10030    2    1    2    0    0  0.00000000000E+00  0.00000000000E+00 -0.85565371659E+03  0.34482498025E+04  0.33404016851E+04 0.  0.
        2    1    3    3  502    0 -0.78162117844E+03  0.20125781670E+03  0.10816189800E+04  0.13495688176E+04  0.25500000920E-02 0.  1.
       -2    1    3    3    0  502  0.78162117844E+03 -0.20125781670E+03 -0.19372726966E+04  0.20986809849E+04  0.25500000920E-02 0. -1.
</event>
<event>
 5   0  0.4173467E-06  0.2704925E+04  0.7818609E-02  0.8333409E-01
       -2   -1    0    0    0  501  0.00000000000E+00  0.00000000000E+00  0.14885900680E+04  0.14885900680E+04  0.25500000920E-02 0. -1.
        2   -1    0    0  501    0  0.00000000000E+00  0.00000000000E+00 -0.12287832241E+04  0.12287832241E+04  0.25500000920E-02 0.  1.
    10030    2    1    2    0    0  0.00000000000E+00  0.00000000000E+00  0.25980684389E+03  0.27173732921E+04  0.27049247702E+04 0.  0.
        4    1    3    3  502    0  0.11379138612E+04 -0.60313219594E+03 -0.28495773141E+03  0.13190219569E+04  0.12699999809E+01 0.  1.
       -4    1    3    3    0  502 -0.11379138612E+04  0.60313219594E+03  0.54476457531E+03  0.13983513352E+04  0.12699999809E+01 0. -1.
</event>
<event>
 5   0  0.2722449E-06  0.1875168E+04  0.7818609E-02  0.8667316E-01
        2   -1    0    0  501    0  0.00000000000E+00  0.00000000000E+00  0.14626608475E+04  0.14626608475E+04  0.25500000920E-02 0. -1.
       -2   -1    0    0    0  501  0.00000000000E+00  0.00000000000E+00 -0.60100340605E+03  0.60100340605E+03  0.25500000920E-02 0.  1.
    10030    2    1    2    0    0  0.00000000000E+00  0.00000000000E+00  0.86165744150E+03  0.20636642536E+04  0.18751684205E+04 0.  0.
        2    1    3    3  502    0 -0.12952447934E+03  0.55545606037E+03  0.12497799378E+04  0.13737750611E+04  0.25500000920E-02 0. -1.
       -2    1    3    3    0  502  0.12952447934E+03 -0.55545606037E+03 -0.38812249628E+03  0.68988919246E+03  0.25500000920E-02 0.  1.
</event>
<event>
 5   0  0.1654257E-06  0.3391870E+04  0.7818609E-02  0.8139905E-01
       -1   -1    0    0    0  501  0.00000000000E+00  0.00000000000E+00  0.32518669217E+04  0.32518669217E+04  0.50400001928E-02 0. -1.
        1   -1    0    0  501    0  0.00000000000E+00  0.00000000000E+00 -0.88447521900E+03  0.88447521902E+03  0.50400001928E-02 0.  1.
    10030    2    1    2    0    0  0.00000000000E+00  0.00000000000E+00  0.23673917027E+04  0.41363421407E+04  0.33918701082E+04 0.  0.
        3    1    3    3  502    0 -0.79558483917E+03  0.85974193028E+03  0.26792885191E+04  0.29241577252E+04  0.10100000352E+00 0. -1.
       -3    1    3    3    0  502  0.79558483917E+03 -0.85974193028E+03 -0.31189681640E+03  0.12121844155E+04  0.10100000352E+00 0.  1.
</event>
<event>
 5   0  0.4344980E-06  0.3308525E+04  0.7818609E-02  0.8160730E-01
        2   -1    0    0  501    0  0.00000000000E+00  0.00000000000E+00  0.20347429571E+04  0.20347429571E+04  0.25500000920E-02 0. -1.
       -2   -1    0    0    0  501  0.00000000000E+00  0.00000000000E+00 -0.13449284776E+04  0.13449284777E+04  0.25500000920E-02 0.  1.
    10030    2    1    2    0    0  0.00000000000E+00  0.00000000000E+00  0.68981447941E+03  0.33796714347E+04  0.33085245942E+04 0.  0.
        3    1    3    3  502    0 -0.14640758587E+04 -0.65359963583E+03  0.76094058218E+03  0.17747510202E+04  0.10100000352E+00 0. -1.
       -3    1    3    3    0  502  0.14640758587E+04  0.65359963583E+03 -0.71126102777E+02  0.16049204145E+04  0.10100000352E+00 0.  1.
</event>
<event>
 5   0  0.2722449E-06  0.3448545E+04  0.7818609E-02  0.8126093E-01
       -2   -1    0    0    0  501  0.00000000000E+00  0.00000000000E+00  0.16496949979E+04  0.16496949979E+04  0.25500000920E-02 0. -1.
        2   -1    0    0  501    0  0.00000000000E+00  0.00000000000E+00 -0.18022218528E+04  0.18022218528E+04  0.25500000920E-02 0.  1.
    10030    2    1    2    0    0  0.00000000000E+00  0.00000000000E+00 -0.15252685485E+03  0.34519168507E+04  0.34485454184E+04 0.  0.
        2    1    3    3  502    0  0.49822008439E+03  0.96664393731E+03  0.12631376490E+04  0.16667754721E+04  0.25500000920E-02 0. -1.
       -2    1    3    3    0  502 -0.49822008439E+03 -0.96664393731E+03 -0.14156645039E+04  0.17851413786E+04  0.25500000920E-02 0.  1.
</event>
<event>
 5   0  0.4400349E-06  0.3330754E+04  0.7818609E-02  0.8155114E-01
       -2   -1    0    0    0  501  0.00000000000E+00  0.00000000000E+00  0.16242141052E+04  0.16242141053E+04  0.25500000920E-02 0. -1.
        2   -1    0    0  501    0  0.00000000000E+00  0.00000000000E+00 -0.17075827841E+04  0.17075827841E+04  0.25500000920E-02 0.  1.
    10030    2    1    2    0    0  0.00000000000E+00  0.00000000000E+00 -0.83368678876E+02  0.33317968894E+04  0.33307536948E+04 0.  0.
        5    1    3    3  502    0  0.14813522055E+04  0.70512447238E+03 -0.32787371092E+03  0.16730595144E+04  0.46999998093E+01 0.  1.
       -5    1    3    3    0  502 -0.14813522055E+04 -0.70512447238E+03  0.24450503204E+03  0.16587373750E+04  0.46999998093E+01 0. -1.
</event>
<event>
 5   0  0.1654257E-06  0.2280489E+04  0.7818609E-02  0.8485654E-01
        1   -1    0    0  501    0  0.00000000000E+00  0.00000000000E+00  0.11792166874E+04  0.11792166875E+04  0.50400001928E-02 0.  1.
       -1   -1    0    0    0  501  0.00000000000E+00  0.00000000000E+00 -0.11025600131E+04  0.11025600131E+04  0.50400001928E-02 0. -1.
    10030    2    1    2    0    0  0.00000000000E+00  0.00000000000E+00  0.76656674340E+02  0.22817767006E+04  0.22804886901E+04 0.  0.
        3    1    3    3  502    0  0.93483317902E+03 -0.49963062644E+03  0.45881957130E+03  0.11550148244E+04  0.10100000352E+00 0.  1.
       -3    1    3    3    0  502 -0.93483317902E+03  0.49963062644E+03 -0.38216289696E+03  0.11267618761E+04  0.10100000352E+00 0. -1.
</event>
<event>
 5   0  0.4189587E-06  0.2018352E+04  0.7818609E-02  0.8598088E-01
        2   -1    0    0  501    0  0.00000000000E+00  0.00000000000E+00  0.11585482210E+04  0.11585482210E+04  0.25500000920E-02 0.  1.
       -2   -1    0    0    0  501  0.00000000000E+00  0.00000000000E+00 -0.87906263356E+03  0.87906263357E+03  0.25500000920E-02 0. -1.
    10030    2    1    2    0    0  0.00000000000E+00  0.00000000000E+00  0.27948558741E+03  0.20376108546E+04  0.20183522490E+04 0.  0.
        1    1    3    3  502    0  0.84071646696E+03  0.64127586574E+01 -0.42378694397E+03  0.94150978497E+03  0.50400001928E-02 0. -1.
       -1    1    3    3    0  502 -0.84071646696E+03 -0.64127586574E+01  0.70327253139E+03  0.10961010696E+04  0.50400001928E-02 0.  1.
</event>
<event>
 5   0  0.1654257E-06  0.3395023E+04  0.7818609E-02  0.8139129E-01
        1   -1    0    0  501    0  0.00000000000E+00  0.00000000000E+00  0.18862798760E+04  0.18862798760E+04  0.50400001928E-02 0. -1.
       -1   -1    0    0    0  501  0.00000000000E+00  0.00000000000E+00 -0.15276344295E+04  0.15276344295E+04  0.50400001928E-02 0.  1.
    10030    2    1    2    0    0  0.00000000000E+00  0.00000000000E+00  0.35864544647E+03  0.34139143055E+04  0.33950234652E+04 0.  0.
        3    1    3    3  502    0  0.79779541559E+03 -0.11355080755E+04  0.11623562873E+04  0.18102287876E+04  0.10100000352E+00 0. -1.
       -3    1    3    3    0  502 -0.79779541559E+03  0.11355080755E+04 -0.80371084081E+03  0.16036855180E+04  0.10100000352E+00 0.  1.
</event>
<event>
 5   0  0.2722449E-06  0.3357028E+04  0.7818609E-02  0.8148534E-01
        2   -1    0    0  501    0  0.00000000000E+00  0.00000000000E+00  0.24936190852E+04  0.24936190852E+04  0.25500000920E-02 0. -1.
       -2   -1    0    0    0  501  0.00000000000E+00  0.00000000000E+00 -0.11298472004E+04  0.11298472004E+04  0.25500000920E-02 0.  1.
    10030    2    1    2    0    0  0.00000000000E+00  0.00000000000E+00  0.13637718848E+04  0.36234662856E+04  0.33570275794E+04 0.  0.
        2    1    3    3  502    0 -0.16683650344E+04  0.13392902024E+03  0.54522902109E+03  0.17602992802E+04  0.25500000920E-02 0. -1.
       -2    1    3    3    0  502  0.16683650344E+04 -0.13392902024E+03  0.81854286367E+03  0.18631670054E+04  0.25500000920E-02 0.  1.
</event>
<event>
 5   0  0.4189587E-06  0.3185960E+04  0.7818609E-02  0.8192535E-01
        2   -1    0    0  501    0  0.00000000000E+00  0.00000000000E+00  0.22058972331E+04  0.22058972331E+04  0.25500000920E-02 0.  1.
       -2   -1    0    0    0  501  0.00000000000E+00  0.00000000000E+00 -0.11503645195E+04  0.11503645195E+04  0.25500000920E-02 0. -1.
    10030    2    1    2    0    0  0.00000000000E+00  0.00000000000E+00  0.10555327135E+04  0.33562617526E+04  0.31859603957E+04 0.  0.
        1    1    3    3  502    0 -0.23874463348E+03 -0.15720391840E+04  0.42628581856E+03  0.16462155980E+04  0.50400001928E-02 0.  1.
       -1    1    3    3    0  502  0.23874463348E+03  0.15720391840E+04  0.62924689498E+03  0.17100461546E+04  0.50400001928E-02 0. -1.
</event>
<event>
 5   0  0.4173467E-06  0.1994821E+04  0.7818609E-02  0.8609046E-01
       -2   -1    0    0    0  501  0.00000000000E+00  0.00000000000E+00  0.81718278548E+03  0.81718278548E+03  0.25500000920E-02 0.  1.
        2   -1    0    0  501    0  0.00000000000E+00  0.00000000000E+00 -0.12173872453E+04  0.12173872453E+04  0.25500000920E-02 0. -1.
    10030    2    1    2    0    0  0.00000000000E+00  0.00000000000E+00 -0.40020445981E+03  0.20345700308E+04  0.19948211951E+04 0.  0.
        4    1    3    3  502    0  0.37312233808E+03 -0.43383338633E+02 -0.11424851089E+04  0.12026538281E+04  0.12699999809E+01 0. -1.
       -4    1    3    3    0  502 -0.37312233808E+03  0.43383338633E+02  0.74228064914E+03  0.83191620265E+03  0.12699999809E+01 0.  1.
</event>
<event>
 5   0  0.4344980E-06  0.3642604E+04  0.7818609E-02  0.8080802E-01
       -2   -1    0    0    0  501  0.00000000000E+00  0.00000000000E+00  0.31633482877E+04  0.31633482877E+04  0.25500000920E-02 0.  1.
        2   -1    0    0  501    0  0.00000000000E+00  0.00000000000E+00 -0.10486167770E+04  0.10486167770E+04  0.25500000920E-02 0. -1.
    10030    2    1    2    0    0  0.00000000000E+00  0.00000000000E+00  0.21147315107E+04  0.42119650647E+04  0.36426035117E+04 0.  0.
        3    1    3    3  502    0 -0.11493352552E+03 -0.69961959243E+03  0.29972267638E+04  0.30799424627E+04  0.10100000352E+00 0.  1.
       -3    1    3    3    0  502  0.11493352552E+03  0.69961959243E+03 -0.88249525313E+03  0.11320226020E+04  0.10100000352E+00 0. -1.
</event>
<event>
 5   0  0.1562618E-06  0.3387699E+04  0.7818609E-02  0.8140932E-01
       -1   -1    0    0    0  501  0.00000000000E+00  0.00000000000E+00  0.11563683215E+04  0.11563683215E+04  0.50400001928E-02 0. -1.
        1   -1    0    0  501    0  0.00000000000E+00  0.00000000000E+00 -0.24811526590E+04  0.24811526590E+04  0.50400001928E-02 0.  1.
    10030    2    1    2    0    0  0.00000000000E+00  0.00000000000E+00 -0.13247843375E+04  0.36375209806E+04  0.33876991223E+04 0.  0.
        2    1    3    3  502    0  0.42432805595E+03 -0.15117187298E+04 -0.13446873131E+04  0.20672522311E+04  0.25500000920E-02 0.  1.
       -2    1    3    3    0  502 -0.42432805595E+03  0.15117187298E+04  0.19902975583E+02  0.15702687495E+04  0.25500000920E-02 0. -1.
</event>
<event>
 5   0  0.1654257E-06  0.2346677E+04  0.7818609E-02  0.8459741E-01
       -1   -1    0    0    0  501  0.00000000000E+00  0.00000000000E+00  0.82303610459E+03  0.82303610461E+03  0.50400001928E-02 0. -1.
        1   -1    0    0  501    0  0.00000000000E+00  0.00000000000E+00 -0.16727378906E+04  0.16727378906E+04  0.50400001928E-02 0.  1.
    10030    2    1    2    0    0  0.00000000000E+00  0.00000000000E+00 -0.84970178604E+03  0.24957739953E+04  0.23466773767E+04 0.  0.
        3    1    3    3  502    0 -0.10225616424E+03  0.91560574143E+03 -0.11976052584E+04  0.15109760296E+04  0.10100000352E+00 0.  1.
       -3    1    3    3    0  502  0.10225616424E+03 -0.91560574143E+03  0.34790347236E+03  0.98479796565E+03  0.10100000352E+00 0. -1.
</event>
<event>
 5   0  0.4173467E-06  0.1884043E+04  0.7818609E-02  0.8662840E-01
       -2   -1    0    0    0  501  0.00000000000E+00  0.00000000000E+00  0.73980758810E+03  0.73980758811E+03  0.25500000920E-02 0. -1.
        2   -1    0    0  501    0  0.00000000000E+00  0.00000000000E+00 -0.11995067080E+04  0.11995067080E+04  0.25500000920E-02 0.  1.
    10030    2    1    2    0    0  0.00000000000E+00  0.00000000000E+00 -0.45969911991E+03  0.19393142961E+04  0.18840426371E+04 0.  0.
        4    1    3    3  502    0 -0.91302687354E+03  0.21418620996E+03 -0.13830947260E+03  0.94795829415E+03  0.12699999809E+01 0. -1.
       -4    1    3    3    0  502  0.91302687354E+03 -0.21418620996E+03 -0.32138964731E+03  0.99135600197E+03  0.12699999809E+01 0.  1.
</event>
<event>
 5   0  0.1832284E-06  0.1776338E+04  0.7818609E-02  0.8718985E-01
       -1   -1    0    0    0  501  0.00000000000E+00  0.00000000000E+00  0.75443566117E+03  0.75443566119E+03  0.50400001928E-02 0. -1.
        1   -1    0    0  501    0  0.00000000000E+00  0.00000000000E+00 -0.10456084377E+04  0.10456084377E+04  0.50400001928E-02 0.  1.
    10030    2    1    2    0    0  0.00000000000E+00  0.00000000000E+00 -0.29117277648E+03  0.18000440989E+04  0.17763381356E+04 0.  0.
        2    1    3    3  502    0  0.94733519763E+02 -0.12265912452E+03 -0.10318000224E+04  0.10433748065E+04  0.25500000920E-02 0.  1.
       -2    1    3    3    0  502 -0.94733519763E+02  0.12265912452E+03  0.74062724592E+03  0.75666929236E+03  0.25500000920E-02 0. -1.
</event>
<event>
 5   0  0.1571391E-06  0.3278570E+04  0.7818609E-02  0.8168370E-01
        1   -1    0    0  501    0  0.00000000000E+00  0.00000000000E+00  0.10832869629E+04  0.10832869629E+04  0.50400001928E-02 0. -1.
       -1   -1    0    0    0  501  0.00000000000E+00  0.00000000000E+00 -0.24806493062E+04  0.24806493062E+04  0.50400001928E-02 0.  1.
    10030    2    1    2    0    0  0.00000000000E+00  0.00000000000E+00 -0.13973623433E+04  0.35639362691E+04  0.32785698424E+04 0.  0.
        1    1    3    3  502    0  0.14031681958E+04  0.76883075090E+03 -0.31087544638E+03  0.16299157194E+04  0.50400001928E-02 0.  1.
       -1    1    3    3    0  502 -0.14031681958E+04 -0.76883075090E+03 -0.10864868969E+04  0.19340205497E+04  0.50400001928E-02 0. -1.
</event>
<event>
 5   0  0.4189587E-06  0.3303359E+04  0.7818609E-02  0.8162041E-01
        2   -1    0    0  501    0  0.00000000000E+00  0.00000000000E+00  0.14769683477E+04  0.14769683477E+04  0.25500000920E-02 0.  1.
       -2   -1    0    0    0  501  0.00000000000E+00  0.00000000000E+00 -0.18470569882E+04  0.18470569882E+04  0.25500000920E-02 0. -1.
    10030    2    1    2    0    0  0.00000000000E+00  0.00000000000E+00 -0.37008864053E+03  0.33240253360E+04  0.33033587199E+04 0.  0.
        1    1    3    3  502    0 -0.26130826048E+03 -0.16017052981E+04  0.12396456826E+03  0.16276083937E+04  0.50400001928E-02 0. -1.
       -1    1    3    3    0  502  0.26130826048E+03  0.16017052981E+04 -0.49405320879E+03  0.16964169423E+04  0.50400001928E-02 0.  1.
</event>
<event>
 5   0  0.1654257E-06  0.3309363E+04  0.7818609E-02  0.8160517E-01
        1   -1    0    0  501    0  0.00000000000E+00  0.00000000000E+00  0.27241116857E+04  0.27241116857E+04  0.50400001928E-02 0. -1.
       -1   -1    0    0    0  501  0.00000000000E+00  0.00000000000E+00 -0.10050877164E+04  0.10050877164E+04  0.50400001928E-02 0.  1.
    10030    2    1    2    0    0  0.00000000000E+00  0.00000000000E+00  0.17190239693E+04  0.37291994022E+04  0.33093631977E+04 0.  0.
        3    1    3    3  502    0  0.15178688746E+04 -0.64989936189E+03  0.73774774994E+03  0.18084708607E+04  0.10100000352E+00 0. -1.
       -3    1    3    3    0  502 -0.15178688746E+04  0.64989936189E+03  0.98127621940E+03  0.19207285415E+04  0.10100000352E+00 0.  1.
</event>
<event>
 5   0  0.2722449E-06  0.3584260E+04  0.7818609E-02  0.8094107E-01
       -2   -1    0    0    0  501  0.00000000000E+00  0.00000000000E+00  0.18885242332E+04  0.18885242332E+04  0.25500000920E-02 0. -1.
        2   -1    0    0  501    0  0.00000000000E+00  0.00000000000E+00 -0.17006558934E+04  0.17006558934E+04  0.25500000920E-02 0.  1.
    10030    2    1    2    0    0  0.00000000000E+00  0.00000000000E+00  0.18786833981E+03  0.35891801266E+04  0.35842599610E+04 0.  0.
        2    1    3    3  502    0 -0.65272241274E+03 -0.69191037769E+03  0.16148816524E+04  0.18742009684E+04  0.25500000920E-02 0. -1.
       -2    1    3    3    0  502  0.65272241274E+03  0.69191037769E+03 -0.14270133126E+04  0.17149791582E+04  0.25500000920E-02 0.  1.
</event>
<event>
 5   0  0.4173467E-06  0.3564606E+04  0.7818609E-02  0.8098648E-01
        2   -1    0    0  501    0  0.00000000000E+00  0.00000000000E+00  0.28121217069E+04  0.28121217069E+04  0.25500000920E-02 0.  1.
       -2   -1    0    0    0  501  0.00000000000E+00  0.00000000000E+00 -0.11296109608E+04  0.11296109608E+04  0.25500000920E-02 0. -1.
    10030    2    1    2    0    0  0.00000000000E+00  0.00000000000E+00  0.16825107461E+04  0.39417326677E+04  0.35646057304E+04 0.  0.
        4    1    3    3  502    0 -0.95472829172E+03  0.13080238606E+04  0.18071373140E+02  0.16194939698E+04  0.12699999809E+01 0. -1.
       -4    1    3    3    0  502  0.95472829172E+03 -0.13080238606E+04  0.16644393730E+04  0.23222386979E+04  0.12699999809E+01 0.  1.
</event>
<event>
 5   0  0.4189587E-06  0.3308449E+04  0.7818609E-02  0.8160749E-01
        2   -1    0    0  501    0  0.00000000000E+00  0.00000000000E+00  0.22625395540E+04  0.22625395540E+04  0.25500000920E-02 0.  1.
       -2   -1    0    0    0  501  0.00000000000E+00  0.00000000000E+00 -0.12094637155E+04  0.12094637155E+04  0.25500000920E-02 0. -1.
    10030    2    1    2    0    0  0.00000000000E+00  0.00000000000E+00  0.10530758384E+04  0.34720032695E+04  0.33084494831E+04 0.  0.
        1    1    3    3  502    0  0.12466726091E+04  0.17481361239E+03  0.16527667484E+04  0.20775924331E+04  0.50400001928E-02 0.  1.
       -1    1    3    3    0  502 -0.12466726091E+04 -0.17481361239E+03 -0.59969090993E+03  0.13944108365E+04  0.50400001928E-02 0. -1.
</event>
<event>
 5   0  0.2722449E-06  0.3314380E+04  0.7818609E-02  0.8159246E-01
        2   -1    0    0  501    0  0.00000000000E+00  0.00000000000E+00  0.17454568544E+04  0.17454568544E+04  0.25500000920E-02 0.  1.
       -2   -1    0    0    0  501  0.00000000000E+00  0.00000000000E+00 -0.15733867559E+04  0.15733867559E+04  0.25500000920E-02 0. -1.
    10030    2    1    2    0    0  0.00000000000E+00  0.00000000000E+00  0.17207009852E+03  0.33188436103E+04  0.33143800010E+04 0.  0.
        2    1    3    3  502    0 -0.84905351489E+03  0.11875456290E+04  0.87138856268E+03  0.17001395588E+04  0.25500000920E-02 0.  1.
       -2    1    3    3    0  502  0.84905351489E+03 -0.11875456290E+04 -0.69931846416E+03  0.16187040515E+04  0.25500000920E-02 0. -1.
</event>
<event>
 5   0  0.4189587E-06  0.1771847E+04  0.7818609E-02  0.8721416E-01
       -2   -1    0    0    0  501  0.00000000000E+00  0.00000000000E+00  0.55723588221E+03  0.55723588222E+03  0.25500000920E-02 0.  1.
        2   -1    0    0  501    0  0.00000000000E+00  0.00000000000E+00 -0.14084894276E+04  0.14084894276E+04  0.25500000920E-02 0. -1.
    10030    2    1    2    0    0  0.00000000000E+00  0.00000000000E+00 -0.85125354543E+03  0.19657253099E+04  0.17718474526E+04 0.  0.
        1    1    3    3  502    0 -0.66829506922E+03 -0.27283645584E+03  0.14419129526E+03  0.73610404212E+03  0.50400001928E-02 0.  1.
       -1    1    3    3    0  502  0.66829506922E+03  0.27283645584E+03 -0.99544484070E+03  0.12296212677E+04  0.50400001928E-02 0. -1.
</event>
<event>
 5   0  0.4344980E-06  0.3493324E+04  0.7818609E-02  0.8115374E-01
       -2   -1    0    0    0  501  0.00000000000E+00  0.00000000000E+00  0.20842913341E+04  0.20842913341E+04  0.25500000920E-02 0.  1.
        2   -1    0    0  501    0  0.00000000000E+00  0.00000000000E+00 -0.14637247935E+04  0.14637247935E+04  0.25500000920E-02 0. -1.
    10030    2    1    2    0    0  0.00000000000E+00  0.00000000000E+00  0.62056654063E+03  0.35480161277E+04  0.34933244354E+04 0.  0.
        3    1    3    3  502    0  0.12938147093E+04  0.11263153288E+04  0.64450382967E+03  0.18324649842E+04  0.10100000352E+00 0.  1.
       -3    1    3    3    0  502 -0.12938147093E+04 -0.11263153288E+04 -0.23937289038E+02  0.17155511434E+04  0.10100000352E+00 0. -1.
</event>
<event>
 5   0  0.2722449E-06  0.3468731E+04  0.7818609E-02  0.8121240E-01
       -2   -1    0    0    0  501  0.00000000000E+00  0.00000000000E+00  0.16835200493E+04  0.16835200493E+04  0.25500000920E-02 0.  1.
        2   -1    0    0  501    0  0.00000000000E+00  0.00000000000E+00 -0.17867468820E+04  0.17867468820E+04  0.25500000920E-02 0. -1.
    10030    2    1    2    0    0  0.00000000000E+00  0.00000000000E+00 -0.10322683268E+03  0.34702669314E+04  0.34687312949E+04 0.  0.
        2    1    3    3  502    0 -0.38730637087E+03 -0.15741271777E+04  0.56521578277E+03  0.17167852159E+04  0.25500000920E-02 0.  1.
       -2    1    3    3    0  502  0.38730637087E+03  0.15741271777E+04 -0.66844261545E+03  0.17534817155E+04  0.25500000920E-02 0. -1.
</event>
<event>
 5   0  0.1654257E-06  0.3387556E+04  0.7818609E-02  0.8140967E-01
       -1   -1    0    0    0  501  0.00000000000E+00  0.00000000000E+00  0.16177652103E+04  0.16177652103E+04  0.50400001928E-02 0.  1.
        1   -1    0    0  501    0  0.00000000000E+00  0.00000000000E+00 -0.17733628448E+04  0.17733628448E+04  0.50400001928E-02 0. -1.
    10030    2    1    2    0    0  0.00000000000E+00  0.00000000000E+00 -0.15559763454E+03  0.33911280551E+04  0.33875564736E+04 0.  0.
        3    1    3    3  502    0  0.98786721709E+03 -0.10949209517E+04 -0.91183458879E+03  0.17338327072E+04  0.10100000352E+00 0. -1.
       -3    1    3    3    0  502 -0.98786721709E+03  0.10949209517E+04  0.75623695425E+03  0.16572953479E+04  0.10100000352E+00 0.  1.
</event>
<event>
 5   0  0.1571391E-06  0.2493762E+04  0.7818609E-02  0.8405211E-01
       -1   -1    0    0    0  501  0.00000000000E+00  0.00000000000E+00  0.10784590898E+04  0.10784590898E+04  0.50400001928E-02 0.  1.
        1   -1    0    0  501    0  0.00000000000E+00  0.00000000000E+00 -0.14416053180E+04  0.14416053180E+04  0.50400001928E-02 0. -1.
    10030    2    1    2    0    0  0.00000000000E+00  0.00000000000E+00 -0.36314622822E+03  0.25200644078E+04  0.24937621051E+04 0.  0.
        1    1    3    3  502    0  0.59681331723E+03 -0.34704505766E+03  0.86768735919E+03  0.11088317100E+04  0.50400001928E-02 0.  1.
       -1    1    3    3    0  502 -0.59681331723E+03  0.34704505766E+03 -0.12308335874E+04  0.14112326979E+04  0.50400001928E-02 0. -1.
</event>
<event>
 5   0  0.2722449E-06  0.3445254E+04  0.7818609E-02  0.8126888E-01
       -2   -1    0    0    0  501  0.00000000000E+00  0.00000000000E+00  0.11471608630E+04  0.11471608630E+04  0.25500000920E-02 0. -1.
        2   -1    0    0  501    0  0.00000000000E+00  0.00000000000E+00 -0.25867717798E+04  0.25867717798E+04  0.25500000920E-02 0.  1.
    10030    2    1    2    0    0  0.00000000000E+00  0.00000000000E+00 -0.14396109168E+04  0.37339326427E+04  0.34452537481E+04 0.  0.
        2    1    3    3  502    0  0.15198309940E+04 -0.49255420977E+03 -0.14179443208E+04  0.21361324858E+04  0.25500000920E-02 0. -1.
       -2    1    3    3    0  502 -0.15198309940E+04  0.49255420977E+03 -0.21666595967E+02  0.15978001569E+04  0.25500000920E-02 0.  1.
</event>
<event>
 5   0  0.4344980E-06  0.3401754E+04  0.7818609E-02  0.8137476E-01
        2   -1    0    0  501    0  0.00000000000E+00  0.00000000000E+00  0.21071540526E+04  0.21071540526E+04  0.25500000920E-02 0. -1.
       -2   -1    0    0    0  501  0.00000000000E+00  0.00000000000E+00 -0.13729338970E+04  0.13729338970E+04  0.25500000920E-02 0.  1.
    10030    2    1    2    0    0  0.00000000000E+00  0.00000000000E+00  0.73422015561E+03  0.34800879496E+04  0.34017543856E+04 0.  0.
        3    1    3    3  502    0  0.16059708827E+04  0.53023189032E+03  0.55209108888E+03  0.17790708008E+04  0.10100000352E+00 0. -1.
       -3    1    3    3    0  502 -0.16059708827E+04 -0.53023189032E+03  0.18212906673E+03  0.17010171488E+04  0.10100000352E+00 0.  1.
</event>
<event>
 5   0  0.4400349E-06  0.3413060E+04  0.7818609E-02  0.8134708E-01
        2   -1    0    0  501    0  0.00000000000E+00  0.00000000000E+00  0.18738366599E+04  0.18738366599E+04  0.25500000920E-02 0. -1.
       -2   -1    0    0    0  501  0.00000000000E+00  0.00000000000E+00 -0.15541612364E+04  0.15541612364E+04  0.25500000920E-02 0.  1.
    10030    2    1    2    0    0  0.00000000000E+00  0.00000000000E+00  0.31967542345E+03  0.34279978963E+04  0.34130598003E+04 0.  0.
        5    1    3    3  502    0 -0.51306450701E+03 -0.51875385256E+03 -0.13896006783E+04  0.15695072103E+04  0.46999998093E+01 0.  1.
       -5    1    3    3    0  502  0.51306450701E+03  0.51875385256E+03  0.17092761018E+04  0.18584906860E+04  0.46999998093E+01 0. -1.
</event>
<event>
 5   0  0.1562618E-06  0.2881500E+04  0.7818609E-02  0.8278403E-01
        1   -1    0    0  501    0  0.00000000000E+00  0.00000000000E+00  0.13689691091E+04  0.13689691091E+04  0.50400001928E-02 0. -1.
       -1   -1    0    0    0  501  0.00000000000E+00  0.00000000000E+00 -0.15162946866E+04  0.15162946866E+04  0.50400001928E-02 0.  1.
    10030    2    1    2    0    0  0.00000000000E+00  0.00000000000E+00 -0.14732557749E+03  0.28852637958E+04  0.28815000165E+04 0.  0.
        2    1    3    3  502    0 -0.11496207368E+04  0.84674472130E+03  0.11934823151E+03  0.14327764871E+04  0.25500000920E-02 0. -1.
       -2    1    3    3    0  502  0.11496207368E+04 -0.84674472130E+03 -0.26667380900E+03  0.14524873087E+04  0.25500000920E-02 0.  1.
</event>
<event>
 5   0  0.2101998E-06  0.3423844E+04  0.7818609E-02  0.8132079E-01
        1   -1    0    0  501    0  0.00000000000E+00  0.00000000000E+00  0.25450910610E+04  0.25450910610E+04  0.50400001928E-02 0.  1.
       -1   -1    0    0    0  501  0.00000000000E+00  0.00000000000E+00 -0.11515019575E+04  0.11515019575E+04  0.50400001928E-02 0. -1.
    10030    2    1    2    0    0  0.00000000000E+00  0.00000000000E+00  0.13935891035E+04  0.36965930185E+04  0.34238442364E+04 0.  0.
        5    1    3    3  502    0  0.14155717720E+04  0.11395632735E+03  0.17288887553E+04  0.22373886351E+04  0.46999998093E+01 0.  1.
       -5    1    3    3    0  502 -0.14155717720E+04 -0.11395632735E+03 -0.33529965171E+03  0.14592043835E+04  0.46999998093E+01 0. -1.
</event>
<event>
 5   0  0.4189587E-06  0.3425851E+04  0.7818609E-02  0.8131591E-01
        2   -1    0    0  501    0  0.00000000000E+00  0.00000000000E+00  0.19581776194E+04  0.19581776194E+04  0.25500000920E-02 0. -1.
       -2   -1    0    0    0  501  0.00000000000E+00  0.00000000000E+00 -0.14983903650E+04  0.14983903650E+04  0.25500000920E-02 0.  1.
    10030    2    1    2    0    0  0.00000000000E+00  0.00000000000E+00  0.45978725441E+03  0.34565679845E+04  0.34258514142E+04 0.  0.
        1    1    3    3  502    0 -0.53926210903E+03  0.10682433037E+04 -0.10067247700E+04  0.15637909517E+04  0.50400001928E-02 0.  1.
       -1    1    3    3    0  502  0.53926210903E+03 -0.10682433037E+04  0.14665120244E+04  0.18927770328E+04  0.50400001928E-02 0. -1.
</event>
<event>
 5   0  0.2722449E-06  0.3182476E+04  0.7818609E-02  0.8193461E-01
       -2   -1    0    0    0  501  0.00000000000E+00  0.00000000000E+00  0.94667334450E+03  0.94667334450E+03  0.25500000920E-02 0. -1.
        2   -1    0    0  501    0  0.00000000000E+00  0.00000000000E+00 -0.26746698750E+04  0.26746698750E+04  0.25500000920E-02 0.  1.
    10030    2    1    2    0    0  0.00000000000E+00  0.00000000000E+00 -0.17279965305E+04  0.36213432196E+04  0.31824761907E+04 0.  0.
        2    1    3    3  502    0 -0.15017792794E+03 -0.93927639153E+03  0.58754844007E+03  0.11180369936E+04  0.25500000920E-02 0. -1.
       -2    1    3    3    0  502  0.15017792794E+03  0.93927639153E+03 -0.23155449706E+04  0.25033062259E+04  0.25500000920E-02 0.  1.
</event>
<event>
 5   0  0.2722449E-06  0.3294733E+04  0.7818609E-02  0.8164237E-01
        2   -1    0    0  501    0  0.00000000000E+00  0.00000000000E+00  0.11693477516E+04  0.11693477516E+04  0.25500000920E-02 0. -1.
       -2   -1    0    0    0  501  0.00000000000E+00  0.00000000000E+00 -0.23207953337E+04  0.23207953337E+04  0.25500000920E-02 0.  1.
    10030    2    1    2    0    0  0.00000000000E+00  0.00000000000E+00 -0.11514475821E+04  0.34901430853E+04  0.32947332550E+04 0.  0.
        2    1    3    3  502    0 -0.10086557408E+04 -0.27504867286E+03  0.77288138910E+03  0.13001476138E+04  0.25500000920E-02 0. -1.
       -2    1    3    3    0  502  0.10086557408E+04  0.27504867286E+03 -0.19243289712E+04  0.21899954715E+04  0.25500000920E-02 0.  1.
</event>
<event>
 5   0  0.2722449E-06  0.3118819E+04  0.7818609E-02  0.8210592E-01
        2   -1    0    0  501    0  0.00000000000E+00  0.00000000000E+00  0.13567572035E+04  0.13567572035E+04  0.25500000920E-02 0.  1.
       -2   -1    0    0    0  501  0.00000000000E+00  0.00000000000E+00 -0.17923308669E+04  0.17923308669E+04  0.25500000920E-02 0. -1.
    10030    2    1    2    0    0  0.00000000000E+00  0.00000000000E+00 -0.43557366342E+03  0.31490880703E+04  0.31188188884E+04 0.  0.
        2    1    3    3  502    0 -0.64901417122E+03 -0.10965299236E+04  0.68991554674E+03  0.14489930053E+04  0.25500000920E-02 0. -1.
       -2    1    3    3    0  502  0.64901417122E+03  0.10965299236E+04 -0.11254892102E+04  0.17000950650E+04  0.25500000920E-02 0.  1.
</event>
<event>
 5   0  0.4400349E-06  0.2951001E+04  0.7818609E-02  0.8257863E-01
        2   -1    0    0  501    0  0.00000000000E+00  0.00000000000E+00  0.24258342394E+04  0.24258342394E+04  0.25500000920E-02 0. -1.
       -2   -1    0    0    0  501  0.00000000000E+00  0.00000000000E+00 -0.89746535175E+03  0.89746535176E+03  0.25500000920E-02 0.  1.
    10030    2    1    2    0    0  0.00000000000E+00  0.00000000000E+00  0.15283688876E+04  0.33232995911E+04  0.29510013073E+04 0.  0.
        5    1    3    3  502    0 -0.13231495199E+04 -0.65027840080E+03  0.83074648491E+03  0.16922613459E+04  0.46999998093E+01 0. -1.
       -5    1    3    3    0  502  0.13231495199E+04  0.65027840080E+03  0.69762240272E+03  0.16310382452E+04  0.46999998093E+01 0.  1.
</event>
<event>
 5   0  0.1571391E-06  0.2004281E+04  0.7818609E-02  0.8604622E-01
        1   -1    0    0  501    0  0.00000000000E+00  0.00000000000E+00  0.19533799457E+04  0.19533799457E+04  0.50400001928E-02 0. -1.
       -1   -1    0    0    0  501  0.00000000000E+00  0.00000000000E+00 -0.51412700119E+03  0.51412700122E+03  0.50400001928E-02 0.  1.
    10030    2    1    2    0    0  0.00000000000E+00  0.00000000000E+00  0.14392529445E+04  0.24675069469E+04  0.20042807924E+04 0.  0.
        1    1    3    3  502    0 -0.61340845289E+03 -0.76099918399E+03  0.44739703246E+03  0.10749668799E+04  0.50400001928E-02 0. -1.
       -1    1    3    3    0  502  0.61340845289E+03  0.76099918399E+03  0.99185591207E+03  0.13925400671E+04  0.50400001928E-02 0.  1.
</event>
<event>
 5   0  0.4400349E-06  0.3191818E+04  0.7818609E-02  0.8190981E-01
        2   -1    0    0  501    0  0.00000000000E+00  0.00000000000E+00  0.18139365958E+04  0.18139365958E+04  0.25500000920E-02 0.  1.
       -2   -1    0    0    0  501  0.00000000000E+00  0.00000000000E+00 -0.14040877919E+04  0.14040877919E+04  0.25500000920E-02 0. -1.
    10030    2    1    2    0    0  0.00000000000E+00  0.00000000000E+00  0.40984880389E+03  0.32180243877E+04  0.31918184343E+04 0.  0.
        5    1    3    3  502    0 -0.98821712033E+03  0.22708535237E+03  0.14474238378E+04  0.17672573922E+04  0.46999998093E+01 0.  1.
       -5    1    3    3    0  502  0.98821712033E+03 -0.22708535237E+03 -0.10375750339E+04  0.14507669955E+04  0.46999998093E+01 0. -1.
</event>
<event>
 5   0  0.4173467E-06  0.2193804E+04  0.7818609E-02  0.8521011E-01
       -2   -1    0    0    0  501  0.00000000000E+00  0.00000000000E+00  0.82485775203E+03  0.82485775203E+03  0.25500000920E-02 0.  1.
        2   -1    0    0  501    0  0.00000000000E+00  0.00000000000E+00 -0.14586687742E+04  0.14586687742E+04  0.25500000920E-02 0. -1.
    10030    2    1    2    0    0  0.00000000000E+00  0.00000000000E+00 -0.63381102218E+03  0.22835265262E+04  0.21938042265E+04 0.  0.
        4    1    3    3  502    0  0.39999973815E+02 -0.40315244949E+03  0.74412692206E+03  0.84726523856E+03  0.12699999809E+01 0.  1.
       -4    1    3    3    0  502 -0.39999973815E+02  0.40315244949E+03 -0.13779379442E+04  0.14362612877E+04  0.12699999809E+01 0. -1.
</event>
<event>
 5   0  0.1550164E-06  0.3420629E+04  0.7818609E-02  0.8132862E-01
        1   -1    0    0  501    0  0.00000000000E+00  0.00000000000E+00  0.19421078621E+04  0.19421078621E+04  0.50400001928E-02 0. -1.
       -1   -1    0    0    0  501  0.00000000000E+00  0.00000000000E+00 -0.15061863456E+04  0.15061863456E+04  0.50400001928E-02 0.  1.
    10030    2    1    2    0    0  0.00000000000E+00  0.00000000000E+00  0.43592151649E+03  0.34482942078E+04  0.34206293828E+04 0.  0.
        4    1    3    3  502    0 -0.12498182584E+04  0.95634868238E+03  0.89309824546E+03  0.18094956674E+04  0.12699999809E+01 0. -1.
       -4    1    3    3    0  502  0.12498182584E+04 -0.95634868238E+03 -0.45717672897E+03  0.16387985403E+04  0.12699999809E+01 0.  1.
</event>
<event>
 5   0  0.1654257E-06  0.3338727E+04  0.7818609E-02  0.8153111E-01
        1   -1    0    0  501    0  0.00000000000E+00  0.00000000000E+00  0.99450144678E+03  0.99450144679E+03  0.50400001928E-02 0. -1.
       -1   -1    0    0    0  501  0.00000000000E+00  0.00000000000E+00 -0.28021817882E+04  0.28021817882E+04  0.50400001928E-02 0.  1.
    10030    2    1    2    0    0  0.00000000000E+00  0.00000000000E+00 -0.18076803414E+04  0.37966832350E+04  0.33387266091E+04 0.  0.
        3    1    3    3  502    0 -0.85440419593E+03 -0.13557112998E+04 -0.37190190710E+03  0.16450746783E+04  0.10100000352E+00 0. -1.
       -3    1    3    3    0  502  0.85440419593E+03  0.13557112998E+04 -0.14357784343E+04  0.21516085567E+04  0.10100000352E+00 0.  1.
</event>
<event>
 5   0  0.4400349E-06  0.3409799E+04  0.7818609E-02  0.8135506E-01
       -2   -1    0    0    0  501  0.00000000000E+00  0.00000000000E+00  0.11952732016E+04  0.11952732016E+04  0.25500000920E-02 0. -1.
        2   -1    0    0  501    0  0.00000000000E+00  0.00000000000E+00 -0.24318138118E+04  0.24318138118E+04  0.25500000920E-02 0.  1.
    10030    2    1    2    0    0  0.00000000000E+00  0.00000000000E+00 -0.12365406103E+04  0.36270870134E+04  0.34097987509E+04 0.  0.
        5    1    3    3  502    0  0.53251523545E+03 -0.13896360137E+04  0.26660480727E+03  0.15118733214E+04  0.46999998093E+01 0. -1.
       -5    1    3    3    0  502 -0.53251523545E+03  0.13896360137E+04 -0.15031454175E+04  0.21152136920E+04  0.46999998093E+01 0.  1.
</event>
<event>
 5   0  0.4400349E-06  0.3423622E+04  0.7818609E-02  0.8132133E-01
       -2   -1    0    0    0  501  0.00000000000E+00  0.00000000000E+00  0.18238854976E+04  0.18238854976E+04  0.25500000920E-02 0. -1.
        2   -1    0    0  501    0  0.00000000000E+00  0.00000000000E+00 -0.16066228788E+04  0.16066228788E+04  0.25500000920E-02 0.  1.
    10030    2    1    2    0    0  0.00000000000E+00  0.00000000000E+00  0.21726261882E+03  0.34305083765E+04  0.34236215731E+04 0.  0.
        5    1    3    3  502    0 -0.51265877515E+03  0.15401332871E+04  0.65327276791E+03  0.17497476850E+04  0.46999998093E+01 0. -1.
       -5    1    3    3    0  502  0.51265877515E+03 -0.15401332871E+04 -0.43601014909E+03  0.16807606915E+04  0.46999998093E+01 0.  1.
</event>
<event>
 5   0  0.2722449E-06  0.3400115E+04  0.7818609E-02  0.8137878E-01
        2   -1    0    0  501    0  0.00000000000E+00  0.00000000000E+00  0.21050459534E+04  0.21050459534E+04  0.25500000920E-02 0. -1.
       -2   -1    0    0    0  501  0.00000000000E+00  0.00000000000E+00 -0.13729841374E+04  0.13729841374E+04  0.25500000920E-02 0.  1.
    10030    2    1    2    0    0  0.00000000000E+00  0.00000000000E+00  0.73206181603E+03  0.34780300908E+04  0.34001145289E+04 0.  0.
        2    1    3    3  502    0  0.13536404329E+04  0.66572175483E+02  0.14159133112E+04  0.19599961176E+04  0.25500000920E-02 0. -1.
       -2    1    3    3    0  502 -0.13536404329E+04 -0.66572175483E+02 -0.68385149520E+03  0.15180339732E+04  0.25500000920E-02 0.  1.
</event>
<event>
 5   0  0.4173467E-06  0.3400709E+04  0.7818609E-02  0.8137732E-01
        2   -1    0    0  501    0  0.00000000000E+00  0.00000000000E+00  0.19633802290E+04  0.19633802290E+04  0.25500000920E-02 0.  1.
       -2   -1    0    0    0  501  0.00000000000E+00  0.00000000000E+00 -0.14725656370E+04  0.14725656370E+04  0.25500000920E-02 0. -1.
    10030    2    1    2    0    0  0.00000000000E+00  0.00000000000E+00  0.49081459204E+03  0.34359458660E+04  0.34007094893E+04 0.  0.
        4    1    3    3  502    0  0.36677407873E+03  0.10262680590E+04  0.15640955850E+04  0.19063436117E+04  0.12699999809E+01 0. -1.
       -4    1    3    3    0  502 -0.36677407873E+03 -0.10262680590E+04 -0.10732809930E+04  0.15296022544E+04  0.12699999809E+01 0.  1.
</event>
<event>
 5   0  0.1550164E-06  0.3306368E+04  0.7818609E-02  0.8161277E-01
        1   -1    0    0  501    0  0.00000000000E+00  0.00000000000E+00  0.99091444916E+03  0.99091444917E+03  0.50400001928E-02 0. -1.
       -1   -1    0    0    0  501  0.00000000000E+00  0.00000000000E+00 -0.27580758135E+04  0.27580758135E+04  0.50400001928E-02 0.  1.
    10030    2    1    2    0    0  0.00000000000E+00  0.00000000000E+00 -0.17671613644E+04  0.37489902627E+04  0.33063679018E+04 0.  0.
        4    1    3    3  502    0  0.23423814573E+03  0.11621275598E+04  0.42288497902E+03  0.12586664739E+04  0.12699999809E+01 0. -1.
       -4    1    3    3    0  502 -0.23423814573E+03 -0.11621275598E+04 -0.21900463434E+04  0.24903237888E+04  0.12699999809E+01 0.  1.
</event>
<event>
 5   0  0.1571391E-06  0.3391399E+04  0.7818609E-02  0.8140021E-01
       -1   -1    0    0    0  501  0.00000000000E+00  0.00000000000E+00  0.14513205779E+04  0.14513205779E+04  0.50400001928E-02 0. -1.
        1   -1    0    0  501    0  0.00000000000E+00  0.00000000000E+00 -0.19812278120E+04  0.19812278120E+04  0.50400001928E-02 0.  1.
    10030    2    1    2    0    0  0.00000000000E+00  0.00000000000E+00 -0.52990723406E+03  0.34325483899E+04  0.33913989403E+04 0.  0.
        1    1    3    3  502    0 -0.11888250965E+04 -0.83295681436E+03 -0.11521014695E+04  0.18532296028E+04  0.50400001928E-02 0. -1.
       -1    1    3    3    0  502  0.11888250965E+04  0.83295681436E+03  0.62219423545E+03  0.15793187871E+04  0.50400001928E-02 0.  1.
</event>
<event>
 5   0  0.1654257E-06  0.3395130E+04  0.7818609E-02  0.8139103E-01
       -1   -1    0    0    0  501  0.00000000000E+00  0.00000000000E+00  0.19438087299E+04  0.19438087299E+04  0.50400001928E-02 0.  1.
        1   -1    0    0  501    0  0.00000000000E+00  0.00000000000E+00 -0.14825160129E+04  0.14825160129E+04  0.50400001928E-02 0. -1.
    10030    2    1    2    0    0  0.00000000000E+00  0.00000000000E+00  0.46129271693E+03  0.34263247428E+04  0.33951303764E+04 0.  0.
        3    1    3    3  502    0 -0.19911786382E+03 -0.14880937301E+03  0.19253417416E+04  0.19413224836E+04  0.10100000352E+00 0.  1.
       -3    1    3    3    0  502  0.19911786382E+03  0.14880937301E+03 -0.14640490246E+04  0.14850022592E+04  0.10100000352E+00 0. -1.
</event>
<event>
 5   0  0.4173467E-06  0.3359436E+04  0.7818609E-02  0.8147935E-01
        2   -1    0    0  501    0  0.00000000000E+00  0.00000000000E+00  0.14967508669E+04  0.14967508669E+04  0.25500000920E-02 0. -1.
       -2   -1    0    0    0  501  0.00000000000E+00  0.00000000000E+00 -0.18850510530E+04  0.18850510530E+04  0.25500000920E-02 0.  1.
    10030    2    1    2    0    0  0.00000000000E+00  0.00000000000E+00 -0.38830018618E+03  0.33818019199E+04  0.33594355465E+04 0.  0.
        4    1    3    3  502    0 -0.12078892341E+03 -0.16179610095E+04  0.24355785020E+03  0.16406431152E+04  0.12699999809E+01 0. -1.
       -4    1    3    3    0  502  0.12078892341E+03  0.16179610095E+04 -0.63185803638E+03  0.17411588047E+04  0.12699999809E+01 0.  1.
</event>
<event>
 5   0  0.1401125E-06  0.3353949E+04  0.7818609E-02  0.8149302E-01
        3   -1    0    0  501    0  0.00000000000E+00  0.00000000000E+00  0.14650381014E+04  0.14650381048E+04  0.10100000352E+00 0. -1.
       -3   -1    0    0    0  501  0.00000000000E+00  0.00000000000E+00 -0.19195696963E+04  0.19195696989E+04  0.10100000352E+00 0.  1.
    10030    2    1    2    0    0  0.00000000000E+00  0.00000000000E+00 -0.45453159491E+03  0.33846078038E+04  0.33539485706E+04 0.  0.
        1    1    3    3  502    0 -0.94932804911E+03  0.70936524579E+03 -0.14246279083E+04  0.18531021218E+04  0.50400001928E-02 0.  1.
       -1    1    3    3    0  502  0.94932804911E+03 -0.70936524579E+03  0.97009631334E+03  0.15315056820E+04  0.50400001928E-02 0. -1.
</event>
<event>
 5   0  0.2722449E-06  0.3175628E+04  0.7818609E-02  0.8195284E-01
       -2   -1    0    0    0  501  0.00000000000E+00  0.00000000000E+00  0.14305704888E+04  0.14305704888E+04  0.25500000920E-02 0.  1.
        2   -1    0    0  501    0  0.00000000000E+00  0.00000000000E+00 -0.17623409553E+04  0.17623409553E+04  0.25500000920E-02 0. -1.
    10030    2    1    2    0    0  0.00000000000E+00  0.00000000000E+00 -0.33177046653E+03  0.31929114441E+04  0.31756277879E+04 0.  0.
        2    1    3    3  502    0  0.16695979612E+03 -0.10859284285E+04 -0.13184386166E+04  0.17162157531E+04  0.25500000920E-02 0. -1.
       -2    1    3    3    0  502 -0.16695979612E+03  0.10859284285E+04  0.98666815008E+03  0.14766956910E+04  0.25500000920E-02 0.  1.
</event>
<event>
 5   0  0.1550164E-06  0.3401476E+04  0.7818609E-02  0.8137544E-01
        1   -1    0    0  501    0  0.00000000000E+00  0.00000000000E+00  0.22015242766E+04  0.22015242766E+04  0.50400001928E-02 0.  1.
       -1   -1    0    0    0  501  0.00000000000E+00  0.00000000000E+00 -0.13138666177E+04  0.13138666177E+04  0.50400001928E-02 0. -1.
    10030    2    1    2    0    0  0.00000000000E+00  0.00000000000E+00  0.88765765897E+03  0.35153908943E+04  0.34014757121E+04 0.  0.
        4    1    3    3  502    0  0.15868064469E+04  0.59994347219E+03  0.31886296256E+03  0.17261408029E+04  0.12699999809E+01 0. -1.
       -4    1    3    3    0  502 -0.15868064469E+04 -0.59994347219E+03  0.56879469641E+03  0.17892500913E+04  0.12699999809E+01 0.  1.
</event>
<event>
 5   0  0.2101998E-06  0.2037326E+04  0.7818609E-02  0.8589366E-01
        1   -1    0    0  501    0  0.00000000000E+00  0.00000000000E+00  0.97497669547E+03  0.97497669549E+03  0.50400001928E-02 0.  1.
       -1   -1    0    0    0  501  0.00000000000E+00  0.00000000000E+00 -0.10643065127E+04  0.10643065127E+04  0.50400001928E-02 0. -1.
    10030    2    1    2    0    0  0.00000000000E+00  0.00000000000E+00 -0.89329817198E+02  0.20392832082E+04  0.20373257439E+04 0.  0.
        5    1    3    3  502    0 -0.70180835458E+03  0.25264606259E+03  0.64975012818E+03  0.98922308838E+03  0.46999998093E+01 0.  1.
       -5    1    3    3    0  502  0.70180835458E+03 -0.25264606259E+03 -0.73907994538E+03  0.10500601198E+04  0.46999998093E+01 0. -1.
</event>
<event>
 5   0  0.4173467E-06  0.2659923E+04  0.7818609E-02  0.8348127E-01
       -2   -1    0    0    0  501  0.00000000000E+00  0.00000000000E+00  0.15385237032E+04  0.15385237032E+04  0.25500000920E-02 0. -1.
        2   -1    0    0  501    0  0.00000000000E+00  0.00000000000E+00 -0.11496717533E+04  0.11496717533E+04  0.25500000920E-02 0.  1.
    10030    2    1    2    0    0  0.00000000000E+00  0.00000000000E+00  0.38885194990E+03  0.26881954565E+04  0.26599227382E+04 0.  0.
        4    1    3    3  502    0 -0.13034080511E+04  0.18894521617E+03  0.74656240711E+01  0.13170536021E+04  0.12699999809E+01 0.  1.
       -4    1    3    3    0  502  0.13034080511E+04 -0.18894521617E+03  0.38138632583E+03  0.13711418544E+04  0.12699999809E+01 0. -1.
</event>
<event>
 5   0  0.1654257E-06  0.3379291E+04  0.7818609E-02  0.8143008E-01
       -1   -1    0    0    0  501  0.00000000000E+00  0.00000000000E+00  0.14559170730E+04  0.14559170730E+04  0.50400001928E-02 0.  1.
        1   -1    0    0  501    0  0.00000000000E+00  0.00000000000E+00 -0.19608957142E+04  0.19608957142E+04  0.50400001928E-02 0. -1.
    10030    2    1    2    0    0  0.00000000000E+00  0.00000000000E+00 -0.50497864125E+03  0.34168127872E+04  0.33792907828E+04 0.  0.
        3    1    3    3  502    0  0.10126216592E+04  0.37028956613E+03  0.10628722399E+04  0.15140060753E+04  0.10100000352E+00 0. -1.
       -3    1    3    3    0  502 -0.10126216592E+04 -0.37028956613E+03 -0.15678508811E+04  0.19028067120E+04  0.10100000352E+00 0.  1.
</event>
<event>
 5   0  0.2722449E-06  0.3376917E+04  0.7818609E-02  0.8143595E-01
        2   -1    0    0  501    0  0.00000000000E+00  0.00000000000E+00  0.19673670244E+04  0.19673670244E+04  0.25500000920E-02 0.  1.
       -2   -1    0    0    0  501  0.00000000000E+00  0.00000000000E+00 -0.14490899434E+04  0.14490899434E+04  0.25500000920E-02 0. -1.
    10030    2    1    2    0    0  0.00000000000E+00  0.00000000000E+00  0.51827708100E+03  0.34164569679E+04  0.33769168010E+04 0.  0.
        2    1    3    3  502    0 -0.77436450642E+03  0.90184607404E+03 -0.95403720039E+03  0.15241895256E+04  0.25500000920E-02 0. -1.
       -2    1    3    3    0  502  0.77436450642E+03 -0.90184607404E+03  0.14723142814E+04  0.18922674423E+04  0.25500000920E-02 0.  1.
</event>
<event>
 5   0  0.2722449E-06  0.3457098E+04  0.7818609E-02  0.8124033E-01
        2   -1    0    0  501    0  0.00000000000E+00  0.00000000000E+00  0.12325139390E+04  0.12325139390E+04  0.25500000920E-02 0.  1.
       -2   -1    0    0    0  501  0.00000000000E+00  0.00000000000E+00 -0.24242178934E+04  0.24242178934E+04  0.25500000920E-02 0. -1.
    10030    2    1    2    0    0  0.00000000000E+00  0.00000000000E+00 -0.11917039544E+04  0.36567318325E+04  0.34570984047E+04 0.  0.
        2    1    3    3  502    0  0.12582086260E+04 -0.84130616075E+03 -0.14789256388E+04  0.21161535974E+04  0.25500000920E-02 0. -1.
       -2    1    3    3    0  502 -0.12582086260E+04  0.84130616075E+03  0.28722168436E+03  0.15405782351E+04  0.25500000920E-02 0.  1.
</event>
<event>
 5   0  0.2722449E-06  0.3303791E+04  0.7818609E-02  0.8161931E-01
       -2   -1    0    0    0  501  0.00000000000E+00  0.00000000000E+00  0.12627188183E+04  0.12627188183E+04  0.25500000920E-02 0. -1.
        2   -1    0    0  501    0  0.00000000000E+00  0.00000000000E+00 -0.21610182099E+04  0.21610182099E+04  0.25500000920E-02 0.  1.
    10030    2    1    2    0    0  0.00000000000E+00  0.00000000000E+00 -0.89829939165E+03  0.34237370282E+04  0.33037907684E+04 0.  0.
        2    1    3    3  502    0 -0.52274078242E+03  0.16359114666E+03 -0.20641709108E+04  0.21356080020E+04  0.25500000920E-02 0.  1.
       -2    1    3    3    0  502  0.52274078242E+03 -0.16359114666E+03  0.11658715192E+04  0.12881290262E+04  0.25500000920E-02 0. -1.
</event>
<event>
 5   0  0.4344980E-06  0.1779240E+04  0.7818609E-02  0.8717418E-01
       -2   -1    0    0    0  501  0.00000000000E+00  0.00000000000E+00  0.10410924084E+04  0.10410924084E+04  0.25500000920E-02 0.  1.
        2   -1    0    0  501    0  0.00000000000E+00  0.00000000000E+00 -0.76018593245E+03  0.76018593245E+03  0.25500000920E-02 0. -1.
    10030    2    1    2    0    0  0.00000000000E+00  0.00000000000E+00  0.28090647591E+03  0.18012783408E+04  0.17792400661E+04 0.  0.
        3    1    3    3  502    0 -0.48491668009E+03 -0.64061189079E+03 -0.24624125506E+03  0.84033478278E+03  0.10100000352E+00 0. -1.
       -3    1    3    3    0  502  0.48491668009E+03  0.64061189079E+03  0.52714773098E+03  0.96094355804E+03  0.10100000352E+00 0.  1.
</event>
<event>
 5   0  0.4189587E-06  0.2595650E+04  0.7818609E-02  0.8369680E-01
        2   -1    0    0  501    0  0.00000000000E+00  0.00000000000E+00  0.14166396216E+04  0.14166396216E+04  0.25500000920E-02 0.  1.
       -2   -1    0    0    0  501  0.00000000000E+00  0.00000000000E+00 -0.11889752276E+04  0.11889752276E+04  0.25500000920E-02 0. -1.
    10030    2    1    2    0    0  0.00000000000E+00  0.00000000000E+00  0.22766439408E+03  0.26056148492E+04  0.25956497580E+04 0.  0.
        1    1    3    3  502    0  0.12471802907E+04  0.27865284296E+03  0.34107116624E+03  0.13226623246E+04  0.50400001928E-02 0.  1.
       -1    1    3    3    0  502 -0.12471802907E+04 -0.27865284296E+03 -0.11340677216E+03  0.12829525246E+04  0.50400001928E-02 0. -1.
</event>
<event>
 5   0  0.4344980E-06  0.3348612E+04  0.7818609E-02  0.8150635E-01
       -2   -1    0    0    0  501  0.00000000000E+00  0.00000000000E+00  0.98598906806E+03  0.98598906806E+03  0.25500000920E-02 0. -1.
        2   -1    0    0  501    0  0.00000000000E+00  0.00000000000E+00 -0.28431350820E+04  0.28431350820E+04  0.25500000920E-02 0.  1.
    10030    2    1    2    0    0  0.00000000000E+00  0.00000000000E+00 -0.18571460139E+04  0.38291241500E+04  0.33486117182E+04 0.  0.
        3    1    3    3  502    0 -0.41424443017E+03  0.12686764210E+04  0.22752453047E+03  0.13538484890E+04  0.10100000352E+00 0. -1.
       -3    1    3    3    0  502  0.41424443017E+03 -0.12686764210E+04 -0.20846705444E+04  0.24752756610E+04  0.10100000352E+00 0.  1.
</event>
<event>
 5   0  0.1562618E-06  0.3397160E+04  0.7818609E-02  0.8138604E-01
       -1   -1    0    0    0  501  0.00000000000E+00  0.00000000000E+00  0.35699403586E+04  0.35699403586E+04  0.50400001928E-02 0. -1.
        1   -1    0    0  501    0  0.00000000000E+00  0.00000000000E+00 -0.80818551407E+03  0.80818551409E+03  0.50400001928E-02 0.  1.
    10030    2    1    2    0    0  0.00000000000E+00  0.00000000000E+00  0.27617548446E+04  0.43781258727E+04  0.33971600398E+04 0.  0.
        2    1    3    3  502    0  0.49747048270E+03  0.21974264498E+03 -0.69295031254E+03  0.88087674895E+03  0.25500000920E-02 0.  1.
       -2    1    3    3    0  502 -0.49747048270E+03 -0.21974264498E+03  0.34547051571E+04  0.34972491238E+04  0.25500000920E-02 0. -1.
</event>
<event>
 5   0  0.1654257E-06  0.2610306E+04  0.7818609E-02  0.8364709E-01
       -1   -1    0    0    0  501  0.00000000000E+00  0.00000000000E+00  0.15892070545E+04  0.15892070545E+04  0.50400001928E-02 0.  1.
        1   -1    0    0  501    0  0.00000000000E+00  0.00000000000E+00 -0.10718703330E+04  0.10718703330E+04  0.50400001928E-02 0. -1.
    10030    2    1    2    0    0  0.00000000000E+00  0.00000000000E+00  0.51733672149E+03  0.26610773875E+04  0.26103056486E+04 0.  0.
        3    1    3    3  502    0 -0.26820326052E+03  0.12111587190E+04 -0.15491386391E+03  0.12501346916E+04  0.10100000352E+00 0. -1.
       -3    1    3    3    0  502  0.26820326052E+03 -0.12111587190E+04  0.67225058540E+03  0.14109426960E+04  0.10100000352E+00 0.  1.
</event>
<event>
 5   0  0.2722449E-06  0.2488866E+04  0.7818609E-02  0.8406963E-01
       -2   -1    0    0    0  501  0.00000000000E+00  0.00000000000E+00  0.16648437048E+04  0.16648437048E+04  0.25500000920E-02 0.  1.
        2   -1    0    0  501    0  0.00000000000E+00  0.00000000000E+00 -0.93018543644E+03  0.93018543644E+03  0.25500000920E-02 0. -1.
    10030    2    1    2    0    0  0.00000000000E+00  0.00000000000E+00  0.73465826831E+03  0.25950291412E+04  0.24888659009E+04 0.  0.
        2    1    3    3  502    0  0.11353047725E+03  0.29413911044E+03  0.16225087006E+04  0.16528585751E+04  0.25500000920E-02 0.  1.
       -2    1    3    3    0  502 -0.11353047725E+03 -0.29413911044E+03 -0.88785043230E+03  0.94217056614E+03  0.25500000920E-02 0. -1.
</event>
<event>
 5   0  0.2722449E-06  0.2665895E+04  0.7818609E-02  0.8346156E-01
       -2   -1    0    0    0  501  0.00000000000E+00  0.00000000000E+00  0.14666351225E+04  0.14666351225E+04  0.25500000920E-02 0.  1.
        2   -1    0    0  501    0  0.00000000000E+00  0.00000000000E+00 -0.12114457142E+04  0.12114457142E+04  0.25500000920E-02 0. -1.
    10030    2    1    2    0    0  0.00000000000E+00  0.00000000000E+00  0.25518940826E+03  0.26780808367E+04  0.26658948468E+04 0.  0.
        2    1    3    3  502    0  0.99771734740E+03  0.87359642894E+03 -0.76990818071E+01  0.13261485218E+04  0.25500000920E-02 0.  1.
       -2    1    3    3    0  502 -0.99771734740E+03 -0.87359642894E+03  0.26288849007E+03  0.13519323149E+04  0.25500000920E-02 0. -1.
</event>
<event>
 5   0  0.2101998E-06  0.3107684E+04  0.7818609E-02  0.8213632E-01
       -1   -1    0    0    0  501  0.00000000000E+00  0.00000000000E+00  0.15683736384E+04  0.15683736384E+04  0.50400001928E-02 0.  1.
        1   -1    0    0  501    0  0.00000000000E+00  0.00000000000E+00 -0.15394448998E+04  0.15394448998E+04  0.50400001928E-02 0. -1.
    10030    2    1    2    0    0  0.00000000000E+00  0.00000000000E+00  0.28928738574E+02  0.31078185382E+04  0.31076838955E+04 0.  0.
        5    1    3    3  502    0  0.12927336402E+03  0.10214227782E+04 -0.11493672235E+04  0.15430758889E+04  0.46999998093E+01 0. -1.
       -5    1    3    3    0  502 -0.12927336402E+03 -0.10214227782E+04  0.11782959621E+04  0.15647426493E+04  0.46999998093E+01 0.  1.
</event>
<event>
 5   0  0.1562618E-06  0.3426948E+04  0.7818609E-02  0.8131324E-01
        1   -1    0    0  501    0  0.00000000000E+00  0.00000000000E+00  0.26939989180E+04  0.26939989180E+04  0.50400001928E-02 0. -1.
       -1   -1    0    0    0  501  0.00000000000E+00  0.00000000000E+00 -0.10898272907E+04  0.10898272907E+04  0.50400001928E-02 0.  1.
    10030    2    1    2    0    0  0.00000000000E+00  0.00000000000E+00  0.16041716273E+04  0.37838262087E+04  0.34269482296E+04 0.  0.
        2    1    3    3  502    0 -0.91860819415E+03  0.22756258897E+03  0.23792534891E+04  0.25605610540E+04  0.25500000920E-02 0. -1.
       -2    1    3    3    0  502  0.91860819415E+03 -0.22756258897E+03 -0.77508186175E+03  0.12232651547E+04  0.25500000920E-02 0.  1.
</event>
<event>
 5   0  0.4400349E-06  0.2504639E+04  0.7818609E-02  0.8401335E-01
        2   -1    0    0  501    0  0.00000000000E+00  0.00000000000E+00  0.23925473491E+04  0.23925473491E+04  0.25500000920E-02 0. -1.
       -2   -1    0    0    0  501  0.00000000000E+00  0.00000000000E+00 -0.65549528747E+03  0.65549528748E+03  0.25500000920E-02 0.  1.
    10030    2    1    2    0    0  0.00000000000E+00  0.00000000000E+00  0.17370520616E+04  0.30480426366E+04  0.25046385068E+04 0.  0.
        5    1    3    3  502    0  0.56116660380E+03 -0.84765820866E+03 -0.21477212539E+02  0.10168164813E+04  0.46999998093E+01 0.  1.
       -5    1    3    3    0  502 -0.56116660380E+03  0.84765820866E+03  0.17585292742E+04  0.20312261553E+04  0.46999998093E+01 0. -1.
</event>
<event>
 5   0  0.4400349E-06  0.2968287E+04  0.7818609E-02  0.8252845E-01
       -2   -1    0    0    0  501  0.00000000000E+00  0.00000000000E+00  0.11304986759E+04  0.11304986759E+04  0.25500000920E-02 0. -1.
        2   -1    0    0  501    0  0.00000000000E+00  0.00000000000E+00 -0.19484157045E+04  0.19484157045E+04  0.25500000920E-02 0.  1.
    10030    2    1    2    0    0  0.00000000000E+00  0.00000000000E+00 -0.81791702855E+03  0.30789143804E+04  0.29682866263E+04 0.  0.
        5    1    3    3  502    0 -0.69024818390E+03 -0.98531510116E+03 -0.13104713113E+04  0.17789450671E+04  0.46999998093E+01 0.  1.
       -5    1    3    3    0  502  0.69024818390E+03  0.98531510116E+03  0.49255428278E+03  0.12999693133E+04  0.46999998093E+01 0. -1.
</event>
<event>
 5   0  0.1571391E-06  0.3087296E+04  0.7818609E-02  0.8219233E-01
       -1   -1    0    0    0  501  0.00000000000E+00  0.00000000000E+00  0.12492668931E+04  0.12492668931E+04  0.50400001928E-02 0.  1.
        1   -1    0    0  501    0  0.00000000000E+00  0.00000000000E+00 -0.19073977801E+04  0.19073977801E+04  0.50400001928E-02 0. -1.
    10030    2    1    2    0    0  0.00000000000E+00  0.00000000000E+00 -0.65813088696E+03  0.31566646732E+04  0.30872958386E+04 0.  0.
        1    1    3    3  502    0 -0.86925599142E+03  0.12590053014E+04 -0.11915133438E+03  0.15345674857E+04  0.50400001928E-02 0.  1.
       -1    1    3    3    0  502  0.86925599142E+03 -0.12590053014E+04 -0.53897955258E+03  0.16220971875E+04  0.50400001928E-02 0. -1.
</event>
<event>
 5   0  0.1550164E-06  0.3444990E+04  0.7818609E-02  0.8126952E-01
       -1   -1    0    0    0  501  0.00000000000E+00  0.00000000000E+00  0.17593609764E+04  0.17593609764E+04  0.50400001928E-02 0. -1.
        1   -1    0    0  501    0  0.00000000000E+00  0.00000000000E+00 -0.16864012881E+04  0.16864012881E+04  0.50400001928E-02 0.  1.
    10030    2    1    2    0    0  0.00000000000E+00  0.00000000000E+00  0.72959688226E+02  0.34457622645E+04  0.34449897630E+04 0.  0.
        4    1    3    3  502    0  0.39101379351E+03 -0.94069739549E+03 -0.13527821619E+04  0.16934652541E+04  0.12699999809E+01 0.  1.
       -4    1    3    3    0  502 -0.39101379351E+03  0.94069739549E+03  0.14257418501E+04  0.17522970104E+04  0.12699999809E+01 0. -1.
</event>
<event>
 5   0  0.4173467E-06  0.3407669E+04  0.7818609E-02  0.8136027E-01
       -2   -1    0    0    0  501  0.00000000000E+00  0.00000000000E+00  0.98137033936E+03  0.98137033936E+03  0.25500000920E-02 0. -1.
        2   -1    0    0  501    0  0.00000000000E+00  0.00000000000E+00 -0.29581620526E+04  0.29581620526E+04  0.25500000920E-02 0.  1.
    10030    2    1    2    0    0  0.00000000000E+00  0.00000000000E+00 -0.19767917133E+04  0.39395323920E+04  0.34076692900E+04 0.  0.
        4    1    3    3  502    0  0.91326656499E+03 -0.10340952751E+04 -0.21442671787E+04  0.25497631661E+04  0.12699999809E+01 0.  1.
       -4    1    3    3    0  502 -0.91326656499E+03  0.10340952751E+04  0.16747546540E+03  0.13897692259E+04  0.12699999809E+01 0. -1.
</event>
<event>
 5   0  0.1401125E-06  0.3341744E+04  0.7818609E-02  0.8152354E-01
        3   -1    0    0  501    0  0.00000000000E+00  0.00000000000E+00  0.14920899636E+04  0.14920899670E+04  0.10100000352E+00 0. -1.
       -3   -1    0    0    0  501  0.00000000000E+00  0.00000000000E+00 -0.18710751211E+04  0.18710751239E+04  0.10100000352E+00 0.  1.
    10030    2    1    2    0    0  0.00000000000E+00  0.00000000000E+00 -0.37898515752E+03  0.33631650909E+04  0.33417435089E+04 0.  0.
        5    1    3    3  502    0  0.40867942917E+03  0.21928226655E+03  0.14260034126E+04  0.14995370656E+04  0.46999998093E+01 0. -1.
       -5    1    3    3    0  502 -0.40867942917E+03 -0.21928226655E+03 -0.18049885702E+04  0.18636280253E+04  0.46999998093E+01 0.  1.
</event>
<event>
 5   0  0.4344980E-06  0.3321790E+04  0.7818609E-02  0.8157373E-01
        2   -1    0    0  501    0  0.00000000000E+00  0.00000000000E+00  0.18971965449E+04  0.18971965449E+04  0.25500000920E-02 0.  1.
       -2   -1    0    0    0  501  0.00000000000E+00  0.00000000000E+00 -0.14540251496E+04  0.14540251496E+04  0.25500000920E-02 0. -1.
    10030    2    1    2    0    0  0.00000000000E+00  0.00000000000E+00  0.44317139536E+03  0.33512216945E+04  0.33217895719E+04 0.  0.
        3    1    3    3  502    0  0.10757703355E+04 -0.49255274521E+03 -0.95436703534E+03  0.15201008091E+04  0.10100000352E+00 0. -1.
       -3    1    3    3    0  502 -0.10757703355E+04  0.49255274521E+03  0.13975384307E+04  0.18311208854E+04  0.10100000352E+00 0.  1.
</event>
<event>
 5   0  0.4344980E-06  0.3400174E+04  0.7818609E-02  0.8137864E-01
        2   -1    0    0  501    0  0.00000000000E+00  0.00000000000E+00  0.12880260027E+04  0.12880260027E+04  0.25500000920E-02 0.  1.
       -2   -1    0    0    0  501  0.00000000000E+00  0.00000000000E+00 -0.22439736893E+04  0.22439736893E+04  0.25500000920E-02 0. -1.
    10030    2    1    2    0    0  0.00000000000E+00  0.00000000000E+00 -0.95594768659E+03  0.35319996921E+04  0.34001743846E+04 0.  0.
        3    1    3    3  502    0  0.10458624787E+04  0.26748579304E+03 -0.18422549941E+04  0.21352471630E+04  0.10100000352E+00 0. -1.
       -3    1    3    3    0  502 -0.10458624787E+04 -0.26748579304E+03  0.88630730750E+03  0.13967525290E+04  0.10100000352E+00 0.  1.
</event>
<event>
 5   0  0.2722449E-06  0.3176378E+04  0.7818609E-02  0.8195084E-01
        2   -1    0    0  501    0  0.00000000000E+00  0.00000000000E+00  0.18104179191E+04  0.18104179191E+04  0.25500000920E-02 0. -1.
       -2   -1    0    0    0  501  0.00000000000E+00  0.00000000000E+00 -0.13932388106E+04  0.13932388106E+04  0.25500000920E-02 0.  1.
    10030    2    1    2    0    0  0.00000000000E+00  0.00000000000E+00  0.41717910848E+03  0.32036567297E+04  0.31763781313E+04 0.  0.
        2    1    3    3  502    0  0.11064721106E+04  0.90835331684E+03 -0.48503613759E+03  0.15115046591E+04  0.25500000920E-02 0.  1.
       -2    1    3    3    0  502 -0.11064721106E+04 -0.90835331684E+03  0.90221524607E+03  0.16921520706E+04  0.25500000920E-02 0. -1.
</event>
<event>
 5   0  0.4173467E-06  0.3365812E+04  0.7818609E-02  0.8146349E-01
       -2   -1    0    0    0  501  0.00000000000E+00  0.00000000000E+00  0.10140184338E+04  0.10140184338E+04  0.25500000920E-02 0.  1.
        2   -1    0    0  501    0  0.00000000000E+00  0.00000000000E+00 -0.27930184389E+04  0.27930184389E+04  0.25500000920E-02 0. -1.
    10030    2    1    2    0    0  0.00000000000E+00  0.00000000000E+00 -0.17790000050E+04  0.38070368727E+04  0.33658117494E+04 0.  0.
        4    1    3    3  502    0 -0.14451010615E+04  0.21909318430E+03 -0.18330297510E+04  0.23444228677E+04  0.12699999809E+01 0. -1.
       -4    1    3    3    0  502  0.14451010615E+04 -0.21909318430E+03  0.54029745997E+02  0.14626140051E+04  0.12699999809E+01 0.  1.
</event>
<event>
 5   0  0.1562618E-06  0.3205965E+04  0.7818609E-02  0.8187243E-01
       -1   -1    0    0    0  501  0.00000000000E+00  0.00000000000E+00  0.27559417630E+04  0.27559417631E+04  0.50400001928E-02 0.  1.
        1   -1    0    0  501    0  0.00000000000E+00  0.00000000000E+00 -0.93236861908E+03  0.93236861910E+03  0.50400001928E-02 0. -1.
    10030    2    1    2    0    0  0.00000000000E+00  0.00000000000E+00  0.18235731440E+04  0.36883103822E+04  0.32059654495E+04 0.  0.
        2    1    3    3  502    0 -0.13490117406E+04 -0.34513989998E+03  0.18253640744E+04  0.22958458640E+04  0.25500000920E-02 0.  1.
       -2    1    3    3    0  502  0.13490117406E+04  0.34513989998E+03 -0.17909304365E+01  0.13924645182E+04  0.25500000920E-02 0. -1.
</event>
<event>
 5   0  0.1654257E-06  0.3309237E+04  0.7818609E-02  0.8160549E-01
        1   -1    0    0  501    0  0.00000000000E+00  0.00000000000E+00  0.19282678465E+04  0.19282678465E+04  0.50400001928E-02 0. -1.
       -1   -1    0    0    0  501  0.00000000000E+00  0.00000000000E+00 -0.14198041083E+04  0.14198041083E+04  0.50400001928E-02 0.  1.
    10030    2    1    2    0    0  0.00000000000E+00  0.00000000000E+00  0.50846373817E+03  0.33480719548E+04  0.33092371389E+04 0.  0.
        3    1    3    3  502    0  0.33961185206E+03 -0.45406290022E+03 -0.13184400090E+04  0.14351980334E+04  0.10100000352E+00 0.  1.
       -3    1    3    3    0  502 -0.33961185206E+03  0.45406290022E+03  0.18269037472E+04  0.19128739214E+04  0.10100000352E+00 0. -1.
</event>
<event>
 5   0  0.4344980E-06  0.2023992E+04  0.7818609E-02  0.8595485E-01
       -2   -1    0    0    0  501  0.00000000000E+00  0.00000000000E+00  0.70024009981E+03  0.70024009981E+03  0.25500000920E-02 0.  1.
        2   -1    0    0  501    0  0.00000000000E+00  0.00000000000E+00 -0.14625490002E+04  0.14625490002E+04  0.25500000920E-02 0. -1.
    10030    2    1    2    0    0  0.00000000000E+00  0.00000000000E+00 -0.76230890039E+03  0.21627891000E+04  0.20239915591E+04 0.  0.
        3    1    3    3  502    0  0.62130015452E+02 -0.71520246773E+03  0.38103383591E+03  0.81274934818E+03  0.10100000352E+00 0.  1.
       -3    1    3    3    0  502 -0.62130015452E+02  0.71520246773E+03 -0.11433427363E+04  0.13500397518E+04  0.10100000352E+00 0. -1.
</event>
<event>
 5   0  0.4344980E-06  0.3270794E+04  0.7818609E-02  0.8170367E-01
        2   -1    0    0  501    0  0.00000000000E+00  0.00000000000E+00  0.20214518373E+04  0.20214518373E+04  0.25500000920E-02 0.  1.
       -2   -1    0    0    0  501  0.00000000000E+00  0.00000000000E+00 -0.13230709157E+04  0.13230709157E+04  0.25500000920E-02 0. -1.
    10030    2    1    2    0    0  0.00000000000E+00  0.00000000000E+00  0.69838092161E+03  0.33445227530E+04  0.32707944805E+04 0.  0.
        3    1    3    3  502    0 -0.60951583392E+03  0.23140502710E+03 -0.11844397066E+04  0.13520189596E+04  0.10100000352E+00 0. -1.
       -3    1    3    3    0  502  0.60951583392E+03 -0.23140502710E+03  0.18828206282E+04  0.19925037934E+04  0.10100000352E+00 0.  1.
</event>
<event>
 5   0  0.1562618E-06  0.1864047E+04  0.7818609E-02  0.8672962E-01
       -1   -1    0    0    0  501  0.00000000000E+00  0.00000000000E+00  0.50455264350E+03  0.50455264352E+03  0.50400001928E-02 0.  1.
        1   -1    0    0  501    0  0.00000000000E+00  0.00000000000E+00 -0.17216589419E+04  0.17216589419E+04  0.50400001928E-02 0. -1.
    10030    2    1    2    0    0  0.00000000000E+00  0.00000000000E+00 -0.12171062984E+04  0.22262115854E+04  0.18640467487E+04 0.  0.
        2    1    3    3  502    0  0.59934426980E+03 -0.27557659878E+03  0.17778614338E+03  0.68320123560E+03  0.25500000920E-02 0.  1.
       -2    1    3    3    0  502 -0.59934426980E+03  0.27557659878E+03 -0.13948924418E+04  0.15430103498E+04  0.25500000920E-02 0. -1.
</event>
<event>
 5   0  0.1571391E-06  0.2608811E+04  0.7818609E-02  0.8365215E-01
       -1   -1    0    0    0  501  0.00000000000E+00  0.00000000000E+00  0.14815191974E+04  0.14815191974E+04  0.50400001928E-02 0.  1.
        1   -1    0    0  501    0  0.00000000000E+00  0.00000000000E+00 -0.11484652581E+04  0.11484652581E+04  0.50400001928E-02 0. -1.
    10030    2    1    2    0    0  0.00000000000E+00  0.00000000000E+00  0.33305393931E+03  0.26299844554E+04  0.26088107079E+04 0.  0.
        1    1    3    3  502    0  0.31172303608E+03 -0.12555542307E+04 -0.18183314009E+01  0.12936734456E+04  0.50400001928E-02 0.  1.
       -1    1    3    3    0  502 -0.31172303608E+03  0.12555542307E+04  0.33487227071E+03  0.13363110099E+04  0.50400001928E-02 0. -1.
</event>
<event>
 5   0  0.4344980E-06  0.3207507E+04  0.7818609E-02  0.8186837E-01
       -2   -1    0    0    0  501  0.00000000000E+00  0.00000000000E+00  0.15869324801E+04  0.15869324801E+04  0.25500000920E-02 0. -1.
        2   -1    0    0  501    0  0.00000000000E+00  0.00000000000E+00 -0.16207531429E+04  0.16207531429E+04  0.25500000920E-02 0.  1.
    10030    2    1    2    0    0  0.00000000000E+00  0.00000000000E+00 -0.33820662816E+02  0.32076856231E+04  0.32075073218E+04 0.  0.
        3    1    3    3  502    0 -0.11166964362E+04  0.48163830009E+03  0.10286330376E+04  0.15928189850E+04  0.10100000352E+00 0. -1.
       -3    1    3    3    0  502  0.11166964362E+04 -0.48163830009E+03 -0.10624537004E+04  0.16148666380E+04  0.10100000352E+00 0.  1.
</event>
<event>
 5   0  0.1550164E-06  0.3536601E+04  0.7818609E-02  0.8105170E-01
       -1   -1    0    0    0  501  0.00000000000E+00  0.00000000000E+00  0.14090031210E+04  0.14090031210E+04  0.50400001928E-02 0.  1.
        1   -1    0    0  501    0  0.00000000000E+00  0.00000000000E+00 -0.22192187025E+04  0.22192187025E+04  0.50400001928E-02 0. -1.
    10030    2    1    2    0    0  0.00000000000E+00  0.00000000000E+00 -0.81021558144E+03  0.36282218235E+04  0.35366006719E+04 0.  0.
        4    1    3    3  502    0  0.13832187157E+04 -0.68636869394E+03  0.47889301702E+03  0.16167053331E+04  0.12699999809E+01 0.  1.
       -4    1    3    3    0  502 -0.13832187157E+04  0.68636869394E+03 -0.12891085985E+04  0.20115164904E+04  0.12699999809E+01 0. -1.
</event>
<event>
 5   0  0.1550164E-06  0.3411084E+04  0.7818609E-02  0.8135191E-01
       -1   -1    0    0    0  501  0.00000000000E+00  0.00000000000E+00  0.20271566726E+04  0.20271566726E+04  0.50400001928E-02 0. -1.
        1   -1    0    0  501    0  0.00000000000E+00  0.00000000000E+00 -0.14349523860E+04  0.14349523860E+04  0.50400001928E-02 0.  1.
    10030    2    1    2    0    0  0.00000000000E+00  0.00000000000E+00  0.59220428660E+03  0.34621090586E+04  0.34110838771E+04 0.  0.
        4    1    3    3  502    0  0.16040995293E+04  0.95015064336E+02 -0.28403220750E+03  0.16318207837E+04  0.12699999809E+01 0.  1.
       -4    1    3    3    0  502 -0.16040995293E+04 -0.95015064336E+02  0.87623649410E+03  0.18302882748E+04  0.12699999809E+01 0. -1.
</event>
<event>
 5   0  0.3710719E-06  0.1692685E+04  0.7818609E-02  0.8765547E-01
       -2   -1    0    0    0  501  0.00000000000E+00  0.00000000000E+00  0.54143772862E+03  0.54143772862E+03  0.25500000920E-02 0.  1.
        2   -1    0    0  501    0  0.00000000000E+00  0.00000000000E+00 -0.13229518001E+04  0.13229518001E+04  0.25500000920E-02 0. -1.
    10030    2    1    2    0    0  0.00000000000E+00  0.00000000000E+00 -0.78151407153E+03  0.18643895288E+04  0.16926854613E+04 0.  0.
        2    1    3    3  502    0 -0.51340716077E+03  0.38341297560E+03 -0.99974774088E+03  0.11874712493E+04  0.25500000920E-02 0. -1.
       -2    1    3    3    0  502  0.51340716077E+03 -0.38341297560E+03  0.21823366935E+03  0.67691827944E+03  0.25500000920E-02 0.  1.
</event>
<event>
 5   0  0.1571391E-06  0.3387349E+04  0.7818609E-02  0.8141018E-01
       -1   -1    0    0    0  501  0.00000000000E+00  0.00000000000E+00  0.19142324088E+04  0.19142324088E+04  0.50400001928E-02 0.  1.
        1   -1    0    0  501    0  0.00000000000E+00  0.00000000000E+00 -0.14985291109E+04  0.14985291109E+04  0.50400001928E-02 0. -1.
    10030    2    1    2    0    0  0.00000000000E+00  0.00000000000E+00  0.41570329798E+03  0.34127615197E+04  0.33873488097E+04 0.  0.
        1    1    3    3  502    0  0.12173275088E+03 -0.97619804355E+03 -0.11811689711E+04  0.15371862675E+04  0.50400001928E-02 0. -1.
       -1    1    3    3    0  502 -0.12173275088E+03  0.97619804355E+03  0.15968722690E+04  0.18755752522E+04  0.50400001928E-02 0.  1.
</event>
<event>
 5   0  0.1571391E-06  0.1845223E+04  0.7818609E-02  0.8682614E-01
        1   -1    0    0  501    0  0.00000000000E+00  0.00000000000E+00  0.15665364567E+04  0.15665364567E+04  0.50400001928E-02 0. -1.
       -1   -1    0    0    0  501  0.00000000000E+00  0.00000000000E+00 -0.54337168298E+03  0.54337168300E+03  0.50400001928E-02 0.  1.
    10030    2    1    2    0    0  0.00000000000E+00  0.00000000000E+00  0.10231647738E+04  0.21099081397E+04  0.18452225351E+04 0.  0.
        1    1    3    3  502    0 -0.76572752459E+03  0.50875099545E+03  0.60048713094E+03  0.10980669432E+04  0.50400001928E-02 0. -1.
       -1    1    3    3    0  502  0.76572752459E+03 -0.50875099545E+03  0.42267764282E+03  0.10118411966E+04  0.50400001928E-02 0.  1.
</event>
<event>
 5   0  0.1571391E-06  0.3229399E+04  0.7818609E-02  0.8181096E-01
        1   -1    0    0  501    0  0.00000000000E+00  0.00000000000E+00  0.16598412725E+04  0.16598412725E+04  0.50400001928E-02 0.  1.
       -1   -1    0    0    0  501  0.00000000000E+00  0.00000000000E+00 -0.15707858514E+04  0.15707858514E+04  0.50400001928E-02 0. -1.
    10030    2    1    2    0    0  0.00000000000E+00  0.00000000000E+00  0.89055421128E+02  0.32306271240E+04  0.32293994405E+04 0.  0.
        1    1    3    3  502    0  0.10034937359E+04 -0.59594888258E+03 -0.10717371723E+04  0.15845426202E+04  0.50400001928E-02 0. -1.
       -1    1    3    3    0  502 -0.10034937359E+04  0.59594888258E+03  0.11607925934E+04  0.16460845038E+04  0.50400001928E-02 0.  1.
</event>
<event>
 5   0  0.2101998E-06  0.3426391E+04  0.7818609E-02  0.8131459E-01
        1   -1    0    0  501    0  0.00000000000E+00  0.00000000000E+00  0.82833845857E+03  0.82833845858E+03  0.50400001928E-02 0.  1.
       -1   -1    0    0    0  501  0.00000000000E+00  0.00000000000E+00 -0.35432855307E+04  0.35432855307E+04  0.50400001928E-02 0. -1.
    10030    2    1    2    0    0  0.00000000000E+00  0.00000000000E+00 -0.27149470722E+04  0.43716239893E+04  0.34263914983E+04 0.  0.
        5    1    3    3  502    0  0.14288624835E+04  0.94394747281E+03 -0.14190962100E+04  0.22240820514E+04  0.46999998093E+01 0. -1.
       -5    1    3    3    0  502 -0.14288624835E+04 -0.94394747281E+03 -0.12958508622E+04  0.21475419379E+04  0.46999998093E+01 0.  1.
</event>
<event>
 5   0  0.1654257E-06  0.3377810E+04  0.7818609E-02  0.8143374E-01
       -1   -1    0    0    0  501  0.00000000000E+00  0.00000000000E+00  0.26214315993E+04  0.26214315993E+04  0.50400001928E-02 0.  1.
        1   -1    0    0  501    0  0.00000000000E+00  0.00000000000E+00 -0.10881075159E+04  0.10881075159E+04  0.50400001928E-02 0. -1.
    10030    2    1    2    0    0  0.00000000000E+00  0.00000000000E+00  0.15333240835E+04  0.37095391152E+04  0.33778096013E+04 0.  0.
        3    1    3    3  502    0  0.15582596765E+04 -0.34613759627E+03  0.13725855260E+04  0.21052257578E+04  0.10100000352E+00 0.  1.
       -3    1    3    3    0  502 -0.15582596765E+04  0.34613759627E+03  0.16073855752E+03  0.16043133575E+04  0.10100000352E+00 0. -1.
</event>
<event>
 5   0  0.4400349E-06  0.2021405E+04  0.7818609E-02  0.8596678E-01
       -2   -1    0    0    0  501  0.00000000000E+00  0.00000000000E+00  0.11165709326E+04  0.11165709326E+04  0.25500000920E-02 0.  1.
        2   -1    0    0  501    0  0.00000000000E+00  0.00000000000E+00 -0.91487190542E+03  0.91487190542E+03  0.25500000920E-02 0. -1.
    10030    2    1    2    0    0  0.00000000000E+00  0.00000000000E+00  0.20169902715E+03  0.20314428380E+04  0.20214048349E+04 0.  0.
        5    1    3    3  502    0  0.37137788924E+02 -0.44501340792E+03  0.10120388911E+04  0.11061920971E+04  0.46999998093E+01 0.  1.
       -5    1    3    3    0  502 -0.37137788924E+02  0.44501340792E+03 -0.81033986390E+03  0.92525074094E+03  0.46999998093E+01 0. -1.
</event>
<event>
 5   0  0.1401125E-06  0.1747767E+04  0.7818609E-02  0.8734580E-01
       -4   -1    0    0    0  501  0.00000000000E+00  0.00000000000E+00  0.15567271110E+04  0.15567276290E+04  0.12699999809E+01 0.  1.
        4   -1    0    0  501    0  0.00000000000E+00  0.00000000000E+00 -0.49056152862E+03  0.49056317255E+03  0.12699999809E+01 0. -1.
    10030    2    1    2    0    0  0.00000000000E+00  0.00000000000E+00  0.10661655823E+04  0.20472908015E+04  0.17477673121E+04 0.  0.
        2    1    3    3  502    0  0.81478182419E+03 -0.20505228137E+03  0.81459512572E+03  0.11702482976E+04  0.25500000920E-02 0. -1.
       -2    1    3    3    0  502 -0.81478182419E+03  0.20505228137E+03  0.25157045661E+03  0.87704250397E+03  0.25500000920E-02 0.  1.
</event>
<event>
 5   0  0.4400349E-06  0.3388528E+04  0.7818609E-02  0.8140728E-01
       -2   -1    0    0    0  501  0.00000000000E+00  0.00000000000E+00  0.14177406657E+04  0.14177406657E+04  0.25500000920E-02 0.  1.
        2   -1    0    0  501    0  0.00000000000E+00  0.00000000000E+00 -0.20247214618E+04  0.20247214618E+04  0.25500000920E-02 0. -1.
    10030    2    1    2    0    0  0.00000000000E+00  0.00000000000E+00 -0.60698079613E+03  0.34424621275E+04  0.33885276762E+04 0.  0.
        5    1    3    3  502    0  0.22426244151E+03 -0.56220877205E+03  0.13041431035E+04  0.14377703817E+04  0.46999998093E+01 0.  1.
       -5    1    3    3    0  502 -0.22426244151E+03  0.56220877205E+03 -0.19111238996E+04  0.20046917458E+04  0.46999998093E+01 0. -1.
</event>
<event>
 5   0  0.4344980E-06  0.3313419E+04  0.7818609E-02  0.8159489E-01
        2   -1    0    0  501    0  0.00000000000E+00  0.00000000000E+00  0.10588661199E+04  0.10588661199E+04  0.25500000920E-02 0. -1.
       -2   -1    0    0    0  501  0.00000000000E+00  0.00000000000E+00 -0.25920997800E+04  0.25920997800E+04  0.25500000920E-02 0.  1.
    10030    2    1    2    0    0  0.00000000000E+00  0.00000000000E+00 -0.15332336601E+04  0.36509659000E+04  0.33134191625E+04 0.  0.
        3    1    3    3  502    0  0.12581083332E+04  0.10522484587E+04 -0.10241422381E+04  0.19336314879E+04  0.10100000352E+00 0.  1.
       -3    1    3    3    0  502 -0.12581083332E+04 -0.10522484587E+04 -0.50909142201E+03  0.17173344121E+04  0.10100000352E+00 0. -1.
</event>
<event>
 5   0  0.1571391E-06  0.1813071E+04  0.7818609E-02  0.8699379E-01
        1   -1    0    0  501    0  0.00000000000E+00  0.00000000000E+00  0.22261269054E+04  0.22261269054E+04  0.50400001928E-02 0. -1.
       -1   -1    0    0    0  501  0.00000000000E+00  0.00000000000E+00 -0.36916427368E+03  0.36916427372E+03  0.50400001928E-02 0.  1.
    10030    2    1    2    0    0  0.00000000000E+00  0.00000000000E+00  0.18569626317E+04  0.25952911791E+04  0.18130709001E+04 0.  0.
        1    1    3    3  502    0 -0.61049504591E+03 -0.43326309770E+03  0.16603142903E+04  0.18212810480E+04  0.50400001928E-02 0. -1.
       -1    1    3    3    0  502  0.61049504591E+03  0.43326309770E+03  0.19664834133E+03  0.77401013112E+03  0.50400001928E-02 0.  1.
</event>
<event>
 5   0  0.2101998E-06  0.2767147E+04  0.7818609E-02  0.8313541E-01
        1   -1    0    0  501    0  0.00000000000E+00  0.00000000000E+00  0.13674882457E+04  0.13674882457E+04  0.50400001928E-02 0. -1.
       -1   -1    0    0    0  501  0.00000000000E+00  0.00000000000E+00 -0.13998477797E+04  0.13998477797E+04  0.50400001928E-02 0.  1.
    10030    2    1    2    0    0  0.00000000000E+00  0.00000000000E+00 -0.32359533971E+02  0.27673360254E+04  0.27671468226E+04 0.  0.
        5    1    3    3  502    0  0.29550030507E+03 -0.13002014853E+04 -0.38554085887E+03  0.13879870952E+04  0.46999998093E+01 0.  1.
       -5    1    3    3    0  502 -0.29550030507E+03  0.13002014853E+04  0.35318132490E+03  0.13793489301E+04  0.46999998093E+01 0. -1.
</event>
<event>
 5   0  0.4344980E-06  0.3384331E+04  0.7818609E-02  0.8141763E-01
       -2   -1    0    0    0  501  0.00000000000E+00  0.00000000000E+00  0.14443552024E+04  0.14443552024E+04  0.25500000920E-02 0.  1.
        2   -1    0    0  501    0  0.00000000000E+00  0.00000000000E+00 -0.19824933322E+04  0.19824933322E+04  0.25500000920E-02 0. -1.
    10030    2    1    2    0    0  0.00000000000E+00  0.00000000000E+00 -0.53813812981E+03  0.34268485347E+04  0.33843312830E+04 0.  0.
        3    1    3    3  502    0 -0.76364822437E+03 -0.76573115606E+03 -0.15869273494E+04  0.19203752853E+04  0.10100000352E+00 0. -1.
       -3    1    3    3    0  502  0.76364822437E+03  0.76573115606E+03  0.10487892195E+04  0.15064732494E+04  0.10100000352E+00 0.  1.
</event>
<event>
 5   0  0.1562618E-06  0.1993683E+04  0.7818609E-02  0.8609580E-01
       -1   -1    0    0    0  501  0.00000000000E+00  0.00000000000E+00  0.85620180310E+03  0.85620180312E+03  0.50400001928E-02 0. -1.
        1   -1    0    0  501    0  0.00000000000E+00  0.00000000000E+00 -0.11605822134E+04  0.11605822134E+04  0.50400001928E-02 0.  1.
    10030    2    1    2    0    0  0.00000000000E+00  0.00000000000E+00 -0.30438041025E+03  0.20167840165E+04  0.19936826064E+04 0.  0.
        2    1    3    3  502    0 -0.15407562479E+03  0.15377155282E+03  0.83186516058E+03  0.85987477810E+03  0.25500000920E-02 0. -1.
       -2    1    3    3    0  502  0.15407562479E+03 -0.15377155282E+03 -0.11362455708E+04  0.11569092384E+04  0.25500000920E-02 0.  1.
</event>
<event>
 5   0  0.2722449E-06  0.2210333E+04  0.7818609E-02  0.8514140E-01
        2   -1    0    0  501    0  0.00000000000E+00  0.00000000000E+00  0.17143983814E+04  0.17143983814E+04  0.25500000920E-02 0. -1.
       -2   -1    0    0    0  501  0.00000000000E+00  0.00000000000E+00 -0.71243253047E+03  0.71243253048E+03  0.25500000920E-02 0.  1.
    10030    2    1    2    0    0  0.00000000000E+00  0.00000000000E+00  0.10019658509E+04  0.24268309119E+04  0.22103331668E+04 0.  0.
        2    1    3    3  502    0 -0.38877590260E+03  0.10046523963E+04  0.77197828711E+03  0.13253013301E+04  0.25500000920E-02 0. -1.
       -2    1    3    3    0  502  0.38877590260E+03 -0.10046523963E+04  0.22998756382E+03  0.11015295817E+04  0.25500000920E-02 0.  1.
</event>
<event>
 5   0  0.4189587E-06  0.3428691E+04  0.7818609E-02  0.8130900E-01
        2   -1    0    0  501    0  0.00000000000E+00  0.00000000000E+00  0.14971750132E+04  0.14971750132E+04  0.25500000920E-02 0. -1.
       -2   -1    0    0    0  501  0.00000000000E+00  0.00000000000E+00 -0.19630175928E+04  0.19630175928E+04  0.25500000920E-02 0.  1.
    10030    2    1    2    0    0  0.00000000000E+00  0.00000000000E+00 -0.46584257963E+03  0.34601926060E+04  0.34286912316E+04 0.  0.
        1    1    3    3  502    0  0.10289785742E+04  0.82912083192E+03 -0.13350828695E+04  0.18784793128E+04  0.50400001928E-02 0.  1.
       -1    1    3    3    0  502 -0.10289785742E+04 -0.82912083192E+03  0.86924028991E+03  0.15817132932E+04  0.50400001928E-02 0. -1.
</event>
<event>
 5   0  0.1571391E-06  0.3455836E+04  0.7818609E-02  0.8124337E-01
       -1   -1    0    0    0  501  0.00000000000E+00  0.00000000000E+00  0.30937973142E+04  0.30937973142E+04  0.50400001928E-02 0.  1.
        1   -1    0    0  501    0  0.00000000000E+00  0.00000000000E+00 -0.96506022961E+03  0.96506022962E+03  0.50400001928E-02 0. -1.
    10030    2    1    2    0    0  0.00000000000E+00  0.00000000000E+00  0.21287370846E+04  0.40588575438E+04  0.34558360762E+04 0.  0.
        1    1    3    3  502    0 -0.12040189310E+04  0.11427642818E+04  0.50094328857E+03  0.17339307853E+04  0.50400001928E-02 0. -1.
       -1    1    3    3    0  502  0.12040189310E+04 -0.11427642818E+04  0.16277937960E+04  0.23249267585E+04  0.50400001928E-02 0.  1.
</event>
<event>
 5   0  0.4189587E-06  0.1983428E+04  0.7818609E-02  0.8614408E-01
        2   -1    0    0  501    0  0.00000000000E+00  0.00000000000E+00  0.15525596299E+04  0.15525596299E+04  0.25500000920E-02 0.  1.
       -2   -1    0    0    0  501  0.00000000000E+00  0.00000000000E+00 -0.63346804571E+03  0.63346804572E+03  0.25500000920E-02 0. -1.
    10030    2    1    2    0    0  0.00000000000E+00  0.00000000000E+00  0.91909158422E+03  0.21860276757E+04  0.19834282590E+04 0.  0.
        1    1    3    3  502    0 -0.61085790592E+03  0.76058541420E+03  0.26282163624E+03  0.10103033040E+04  0.50400001928E-02 0. -1.
       -1    1    3    3    0  502  0.61085790592E+03 -0.76058541420E+03  0.65626994798E+03  0.11757243717E+04  0.50400001928E-02 0.  1.
</event>
<event>
 5   0  0.1550164E-06  0.3392531E+04  0.7818609E-02  0.8139742E-01
        1   -1    0    0  501    0  0.00000000000E+00  0.00000000000E+00  0.21338735808E+04  0.21338735808E+04  0.50400001928E-02 0.  1.
       -1   -1    0    0    0  501  0.00000000000E+00  0.00000000000E+00 -0.13484003357E+04  0.13484003357E+04  0.50400001928E-02 0. -1.
    10030    2    1    2    0    0  0.00000000000E+00  0.00000000000E+00  0.78547324512E+03  0.34822739165E+04  0.33925305321E+04 0.  0.
        4    1    3    3  502    0 -0.69191889218E+03 -0.66603021373E+03 -0.10424513827E+04  0.14174111955E+04  0.12699999809E+01 0. -1.
       -4    1    3    3    0  502  0.69191889218E+03  0.66603021373E+03  0.18279246278E+04  0.20648627211E+04  0.12699999809E+01 0.  1.
</event>
<event>
 5   0  0.2722449E-06  0.3112259E+04  0.7818609E-02  0.8212382E-01
        2   -1    0    0  501    0  0.00000000000E+00  0.00000000000E+00  0.10703789871E+04  0.10703789871E+04  0.25500000920E-02 0. -1.
       -2   -1    0    0    0  501  0.00000000000E+00  0.00000000000E+00 -0.22623186404E+04  0.22623186404E+04  0.25500000920E-02 0.  1.
    10030    2    1    2    0    0  0.00000000000E+00  0.00000000000E+00 -0.11919396533E+04  0.33326976275E+04  0.31122585592E+04 0.  0.
        2    1    3    3  502    0  0.67324479860E+03 -0.13927615181E+04 -0.41520848326E+03  0.16016995005E+04  0.25500000920E-02 0.  1.
       -2    1    3    3    0  502 -0.67324479860E+03  0.13927615181E+04 -0.77673117004E+03  0.17309981270E+04  0.25500000920E-02 0. -1.
</event>
<event>
 5   0  0.1658662E-06  0.1934895E+04  0.7818609E-02  0.8637679E-01
       -1   -1    0    0    0  501  0.00000000000E+00  0.00000000000E+00  0.78593111449E+03  0.78593111451E+03  0.50400001928E-02 0. -1.
        1   -1    0    0  501    0  0.00000000000E+00  0.00000000000E+00 -0.11908867508E+04  0.11908867508E+04  0.50400001928E-02 0.  1.
    10030    2    1    2    0    0  0.00000000000E+00  0.00000000000E+00 -0.40495563632E+03  0.19768178653E+04  0.19348952957E+04 0.  0.
        4    1    3    3  502    0 -0.50579483703E+03 -0.10080234097E+02  0.64002446902E+03  0.81582042272E+03  0.12699999809E+01 0. -1.
       -4    1    3    3    0  502  0.50579483703E+03  0.10080234097E+02 -0.10449801053E+04  0.11609974426E+04  0.12699999809E+01 0.  1.
</event>
<event>
 5   0  0.1550164E-06  0.3412701E+04  0.7818609E-02  0.8134796E-01
       -1   -1    0    0    0  501  0.00000000000E+00  0.00000000000E+00  0.13947102910E+04  0.13947102910E+04  0.50400001928E-02 0. -1.
        1   -1    0    0  501    0  0.00000000000E+00  0.00000000000E+00 -0.20876244462E+04  0.20876244462E+04  0.50400001928E-02 0.  1.
    10030    2    1    2    0    0  0.00000000000E+00  0.00000000000E+00 -0.69291415517E+03  0.34823347372E+04  0.34127005722E+04 0.  0.
        4    1    3    3  502    0  0.14123294282E+04 -0.42999638244E+03 -0.12195192846E+04  0.19148890833E+04  0.12699999809E+01 0.  1.
       -4    1    3    3    0  502 -0.14123294282E+04  0.42999638244E+03  0.52660512947E+03  0.15674456539E+04  0.12699999809E+01 0. -1.
</event>
<event>
 5   0  0.4400349E-06  0.3551543E+04  0.7818609E-02  0.8101683E-01
        2   -1    0    0  501    0  0.00000000000E+00  0.00000000000E+00  0.14330924403E+04  0.14330924403E+04  0.25500000920E-02 0.  1.
       -2   -1    0    0    0  501  0.00000000000E+00  0.00000000000E+00 -0.22003909665E+04  0.22003909665E+04  0.25500000920E-02 0. -1.
    10030    2    1    2    0    0  0.00000000000E+00  0.00000000000E+00 -0.76729852623E+03  0.36334834068E+04  0.35515425718E+04 0.  0.
        5    1    3    3  502    0  0.91637694817E+03 -0.11475005423E+04  0.63780355381E+03  0.16010370604E+04  0.46999998093E+01 0.  1.
       -5    1    3    3    0  502 -0.91637694817E+03  0.11475005423E+04 -0.14051020800E+04  0.20324463464E+04  0.46999998093E+01 0. -1.
</event>
<event>
 5   0  0.2722449E-06  0.2598950E+04  0.7818609E-02  0.8368558E-01
        2   -1    0    0  501    0  0.00000000000E+00  0.00000000000E+00  0.12428355520E+04  0.12428355520E+04  0.25500000920E-02 0. -1.
       -2   -1    0    0    0  501  0.00000000000E+00  0.00000000000E+00 -0.13586954212E+04  0.13586954212E+04  0.25500000920E-02 0.  1.
    10030    2    1    2    0    0  0.00000000000E+00  0.00000000000E+00 -0.11585986922E+03  0.26015309731E+04  0.25989497677E+04 0.  0.
        2    1    3    3  502    0  0.37813431822E+03  0.85396924772E+03  0.84650821389E+03  0.12604860947E+04  0.25500000920E-02 0. -1.
       -2    1    3    3    0  502 -0.37813431822E+03 -0.85396924772E+03 -0.96236808311E+03  0.13410448785E+04  0.25500000920E-02 0.  1.
</event>
<event>
 5   0  0.4173467E-06  0.3826063E+04  0.7818609E-02  0.8040585E-01
       -2   -1    0    0    0  501  0.00000000000E+00  0.00000000000E+00  0.13332481608E+04  0.13332481608E+04  0.25500000920E-02 0. -1.
        2   -1    0    0  501    0  0.00000000000E+00  0.00000000000E+00 -0.27449431791E+04  0.27449431791E+04  0.25500000920E-02 0.  1.
    10030    2    1    2    0    0  0.00000000000E+00  0.00000000000E+00 -0.14116950183E+04  0.40781913400E+04  0.38260634836E+04 0.  0.
        4    1    3    3  502    0 -0.25260083608E+03  0.15194700347E+04  0.50341419635E+03  0.16205011061E+04  0.12699999809E+01 0. -1.
       -4    1    3    3    0  502  0.25260083608E+03 -0.15194700347E+04 -0.19151092146E+04  0.24576902339E+04  0.12699999809E+01 0.  1.
</event>
<event>
 5   0  0.4400349E-06  0.1817908E+04  0.7818609E-02  0.8696834E-01
        2   -1    0    0  501    0  0.00000000000E+00  0.00000000000E+00  0.12579385335E+04  0.12579385335E+04  0.25500000920E-02 0.  1.
       -2   -1    0    0    0  501  0.00000000000E+00  0.00000000000E+00 -0.65678704718E+03  0.65678704718E+03  0.25500000920E-02 0. -1.
    10030    2    1    2    0    0  0.00000000000E+00  0.00000000000E+00  0.60115148633E+03  0.19147255807E+04  0.18179083970E+04 0.  0.
        5    1    3    3  502    0 -0.21917423085E+03 -0.28782273961E+03 -0.57767702127E+03  0.68162460622E+03  0.46999998093E+01 0. -1.
       -5    1    3    3    0  502  0.21917423085E+03  0.28782273961E+03  0.11788285076E+04  0.12331009745E+04  0.46999998093E+01 0.  1.
</event>
<event>
 5   0  0.4173467E-06  0.2586962E+04  0.7818609E-02  0.8372643E-01
       -2   -1    0    0    0  501  0.00000000000E+00  0.00000000000E+00  0.13550243347E+04  0.13550243347E+04  0.25500000920E-02 0.  1.
        2   -1    0    0  501    0  0.00000000000E+00  0.00000000000E+00 -0.12347332122E+04  0.12347332123E+04  0.25500000920E-02 0. -1.
    10030    2    1    2    0    0  0.00000000000E+00  0.00000000000E+00  0.12029112250E+03  0.25897575470E+04  0.25869623496E+04 0.  0.
        4    1    3    3  502    0 -0.35000038626E+03  0.32581181863E+02  0.13062918039E+04  0.13527607673E+04  0.12699999809E+01 0.  1.
       -4    1    3    3    0  502  0.35000038626E+03 -0.32581181863E+02 -0.11860006814E+04  0.12369967797E+04  0.12699999809E+01 0. -1.
</event>
<event>
 5   0  0.1571391E-06  0.3228867E+04  0.7818609E-02  0.8181235E-01
       -1   -1    0    0    0  501  0.00000000000E+00  0.00000000000E+00  0.14383523018E+04  0.14383523018E+04  0.50400001928E-02 0. -1.
        1   -1    0    0  501    0  0.00000000000E+00  0.00000000000E+00 -0.18120702083E+04  0.18120702083E+04  0.50400001928E-02 0.  1.
    10030    2    1    2    0    0  0.00000000000E+00  0.00000000000E+00 -0.37371790650E+03  0.32504225100E+04  0.32288668941E+04 0.  0.
        1    1    3    3  502    0  0.10088050064E+04  0.47625958565E+03 -0.13616478484E+04  0.17602828173E+04  0.50400001928E-02 0.  1.
       -1    1    3    3    0  502 -0.10088050064E+04 -0.47625958565E+03  0.98792994186E+03  0.14901396927E+04  0.50400001928E-02 0. -1.
</event>
<event>
 5   0  0.4400349E-06  0.3446854E+04  0.7818609E-02  0.8126502E-01
       -2   -1    0    0    0  501  0.00000000000E+00  0.00000000000E+00  0.82593030497E+03  0.82593030498E+03  0.25500000920E-02 0.  1.
        2   -1    0    0  501    0  0.00000000000E+00  0.00000000000E+00 -0.35961874769E+04  0.35961874769E+04  0.25500000920E-02 0. -1.
    10030    2    1    2    0    0  0.00000000000E+00  0.00000000000E+00 -0.27702571719E+04  0.44221177819E+04  0.34468537651E+04 0.  0.
        5    1    3    3  502    0  0.76856542053E+03  0.97421193035E+03 -0.29195182248E+04  0.31722847359E+04  0.46999998093E+01 0. -1.
       -5    1    3    3    0  502 -0.76856542053E+03 -0.97421193035E+03  0.14926105286E+03  0.12498330460E+04  0.46999998093E+01 0.  1.
</event>
<event>
 5   0  0.1401125E-06  0.3011553E+04  0.7818609E-02  0.8240439E-01
       -3   -1    0    0    0  501  0.00000000000E+00  0.00000000000E+00  0.15270470963E+04  0.15270470997E+04  0.10100000352E+00 0.  1.
        3   -1    0    0  501    0  0.00000000000E+00  0.00000000000E+00 -0.14848023762E+04  0.14848023796E+04  0.10100000352E+00 0. -1.
    10030    2    1    2    0    0  0.00000000000E+00  0.00000000000E+00  0.42244720154E+02  0.30118494793E+04  0.30115531988E+04 0.  0.
        1    1    3    3  502    0 -0.45834153387E+03  0.14291518947E+04 -0.10059034288E+03  0.15042175763E+04  0.50400001928E-02 0.  1.
       -1    1    3    3    0  502  0.45834153387E+03 -0.14291518947E+04  0.14283506303E+03  0.15076319030E+04  0.50400001928E-02 0. -1.
</event>
<event>
 5   0  0.2722449E-06  0.3606241E+04  0.7818609E-02  0.8089064E-01
       -2   -1    0    0    0  501  0.00000000000E+00  0.00000000000E+00  0.18478789275E+04  0.18478789275E+04  0.25500000920E-02 0.  1.
        2   -1    0    0  501    0  0.00000000000E+00  0.00000000000E+00 -0.17594461264E+04  0.17594461264E+04  0.25500000920E-02 0. -1.
    10030    2    1    2    0    0  0.00000000000E+00  0.00000000000E+00  0.88432801101E+02  0.36073250539E+04  0.36062409354E+04 0.  0.
        2    1    3    3  502    0  0.15920073747E+03 -0.50369787025E+03  0.17687378661E+04  0.18459388013E+04  0.25500000920E-02 0.  1.
       -2    1    3    3    0  502 -0.15920073747E+03  0.50369787025E+03 -0.16803050650E+04  0.17613862526E+04  0.25500000920E-02 0. -1.
</event>
<event>
 5   0  0.2722449E-06  0.3452043E+04  0.7818609E-02  0.8125250E-01
       -2   -1    0    0    0  501  0.00000000000E+00  0.00000000000E+00  0.23442606255E+04  0.23442606255E+04  0.25500000920E-02 0.  1.
        2   -1    0    0  501    0  0.00000000000E+00  0.00000000000E+00 -0.12708273453E+04  0.12708273453E+04  0.25500000920E-02 0. -1.
    10030    2    1    2    0    0  0.00000000000E+00  0.00000000000E+00  0.10734332801E+04  0.36150879708E+04  0.34520431674E+04 0.  0.
        2    1    3    3  502    0  0.13769645429E+04  0.28264562173E+03 -0.51220498460E+03  0.14960861760E+04  0.25500000920E-02 0. -1.
       -2    1    3    3    0  502 -0.13769645429E+04 -0.28264562173E+03  0.15856382647E+04  0.21190017948E+04  0.25500000920E-02 0.  1.
</event>
<event>
 5   0  0.4400349E-06  0.3257172E+04  0.7818609E-02  0.8173879E-01
       -2   -1    0    0    0  501  0.00000000000E+00  0.00000000000E+00  0.11130302917E+04  0.11130302917E+04  0.25500000920E-02 0.  1.
        2   -1    0    0  501    0  0.00000000000E+00  0.00000000000E+00 -0.23829465670E+04  0.23829465670E+04  0.25500000920E-02 0. -1.
    10030    2    1    2    0    0  0.00000000000E+00  0.00000000000E+00 -0.12699162753E+04  0.34959768588E+04  0.32571716029E+04 0.  0.
        5    1    3    3  502    0  0.12686707980E+04  0.34658007312E+03  0.39599949971E+03  0.13734922769E+04  0.46999998093E+01 0.  1.
       -5    1    3    3    0  502 -0.12686707980E+04 -0.34658007312E+03 -0.16659157750E+04  0.21224845819E+04  0.46999998093E+01 0. -1.
</event>
<event>
 5   0  0.1571391E-06  0.3403712E+04  0.7818609E-02  0.8136996E-01
       -1   -1    0    0    0  501  0.00000000000E+00  0.00000000000E+00  0.12520689554E+04  0.12520689554E+04  0.50400001928E-02 0.  1.
        1   -1    0    0  501    0  0.00000000000E+00  0.00000000000E+00 -0.23132226233E+04  0.23132226233E+04  0.50400001928E-02 0. -1.
    10030    2    1    2    0    0  0.00000000000E+00  0.00000000000E+00 -0.10611536680E+04  0.35652915787E+04  0.34037122285E+04 0.  0.
        1    1    3    3  502    0 -0.98170340409E+03  0.30112427586E+03  0.89101483174E+03  0.13595311080E+04  0.50400001928E-02 0.  1.
       -1    1    3    3    0  502  0.98170340409E+03 -0.30112427586E+03 -0.19521684997E+04  0.22057604708E+04  0.50400001928E-02 0. -1.
</event>
<event>
 5   0  0.2101998E-06  0.3310674E+04  0.7818609E-02  0.8160185E-01
        1   -1    0    0  501    0  0.00000000000E+00  0.00000000000E+00  0.15287891671E+04  0.15287891671E+04  0.50400001928E-02 0. -1.
       -1   -1    0    0    0  501  0.00000000000E+00  0.00000000000E+00 -0.17923596096E+04  0.17923596096E+04  0.50400001928E-02 0.  1.
    10030    2    1    2    0    0  0.00000000000E+00  0.00000000000E+00 -0.26357044251E+03  0.33211487768E+04  0.33106736202E+04 0.  0.
        5    1    3    3  502    0  0.70497837007E+03 -0.79352887930E+03  0.11424445193E+04  0.15594499525E+04  0.46999998093E+01 0. -1.
       -5    1    3    3    0  502 -0.70497837007E+03  0.79352887930E+03 -0.14060149618E+04  0.17616988243E+04  0.46999998093E+01 0.  1.
</event>
<event>
 5   0  0.2722449E-06  0.3332433E+04  0.7818609E-02  0.8154691E-01
        2   -1    0    0  501    0  0.00000000000E+00  0.00000000000E+00  0.23109896489E+04  0.23109896489E+04  0.25500000920E-02 0. -1.
       -2   -1    0    0    0  501  0.00000000000E+00  0.00000000000E+00 -0.12013372827E+04  0.12013372827E+04  0.25500000920E-02 0.  1.
    10030    2    1    2    0    0  0.00000000000E+00  0.00000000000E+00  0.11096523663E+04  0.35123269316E+04  0.33324333602E+04 0.  0.
        2    1    3    3  502    0 -0.95286167828E+02 -0.73011111984E+03 -0.10205645814E+04  0.12584489524E+04  0.25500000920E-02 0.  1.
       -2    1    3    3    0  502  0.95286167828E+02  0.73011111984E+03  0.21302169476E+04  0.22538779792E+04  0.25500000920E-02 0. -1.
</event>
<event>
 5   0  0.4344980E-06  0.2951615E+04  0.7818609E-02  0.8257684E-01
       -2   -1    0    0    0  501  0.00000000000E+00  0.00000000000E+00  0.18712675631E+04  0.18712675631E+04  0.25500000920E-02 0.  1.
        2   -1    0    0  501    0  0.00000000000E+00  0.00000000000E+00 -0.11639209366E+04  0.11639209366E+04  0.25500000920E-02 0. -1.
    10030    2    1    2    0    0  0.00000000000E+00  0.00000000000E+00  0.70734662649E+03  0.30351884997E+04  0.29516148086E+04 0.  0.
        3    1    3    3  502    0  0.11134593591E+04 -0.90078264204E+03 -0.12508293398E+02  0.14322561154E+04  0.10100000352E+00 0. -1.
       -3    1    3    3    0  502 -0.11134593591E+04  0.90078264204E+03  0.71985491989E+03  0.16029323842E+04  0.10100000352E+00 0.  1.
</event>
<event>
 5   0  0.4189587E-06  0.3398013E+04  0.7818609E-02  0.8138394E-01
       -2   -1    0    0    0  501  0.00000000000E+00  0.00000000000E+00  0.14306360452E+04  0.14306360452E+04  0.25500000920E-02 0.  1.
        2   -1    0    0  501    0  0.00000000000E+00  0.00000000000E+00 -0.20177201103E+04  0.20177201103E+04  0.25500000920E-02 0. -1.
    10030    2    1    2    0    0  0.00000000000E+00  0.00000000000E+00 -0.58708406504E+03  0.34483561555E+04  0.33980130188E+04 0.  0.
        1    1    3    3  502    0 -0.82296337067E+03  0.11990780157E+04  0.59786017963E+03  0.15724164816E+04  0.50400001928E-02 0.  1.
       -1    1    3    3    0  502  0.82296337067E+03 -0.11990780157E+04 -0.11849442447E+04  0.18759396739E+04  0.50400001928E-02 0. -1.
</event>
<event>
 5   0  0.4173467E-06  0.3309431E+04  0.7818609E-02  0.8160500E-01
       -2   -1    0    0    0  501  0.00000000000E+00  0.00000000000E+00  0.11718827023E+04  0.11718827023E+04  0.25500000920E-02 0.  1.
        2   -1    0    0  501    0  0.00000000000E+00  0.00000000000E+00 -0.23364820155E+04  0.23364820155E+04  0.25500000920E-02 0. -1.
    10030    2    1    2    0    0  0.00000000000E+00  0.00000000000E+00 -0.11645993133E+04  0.35083647178E+04  0.33094306810E+04 0.  0.
        4    1    3    3  502    0  0.30699952877E+03  0.15154871086E+04  0.42295151421E+02  0.15468485316E+04  0.12699999809E+01 0.  1.
       -4    1    3    3    0  502 -0.30699952877E+03 -0.15154871086E+04 -0.12068944647E+04  0.19615161862E+04  0.12699999809E+01 0. -1.
</event>
<event>
 5   0  0.2101998E-06  0.3199825E+04  0.7818609E-02  0.8188863E-01
        1   -1    0    0  501    0  0.00000000000E+00  0.00000000000E+00  0.23780332501E+04  0.23780332501E+04  0.50400001928E-02 0. -1.
       -1   -1    0    0    0  501  0.00000000000E+00  0.00000000000E+00 -0.10764021955E+04  0.10764021955E+04  0.50400001928E-02 0.  1.
    10030    2    1    2    0    0  0.00000000000E+00  0.00000000000E+00  0.13016310546E+04  0.34544354455E+04  0.31998251273E+04 0.  0.
        5    1    3    3  502    0  0.16027696091E+03  0.19147060996E+03 -0.10552291723E+04  0.10843801892E+04  0.46999998093E+01 0.  1.
       -5    1    3    3    0  502 -0.16027696091E+03 -0.19147060996E+03  0.23568602269E+04  0.23700552563E+04  0.46999998093E+01 0. -1.
</event>
<event>
 5   0  0.2101998E-06  0.3077602E+04  0.7818609E-02  0.8221912E-01
       -1   -1    0    0    0  501  0.00000000000E+00  0.00000000000E+00  0.18531388487E+04  0.18531388487E+04  0.50400001928E-02 0.  1.
        1   -1    0    0  501    0  0.00000000000E+00  0.00000000000E+00 -0.12777827164E+04  0.12777827164E+04  0.50400001928E-02 0. -1.
    10030    2    1    2    0    0  0.00000000000E+00  0.00000000000E+00  0.57535613232E+03  0.31309215652E+04  0.30776021784E+04 0.  0.
        5    1    3    3  502    0 -0.14582909815E+04  0.76643157218E+02  0.78126412276E+03  0.16561649917E+04  0.46999998093E+01 0. -1.
       -5    1    3    3    0  502  0.14582909815E+04 -0.76643157218E+02 -0.20590799044E+03  0.14747565734E+04  0.46999998093E+01 0.  1.
</event>
<event>
 5   0  0.2722449E-06  0.3306898E+04  0.7818609E-02  0.8161142E-01
        2   -1    0    0  501    0  0.00000000000E+00  0.00000000000E+00  0.23558474578E+04  0.23558474578E+04  0.25500000920E-02 0. -1.
       -2   -1    0    0    0  501  0.00000000000E+00  0.00000000000E+00 -0.11604715184E+04  0.11604715184E+04  0.25500000920E-02 0.  1.
    10030    2    1    2    0    0  0.00000000000E+00  0.00000000000E+00  0.11953759394E+04  0.35163189762E+04  0.33068981699E+04 0.  0.
        2    1    3    3  502    0  0.89440926405E+03  0.13605238343E+03  0.20693190905E+04  0.22584418701E+04  0.25500000920E-02 0. -1.
       -2    1    3    3    0  502 -0.89440926405E+03 -0.13605238343E+03 -0.87394315105E+03  0.12578771061E+04  0.25500000920E-02 0.  1.
</event>
<event>
 5   0  0.1550164E-06  0.3439789E+04  0.7818609E-02  0.8128209E-01
        1   -1    0    0  501    0  0.00000000000E+00  0.00000000000E+00  0.29027559210E+04  0.29027559210E+04  0.50400001928E-02 0.  1.
       -1   -1    0    0    0  501  0.00000000000E+00  0.00000000000E+00 -0.10190442755E+04  0.10190442755E+04  0.50400001928E-02 0. -1.
    10030    2    1    2    0    0  0.00000000000E+00  0.00000000000E+00  0.18837116455E+04  0.39218001965E+04  0.34397888333E+04 0.  0.
        4    1    3    3  502    0  0.18655039428E+03  0.15567910806E+04  0.17477544222E+04  0.23479877878E+04  0.12699999809E+01 0.  1.
       -4    1    3    3    0  502 -0.18655039428E+03 -0.15567910806E+04  0.13595722331E+03  0.15738124087E+04  0.12699999809E+01 0. -1.
</event>
<event>
 5   0  0.2905808E-06  0.1801565E+04  0.7818609E-02  0.8705468E-01
       -2   -1    0    0    0  501  0.00000000000E+00  0.00000000000E+00  0.63273518681E+03  0.63273518682E+03  0.25500000920E-02 0. -1.
        2   -1    0    0  501    0  0.00000000000E+00  0.00000000000E+00 -0.12823832699E+04  0.12823832699E+04  0.25500000920E-02 0.  1.
    10030    2    1    2    0    0  0.00000000000E+00  0.00000000000E+00 -0.64964808304E+03  0.19151184567E+04  0.18015648951E+04 0.  0.
        2    1    3    3  502    0 -0.55937441936E+03  0.30009495367E+03 -0.10042097419E+04  0.11880210133E+04  0.25500000920E-02 0.  1.
       -2    1    3    3    0  502  0.55937441936E+03 -0.30009495367E+03  0.35456165886E+03  0.72709744340E+03  0.25500000920E-02 0. -1.
</event>
<event>
 5   0  0.1571391E-06  0.3385294E+04  0.7818609E-02  0.8141525E-01
        1   -1    0    0  501    0  0.00000000000E+00  0.00000000000E+00  0.24147107409E+04  0.24147107409E+04  0.50400001928E-02 0. -1.
       -1   -1    0    0    0  501  0.00000000000E+00  0.00000000000E+00 -0.11864995943E+04  0.11864995944E+04  0.50400001928E-02 0.  1.
    10030    2    1    2    0    0  0.00000000000E+00  0.00000000000E+00  0.12282111466E+04  0.36012103353E+04  0.33852936739E+04 0.  0.
        1    1    3    3  502    0  0.15654547546E+04 -0.29028977495E+02  0.12982101172E+04  0.20339225104E+04  0.50400001928E-02 0. -1.
       -1    1    3    3    0  502 -0.15654547546E+04  0.29028977495E+02 -0.69998970566E+02  0.15672878249E+04  0.50400001928E-02 0.  1.
</event>
<event>
 5   0  0.1562618E-06  0.1770381E+04  0.7818609E-02  0.8722211E-01
        1   -1    0    0  501    0  0.00000000000E+00  0.00000000000E+00  0.18387200970E+04  0.18387200970E+04  0.50400001928E-02 0.  1.
       -1   -1    0    0    0  501  0.00000000000E+00  0.00000000000E+00 -0.42614530463E+03  0.42614530466E+03  0.50400001928E-02 0. -1.
    10030    2    1    2    0    0  0.00000000000E+00  0.00000000000E+00  0.14125747923E+04  0.22648654016E+04  0.17703806776E+04 0.  0.
        2    1    3    3  502    0  0.16281060212E+03 -0.66231429111E+03  0.14281565143E+04  0.15826555348E+04  0.25500000920E-02 0.  1.
       -2    1    3    3    0  502 -0.16281060212E+03  0.66231429111E+03 -0.15581721991E+02  0.68220986686E+03  0.25500000920E-02 0. -1.
</event>
<event>
 5   0  0.1562618E-06  0.2637641E+04  0.7818609E-02  0.8355527E-01
        1   -1    0    0  501    0  0.00000000000E+00  0.00000000000E+00  0.11064137047E+04  0.11064137048E+04  0.50400001928E-02 0.  1.
       -1   -1    0    0    0  501  0.00000000000E+00  0.00000000000E+00 -0.15720050946E+04  0.15720050946E+04  0.50400001928E-02 0. -1.
    10030    2    1    2    0    0  0.00000000000E+00  0.00000000000E+00 -0.46559138988E+03  0.26784187994E+04  0.26376413559E+04 0.  0.
        2    1    3    3  502    0  0.35210999297E+03 -0.46557700767E+03  0.96808786336E+03  0.11304589813E+04  0.25500000920E-02 0.  1.
       -2    1    3    3    0  502 -0.35210999297E+03  0.46557700767E+03 -0.14336792532E+04  0.15479598181E+04  0.25500000920E-02 0. -1.
</event>
<event>
 5   0  0.4173467E-06  0.3333522E+04  0.7818609E-02  0.8154418E-01
        2   -1    0    0  501    0  0.00000000000E+00  0.00000000000E+00  0.31322213652E+04  0.31322213652E+04  0.25500000920E-02 0.  1.
       -2   -1    0    0    0  501  0.00000000000E+00  0.00000000000E+00 -0.88694003733E+03  0.88694003734E+03  0.25500000920E-02 0. -1.
    10030    2    1    2    0    0  0.00000000000E+00  0.00000000000E+00  0.22452813279E+04  0.40191614026E+04  0.33335221821E+04 0.  0.
        4    1    3    3  502    0 -0.17675908703E+03 -0.15618922691E+04  0.17910483260E+04  0.23829827851E+04  0.12699999809E+01 0. -1.
       -4    1    3    3    0  502  0.17675908703E+03  0.15618922691E+04  0.45423300191E+03  0.16361786175E+04  0.12699999809E+01 0.  1.
</event>
<event>
 5   0  0.1571391E-06  0.2015084E+04  0.7818609E-02  0.8599601E-01
       -1   -1    0    0    0  501  0.00000000000E+00  0.00000000000E+00  0.54200086886E+03  0.54200086888E+03  0.50400001928E-02 0. -1.
        1   -1    0    0  501    0  0.00000000000E+00  0.00000000000E+00 -0.18729511926E+04  0.18729511927E+04  0.50400001928E-02 0.  1.
    10030    2    1    2    0    0  0.00000000000E+00  0.00000000000E+00 -0.13309503238E+04  0.24149520615E+04  0.20150842898E+04 0.  0.
        1    1    3    3  502    0 -0.48224236132E+03  0.59164725741E+03  0.12270759507E+03  0.77308558786E+03  0.50400001928E-02 0. -1.
       -1    1    3    3    0  502  0.48224236132E+03 -0.59164725741E+03 -0.14536579189E+04  0.16418664737E+04  0.50400001928E-02 0.  1.
</event>
<event>
 5   0  0.4189587E-06  0.2042977E+04  0.7818609E-02  0.8586787E-01
        2   -1    0    0  501    0  0.00000000000E+00  0.00000000000E+00  0.70882439177E+03  0.70882439178E+03  0.25500000920E-02 0. -1.
       -2   -1    0    0    0  501  0.00000000000E+00  0.00000000000E+00 -0.14720697941E+04  0.14720697941E+04  0.25500000920E-02 0.  1.
    10030    2    1    2    0    0  0.00000000000E+00  0.00000000000E+00 -0.76324540236E+03  0.21808941859E+04  0.20429772162E+04 0.  0.
        1    1    3    3  502    0  0.15111137041E+03 -0.76600027533E+03  0.32151409438E+03  0.84437099724E+03  0.50400001928E-02 0. -1.
       -1    1    3    3    0  502 -0.15111137041E+03  0.76600027533E+03 -0.10847594967E+04  0.13365231887E+04  0.50400001928E-02 0.  1.
</event>
<event>
 5   0  0.2722449E-06  0.3326644E+04  0.7818609E-02  0.8156149E-01
       -2   -1    0    0    0  501  0.00000000000E+00  0.00000000000E+00  0.18629506750E+04  0.18629506750E+04  0.25500000920E-02 0. -1.
        2   -1    0    0  501    0  0.00000000000E+00  0.00000000000E+00 -0.14850845903E+04  0.14850845903E+04  0.25500000920E-02 0.  1.
    10030    2    1    2    0    0  0.00000000000E+00  0.00000000000E+00  0.37786608464E+03  0.33480352653E+04  0.33266435577E+04 0.  0.
        2    1    3    3  502    0 -0.13888460851E+04  0.79676797993E+03 -0.26441518762E+03  0.16228518273E+04  0.25500000920E-02 0. -1.
       -2    1    3    3    0  502  0.13888460851E+04 -0.79676797993E+03  0.64228127227E+03  0.17251834380E+04  0.25500000920E-02 0.  1.
</event>
<event>
 5   0  0.2722449E-06  0.1921439E+04  0.7818609E-02  0.8644258E-01
       -2   -1    0    0    0  501  0.00000000000E+00  0.00000000000E+00  0.48994303413E+03  0.48994303414E+03  0.25500000920E-02 0. -1.
        2   -1    0    0  501    0  0.00000000000E+00  0.00000000000E+00 -0.18838548745E+04  0.18838548745E+04  0.25500000920E-02 0.  1.
    10030    2    1    2    0    0  0.00000000000E+00  0.00000000000E+00 -0.13939118403E+04  0.23737979086E+04  0.19214385997E+04 0.  0.
        2    1    3    3  502    0 -0.15014166527E+03  0.13884152304E+03  0.46274267969E+03  0.50591528518E+03  0.25500000920E-02 0. -1.
       -2    1    3    3    0  502  0.15014166527E+03 -0.13884152304E+03 -0.18566545200E+04  0.18678826234E+04  0.25500000920E-02 0.  1.
</event>
<event>
 5   0  0.1562618E-06  0.3320344E+04  0.7818609E-02  0.8157738E-01
       -1   -1    0    0    0  501  0.00000000000E+00  0.00000000000E+00  0.13159610110E+04  0.13159610110E+04  0.50400001928E-02 0. -1.
        1   -1    0    0  501    0  0.00000000000E+00  0.00000000000E+00 -0.20944169555E+04  0.20944169555E+04  0.50400001928E-02 0.  1.
    10030    2    1    2    0    0  0.00000000000E+00  0.00000000000E+00 -0.77845594453E+03  0.34103779665E+04  0.33203439907E+04 0.  0.
        2    1    3    3  502    0  0.15629799456E+02 -0.16483286384E+04 -0.59190961472E+03  0.17514532774E+04  0.25500000920E-02 0.  1.
       -2    1    3    3    0  502 -0.15629799456E+02  0.16483286384E+04 -0.18654632982E+03  0.16589246891E+04  0.25500000920E-02 0. -1.
</event>
<event>
 5   0  0.1571391E-06  0.2029030E+04  0.7818609E-02  0.8593167E-01
        1   -1    0    0  501    0  0.00000000000E+00  0.00000000000E+00  0.12826755009E+04  0.12826755009E+04  0.50400001928E-02 0. -1.
       -1   -1    0    0    0  501  0.00000000000E+00  0.00000000000E+00 -0.80241706987E+03  0.80241706989E+03  0.50400001928E-02 0.  1.
    10030    2    1    2    0    0  0.00000000000E+00  0.00000000000E+00  0.48025843100E+03  0.20850925708E+04  0.20290300313E+04 0.  0.
        1    1    3    3  502    0 -0.46414420328E+03 -0.77922001123E+03  0.70725135695E+03  0.11501383175E+04  0.50400001928E-02 0. -1.
       -1    1    3    3    0  502  0.46414420328E+03  0.77922001123E+03 -0.22699292595E+03  0.93495425332E+03  0.50400001928E-02 0.  1.
</event>
<event>
 5   0  0.2722449E-06  0.2091233E+04  0.7818609E-02  0.8565115E-01
       -2   -1    0    0    0  501  0.00000000000E+00  0.00000000000E+00  0.84705064294E+03  0.84705064294E+03  0.25500000920E-02 0.  1.
        2   -1    0    0  501    0  0.00000000000E+00  0.00000000000E+00 -0.12907298456E+04  0.12907298456E+04  0.25500000920E-02 0. -1.
    10030    2    1    2    0    0  0.00000000000E+00  0.00000000000E+00 -0.44367920269E+03  0.21377804886E+04  0.20912326945E+04 0.  0.
        2    1    3    3  502    0 -0.64282306474E+03 -0.65672254715E+03 -0.73174842295E+03  0.11747177325E+04  0.25500000920E-02 0. -1.
       -2    1    3    3    0  502  0.64282306474E+03  0.65672254715E+03  0.28806922026E+03  0.96306275609E+03  0.25500000920E-02 0.  1.
</event>
<event>
 5   0  0.4344980E-06  0.2177616E+04  0.7818609E-02  0.8527803E-01
        2   -1    0    0  501    0  0.00000000000E+00  0.00000000000E+00  0.13819042235E+04  0.13819042235E+04  0.25500000920E-02 0.  1.
       -2   -1    0    0    0  501  0.00000000000E+00  0.00000000000E+00 -0.85787655908E+03  0.85787655908E+03  0.25500000920E-02 0. -1.
    10030    2    1    2    0    0  0.00000000000E+00  0.00000000000E+00  0.52402766442E+03  0.22397807826E+04  0.21776163484E+04 0.  0.
        3    1    3    3  502    0  0.61440185931E+03 -0.15692151173E+03 -0.64834569685E+03  0.90689919969E+03  0.10100000352E+00 0. -1.
       -3    1    3    3    0  502 -0.61440185931E+03  0.15692151173E+03  0.11723733613E+04  0.13328815829E+04  0.10100000352E+00 0.  1.
</event>
<event>
 5   0  0.4400349E-06  0.2695637E+04  0.7818609E-02  0.8336422E-01
        2   -1    0    0  501    0  0.00000000000E+00  0.00000000000E+00  0.11274972122E+04  0.11274972122E+04  0.25500000920E-02 0. -1.
       -2   -1    0    0    0  501  0.00000000000E+00  0.00000000000E+00 -0.16111927685E+04  0.16111927685E+04  0.25500000920E-02 0.  1.
    10030    2    1    2    0    0  0.00000000000E+00  0.00000000000E+00 -0.48369555628E+03  0.27386899807E+04  0.26956374792E+04 0.  0.
        5    1    3    3  502    0 -0.72667885453E+03 -0.10975874726E+04  0.52315525959E+02  0.13173911423E+04  0.46999998093E+01 0. -1.
       -5    1    3    3    0  502  0.72667885453E+03  0.10975874726E+04 -0.53601108224E+03  0.14212988384E+04  0.46999998093E+01 0.  1.
</event>
<event>
 5   0  0.1401125E-06  0.2836176E+04  0.7818609E-02  0.8292124E-01
       -3   -1    0    0    0  501  0.00000000000E+00  0.00000000000E+00  0.99460723201E+03  0.99460723714E+03  0.10100000352E+00 0. -1.
        3   -1    0    0  501    0  0.00000000000E+00  0.00000000000E+00 -0.20218776943E+04  0.20218776969E+04  0.10100000352E+00 0.  1.
    10030    2    1    2    0    0  0.00000000000E+00  0.00000000000E+00 -0.10272704623E+04  0.30164849340E+04  0.28361764322E+04 0.  0.
        5    1    3    3  502    0  0.83062395210E+03 -0.11623874345E+03 -0.17297918657E+04  0.19224072368E+04  0.46999998093E+01 0.  1.
       -5    1    3    3    0  502 -0.83062395210E+03  0.11623874345E+03  0.70252140341E+03  0.10940776972E+04  0.46999998093E+01 0. -1.
</event>
<event>
 5   0  0.1571391E-06  0.3234006E+04  0.7818609E-02  0.8179894E-01
       -1   -1    0    0    0  501  0.00000000000E+00  0.00000000000E+00  0.14586411834E+04  0.14586411834E+04  0.50400001928E-02 0.  1.
        1   -1    0    0  501    0  0.00000000000E+00  0.00000000000E+00 -0.17925575547E+04  0.17925575547E+04  0.50400001928E-02 0. -1.
    10030    2    1    2    0    0  0.00000000000E+00  0.00000000000E+00 -0.33391637129E+03  0.32511987380E+04  0.32340057346E+04 0.  0.
        1    1    3    3  502    0 -0.15554908788E+04 -0.36771528739E+03 -0.41306953007E+03  0.16508763864E+04  0.50400001928E-02 0. -1.
       -1    1    3    3    0  502  0.15554908788E+04  0.36771528739E+03  0.79153158778E+02  0.16003223516E+04  0.50400001928E-02 0.  1.
</event>
<event>
 5   0  0.2722449E-06  0.3520556E+04  0.7818609E-02  0.8108936E-01
       -2   -1    0    0    0  501  0.00000000000E+00  0.00000000000E+00  0.13708782463E+04  0.13708782463E+04  0.25500000920E-02 0.  1.
        2   -1    0    0  501    0  0.00000000000E+00  0.00000000000E+00 -0.22602872323E+04  0.22602872323E+04  0.25500000920E-02 0. -1.
    10030    2    1    2    0    0  0.00000000000E+00  0.00000000000E+00 -0.88940898606E+03  0.36311654786E+04  0.35205559772E+04 0.  0.
        2    1    3    3  502    0 -0.40404277304E+03 -0.43192663182E+03  0.12653257222E+04  0.13967320290E+04  0.25500000920E-02 0.  1.
       -2    1    3    3    0  502  0.40404277304E+03  0.43192663182E+03 -0.21547347082E+04  0.22344334496E+04  0.25500000920E-02 0. -1.
</event>
<event>
 5   0  0.2722449E-06  0.2554483E+04  0.7818609E-02  0.8383829E-01
        2   -1    0    0  501    0  0.00000000000E+00  0.00000000000E+00  0.12336212823E+04  0.12336212823E+04  0.25500000920E-02 0.  1.
       -2   -1    0    0    0  501  0.00000000000E+00  0.00000000000E+00 -0.13224037522E+04  0.13224037522E+04  0.25500000920E-02 0. -1.
    10030    2    1    2    0    0  0.00000000000E+00  0.00000000000E+00 -0.88782469878E+02  0.25560250344E+04  0.25544826579E+04 0.  0.
        2    1    3    3  502    0 -0.38159616289E+03 -0.74584863170E+03  0.92026534381E+03  0.12445055709E+04  0.25500000920E-02 0.  1.
       -2    1    3    3    0  502  0.38159616289E+03  0.74584863170E+03 -0.10090478137E+04  0.13115194635E+04  0.25500000920E-02 0. -1.
</event>
<event>
 5   0  0.1571391E-06  0.2107180E+04  0.7818609E-02  0.8558087E-01
        1   -1    0    0  501    0  0.00000000000E+00  0.00000000000E+00  0.11381108324E+04  0.11381108324E+04  0.50400001928E-02 0.  1.
       -1   -1    0    0    0  501  0.00000000000E+00  0.00000000000E+00 -0.97534630191E+03  0.97534630193E+03  0.50400001928E-02 0. -1.
    10030    2    1    2    0    0  0.00000000000E+00  0.00000000000E+00  0.16276453048E+03  0.21134571343E+04  0.21071802880E+04 0.  0.
        1    1    3    3  502    0 -0.75335999157E+03  0.12298632772E+03 -0.64698703471E+03  0.10006343672E+04  0.50400001928E-02 0. -1.
       -1    1    3    3    0  502  0.75335999157E+03 -0.12298632772E+03  0.80975156519E+03  0.11128227671E+04  0.50400001928E-02 0.  1.
</event>
<event>
 5   0  0.1571391E-06  0.3329422E+04  0.7818609E-02  0.8155449E-01
       -1   -1    0    0    0  501  0.00000000000E+00  0.00000000000E+00  0.10572163006E+04  0.10572163006E+04  0.50400001928E-02 0. -1.
        1   -1    0    0  501    0  0.00000000000E+00  0.00000000000E+00 -0.26212820238E+04  0.26212820238E+04  0.50400001928E-02 0.  1.
    10030    2    1    2    0    0  0.00000000000E+00  0.00000000000E+00 -0.15640657233E+04  0.36784983244E+04  0.33294216219E+04 0.  0.
        1    1    3    3  502    0  0.20657570246E+03  0.13572074651E+04 -0.18223358952E+04  0.22815770289E+04  0.50400001928E-02 0.  1.
       -1    1    3    3    0  502 -0.20657570246E+03 -0.13572074651E+04  0.25827017192E+03  0.13969212955E+04  0.50400001928E-02 0. -1.
</event>
<event>
 5   0  0.4344980E-06  0.3449140E+04  0.7818609E-02  0.8125950E-01
       -2   -1    0    0    0  501  0.00000000000E+00  0.00000000000E+00  0.16555339254E+04  0.16555339254E+04  0.25500000920E-02 0.  1.
        2   -1    0    0  501    0  0.00000000000E+00  0.00000000000E+00 -0.17964843812E+04  0.17964843812E+04  0.25500000920E-02 0. -1.
    10030    2    1    2    0    0  0.00000000000E+00  0.00000000000E+00 -0.14095045579E+03  0.34520183066E+04  0.34491395099E+04 0.  0.
        3    1    3    3  502    0  0.37110306846E+03 -0.30013083567E+03  0.15881179007E+04  0.16582866105E+04  0.10100000352E+00 0.  1.
       -3    1    3    3    0  502 -0.37110306846E+03  0.30013083567E+03 -0.17290683565E+04  0.17937316961E+04  0.10100000352E+00 0. -1.
</event>
<event>
 5   0  0.1550164E-06  0.3434739E+04  0.7818609E-02  0.8129433E-01
        1   -1    0    0  501    0  0.00000000000E+00  0.00000000000E+00  0.22017423326E+04  0.22017423326E+04  0.50400001928E-02 0.  1.
       -1   -1    0    0    0  501  0.00000000000E+00  0.00000000000E+00 -0.13395560486E+04  0.13395560486E+04  0.50400001928E-02 0. -1.
    10030    2    1    2    0    0  0.00000000000E+00  0.00000000000E+00  0.86218628397E+03  0.35412983812E+04  0.34347385689E+04 0.  0.
        4    1    3    3  502    0 -0.15324079464E+04 -0.40697653636E+03  0.11114531770E+04  0.19362938292E+04  0.12699999809E+01 0.  1.
       -4    1    3    3    0  502  0.15324079464E+04  0.40697653636E+03 -0.24926689298E+03  0.16050045521E+04  0.12699999809E+01 0. -1.
</event>
<event>
 5   0  0.1571391E-06  0.3440200E+04  0.7818609E-02  0.8128110E-01
        1   -1    0    0  501    0  0.00000000000E+00  0.00000000000E+00  0.22807482916E+04  0.22807482916E+04  0.50400001928E-02 0.  1.
       -1   -1    0    0    0  501  0.00000000000E+00  0.00000000000E+00 -0.12972690351E+04  0.12972690351E+04  0.50400001928E-02 0. -1.
    10030    2    1    2    0    0  0.00000000000E+00  0.00000000000E+00  0.98347925651E+03  0.35780173267E+04  0.34402000730E+04 0.  0.
        1    1    3    3  502    0 -0.40441067531E+03 -0.11365217476E+04  0.17670401666E+04  0.21395468276E+04  0.50400001928E-02 0.  1.
       -1    1    3    3    0  502  0.40441067531E+03  0.11365217476E+04 -0.78356091008E+03  0.14384704991E+04  0.50400001928E-02 0. -1.
</event>
<event>
 5   0  0.1571391E-06  0.2368670E+04  0.7818609E-02  0.8451327E-01
        1   -1    0    0  501    0  0.00000000000E+00  0.00000000000E+00  0.75933375434E+03  0.75933375435E+03  0.50400001928E-02 0. -1.
       -1   -1    0    0    0  501  0.00000000000E+00  0.00000000000E+00 -0.18472109084E+04  0.18472109084E+04  0.50400001928E-02 0.  1.
    10030    2    1    2    0    0  0.00000000000E+00  0.00000000000E+00 -0.10878771540E+04  0.26065446627E+04  0.23686701705E+04 0.  0.
        1    1    3    3  502    0 -0.14145720740E+02  0.29240099961E+03 -0.18067700953E+04  0.18303323806E+04  0.50400001928E-02 0.  1.
       -1    1    3    3    0  502  0.14145720740E+02 -0.29240099961E+03  0.71889294127E+03  0.77621228219E+03  0.50400001928E-02 0. -1.
</event>
<event>
 5   0  0.1571391E-06  0.2382357E+04  0.7818609E-02  0.8446139E-01
       -1   -1    0    0    0  501  0.00000000000E+00  0.00000000000E+00  0.90050370633E+03  0.90050370634E+03  0.50400001928E-02 0. -1.
        1   -1    0    0  501    0  0.00000000000E+00  0.00000000000E+00 -0.15756805507E+04  0.15756805507E+04  0.50400001928E-02 0.  1.
    10030    2    1    2    0    0  0.00000000000E+00  0.00000000000E+00 -0.67517684433E+03  0.24761842570E+04  0.23823569639E+04 0.  0.
        1    1    3    3  502    0 -0.28904764911E+02  0.74060639901E+03 -0.13068234686E+04  0.15023717588E+04  0.50400001928E-02 0.  1.
       -1    1    3    3    0  502  0.28904764911E+02 -0.74060639901E+03  0.63164662424E+03  0.97381249818E+03  0.50400001928E-02 0. -1.
</event>
<event>
 5   0  0.4400349E-06  0.3515677E+04  0.7818609E-02  0.8110085E-01
        2   -1    0    0  501    0  0.00000000000E+00  0.00000000000E+00  0.18144657488E+04  0.18144657488E+04  0.25500000920E-02 0.  1.
       -2   -1    0    0    0  501  0.00000000000E+00  0.00000000000E+00 -0.17029788436E+04  0.17029788436E+04  0.25500000920E-02 0. -1.
    10030    2    1    2    0    0  0.00000000000E+00  0.00000000000E+00  0.11148690519E+03  0.35174445924E+04  0.35156773359E+04 0.  0.
        5    1    3    3  502    0  0.34202705419E+03  0.12537856358E+03  0.17762800741E+04  0.18132554375E+04  0.46999998093E+01 0.  1.
       -5    1    3    3    0  502 -0.34202705419E+03 -0.12537856358E+03 -0.16647931690E+04  0.17041891548E+04  0.46999998093E+01 0. -1.
</event>
<event>
 5   0  0.1562618E-06  0.3050579E+04  0.7818609E-02  0.8229433E-01
       -1   -1    0    0    0  501  0.00000000000E+00  0.00000000000E+00  0.12227657623E+04  0.12227657623E+04  0.50400001928E-02 0. -1.
        1   -1    0    0  501    0  0.00000000000E+00  0.00000000000E+00 -0.19026604797E+04  0.19026604797E+04  0.50400001928E-02 0.  1.
    10030    2    1    2    0    0  0.00000000000E+00  0.00000000000E+00 -0.67989471743E+03  0.31254262420E+04  0.30505790216E+04 0.  0.
        2    1    3    3  502    0 -0.26677038980E+03 -0.11839929790E+04  0.60657159912E+03  0.13568105690E+04  0.25500000920E-02 0. -1.
       -2    1    3    3    0  502  0.26677038980E+03  0.11839929790E+04 -0.12864663166E+04  0.17686156730E+04  0.25500000920E-02 0.  1.
</event>
<event>
 5   0  0.1550164E-06  0.3192919E+04  0.7818609E-02  0.8190690E-01
        1   -1    0    0  501    0  0.00000000000E+00  0.00000000000E+00  0.22129469864E+04  0.22129469864E+04  0.50400001928E-02 0. -1.
       -1   -1    0    0    0  501  0.00000000000E+00  0.00000000000E+00 -0.11517141622E+04  0.11517141622E+04  0.50400001928E-02 0.  1.
    10030    2    1    2    0    0  0.00000000000E+00  0.00000000000E+00  0.10612328242E+04  0.33646611486E+04  0.31929186551E+04 0.  0.
        4    1    3    3  502    0 -0.14331666366E+02 -0.15712800031E+04  0.23339100677E+03  0.15885840298E+04  0.12699999809E+01 0.  1.
       -4    1    3    3    0  502  0.14331666366E+02  0.15712800031E+04  0.82784181739E+03  0.17760771189E+04  0.12699999809E+01 0. -1.
</event>
<event>
 5   0  0.1571391E-06  0.3374978E+04  0.7818609E-02  0.8144075E-01
        1   -1    0    0  501    0  0.00000000000E+00  0.00000000000E+00  0.23984689227E+04  0.23984689227E+04  0.50400001928E-02 0.  1.
       -1   -1    0    0    0  501  0.00000000000E+00  0.00000000000E+00 -0.11872655980E+04  0.11872655980E+04  0.50400001928E-02 0. -1.
    10030    2    1    2    0    0  0.00000000000E+00  0.00000000000E+00  0.12112033247E+04  0.35857345207E+04  0.33749783050E+04 0.  0.
        1    1    3    3  502    0 -0.10182716130E+04  0.57118531613E+03  0.19000829292E+04  0.22301221673E+04  0.50400001928E-02 0.  1.
       -1    1    3    3    0  502  0.10182716130E+04 -0.57118531613E+03 -0.68887960450E+03  0.13556123534E+04  0.50400001928E-02 0. -1.
</event>
<event>
 5   0  0.4344980E-06  0.2262277E+04  0.7818609E-02  0.8492945E-01
       -2   -1    0    0    0  501  0.00000000000E+00  0.00000000000E+00  0.97833861911E+03  0.97833861912E+03  0.25500000920E-02 0. -1.
        2   -1    0    0  501    0  0.00000000000E+00  0.00000000000E+00 -0.13078027660E+04  0.13078027660E+04  0.25500000920E-02 0.  1.
    10030    2    1    2    0    0  0.00000000000E+00  0.00000000000E+00 -0.32946414684E+03  0.22861413851E+04  0.22622766870E+04 0.  0.
        3    1    3    3  502    0 -0.79683638339E+03 -0.69844087183E+03  0.23530502920E+03  0.10854198912E+04  0.10100000352E+00 0. -1.
       -3    1    3    3    0  502  0.79683638339E+03  0.69844087183E+03 -0.56476917604E+03  0.12007214938E+04  0.10100000352E+00 0.  1.
</event>
<event>
 5   0  0.4173467E-06  0.3236060E+04  0.7818609E-02  0.8179358E-01
        2   -1    0    0  501    0  0.00000000000E+00  0.00000000000E+00  0.22753678878E+04  0.22753678878E+04  0.25500000920E-02 0.  1.
       -2   -1    0    0    0  501  0.00000000000E+00  0.00000000000E+00 -0.11505924303E+04  0.11505924303E+04  0.25500000920E-02 0. -1.
    10030    2    1    2    0    0  0.00000000000E+00  0.00000000000E+00  0.11247754574E+04  0.34259603181E+04  0.32360599920E+04 0.  0.
        4    1    3    3  502    0  0.11376325931E+04 -0.10958236915E+04  0.19112060243E+03  0.15910896195E+04  0.12699999809E+01 0. -1.
       -4    1    3    3    0  502 -0.11376325931E+04  0.10958236915E+04  0.93365485501E+03  0.18348706987E+04  0.12699999809E+01 0.  1.
</event>
<event>
 5   0  0.2101998E-06  0.3381130E+04  0.7818609E-02  0.8142553E-01
       -1   -1    0    0    0  501  0.00000000000E+00  0.00000000000E+00  0.91992111478E+03  0.91992111479E+03  0.50400001928E-02 0.  1.
        1   -1    0    0  501    0  0.00000000000E+00  0.00000000000E+00 -0.31067991806E+04  0.31067991806E+04  0.50400001928E-02 0. -1.
    10030    2    1    2    0    0  0.00000000000E+00  0.00000000000E+00 -0.21868780658E+04  0.40267202954E+04  0.33811300866E+04 0.  0.
        5    1    3    3  502    0 -0.10575536430E+04 -0.10639196607E+04 -0.20217937501E+04  0.25175418190E+04  0.46999998093E+01 0. -1.
       -5    1    3    3    0  502  0.10575536430E+04  0.10639196607E+04 -0.16508431570E+03  0.15091784764E+04  0.46999998093E+01 0.  1.
</event>
<event>
 5   0  0.4173467E-06  0.3456726E+04  0.7818609E-02  0.8124123E-01
        2   -1    0    0  501    0  0.00000000000E+00  0.00000000000E+00  0.13465160440E+04  0.13465160440E+04  0.25500000920E-02 0.  1.
       -2   -1    0    0    0  501  0.00000000000E+00  0.00000000000E+00 -0.22184941077E+04  0.22184941077E+04  0.25500000920E-02 0. -1.
    10030    2    1    2    0    0  0.00000000000E+00  0.00000000000E+00 -0.87197806371E+03  0.35650101518E+04  0.34567255660E+04 0.  0.
        4    1    3    3  502    0  0.15707244401E+04 -0.30301777557E+03  0.23891204648E+03  0.16174287057E+04  0.12699999809E+01 0. -1.
       -4    1    3    3    0  502 -0.15707244401E+04  0.30301777557E+03 -0.11108901102E+04  0.19475814461E+04  0.12699999809E+01 0.  1.
</event>
<event>
 5   0  0.1654257E-06  0.3449969E+04  0.7818609E-02  0.8125750E-01
       -1   -1    0    0    0  501  0.00000000000E+00  0.00000000000E+00  0.16108262289E+04  0.16108262289E+04  0.50400001928E-02 0.  1.
        1   -1    0    0  501    0  0.00000000000E+00  0.00000000000E+00 -0.18472326910E+04  0.18472326910E+04  0.50400001928E-02 0. -1.
    10030    2    1    2    0    0  0.00000000000E+00  0.00000000000E+00 -0.23640646209E+03  0.34580589199E+04  0.34499686199E+04 0.  0.
        3    1    3    3  502    0  0.13442440160E+04  0.62348485658E+03  0.76695626780E+03  0.16685164871E+04  0.10100000352E+00 0.  1.
       -3    1    3    3    0  502 -0.13442440160E+04 -0.62348485658E+03 -0.10033627299E+04  0.17895424328E+04  0.10100000352E+00 0. -1.
</event>
<event>
 5   0  0.2722449E-06  0.3478809E+04  0.7818609E-02  0.8118830E-01
       -2   -1    0    0    0  501  0.00000000000E+00  0.00000000000E+00  0.20228831422E+04  0.20228831422E+04  0.25500000920E-02 0. -1.
        2   -1    0    0  501    0  0.00000000000E+00  0.00000000000E+00 -0.14956512608E+04  0.14956512608E+04  0.25500000920E-02 0.  1.
    10030    2    1    2    0    0  0.00000000000E+00  0.00000000000E+00  0.52723188142E+03  0.35185344030E+04  0.34788088318E+04 0.  0.
        2    1    3    3  502    0 -0.11254948544E+04  0.95658658363E+03 -0.66542164132E+03  0.16200563324E+04  0.25500000920E-02 0.  1.
       -2    1    3    3    0  502  0.11254948544E+04 -0.95658658363E+03  0.11926535227E+04  0.18984780706E+04  0.25500000920E-02 0. -1.
</event>
<event>
 5   0  0.4173467E-06  0.3409106E+04  0.7818609E-02  0.8135675E-01
       -2   -1    0    0    0  501  0.00000000000E+00  0.00000000000E+00  0.10363100477E+04  0.10363100478E+04  0.25500000920E-02 0. -1.
        2   -1    0    0  501    0  0.00000000000E+00  0.00000000000E+00 -0.28036989447E+04  0.28036989447E+04  0.25500000920E-02 0.  1.
    10030    2    1    2    0    0  0.00000000000E+00  0.00000000000E+00 -0.17673888970E+04  0.38400089925E+04  0.34091062684E+04 0.  0.
        4    1    3    3  502    0 -0.82290039929E+03  0.58139306023E+03 -0.24323648608E+04  0.26327900384E+04  0.12699999809E+01 0.  1.
       -4    1    3    3    0  502  0.82290039929E+03 -0.58139306023E+03  0.66497596381E+03  0.12072189540E+04  0.12699999809E+01 0. -1.
</event>
<event>
 5   0  0.1562618E-06  0.3420306E+04  0.7818609E-02  0.8132940E-01
        1   -1    0    0  501    0  0.00000000000E+00  0.00000000000E+00  0.93287363982E+03  0.93287363983E+03  0.50400001928E-02 0. -1.
       -1   -1    0    0    0  501  0.00000000000E+00  0.00000000000E+00 -0.31350695616E+04  0.31350695616E+04  0.50400001928E-02 0.  1.
    10030    2    1    2    0    0  0.00000000000E+00  0.00000000000E+00 -0.22021959218E+04  0.40679432014E+04  0.34203062746E+04 0.  0.
        2    1    3    3  502    0 -0.99842179059E+02 -0.12403627151E+04 -0.24963210624E+04  0.27892807267E+04  0.25500000920E-02 0.  1.
       -2    1    3    3    0  502  0.99842179059E+02  0.12403627151E+04  0.29412514064E+03  0.12786624747E+04  0.25500000920E-02 0. -1.
</event>
<event>
 5   0  0.4173467E-06  0.3201582E+04  0.7818609E-02  0.8188400E-01
       -2   -1    0    0    0  501  0.00000000000E+00  0.00000000000E+00  0.27958118784E+04  0.27958118784E+04  0.25500000920E-02 0.  1.
        2   -1    0    0  501    0  0.00000000000E+00  0.00000000000E+00 -0.91656070407E+03  0.91656070408E+03  0.25500000920E-02 0. -1.
    10030    2    1    2    0    0  0.00000000000E+00  0.00000000000E+00  0.18792511743E+04  0.37123725825E+04  0.32015816739E+04 0.  0.
        4    1    3    3  502    0 -0.13063945856E+04 -0.91610354310E+03  0.79015161372E+03  0.17805206263E+04  0.12699999809E+01 0.  1.
       -4    1    3    3    0  502  0.13063945856E+04  0.91610354310E+03  0.10890995606E+04  0.19318519562E+04  0.12699999809E+01 0. -1.
</event>
<event>
 5   0  0.4400349E-06  0.2339632E+04  0.7818609E-02  0.8462457E-01
       -2   -1    0    0    0  501  0.00000000000E+00  0.00000000000E+00  0.11049582511E+04  0.11049582511E+04  0.25500000920E-02 0.  1.
        2   -1    0    0  501    0  0.00000000000E+00  0.00000000000E+00 -0.12384806334E+04  0.12384806334E+04  0.25500000920E-02 0. -1.
    10030    2    1    2    0    0  0.00000000000E+00  0.00000000000E+00 -0.13352238235E+03  0.23434388845E+04  0.23396319324E+04 0.  0.
        5    1    3    3  502    0  0.17310140376E+03 -0.11444769743E+04  0.10279409335E+03  0.11620586716E+04  0.46999998093E+01 0.  1.
       -5    1    3    3    0  502 -0.17310140376E+03  0.11444769743E+04 -0.23631647571E+03  0.11813802129E+04  0.46999998093E+01 0. -1.
</event>
<event>
 5   0  0.2722449E-06  0.3385187E+04  0.7818609E-02  0.8141551E-01
       -2   -1    0    0    0  501  0.00000000000E+00  0.00000000000E+00  0.11781123015E+04  0.11781123015E+04  0.25500000920E-02 0.  1.
        2   -1    0    0  501    0  0.00000000000E+00  0.00000000000E+00 -0.24317490218E+04  0.24317490218E+04  0.25500000920E-02 0. -1.
    10030    2    1    2    0    0  0.00000000000E+00  0.00000000000E+00 -0.12536367203E+04  0.36098613234E+04  0.33851874021E+04 0.  0.
        2    1    3    3  502    0 -0.14359857843E+04 -0.45802505683E+03  0.19437724139E+03  0.15197449251E+04  0.25500000920E-02 0.  1.
       -2    1    3    3    0  502  0.14359857843E+04  0.45802505683E+03 -0.14480139617E+04  0.20901163983E+04  0.25500000920E-02 0. -1.
</event>
<event>
 5   0  0.4344980E-06  0.3286583E+04  0.7818609E-02  0.8166318E-01
       -2   -1    0    0    0  501  0.00000000000E+00  0.00000000000E+00  0.15963086635E+04  0.15963086635E+04  0.25500000920E-02 0.  1.
        2   -1    0    0  501    0  0.00000000000E+00  0.00000000000E+00 -0.16916570005E+04  0.16916570005E+04  0.25500000920E-02 0. -1.
    10030    2    1    2    0    0  0.00000000000E+00  0.00000000000E+00 -0.95348337008E+02  0.32879656640E+04  0.32865828610E+04 0.  0.
        3    1    3    3  502    0 -0.10205525487E+04  0.10723557726E+04 -0.76136924066E+03  0.16646794101E+04  0.10100000352E+00 0. -1.
       -3    1    3    3    0  502  0.10205525487E+04 -0.10723557726E+04  0.66602090365E+03  0.16232862539E+04  0.10100000352E+00 0.  1.
</event>
<event>
 5   0  0.1401125E-06  0.2486915E+04  0.7818609E-02  0.8407662E-01
       -4   -1    0    0    0  501  0.00000000000E+00  0.00000000000E+00  0.10790494669E+04  0.10790502142E+04  0.12699999809E+01 0. -1.
        4   -1    0    0  501    0  0.00000000000E+00  0.00000000000E+00 -0.14329134758E+04  0.14329140386E+04  0.12699999809E+01 0.  1.
    10030    2    1    2    0    0  0.00000000000E+00  0.00000000000E+00 -0.35386400890E+03  0.25119642528E+04  0.24869146890E+04 0.  0.
        4    1    3    3  502    0 -0.12494484152E+03  0.14133149275E+03 -0.14183759872E+04  0.14308661217E+04  0.12699999809E+01 0.  1.
       -4    1    3    3    0  502  0.12494484152E+03 -0.14133149275E+03  0.10645119783E+04  0.10810981311E+04  0.12699999809E+01 0. -1.
</event>
<event>
 5   0  0.1550164E-06  0.3417986E+04  0.7818609E-02  0.8133506E-01
        1   -1    0    0  501    0  0.00000000000E+00  0.00000000000E+00  0.94610618303E+03  0.94610618304E+03  0.50400001928E-02 0. -1.
       -1   -1    0    0    0  501  0.00000000000E+00  0.00000000000E+00 -0.30870290246E+04  0.30870290246E+04  0.50400001928E-02 0.  1.
    10030    2    1    2    0    0  0.00000000000E+00  0.00000000000E+00 -0.21409228416E+04  0.40331352077E+04  0.34179861014E+04 0.  0.
        4    1    3    3  502    0  0.16126030525E+04 -0.52388723940E+03 -0.13227364426E+04  0.21504836093E+04  0.12699999809E+01 0.  1.
       -4    1    3    3    0  502 -0.16126030525E+04  0.52388723940E+03 -0.81818639904E+03  0.18826515984E+04  0.12699999809E+01 0. -1.
</event>
<event>
 5   0  0.1654257E-06  0.3450613E+04  0.7818609E-02  0.8125595E-01
       -1   -1    0    0    0  501  0.00000000000E+00  0.00000000000E+00  0.22135456244E+04  0.22135456244E+04  0.50400001928E-02 0.  1.
        1   -1    0    0  501    0  0.00000000000E+00  0.00000000000E+00 -0.13447577515E+04  0.13447577515E+04  0.50400001928E-02 0. -1.
    10030    2    1    2    0    0  0.00000000000E+00  0.00000000000E+00  0.86878787284E+03  0.35583033759E+04  0.34506130683E+04 0.  0.
        3    1    3    3  502    0  0.12897425609E+04 -0.77668236106E+03  0.13033130070E+04  0.19913051418E+04  0.10100000352E+00 0.  1.
       -3    1    3    3    0  502 -0.12897425609E+04  0.77668236106E+03 -0.43452513416E+03  0.15669982341E+04  0.10100000352E+00 0. -1.
</event>
<event>
 5   0  0.1571391E-06  0.3443594E+04  0.7818609E-02  0.8127289E-01
        1   -1    0    0  501    0  0.00000000000E+00  0.00000000000E+00  0.19883725930E+04  0.19883725930E+04  0.50400001928E-02 0. -1.
       -1   -1    0    0    0  501  0.00000000000E+00  0.00000000000E+00 -0.14909601751E+04  0.14909601751E+04  0.50400001928E-02 0.  1.
    10030    2    1    2    0    0  0.00000000000E+00  0.00000000000E+00  0.49741241792E+03  0.34793327681E+04  0.34435936749E+04 0.  0.
        1    1    3    3  502    0  0.13149418576E+04  0.86955950861E+03 -0.45085118568E+03  0.16396562504E+04  0.50400001928E-02 0. -1.
       -1    1    3    3    0  502 -0.13149418576E+04 -0.86955950861E+03  0.94826360360E+03  0.18396765177E+04  0.50400001928E-02 0.  1.
</event>
<event>
 5   0  0.4189587E-06  0.3370656E+04  0.7818609E-02  0.8145146E-01
        2   -1    0    0  501    0  0.00000000000E+00  0.00000000000E+00  0.16709865954E+04  0.16709865954E+04  0.25500000920E-02 0.  1.
       -2   -1    0    0    0  501  0.00000000000E+00  0.00000000000E+00 -0.16997925817E+04  0.16997925817E+04  0.25500000920E-02 0. -1.
    10030    2    1    2    0    0  0.00000000000E+00  0.00000000000E+00 -0.28805986247E+02  0.33707791771E+04  0.33706560898E+04 0.  0.
        1    1    3    3  502    0 -0.12563664688E+04  0.75881658487E+03 -0.84272745458E+03  0.16924682792E+04  0.50400001928E-02 0. -1.
       -1    1    3    3    0  502  0.12563664688E+04 -0.75881658487E+03  0.81392146833E+03  0.16783108979E+04  0.50400001928E-02 0.  1.
</event>
<event>
 5   0  0.4344980E-06  0.3380621E+04  0.7818609E-02  0.8142679E-01
        2   -1    0    0  501    0  0.00000000000E+00  0.00000000000E+00  0.25294342182E+04  0.25294342182E+04  0.25500000920E-02 0.  1.
       -2   -1    0    0    0  501  0.00000000000E+00  0.00000000000E+00 -0.11295610733E+04  0.11295610733E+04  0.25500000920E-02 0. -1.
    10030    2    1    2    0    0  0.00000000000E+00  0.00000000000E+00  0.13998731449E+04  0.36589952914E+04  0.33806214992E+04 0.  0.
        3    1    3    3  502    0  0.84232869358E+03 -0.14549684861E+04  0.51029614452E+03  0.17569442476E+04  0.10100000352E+00 0. -1.
       -3    1    3    3    0  502 -0.84232869358E+03  0.14549684861E+04  0.88957700040E+03  0.19020510439E+04  0.10100000352E+00 0.  1.
</event>
<event>
 5   0  0.2722449E-06  0.3306884E+04  0.7818609E-02  0.8161146E-01
       -2   -1    0    0    0  501  0.00000000000E+00  0.00000000000E+00  0.20339397910E+04  0.20339397910E+04  0.25500000920E-02 0.  1.
        2   -1    0    0  501    0  0.00000000000E+00  0.00000000000E+00 -0.13441252861E+04  0.13441252861E+04  0.25500000920E-02 0. -1.
    10030    2    1    2    0    0  0.00000000000E+00  0.00000000000E+00  0.68981450493E+03  0.33780650771E+04  0.33068836711E+04 0.  0.
        2    1    3    3  502    0 -0.33607035668E+02  0.75355666679E+03 -0.11581215197E+04  0.13821080049E+04  0.25500000920E-02 0. -1.
       -2    1    3    3    0  502  0.33607035668E+02 -0.75355666679E+03  0.18479360246E+04  0.19959570722E+04  0.25500000920E-02 0.  1.
</event>
<event>
 5   0  0.1571391E-06  0.1917531E+04  0.7818609E-02  0.8646179E-01
       -1   -1    0    0    0  501  0.00000000000E+00  0.00000000000E+00  0.80242419060E+03  0.80242419062E+03  0.50400001928E-02 0.  1.
        1   -1    0    0  501    0  0.00000000000E+00  0.00000000000E+00 -0.11455674992E+04  0.11455674993E+04  0.50400001928E-02 0. -1.
    10030    2    1    2    0    0  0.00000000000E+00  0.00000000000E+00 -0.34314330864E+03  0.19479916899E+04  0.19175307803E+04 0.  0.
        1    1    3    3  502    0  0.69043917862E+03  0.65580608195E+03 -0.28489274399E+03  0.99395762088E+03  0.50400001928E-02 0. -1.
       -1    1    3    3    0  502 -0.69043917862E+03 -0.65580608195E+03 -0.58250564646E+02  0.95403406900E+03  0.50400001928E-02 0.  1.
</event>
<event>
 5   0  0.2722449E-06  0.3489140E+04  0.7818609E-02  0.8116368E-01
        2   -1    0    0  501    0  0.00000000000E+00  0.00000000000E+00  0.20039418992E+04  0.20039418992E+04  0.25500000920E-02 0.  1.
       -2   -1    0    0    0  501  0.00000000000E+00  0.00000000000E+00 -0.15187686969E+04  0.15187686969E+04  0.25500000920E-02 0. -1.
    10030    2    1    2    0    0  0.00000000000E+00  0.00000000000E+00  0.48517320230E+03  0.35227105962E+04  0.34891398522E+04 0.  0.
        2    1    3    3  502    0  0.64717380289E+03  0.11163656670E+04 -0.94277008929E+03  0.15980993945E+04  0.25500000920E-02 0. -1.
       -2    1    3    3    0  502 -0.64717380289E+03 -0.11163656670E+04  0.14279432916E+04  0.19246112017E+04  0.25500000920E-02 0.  1.
</event>
<event>
 5   0  0.1571391E-06  0.3601187E+04  0.7818609E-02  0.8090220E-01
       -1   -1    0    0    0  501  0.00000000000E+00  0.00000000000E+00  0.20919085522E+04  0.20919085522E+04  0.50400001928E-02 0.  1.
        1   -1    0    0  501    0  0.00000000000E+00  0.00000000000E+00 -0.15498465243E+04  0.15498465243E+04  0.50400001928E-02 0. -1.
    10030    2    1    2    0    0  0.00000000000E+00  0.00000000000E+00  0.54206202784E+03  0.36417550765E+04  0.36011871369E+04 0.  0.
        1    1    3    3  502    0 -0.51181140900E+03  0.16533187475E+04 -0.23127712423E+03  0.17461107947E+04  0.50400001928E-02 0. -1.
       -1    1    3    3    0  502  0.51181140900E+03 -0.16533187475E+04  0.77333915207E+03  0.18956442818E+04  0.50400001928E-02 0.  1.
</event>
<event>
 5   0  0.2101998E-06  0.3383022E+04  0.7818609E-02  0.8142086E-01
       -1   -1    0    0    0  501  0.00000000000E+00  0.00000000000E+00  0.14447547531E+04  0.14447547531E+04  0.50400001928E-02 0.  1.
        1   -1    0    0  501    0  0.00000000000E+00  0.00000000000E+00 -0.19804116561E+04  0.19804116561E+04  0.50400001928E-02 0. -1.
    10030    2    1    2    0    0  0.00000000000E+00  0.00000000000E+00 -0.53565690303E+03  0.34251664091E+04  0.33830218167E+04 0.  0.
        5    1    3    3  502    0 -0.61529360287E+02  0.43889333579E+03  0.13849211301E+04  0.14541120483E+04  0.46999998093E+01 0.  1.
       -5    1    3    3    0  502  0.61529360287E+02 -0.43889333579E+03 -0.19205780331E+04  0.19710543609E+04  0.46999998093E+01 0. -1.
</event>
<event>
 5   0  0.2722449E-06  0.3787781E+04  0.7818609E-02  0.8048782E-01
        2   -1    0    0  501    0  0.00000000000E+00  0.00000000000E+00  0.15812899277E+04  0.15812899277E+04  0.25500000920E-02 0. -1.
       -2   -1    0    0    0  501  0.00000000000E+00  0.00000000000E+00 -0.22682886461E+04  0.22682886461E+04  0.25500000920E-02 0.  1.
    10030    2    1    2    0    0  0.00000000000E+00  0.00000000000E+00 -0.68699871841E+03  0.38495785737E+04  0.37877814029E+04 0.  0.
        2    1    3    3  502    0 -0.13078892643E+04 -0.62280891547E+02  0.10471702799E+04  0.16766093260E+04  0.25500000920E-02 0. -1.
       -2    1    3    3    0  502  0.13078892643E+04  0.62280891547E+02 -0.17341689983E+04  0.21729692477E+04  0.25500000920E-02 0.  1.
</event>
<event>
 5   0  0.1571391E-06  0.3610515E+04  0.7818609E-02  0.8088087E-01
       -1   -1    0    0    0  501  0.00000000000E+00  0.00000000000E+00  0.18479697566E+04  0.18479697566E+04  0.50400001928E-02 0. -1.
        1   -1    0    0  501    0  0.00000000000E+00  0.00000000000E+00 -0.17635324697E+04  0.17635324698E+04  0.50400001928E-02 0.  1.
    10030    2    1    2    0    0  0.00000000000E+00  0.00000000000E+00  0.84437286894E+02  0.36115022264E+04  0.36105150153E+04 0.  0.
        1    1    3    3  502    0 -0.28941352368E+03 -0.11855005435E+04  0.13729142835E+04  0.18368629117E+04  0.50400001928E-02 0. -1.
       -1    1    3    3    0  502  0.28941352368E+03  0.11855005435E+04 -0.12884769966E+04  0.17746393147E+04  0.50400001928E-02 0.  1.
</event>
<event>
 5   0  0.2101998E-06  0.3465602E+04  0.7818609E-02  0.8121991E-01
        1   -1    0    0  501    0  0.00000000000E+00  0.00000000000E+00  0.19575591824E+04  0.19575591824E+04  0.50400001928E-02 0. -1.
       -1   -1    0    0    0  501  0.00000000000E+00  0.00000000000E+00 -0.15338483329E+04  0.15338483329E+04  0.50400001928E-02 0.  1.
    10030    2    1    2    0    0  0.00000000000E+00  0.00000000000E+00  0.42371084949E+03  0.34914075153E+04  0.34656017593E+04 0.  0.
        5    1    3    3  502    0  0.15987394204E+03 -0.37160634966E+03 -0.14856020814E+04  0.15397034100E+04  0.46999998093E+01 0.  1.
       -5    1    3    3    0  502 -0.15987394204E+03  0.37160634966E+03  0.19093129309E+04  0.19517041053E+04  0.46999998093E+01 0. -1.
</event>
<event>
 5   0  0.1571391E-06  0.3239288E+04  0.7818609E-02  0.8178518E-01
       -1   -1    0    0    0  501  0.00000000000E+00  0.00000000000E+00  0.25739886331E+04  0.25739886331E+04  0.50400001928E-02 0. -1.
        1   -1    0    0  501    0  0.00000000000E+00  0.00000000000E+00 -0.10191370534E+04  0.10191370534E+04  0.50400001928E-02 0.  1.
    10030    2    1    2    0    0  0.00000000000E+00  0.00000000000E+00  0.15548515797E+04  0.35931256866E+04  0.32392883114E+04 0.  0.
        1    1    3    3  502    0  0.46646688815E+03 -0.66205244642E+03  0.23332580778E+04  0.24698174137E+04  0.50400001928E-02 0. -1.
       -1    1    3    3    0  502 -0.46646688815E+03  0.66205244642E+03 -0.77840649805E+03  0.11233082728E+04  0.50400001928E-02 0.  1.
</event>
<event>
 5   0  0.4400349E-06  0.3431566E+04  0.7818609E-02  0.8130202E-01
        2   -1    0    0  501    0  0.00000000000E+00  0.00000000000E+00  0.17088164859E+04  0.17088164859E+04  0.25500000920E-02 0. -1.
       -2   -1    0    0    0  501  0.00000000000E+00  0.00000000000E+00 -0.17227780072E+04  0.17227780072E+04  0.25500000920E-02 0.  1.
    10030    2    1    2    0    0  0.00000000000E+00  0.00000000000E+00 -0.13961521316E+02  0.34315944931E+04  0.34315660916E+04 0.  0.
        5    1    3    3  502    0  0.21886898326E+03  0.35845733860E+03  0.16566117031E+04  0.17090288823E+04  0.46999998093E+01 0. -1.
       -5    1    3    3    0  502 -0.21886898326E+03 -0.35845733860E+03 -0.16705732244E+04  0.17225656108E+04  0.46999998093E+01 0.  1.
</event>
<event>
 5   0  0.1562618E-06  0.3376852E+04  0.7818609E-02  0.8143611E-01
       -1   -1    0    0    0  501  0.00000000000E+00  0.00000000000E+00  0.13409744337E+04  0.13409744337E+04  0.50400001928E-02 0. -1.
        1   -1    0    0  501    0  0.00000000000E+00  0.00000000000E+00 -0.21259037016E+04  0.21259037016E+04  0.50400001928E-02 0.  1.
    10030    2    1    2    0    0  0.00000000000E+00  0.00000000000E+00 -0.78492926792E+03  0.34668781353E+04  0.33768520918E+04 0.  0.
        2    1    3    3  502    0 -0.76002124793E+03  0.14446248210E+03  0.11483053356E+04  0.13845962768E+04  0.25500000920E-02 0. -1.
       -2    1    3    3    0  502  0.76002124793E+03 -0.14446248210E+03 -0.19332346035E+04  0.20822818585E+04  0.25500000920E-02 0.  1.
</event>
<event>
 5   0  0.2101998E-06  0.3449678E+04  0.7818609E-02  0.8125820E-01
        1   -1    0    0  501    0  0.00000000000E+00  0.00000000000E+00  0.13449787536E+04  0.13449787536E+04  0.50400001928E-02 0.  1.
       -1   -1    0    0    0  501  0.00000000000E+00  0.00000000000E+00 -0.22119829820E+04  0.22119829820E+04  0.50400001928E-02 0. -1.
    10030    2    1    2    0    0  0.00000000000E+00  0.00000000000E+00 -0.86700422843E+03  0.35569617356E+04  0.34496783121E+04 0.  0.
        5    1    3    3  502    0 -0.67680128279E+03 -0.60465257157E+03 -0.19458771258E+04  0.21471200682E+04  0.46999998093E+01 0. -1.
       -5    1    3    3    0  502  0.67680128279E+03  0.60465257157E+03  0.10788728973E+04  0.14098416674E+04  0.46999998093E+01 0.  1.
</event>
<event>
 5   0  0.4189587E-06  0.3065047E+04  0.7818609E-02  0.8225396E-01
        2   -1    0    0  501    0  0.00000000000E+00  0.00000000000E+00  0.22323442077E+04  0.22323442077E+04  0.25500000920E-02 0. -1.
       -2   -1    0    0    0  501  0.00000000000E+00  0.00000000000E+00 -0.10520907631E+04  0.10520907631E+04  0.25500000920E-02 0.  1.
    10030    2    1    2    0    0  0.00000000000E+00  0.00000000000E+00  0.11802534446E+04  0.32844349707E+04  0.30650472889E+04 0.  0.
        1    1    3    3  502    0  0.55553031677E+03 -0.72987713285E+03  0.19057225767E+04  0.21149735462E+04  0.50400001928E-02 0. -1.
       -1    1    3    3    0  502 -0.55553031677E+03  0.72987713285E+03 -0.72546913204E+03  0.11694614245E+04  0.50400001928E-02 0.  1.
</event>
<event>
 5   0  0.4400349E-06  0.3653661E+04  0.7818609E-02  0.8078309E-01
        2   -1    0    0  501    0  0.00000000000E+00  0.00000000000E+00  0.28329840468E+04  0.28329840468E+04  0.25500000920E-02 0.  1.
       -2   -1    0    0    0  501  0.00000000000E+00  0.00000000000E+00 -0.11780193922E+04  0.11780193922E+04  0.25500000920E-02 0. -1.
    10030    2    1    2    0    0  0.00000000000E+00  0.00000000000E+00  0.16549646546E+04  0.40110034390E+04  0.36536612568E+04 0.  0.
        5    1    3    3  502    0 -0.34402670547E+03 -0.17845908634E+04  0.62455444542E+03  0.19217724290E+04  0.46999998093E+01 0. -1.
       -5    1    3    3    0  502  0.34402670547E+03  0.17845908634E+04  0.10304102091E+04  0.20892310099E+04  0.46999998093E+01 0.  1.
</event>
<event>
 5   0  0.4189587E-06  0.2557091E+04  0.7818609E-02  0.8382924E-01
        2   -1    0    0  501    0  0.00000000000E+00  0.00000000000E+00  0.16553104269E+04  0.16553104269E+04  0.25500000920E-02 0.  1.
       -2   -1    0    0    0  501  0.00000000000E+00  0.00000000000E+00 -0.98753634074E+03  0.98753634075E+03  0.25500000920E-02 0. -1.
    10030    2    1    2    0    0  0.00000000000E+00  0.00000000000E+00  0.66777408612E+03  0.26428467676E+04  0.25570914741E+04 0.  0.
        1    1    3    3  502    0  0.12385955205E+03 -0.70965053581E+02 -0.97927435668E+03  0.98962391500E+03  0.50400001928E-02 0. -1.
       -1    1    3    3    0  502 -0.12385955205E+03  0.70965053581E+02  0.16470484428E+04  0.16532228526E+04  0.50400001928E-02 0.  1.
</event>
<event>
 5   0  0.1550164E-06  0.2848973E+04  0.7818609E-02  0.8288224E-01
        1   -1    0    0  501    0  0.00000000000E+00  0.00000000000E+00  0.10015928238E+04  0.10015928238E+04  0.50400001928E-02 0.  1.
       -1   -1    0    0    0  501  0.00000000000E+00  0.00000000000E+00 -0.20259342358E+04  0.20259342358E+04  0.50400001928E-02 0. -1.
    10030    2    1    2    0    0  0.00000000000E+00  0.00000000000E+00 -0.10243414119E+04  0.30275270596E+04  0.28489725812E+04 0.  0.
        4    1    3    3  502    0 -0.73284955807E+02 -0.10670067840E+04 -0.15120358277E+04  0.18520605063E+04  0.12699999809E+01 0. -1.
       -4    1    3    3    0  502  0.73284955807E+02  0.10670067840E+04  0.48769441575E+03  0.11754665533E+04  0.12699999809E+01 0.  1.
</event>
<event>
 5   0  0.4189587E-06  0.2554439E+04  0.7818609E-02  0.8383844E-01
       -2   -1    0    0    0  501  0.00000000000E+00  0.00000000000E+00  0.10956051134E+04  0.10956051134E+04  0.25500000920E-02 0.  1.
        2   -1    0    0  501    0  0.00000000000E+00  0.00000000000E+00 -0.14889398253E+04  0.14889398253E+04  0.25500000920E-02 0. -1.
    10030    2    1    2    0    0  0.00000000000E+00  0.00000000000E+00 -0.39333471192E+03  0.25845449387E+04  0.25544393406E+04 0.  0.
        1    1    3    3  502    0 -0.49190096164E+03  0.15672979311E+03  0.98533005509E+03  0.11123875681E+04  0.50400001928E-02 0.  1.
       -1    1    3    3    0  502  0.49190096164E+03 -0.15672979311E+03 -0.13786647670E+04  0.14721573706E+04  0.50400001928E-02 0. -1.
</event>
<event>
 5   0  0.1571391E-06  0.1751691E+04  0.7818609E-02  0.8732420E-01
        1   -1    0    0  501    0  0.00000000000E+00  0.00000000000E+00  0.14747237060E+04  0.14747237060E+04  0.50400001928E-02 0. -1.
       -1   -1    0    0    0  501  0.00000000000E+00  0.00000000000E+00 -0.52016861680E+03  0.52016861683E+03  0.50400001928E-02 0.  1.
    10030    2    1    2    0    0  0.00000000000E+00  0.00000000000E+00  0.95455508916E+03  0.19948923228E+04  0.17516906009E+04 0.  0.
        1    1    3    3  502    0  0.54288982623E+03 -0.53143980394E+03  0.97361687690E+03  0.12349443111E+04  0.50400001928E-02 0. -1.
       -1    1    3    3    0  502 -0.54288982623E+03  0.53143980394E+03 -0.19061787742E+02  0.75994801165E+03  0.50400001928E-02 0.  1.
</event>
<event>
 5   0  0.4173467E-06  0.3356096E+04  0.7818609E-02  0.8148767E-01
       -2   -1    0    0    0  501  0.00000000000E+00  0.00000000000E+00  0.22656951905E+04  0.22656951905E+04  0.25500000920E-02 0. -1.
        2   -1    0    0  501    0  0.00000000000E+00  0.00000000000E+00 -0.12428169758E+04  0.12428169758E+04  0.25500000920E-02 0.  1.
    10030    2    1    2    0    0  0.00000000000E+00  0.00000000000E+00  0.10228782148E+04  0.35085121663E+04  0.33560956153E+04 0.  0.
        4    1    3    3  502    0 -0.13872959700E+04 -0.68846779911E+03  0.11867356762E+04  0.19511333109E+04  0.12699999809E+01 0. -1.
       -4    1    3    3    0  502  0.13872959700E+04  0.68846779911E+03 -0.16385746146E+03  0.15573788554E+04  0.12699999809E+01 0.  1.
</event>
<event>
 5   0  0.1401125E-06  0.2116519E+04  0.7818609E-02  0.8554001E-01
       -3   -1    0    0    0  501  0.00000000000E+00  0.00000000000E+00  0.87269858399E+03  0.87269858983E+03  0.10100000352E+00 0.  1.
        3   -1    0    0  501    0  0.00000000000E+00  0.00000000000E+00 -0.12832760375E+04  0.12832760415E+04  0.10100000352E+00 0. -1.
    10030    2    1    2    0    0  0.00000000000E+00  0.00000000000E+00 -0.41057745353E+03  0.21559746313E+04  0.21165190208E+04 0.  0.
        5    1    3    3  502    0  0.14248123707E+03 -0.90282115983E+03  0.33804388740E+03  0.97451665422E+03  0.46999998093E+01 0. -1.
       -5    1    3    3    0  502 -0.14248123707E+03  0.90282115983E+03 -0.74862134092E+03  0.11814579771E+04  0.46999998093E+01 0.  1.
</event>
<event>
 5   0  0.2722449E-06  0.3351324E+04  0.7818609E-02  0.8149957E-01
        2   -1    0    0  501    0  0.00000000000E+00  0.00000000000E+00  0.16943453357E+04  0.16943453357E+04  0.25500000920E-02 0.  1.
       -2   -1    0    0    0  501  0.00000000000E+00  0.00000000000E+00 -0.16571851136E+04  0.16571851136E+04  0.25500000920E-02 0. -1.
    10030    2    1    2    0    0  0.00000000000E+00  0.00000000000E+00  0.37160222143E+02  0.33515304493E+04  0.33513244353E+04 0.  0.
        2    1    3    3  502    0 -0.33534999137E+03  0.40747052530E+02  0.16599378168E+04  0.16939638410E+04  0.25500000920E-02 0.  1.
       -2    1    3    3    0  502  0.33534999137E+03 -0.40747052530E+02 -0.16227775947E+04  0.16575666083E+04  0.25500000920E-02 0. -1.
</event>
<event>
 5   0  0.4344980E-06  0.3453154E+04  0.7818609E-02  0.8124983E-01
        2   -1    0    0  501    0  0.00000000000E+00  0.00000000000E+00  0.16087843634E+04  0.16087843634E+04  0.25500000920E-02 0. -1.
       -2   -1    0    0    0  501  0.00000000000E+00  0.00000000000E+00 -0.18529939099E+04  0.18529939099E+04  0.25500000920E-02 0.  1.
    10030    2    1    2    0    0  0.00000000000E+00  0.00000000000E+00 -0.24420954648E+03  0.34617782733E+04  0.34531537051E+04 0.  0.
        3    1    3    3  502    0 -0.28165573810E+03 -0.15913958866E+03  0.15781300353E+04  0.16109468588E+04  0.10100000352E+00 0. -1.
       -3    1    3    3    0  502  0.28165573810E+03  0.15913958866E+03 -0.18223395818E+04  0.18508314145E+04  0.10100000352E+00 0.  1.
</event>
<event>
 5   0  0.2722449E-06  0.3349825E+04  0.7818609E-02  0.8150332E-01
       -2   -1    0    0    0  501  0.00000000000E+00  0.00000000000E+00  0.18936837937E+04  0.18936837937E+04  0.25500000920E-02 0. -1.
        2   -1    0    0  501    0  0.00000000000E+00  0.00000000000E+00 -0.14814152531E+04  0.14814152531E+04  0.25500000920E-02 0.  1.
    10030    2    1    2    0    0  0.00000000000E+00  0.00000000000E+00  0.41226854057E+03  0.33750990468E+04  0.33498251038E+04 0.  0.
        2    1    3    3  502    0 -0.68109465867E+03  0.10179275548E+04  0.13572363492E+04  0.18281567078E+04  0.25500000920E-02 0. -1.
       -2    1    3    3    0  502  0.68109465867E+03 -0.10179275548E+04 -0.94496780858E+03  0.15469423390E+04  0.25500000920E-02 0.  1.
</event>
<event>
 5   0  0.4344980E-06  0.3338487E+04  0.7818609E-02  0.8153171E-01
       -2   -1    0    0    0  501  0.00000000000E+00  0.00000000000E+00  0.10894980797E+04  0.10894980797E+04  0.25500000920E-02 0.  1.
        2   -1    0    0  501    0  0.00000000000E+00  0.00000000000E+00 -0.25574842972E+04  0.25574842972E+04  0.25500000920E-02 0. -1.
    10030    2    1    2    0    0  0.00000000000E+00  0.00000000000E+00 -0.14679862175E+04  0.36469823769E+04  0.33384872207E+04 0.  0.
        3    1    3    3  502    0 -0.12577026606E+04 -0.98740501070E+03 -0.21056139045E+03  0.16127990411E+04  0.10100000352E+00 0. -1.
       -3    1    3    3    0  502  0.12577026606E+04  0.98740501070E+03 -0.12574248271E+04  0.20341833358E+04  0.10100000352E+00 0.  1.
</event>
<event>
 5   0  0.4344980E-06  0.3589275E+04  0.7818609E-02  0.8092953E-01
       -2   -1    0    0    0  501  0.00000000000E+00  0.00000000000E+00  0.12573584623E+04  0.12573584623E+04  0.25500000920E-02 0. -1.
        2   -1    0    0  501    0  0.00000000000E+00  0.00000000000E+00 -0.25615005814E+04  0.25615005814E+04  0.25500000920E-02 0.  1.
    10030    2    1    2    0    0  0.00000000000E+00  0.00000000000E+00 -0.13041421191E+04  0.38188590438E+04  0.35892753767E+04 0.  0.
        3    1    3    3  502    0  0.32280846707E+02  0.16367909643E+04  0.13021204252E+03  0.16422794829E+04  0.10100000352E+00 0. -1.
       -3    1    3    3    0  502 -0.32280846707E+02 -0.16367909643E+04 -0.14343541616E+04  0.21765795609E+04  0.10100000352E+00 0.  1.
</event>
<event>
 5   0  0.2722449E-06  0.3274259E+04  0.7818609E-02  0.8169476E-01
       -2   -1    0    0    0  501  0.00000000000E+00  0.00000000000E+00  0.12552074921E+04  0.12552074921E+04  0.25500000920E-02 0. -1.
        2   -1    0    0  501    0  0.00000000000E+00  0.00000000000E+00 -0.21352591557E+04  0.21352591557E+04  0.25500000920E-02 0.  1.
    10030    2    1    2    0    0  0.00000000000E+00  0.00000000000E+00 -0.88005166355E+03  0.33904666478E+04  0.32742591772E+04 0.  0.
        2    1    3    3  502    0 -0.53728298160E+03  0.53393668901E+03  0.10628397368E+04  0.13051397229E+04  0.25500000920E-02 0. -1.
       -2    1    3    3    0  502  0.53728298160E+03 -0.53393668901E+03 -0.19428914004E+04  0.20853269249E+04  0.25500000920E-02 0.  1.
</event>
<event>
 5   0  0.1401125E-06  0.2368308E+04  0.7818609E-02  0.8451465E-01
       -3   -1    0    0    0  501  0.00000000000E+00  0.00000000000E+00  0.62076612108E+03  0.62076612930E+03  0.10100000352E+00 0.  1.
        3   -1    0    0  501    0  0.00000000000E+00  0.00000000000E+00 -0.22588541377E+04  0.22588541400E+04  0.10100000352E+00 0. -1.
    10030    2    1    2    0    0  0.00000000000E+00  0.00000000000E+00 -0.16380880167E+04  0.28796202693E+04  0.23683075275E+04 0.  0.
        4    1    3    3  502    0  0.92314356438E+03 -0.37271934280E+03 -0.39441214615E+02  0.99632874658E+03  0.12699999809E+01 0.  1.
       -4    1    3    3    0  502 -0.92314356438E+03  0.37271934280E+03 -0.15986468020E+04  0.18832915227E+04  0.12699999809E+01 0. -1.
</event>
<event>
 5   0  0.4400349E-06  0.3468498E+04  0.7818609E-02  0.8121296E-01
       -2   -1    0    0    0  501  0.00000000000E+00  0.00000000000E+00  0.11452925630E+04  0.11452925630E+04  0.25500000920E-02 0.  1.
        2   -1    0    0  501    0  0.00000000000E+00  0.00000000000E+00 -0.26260708516E+04  0.26260708516E+04  0.25500000920E-02 0. -1.
    10030    2    1    2    0    0  0.00000000000E+00  0.00000000000E+00 -0.14807782886E+04  0.37713634146E+04  0.34684978975E+04 0.  0.
        5    1    3    3  502    0  0.12786473915E+04  0.77121526771E+03 -0.16993805132E+04  0.22622175756E+04  0.46999998093E+01 0. -1.
       -5    1    3    3    0  502 -0.12786473915E+04 -0.77121526771E+03  0.21860222457E+03  0.15091458390E+04  0.46999998093E+01 0.  1.
</event>
<event>
 5   0  0.4344980E-06  0.1999388E+04  0.7818609E-02  0.8606907E-01
        2   -1    0    0  501    0  0.00000000000E+00  0.00000000000E+00  0.24256416305E+04  0.24256416305E+04  0.25500000920E-02 0. -1.
       -2   -1    0    0    0  501  0.00000000000E+00  0.00000000000E+00 -0.41200959381E+03  0.41200959381E+03  0.25500000920E-02 0.  1.
    10030    2    1    2    0    0  0.00000000000E+00  0.00000000000E+00  0.20136320367E+04  0.28376512243E+04  0.19993875291E+04 0.  0.
        3    1    3    3  502    0  0.64567454654E+03 -0.11355752547E+03 -0.64322806998E+02  0.65873239282E+03  0.10100000352E+00 0.  1.
       -3    1    3    3    0  502 -0.64567454654E+03  0.11355752547E+03  0.20779548437E+04  0.21789188315E+04  0.10100000352E+00 0. -1.
</event>
<event>
 5   0  0.1550164E-06  0.3505497E+04  0.7818609E-02  0.8112488E-01
        1   -1    0    0  501    0  0.00000000000E+00  0.00000000000E+00  0.15861044202E+04  0.15861044202E+04  0.50400001928E-02 0.  1.
       -1   -1    0    0    0  501  0.00000000000E+00  0.00000000000E+00 -0.19369013678E+04  0.19369013678E+04  0.50400001928E-02 0. -1.
    10030    2    1    2    0    0  0.00000000000E+00  0.00000000000E+00 -0.35079694762E+03  0.35230057881E+04  0.35054972949E+04 0.  0.
        4    1    3    3  502    0 -0.42923677732E+03 -0.91879261346E+03  0.12613227892E+04  0.16184439654E+04  0.12699999809E+01 0. -1.
       -4    1    3    3    0  502  0.42923677732E+03  0.91879261346E+03 -0.16121197369E+04  0.19045618227E+04  0.12699999809E+01 0.  1.
</event>
<event>
 5   0  0.4189587E-06  0.3265453E+04  0.7818609E-02  0.8171742E-01
        2   -1    0    0  501    0  0.00000000000E+00  0.00000000000E+00  0.11610158405E+04  0.11610158405E+04  0.25500000920E-02 0.  1.
       -2   -1    0    0    0  501  0.00000000000E+00  0.00000000000E+00 -0.22960895784E+04  0.22960895784E+04  0.25500000920E-02 0. -1.
    10030    2    1    2    0    0  0.00000000000E+00  0.00000000000E+00 -0.11350737378E+04  0.34571054189E+04  0.32654533356E+04 0.  0.
        1    1    3    3  502    0 -0.15956758280E+04  0.25076661108E+03 -0.31537474177E+03  0.16457601493E+04  0.50400001928E-02 0. -1.
       -1    1    3    3    0  502  0.15956758280E+04 -0.25076661108E+03 -0.81969899608E+03  0.18113452696E+04  0.50400001928E-02 0.  1.
</event>
<event>
 5   0  0.2722449E-06  0.3175608E+04  0.7818609E-02  0.8195289E-01
       -2   -1    0    0    0  501  0.00000000000E+00  0.00000000000E+00  0.10974916785E+04  0.10974916785E+04  0.25500000920E-02 0.  1.
        2   -1    0    0  501    0  0.00000000000E+00  0.00000000000E+00 -0.22971672879E+04  0.22971672879E+04  0.25500000920E-02 0. -1.
    10030    2    1    2    0    0  0.00000000000E+00  0.00000000000E+00 -0.11996756094E+04  0.33946589664E+04  0.31756082772E+04 0.  0.
        2    1    3    3  502    0 -0.45403455614E+03  0.49889551237E+03  0.93669758960E+03  0.11543164578E+04  0.25500000920E-02 0.  1.
       -2    1    3    3    0  502  0.45403455614E+03 -0.49889551237E+03 -0.21363731990E+04  0.22403425086E+04  0.25500000920E-02 0. -1.
</event>
<event>
 5   0  0.1562618E-06  0.3410075E+04  0.7818609E-02  0.8135438E-01
       -1   -1    0    0    0  501  0.00000000000E+00  0.00000000000E+00  0.13339038291E+04  0.13339038291E+04  0.50400001928E-02 0.  1.
        1   -1    0    0  501    0  0.00000000000E+00  0.00000000000E+00 -0.21794318262E+04  0.21794318262E+04  0.50400001928E-02 0. -1.
    10030    2    1    2    0    0  0.00000000000E+00  0.00000000000E+00 -0.84552799706E+03  0.35133356553E+04  0.34100747548E+04 0.  0.
        2    1    3    3  502    0  0.67736511856E+03  0.14854675476E+04  0.83768893766E+02  0.16347643764E+04  0.25500000920E-02 0.  1.
       -2    1    3    3    0  502 -0.67736511856E+03 -0.14854675476E+04 -0.92929689083E+03  0.18785712789E+04  0.25500000920E-02 0. -1.
</event>
<event>
 5   0  0.4400349E-06  0.2220198E+04  0.7818609E-02  0.8510068E-01
       -2   -1    0    0    0  501  0.00000000000E+00  0.00000000000E+00  0.60953530252E+03  0.60953530252E+03  0.25500000920E-02 0. -1.
        2   -1    0    0  501    0  0.00000000000E+00  0.00000000000E+00 -0.20217368439E+04  0.20217368439E+04  0.25500000920E-02 0.  1.
    10030    2    1    2    0    0  0.00000000000E+00  0.00000000000E+00 -0.14122015414E+04  0.26312721465E+04  0.22201981702E+04 0.  0.
        5    1    3    3  502    0  0.39296643501E+03  0.10351292599E+04 -0.80078458261E+03  0.13664527952E+04  0.46999998093E+01 0. -1.
       -5    1    3    3    0  502 -0.39296643501E+03 -0.10351292599E+04 -0.61141695880E+03  0.12648193512E+04  0.46999998093E+01 0.  1.
</event>
<event>
 5   0  0.1654257E-06  0.3303582E+04  0.7818609E-02  0.8161985E-01
        1   -1    0    0  501    0  0.00000000000E+00  0.00000000000E+00  0.23126603691E+04  0.23126603691E+04  0.50400001928E-02 0. -1.
       -1   -1    0    0    0  501  0.00000000000E+00  0.00000000000E+00 -0.11797726407E+04  0.11797726407E+04  0.50400001928E-02 0.  1.
    10030    2    1    2    0    0  0.00000000000E+00  0.00000000000E+00  0.11328877284E+04  0.34924330099E+04  0.33035819535E+04 0.  0.
        3    1    3    3  502    0 -0.11481538179E+04 -0.23156155501E+03  0.17977288324E+04  0.21456250624E+04  0.10100000352E+00 0. -1.
       -3    1    3    3    0  502  0.11481538179E+04  0.23156155501E+03 -0.66484110404E+03  0.13468079474E+04  0.10100000352E+00 0.  1.
</event>
<event>
 5   0  0.1654257E-06  0.3402063E+04  0.7818609E-02  0.8137400E-01
        1   -1    0    0  501    0  0.00000000000E+00  0.00000000000E+00  0.15940629571E+04  0.15940629571E+04  0.50400001928E-02 0.  1.
       -1   -1    0    0    0  501  0.00000000000E+00  0.00000000000E+00 -0.18151776619E+04  0.18151776619E+04  0.50400001928E-02 0. -1.
    10030    2    1    2    0    0  0.00000000000E+00  0.00000000000E+00 -0.22111470476E+03  0.34092406191E+04  0.34020625929E+04 0.  0.
        3    1    3    3  502    0 -0.20029562508E+03  0.93473179615E+03 -0.15205318967E+04  0.17960676844E+04  0.10100000352E+00 0. -1.
       -3    1    3    3    0  502  0.20029562508E+03 -0.93473179615E+03  0.12994171919E+04  0.16131729346E+04  0.10100000352E+00 0.  1.
</event>
<event>
 5   0  0.1562618E-06  0.3413144E+04  0.7818609E-02  0.8134688E-01
       -1   -1    0    0    0  501  0.00000000000E+00  0.00000000000E+00  0.15351781215E+04  0.15351781216E+04  0.50400001928E-02 0.  1.
        1   -1    0    0  501    0  0.00000000000E+00  0.00000000000E+00 -0.18971005126E+04  0.18971005126E+04  0.50400001928E-02 0. -1.
    10030    2    1    2    0    0  0.00000000000E+00  0.00000000000E+00 -0.36192239109E+03  0.34322786342E+04  0.34131435372E+04 0.  0.
        2    1    3    3  502    0 -0.12278340395E+04  0.41245837328E+03  0.93643387129E+03  0.15983137157E+04  0.25500000920E-02 0.  1.
       -2    1    3    3    0  502  0.12278340395E+04 -0.41245837328E+03 -0.12983562624E+04  0.18339649185E+04  0.25500000920E-02 0. -1.
</event>
<event>
 5   0  0.2722449E-06  0.1963548E+04  0.7818609E-02  0.8623855E-01
        2   -1    0    0  501    0  0.00000000000E+00  0.00000000000E+00  0.22582587553E+04  0.22582587553E+04  0.25500000920E-02 0.  1.
       -2   -1    0    0    0  501  0.00000000000E+00  0.00000000000E+00 -0.42682441686E+03  0.42682441686E+03  0.25500000920E-02 0. -1.
    10030    2    1    2    0    0  0.00000000000E+00  0.00000000000E+00  0.18314343384E+04  0.26850831722E+04  0.19635477854E+04 0.  0.
        2    1    3    3  502    0 -0.72825881599E+03 -0.65617920569E+03  0.84147094765E+03  0.12918999221E+04  0.25500000920E-02 0.  1.
       -2    1    3    3    0  502  0.72825881599E+03  0.65617920569E+03  0.98996339079E+03  0.13931832500E+04  0.25500000920E-02 0. -1.
</event>
<event>
 5   0  0.2722449E-06  0.3165830E+04  0.7818609E-02  0.8197900E-01
        2   -1    0    0  501    0  0.00000000000E+00  0.00000000000E+00  0.27058905990E+04  0.27058905990E+04  0.25500000920E-02 0.  1.
       -2   -1    0    0    0  501  0.00000000000E+00  0.00000000000E+00 -0.92598717842E+03  0.92598717843E+03  0.25500000920E-02 0. -1.
    10030    2    1    2    0    0  0.00000000000E+00  0.00000000000E+00  0.17799034206E+04  0.36318777774E+04  0.31658300655E+04 0.  0.
        2    1    3    3  502    0 -0.10024293930E+04  0.11574897176E+04  0.42967397794E+03  0.15903668953E+04  0.25500000920E-02 0. -1.
       -2    1    3    3    0  502  0.10024293930E+04 -0.11574897176E+04  0.13502294426E+04  0.20415108822E+04  0.25500000920E-02 0.  1.
</event>
<event>
 5   0  0.2722449E-06  0.3443189E+04  0.7818609E-02  0.8127387E-01
       -2   -1    0    0    0  501  0.00000000000E+00  0.00000000000E+00  0.18659683030E+04  0.18659683030E+04  0.25500000920E-02 0.  1.
        2   -1    0    0  501    0  0.00000000000E+00  0.00000000000E+00 -0.15883912832E+04  0.15883912832E+04  0.25500000920E-02 0. -1.
    10030    2    1    2    0    0  0.00000000000E+00  0.00000000000E+00  0.27757701978E+03  0.34543595862E+04  0.34431890957E+04 0.  0.
        2    1    3    3  502    0 -0.15908075825E+03 -0.10089528389E+04  0.15291399692E+04  0.18389022716E+04  0.25500000920E-02 0.  1.
       -2    1    3    3    0  502  0.15908075825E+03  0.10089528389E+04 -0.12515629495E+04  0.16154573146E+04  0.25500000920E-02 0. -1.
</event>
<event>
 5   0  0.4189587E-06  0.1816754E+04  0.7818609E-02  0.8697441E-01
        2   -1    0    0  501    0  0.00000000000E+00  0.00000000000E+00  0.14292476618E+04  0.14292476618E+04  0.25500000920E-02 0. -1.
       -2   -1    0    0    0  501  0.00000000000E+00  0.00000000000E+00 -0.57733058684E+03  0.57733058684E+03  0.25500000920E-02 0.  1.
    10030    2    1    2    0    0  0.00000000000E+00  0.00000000000E+00  0.85191707499E+03  0.20065782487E+04  0.18167535786E+04 0.  0.
        1    1    3    3  502    0 -0.57091051406E+03  0.55094581086E+03 -0.62604154956E+02  0.79586392167E+03  0.50400001928E-02 0.  1.
       -1    1    3    3    0  502  0.57091051406E+03 -0.55094581086E+03  0.91452122994E+03  0.12107143270E+04  0.50400001928E-02 0. -1.
</event>
<event>
 5   0  0.4189587E-06  0.3395781E+04  0.7818609E-02  0.8138943E-01
        2   -1    0    0  501    0  0.00000000000E+00  0.00000000000E+00  0.16213315047E+04  0.16213315047E+04  0.25500000920E-02 0.  1.
       -2   -1    0    0    0  501  0.00000000000E+00  0.00000000000E+00 -0.17780643574E+04  0.17780643574E+04  0.25500000920E-02 0. -1.
    10030    2    1    2    0    0  0.00000000000E+00  0.00000000000E+00 -0.15673285262E+03  0.33993958621E+04  0.33957807704E+04 0.  0.
        1    1    3    3  502    0 -0.84539428331E+02 -0.30820287726E+03 -0.17476835167E+04  0.17766636156E+04  0.50400001928E-02 0. -1.
       -1    1    3    3    0  502  0.84539428331E+02  0.30820287726E+03  0.15909506640E+04  0.16227322465E+04  0.50400001928E-02 0.  1.
</event>
<event>
 5   0  0.1571391E-06  0.2505249E+04  0.7818609E-02  0.8401118E-01
       -1   -1    0    0    0  501  0.00000000000E+00  0.00000000000E+00  0.12552007362E+04  0.12552007362E+04  0.50400001928E-02 0. -1.
        1   -1    0    0  501    0  0.00000000000E+00  0.00000000000E+00 -0.12500538161E+04  0.12500538161E+04  0.50400001928E-02 0.  1.
    10030    2    1    2    0    0  0.00000000000E+00  0.00000000000E+00  0.51469200678E+01  0.25052545524E+04  0.25052492653E+04 0.  0.
        1    1    3    3  502    0 -0.78057572100E+03  0.26778641226E+03  0.94494504269E+03  0.12545633314E+04  0.50400001928E-02 0. -1.
       -1    1    3    3    0  502  0.78057572100E+03 -0.26778641226E+03 -0.93979812263E+03  0.12506912209E+04  0.50400001928E-02 0.  1.
</event>
<event>
 5   0  0.2722449E-06  0.3312936E+04  0.7818609E-02  0.8159611E-01
        2   -1    0    0  501    0  0.00000000000E+00  0.00000000000E+00  0.24548178009E+04  0.24548178009E+04  0.25500000920E-02 0.  1.
       -2   -1    0    0    0  501  0.00000000000E+00  0.00000000000E+00 -0.11177558797E+04  0.11177558797E+04  0.25500000920E-02 0. -1.
    10030    2    1    2    0    0  0.00000000000E+00  0.00000000000E+00  0.13370619211E+04  0.35725736806E+04  0.33129364803E+04 0.  0.
        2    1    3    3  502    0  0.48947056170E+03  0.15597264943E+03 -0.10296814524E+04  0.11507183806E+04  0.25500000920E-02 0. -1.
       -2    1    3    3    0  502 -0.48947056170E+03 -0.15597264943E+03  0.23667433735E+04  0.24218553000E+04  0.25500000920E-02 0.  1.
</event>
<event>
 5   0  0.1562618E-06  0.3419790E+04  0.7818609E-02  0.8133066E-01
        1   -1    0    0  501    0  0.00000000000E+00  0.00000000000E+00  0.20169518543E+04  0.20169518543E+04  0.50400001928E-02 0. -1.
       -1   -1    0    0    0  501  0.00000000000E+00  0.00000000000E+00 -0.14495837626E+04  0.14495837626E+04  0.50400001928E-02 0.  1.
    10030    2    1    2    0    0  0.00000000000E+00  0.00000000000E+00  0.56736809172E+03  0.34665356169E+04  0.34197898520E+04 0.  0.
        2    1    3    3  502    0 -0.87005651415E+02  0.72433875395E+03 -0.12839035103E+04  0.14767006594E+04  0.25500000920E-02 0.  1.
       -2    1    3    3    0  502  0.87005651415E+02 -0.72433875395E+03  0.18512716020E+04  0.19898349575E+04  0.25500000920E-02 0. -1.
</event>
<event>
 5   0  0.2722449E-06  0.3293866E+04  0.7818609E-02  0.8164458E-01
        2   -1    0    0  501    0  0.00000000000E+00  0.00000000000E+00  0.18714127748E+04  0.18714127748E+04  0.25500000920E-02 0.  1.
       -2   -1    0    0    0  501  0.00000000000E+00  0.00000000000E+00 -0.14493804225E+04  0.14493804225E+04  0.25500000920E-02 0. -1.
    10030    2    1    2    0    0  0.00000000000E+00  0.00000000000E+00  0.42203235223E+03  0.33207931973E+04  0.32938664443E+04 0.  0.
        2    1    3    3  502    0 -0.12497110530E+04 -0.42975769411E+03  0.12018625962E+04  0.17863211054E+04  0.25500000920E-02 0.  1.
       -2    1    3    3    0  502  0.12497110530E+04  0.42975769411E+03 -0.77983024393E+03  0.15344720919E+04  0.25500000920E-02 0. -1.
</event>
<event>
 5   0  0.4173467E-06  0.3374328E+04  0.7818609E-02  0.8144236E-01
        2   -1    0    0  501    0  0.00000000000E+00  0.00000000000E+00  0.18624754895E+04  0.18624754895E+04  0.25500000920E-02 0.  1.
       -2   -1    0    0    0  501  0.00000000000E+00  0.00000000000E+00 -0.15283543318E+04  0.15283543318E+04  0.25500000920E-02 0. -1.
    10030    2    1    2    0    0  0.00000000000E+00  0.00000000000E+00  0.33412115776E+03  0.33908298213E+04  0.33743280707E+04 0.  0.
        4    1    3    3  502    0 -0.74832846078E+03 -0.14914415679E+04  0.41753327811E+03  0.17200956621E+04  0.12699999809E+01 0.  1.
       -4    1    3    3    0  502  0.74832846078E+03  0.14914415679E+04 -0.83412120346E+02  0.16707341591E+04  0.12699999809E+01 0. -1.
</event>
<event>
 5   0  0.1550164E-06  0.3115937E+04  0.7818609E-02  0.8211378E-01
        1   -1    0    0  501    0  0.00000000000E+00  0.00000000000E+00  0.17447136173E+04  0.17447136173E+04  0.50400001928E-02 0. -1.
       -1   -1    0    0    0  501  0.00000000000E+00  0.00000000000E+00 -0.13912114332E+04  0.13912114332E+04  0.50400001928E-02 0.  1.
    10030    2    1    2    0    0  0.00000000000E+00  0.00000000000E+00  0.35350218405E+03  0.31359250505E+04  0.31159367979E+04 0.  0.
        4    1    3    3  502    0  0.80260302264E+03 -0.76071966730E+03  0.12812417026E+04  0.16924680019E+04  0.12699999809E+01 0. -1.
       -4    1    3    3    0  502 -0.80260302264E+03  0.76071966730E+03 -0.92773951852E+03  0.14434570486E+04  0.12699999809E+01 0.  1.
</event>
<event>
 5   0  0.1654257E-06  0.3421234E+04  0.7818609E-02  0.8132714E-01
       -1   -1    0    0    0  501  0.00000000000E+00  0.00000000000E+00  0.14096622920E+04  0.14096622920E+04  0.50400001928E-02 0. -1.
        1   -1    0    0  501    0  0.00000000000E+00  0.00000000000E+00 -0.20758240330E+04  0.20758240330E+04  0.50400001928E-02 0.  1.
    10030    2    1    2    0    0  0.00000000000E+00  0.00000000000E+00 -0.66616174098E+03  0.34854863250E+04  0.34212342008E+04 0.  0.
        3    1    3    3  502    0  0.48545265244E+03  0.55218061564E+03 -0.19066409111E+04  0.20434889978E+04  0.10100000352E+00 0.  1.
       -3    1    3    3    0  502 -0.48545265244E+03 -0.55218061564E+03  0.12404791701E+04  0.14419973272E+04  0.10100000352E+00 0. -1.
</event>
<event>
 5   0  0.4344980E-06  0.3157638E+04  0.7818609E-02  0.8200095E-01
       -2   -1    0    0    0  501  0.00000000000E+00  0.00000000000E+00  0.25408029053E+04  0.25408029053E+04  0.25500000920E-02 0. -1.
        2   -1    0    0  501    0  0.00000000000E+00  0.00000000000E+00 -0.98105582406E+03  0.98105582406E+03  0.25500000920E-02 0.  1.
    10030    2    1    2    0    0  0.00000000000E+00  0.00000000000E+00  0.15597470812E+04  0.35218587294E+04  0.31576380337E+04 0.  0.
        3    1    3    3  502    0 -0.11231736738E+04 -0.43575718627E+03  0.19179997938E+04  0.22649782882E+04  0.10100000352E+00 0. -1.
       -3    1    3    3    0  502  0.11231736738E+04  0.43575718627E+03 -0.35825271255E+03  0.12568804411E+04  0.10100000352E+00 0.  1.
</event>
<event>
 5   0  0.2101998E-06  0.2230797E+04  0.7818609E-02  0.8505718E-01
       -1   -1    0    0    0  501  0.00000000000E+00  0.00000000000E+00  0.12907432409E+04  0.12907432409E+04  0.50400001928E-02 0. -1.
        1   -1    0    0  501    0  0.00000000000E+00  0.00000000000E+00 -0.96387366816E+03  0.96387366818E+03  0.50400001928E-02 0.  1.
    10030    2    1    2    0    0  0.00000000000E+00  0.00000000000E+00  0.32686957276E+03  0.22546169091E+04  0.22307966490E+04 0.  0.
        5    1    3    3  502    0  0.93675684981E+03 -0.51447902763E+03  0.48604416955E+03  0.11740796780E+04  0.46999998093E+01 0. -1.
       -5    1    3    3    0  502 -0.93675684981E+03  0.51447902763E+03 -0.15917459679E+03  0.10805372311E+04  0.46999998093E+01 0.  1.
</event>
<event>
 5   0  0.1550164E-06  0.3325398E+04  0.7818609E-02  0.8156463E-01
        1   -1    0    0  501    0  0.00000000000E+00  0.00000000000E+00  0.25195765662E+04  0.25195765662E+04  0.50400001928E-02 0. -1.
       -1   -1    0    0    0  501  0.00000000000E+00  0.00000000000E+00 -0.10972353641E+04  0.10972353641E+04  0.50400001928E-02 0.  1.
    10030    2    1    2    0    0  0.00000000000E+00  0.00000000000E+00  0.14223412021E+04  0.36168119303E+04  0.33253983286E+04 0.  0.
        4    1    3    3  502    0  0.10297307609E+04  0.95560982180E+03  0.16785104839E+04  0.21888203738E+04  0.12699999809E+01 0. -1.
       -4    1    3    3    0  502 -0.10297307609E+04 -0.95560982180E+03 -0.25616928175E+03  0.14279915564E+04  0.12699999809E+01 0.  1.
</event>
<event>
 5   0  0.2722449E-06  0.3395947E+04  0.7818609E-02  0.8138902E-01
       -2   -1    0    0    0  501  0.00000000000E+00  0.00000000000E+00  0.19571769264E+04  0.19571769264E+04  0.25500000920E-02 0.  1.
        2   -1    0    0  501    0  0.00000000000E+00  0.00000000000E+00 -0.14730980183E+04  0.14730980183E+04  0.25500000920E-02 0. -1.
    10030    2    1    2    0    0  0.00000000000E+00  0.00000000000E+00  0.48407890807E+03  0.34302749447E+04  0.33959466731E+04 0.  0.
        2    1    3    3  502    0 -0.43932356216E+03  0.15173465401E+04 -0.38696526709E+03  0.16263725997E+04  0.25500000920E-02 0. -1.
       -2    1    3    3    0  502  0.43932356216E+03 -0.15173465401E+04  0.87104417517E+03  0.18039023450E+04  0.25500000920E-02 0.  1.
</event>
<event>
 5   0  0.4189587E-06  0.3253222E+04  0.7818609E-02  0.8174901E-01
        2   -1    0    0  501    0  0.00000000000E+00  0.00000000000E+00  0.22014642128E+04  0.22014642128E+04  0.25500000920E-02 0.  1.
       -2   -1    0    0    0  501  0.00000000000E+00  0.00000000000E+00 -0.12018649160E+04  0.12018649160E+04  0.25500000920E-02 0. -1.
    10030    2    1    2    0    0  0.00000000000E+00  0.00000000000E+00  0.99959929683E+03  0.34033291288E+04  0.32532215425E+04 0.  0.
        1    1    3    3  502    0  0.45545745177E+03 -0.12465665549E+04  0.14836691436E+04  0.19906390415E+04  0.50400001928E-02 0.  1.
       -1    1    3    3    0  502 -0.45545745177E+03  0.12465665549E+04 -0.48406984673E+03  0.14126900873E+04  0.50400001928E-02 0. -1.
</event>
<event>
 5   0  0.1562618E-06  0.3151441E+04  0.7818609E-02  0.8201761E-01
       -1   -1    0    0    0  501  0.00000000000E+00  0.00000000000E+00  0.20856768614E+04  0.20856768615E+04  0.50400001928E-02 0.  1.
        1   -1    0    0  501    0  0.00000000000E+00  0.00000000000E+00 -0.11904504179E+04  0.11904504179E+04  0.50400001928E-02 0. -1.
    10030    2    1    2    0    0  0.00000000000E+00  0.00000000000E+00  0.89522644353E+03  0.32761272794E+04  0.31514408713E+04 0.  0.
        2    1    3    3  502    0  0.10055956889E+04 -0.66493107656E+03 -0.60719371175E+03  0.13498297040E+04  0.25500000920E-02 0. -1.
       -2    1    3    3    0  502 -0.10055956889E+04  0.66493107656E+03  0.15024201553E+04  0.19262975754E+04  0.25500000920E-02 0.  1.
</event>
<event>
 5   0  0.2722449E-06  0.3305362E+04  0.7818609E-02  0.8161532E-01
        2   -1    0    0  501    0  0.00000000000E+00  0.00000000000E+00  0.20246304164E+04  0.20246304164E+04  0.25500000920E-02 0. -1.
       -2   -1    0    0    0  501  0.00000000000E+00  0.00000000000E+00 -0.13490635990E+04  0.13490635990E+04  0.25500000920E-02 0.  1.
    10030    2    1    2    0    0  0.00000000000E+00  0.00000000000E+00  0.67556681740E+03  0.33736940155E+04  0.33053624287E+04 0.  0.
        2    1    3    3  502    0 -0.35649098925E+03 -0.49085421640E+03  0.19068772836E+04  0.20010508894E+04  0.25500000920E-02 0. -1.
       -2    1    3    3    0  502  0.35649098925E+03  0.49085421640E+03 -0.12313104662E+04  0.13726431260E+04  0.25500000920E-02 0.  1.
</event>
<event>
 5   0  0.4173467E-06  0.1869521E+04  0.7818609E-02  0.8670178E-01
       -2   -1    0    0    0  501  0.00000000000E+00  0.00000000000E+00  0.74007474577E+03  0.74007474578E+03  0.25500000920E-02 0.  1.
        2   -1    0    0  501    0  0.00000000000E+00  0.00000000000E+00 -0.11806607123E+04  0.11806607123E+04  0.25500000920E-02 0. -1.
    10030    2    1    2    0    0  0.00000000000E+00  0.00000000000E+00 -0.44058596654E+03  0.19207354581E+04  0.18695209830E+04 0.  0.
        4    1    3    3  502    0 -0.16273881010E+03 -0.18220273031E+03 -0.11472816739E+04  0.11730040952E+04  0.12699999809E+01 0. -1.
       -4    1    3    3    0  502  0.16273881010E+03  0.18220273031E+03  0.70669570738E+03  0.74773136284E+03  0.12699999809E+01 0.  1.
</event>
<event>
 5   0  0.4344980E-06  0.3372653E+04  0.7818609E-02  0.8144651E-01
       -2   -1    0    0    0  501  0.00000000000E+00  0.00000000000E+00  0.10985789964E+04  0.10985789964E+04  0.25500000920E-02 0.  1.
        2   -1    0    0  501    0  0.00000000000E+00  0.00000000000E+00 -0.25885234763E+04  0.25885234763E+04  0.25500000920E-02 0. -1.
    10030    2    1    2    0    0  0.00000000000E+00  0.00000000000E+00 -0.14899444799E+04  0.36871024727E+04  0.33726532716E+04 0.  0.
        3    1    3    3  502    0 -0.58902819488E+03 -0.71175055168E+03 -0.22872297841E+04  0.24667718090E+04  0.10100000352E+00 0. -1.
       -3    1    3    3    0  502  0.58902819488E+03  0.71175055168E+03  0.79728530419E+03  0.12203306637E+04  0.10100000352E+00 0.  1.
</event>
<event>
 5   0  0.2722449E-06  0.3320370E+04  0.7818609E-02  0.8157731E-01
        2   -1    0    0  501    0  0.00000000000E+00  0.00000000000E+00  0.19289480471E+04  0.19289480471E+04  0.25500000920E-02 0.  1.
       -2   -1    0    0    0  501  0.00000000000E+00  0.00000000000E+00 -0.14288692115E+04  0.14288692115E+04  0.25500000920E-02 0. -1.
    10030    2    1    2    0    0  0.00000000000E+00  0.00000000000E+00  0.50007883558E+03  0.33578172585E+04  0.33203701450E+04 0.  0.
        2    1    3    3  502    0  0.20956494897E+03 -0.64817595496E+03 -0.12810250908E+04  0.14508875972E+04  0.25500000920E-02 0. -1.
       -2    1    3    3    0  502 -0.20956494897E+03  0.64817595496E+03  0.17811039264E+04  0.19069296613E+04  0.25500000920E-02 0.  1.
</event>
<event>
 5   0  0.2101998E-06  0.3402834E+04  0.7818609E-02  0.8137211E-01
        1   -1    0    0  501    0  0.00000000000E+00  0.00000000000E+00  0.20391111490E+04  0.20391111490E+04  0.50400001928E-02 0. -1.
       -1   -1    0    0    0  501  0.00000000000E+00  0.00000000000E+00 -0.14196475145E+04  0.14196475145E+04  0.50400001928E-02 0.  1.
    10030    2    1    2    0    0  0.00000000000E+00  0.00000000000E+00  0.61946363451E+03  0.34587586635E+04  0.34028335690E+04 0.  0.
        5    1    3    3  502    0  0.71285371550E+03  0.11900511266E+03 -0.12558663859E+04  0.14489807127E+04  0.46999998093E+01 0.  1.
       -5    1    3    3    0  502 -0.71285371550E+03 -0.11900511266E+03  0.18753300204E+04  0.20097779509E+04  0.46999998093E+01 0. -1.
</event>
<event>
 5   0  0.2722449E-06  0.3141437E+04  0.7818609E-02  0.8204457E-01
       -2   -1    0    0    0  501  0.00000000000E+00  0.00000000000E+00  0.15523916445E+04  0.15523916445E+04  0.25500000920E-02 0. -1.
        2   -1    0    0  501    0  0.00000000000E+00  0.00000000000E+00 -0.15892616291E+04  0.15892616291E+04  0.25500000920E-02 0.  1.
    10030    2    1    2    0    0  0.00000000000E+00  0.00000000000E+00 -0.36869984576E+02  0.31416532735E+04  0.31414369157E+04 0.  0.
        2    1    3    3  502    0 -0.19488810846E+02  0.10620137123E+04  0.11387546931E+04  0.15572460274E+04  0.25500000920E-02 0. -1.
       -2    1    3    3    0  502  0.19488810846E+02 -0.10620137123E+04 -0.11756246777E+04  0.15844072461E+04  0.25500000920E-02 0.  1.
</event>
<event>
 5   0  0.1571391E-06  0.3361345E+04  0.7818609E-02  0.8147459E-01
       -1   -1    0    0    0  501  0.00000000000E+00  0.00000000000E+00  0.12703375780E+04  0.12703375780E+04  0.50400001928E-02 0. -1.
        1   -1    0    0  501    0  0.00000000000E+00  0.00000000000E+00 -0.22235511628E+04  0.22235511628E+04  0.50400001928E-02 0.  1.
    10030    2    1    2    0    0  0.00000000000E+00  0.00000000000E+00 -0.95321358476E+03  0.34938887408E+04  0.33613453252E+04 0.  0.
        1    1    3    3  502    0  0.37697534863E+03 -0.89843145660E+03 -0.19000480501E+04  0.21352920382E+04  0.50400001928E-02 0.  1.
       -1    1    3    3    0  502 -0.37697534863E+03  0.89843145660E+03  0.94683446533E+03  0.13585967027E+04  0.50400001928E-02 0. -1.
</event>
<event>
 5   0  0.1571391E-06  0.3353563E+04  0.7818609E-02  0.8149398E-01
        1   -1    0    0  501    0  0.00000000000E+00  0.00000000000E+00  0.14241669157E+04  0.14241669157E+04  0.50400001928E-02 0. -1.
       -1   -1    0    0    0  501  0.00000000000E+00  0.00000000000E+00 -0.19742039805E+04  0.19742039806E+04  0.50400001928E-02 0.  1.
    10030    2    1    2    0    0  0.00000000000E+00  0.00000000000E+00 -0.55003706485E+03  0.33983708963E+04  0.33535628779E+04 0.  0.
        1    1    3    3  502    0 -0.13438947171E+04 -0.37152189514E+03 -0.12188678900E+04  0.18519504482E+04  0.50400001928E-02 0.  1.
       -1    1    3    3    0  502  0.13438947171E+04  0.37152189514E+03  0.66883082517E+03  0.15464204480E+04  0.50400001928E-02 0. -1.
</event>
<event>
 5   0  0.4344980E-06  0.3407593E+04  0.7818609E-02  0.8136045E-01
       -2   -1    0    0    0  501  0.00000000000E+00  0.00000000000E+00  0.12772134991E+04  0.12772134991E+04  0.25500000920E-02 0. -1.
        2   -1    0    0  501    0  0.00000000000E+00  0.00000000000E+00 -0.22728561383E+04  0.22728561383E+04  0.25500000920E-02 0.  1.
    10030    2    1    2    0    0  0.00000000000E+00  0.00000000000E+00 -0.99564263923E+03  0.35500696374E+04  0.34075930164E+04 0.  0.
        3    1    3    3  502    0  0.11374184289E+03 -0.14438204528E+04  0.43712416839E+03  0.15128226121E+04  0.10100000352E+00 0. -1.
       -3    1    3    3    0  502 -0.11374184289E+03  0.14438204528E+04 -0.14327668076E+04  0.20372470253E+04  0.10100000352E+00 0.  1.
</event>
<event>
 5   0  0.2101998E-06  0.2284953E+04  0.7818609E-02  0.8483878E-01
       -1   -1    0    0    0  501  0.00000000000E+00  0.00000000000E+00  0.18471335776E+04  0.18471335776E+04  0.50400001928E-02 0.  1.
        1   -1    0    0  501    0  0.00000000000E+00  0.00000000000E+00 -0.70663660978E+03  0.70663660980E+03  0.50400001928E-02 0. -1.
    10030    2    1    2    0    0  0.00000000000E+00  0.00000000000E+00  0.11404969679E+04  0.25537701874E+04  0.22849526990E+04 0.  0.
        5    1    3    3  502    0  0.67286256586E+03  0.92307656902E+03  0.59303681657E+03  0.12870622132E+04  0.46999998093E+01 0.  1.
       -5    1    3    3    0  502 -0.67286256586E+03 -0.92307656902E+03  0.54746015128E+03  0.12667079743E+04  0.46999998093E+01 0. -1.
</event>
<event>
 5   0  0.1571391E-06  0.3162150E+04  0.7818609E-02  0.8198885E-01
        1   -1    0    0  501    0  0.00000000000E+00  0.00000000000E+00  0.29493450093E+04  0.29493450093E+04  0.50400001928E-02 0. -1.
       -1   -1    0    0    0  501  0.00000000000E+00  0.00000000000E+00 -0.84757727618E+03  0.84757727620E+03  0.50400001928E-02 0.  1.
    10030    2    1    2    0    0  0.00000000000E+00  0.00000000000E+00  0.21017677331E+04  0.37969222855E+04  0.31621497811E+04 0.  0.
        1    1    3    3  502    0  0.14061132221E+04  0.28298741777E+03  0.18496802770E+04  0.23406309831E+04  0.50400001928E-02 0.  1.
       -1    1    3    3    0  502 -0.14061132221E+04 -0.28298741777E+03  0.25208745615E+03  0.14562913024E+04  0.50400001928E-02 0. -1.
</event>
<event>
 5   0  0.1562618E-06  0.3382145E+04  0.7818609E-02  0.8142302E-01
       -1   -1    0    0    0  501  0.00000000000E+00  0.00000000000E+00  0.13667573848E+04  0.13667573848E+04  0.50400001928E-02 0.  1.
        1   -1    0    0  501    0  0.00000000000E+00  0.00000000000E+00 -0.20923435250E+04  0.20923435250E+04  0.50400001928E-02 0. -1.
    10030    2    1    2    0    0  0.00000000000E+00  0.00000000000E+00 -0.72558614019E+03  0.34591009099E+04  0.33821448606E+04 0.  0.
        2    1    3    3  502    0 -0.14913346570E+03  0.52448474494E+03 -0.19999660484E+04  0.20729662884E+04  0.25500000920E-02 0. -1.
       -2    1    3    3    0  502  0.14913346570E+03 -0.52448474494E+03  0.12743799082E+04  0.13861346214E+04  0.25500000920E-02 0.  1.
</event>
<event>
 5   0  0.2101998E-06  0.3397744E+04  0.7818609E-02  0.8138460E-01
       -1   -1    0    0    0  501  0.00000000000E+00  0.00000000000E+00  0.13240534816E+04  0.13240534816E+04  0.50400001928E-02 0.  1.
        1   -1    0    0  501    0  0.00000000000E+00  0.00000000000E+00 -0.21797963071E+04  0.21797963071E+04  0.50400001928E-02 0. -1.
    10030    2    1    2    0    0  0.00000000000E+00  0.00000000000E+00 -0.85574282554E+03  0.35038497887E+04  0.33977444810E+04 0.  0.
        5    1    3    3  502    0 -0.14151481959E+04  0.88672242366E+03 -0.74941577225E+03  0.18304554522E+04  0.46999998093E+01 0.  1.
       -5    1    3    3    0  502  0.14151481959E+04 -0.88672242366E+03 -0.10632705329E+03  0.16733943364E+04  0.46999998093E+01 0. -1.
</event>
<event>
 5   0  0.1550164E-06  0.1981146E+04  0.7818609E-02  0.8615487E-01
       -1   -1    0    0    0  501  0.00000000000E+00  0.00000000000E+00  0.97823039947E+03  0.97823039948E+03  0.50400001928E-02 0. -1.
        1   -1    0    0  501    0  0.00000000000E+00  0.00000000000E+00 -0.10030710078E+04  0.10030710078E+04  0.50400001928E-02 0.  1.
    10030    2    1    2    0    0  0.00000000000E+00  0.00000000000E+00 -0.24840608291E+02  0.19813014072E+04  0.19811456813E+04 0.  0.
        4    1    3    3  502    0 -0.68436410499E+03  0.15378529050E+03  0.68708359838E+03  0.98188065865E+03  0.12699999809E+01 0. -1.
       -4    1    3    3    0  502  0.68436410499E+03 -0.15378529050E+03 -0.71192420667E+03  0.99942074859E+03  0.12699999809E+01 0.  1.
</event>
<event>
 5   0  0.4189587E-06  0.2858444E+04  0.7818609E-02  0.8285350E-01
       -2   -1    0    0    0  501  0.00000000000E+00  0.00000000000E+00  0.12339295926E+04  0.12339295926E+04  0.25500000920E-02 0.  1.
        2   -1    0    0  501    0  0.00000000000E+00  0.00000000000E+00 -0.16554226086E+04  0.16554226086E+04  0.25500000920E-02 0. -1.
    10030    2    1    2    0    0  0.00000000000E+00  0.00000000000E+00 -0.42149301597E+03  0.28893522013E+04  0.28584435941E+04 0.  0.
        1    1    3    3  502    0  0.48275047220E+03 -0.57783397320E+03 -0.14386804963E+04  0.16238046956E+04  0.50400001928E-02 0. -1.
       -1    1    3    3    0  502 -0.48275047220E+03  0.57783397320E+03  0.10171874803E+04  0.12655475057E+04  0.50400001928E-02 0.  1.
</event>
<event>
 5   0  0.1550164E-06  0.3409320E+04  0.7818609E-02  0.8135623E-01
        1   -1    0    0  501    0  0.00000000000E+00  0.00000000000E+00  0.13015501339E+04  0.13015501339E+04  0.50400001928E-02 0.  1.
       -1   -1    0    0    0  501  0.00000000000E+00  0.00000000000E+00 -0.22326192018E+04  0.22326192018E+04  0.50400001928E-02 0. -1.
    10030    2    1    2    0    0  0.00000000000E+00  0.00000000000E+00 -0.93106906787E+03  0.35341693357E+04  0.34093200618E+04 0.  0.
        4    1    3    3  502    0  0.29334573143E+03  0.22328639277E+03  0.12597311742E+04  0.13125672460E+04  0.12699999809E+01 0.  1.
       -4    1    3    3    0  502 -0.29334573143E+03 -0.22328639277E+03 -0.21908002420E+04  0.22216020896E+04  0.12699999809E+01 0. -1.
</event>
<event>
 5   0  0.4189587E-06  0.3515821E+04  0.7818609E-02  0.8110051E-01
        2   -1    0    0  501    0  0.00000000000E+00  0.00000000000E+00  0.20181898131E+04  0.20181898131E+04  0.25500000920E-02 0. -1.
       -2   -1    0    0    0  501  0.00000000000E+00  0.00000000000E+00 -0.15311987192E+04  0.15311987192E+04  0.25500000920E-02 0.  1.
    10030    2    1    2    0    0  0.00000000000E+00  0.00000000000E+00  0.48699109392E+03  0.35493885323E+04  0.35158211882E+04 0.  0.
        1    1    3    3  502    0  0.74480001098E+03 -0.10508698831E+04  0.14512431422E+04  0.19404023359E+04  0.50400001928E-02 0. -1.
       -1    1    3    3    0  502 -0.74480001098E+03  0.10508698831E+04 -0.96425204828E+03  0.16089861964E+04  0.50400001928E-02 0.  1.
</event>
<event>
 5   0  0.2722449E-06  0.3397048E+04  0.7818609E-02  0.8138631E-01
        2   -1    0    0  501    0  0.00000000000E+00  0.00000000000E+00  0.24914891146E+04  0.24914891146E+04  0.25500000920E-02 0. -1.
       -2   -1    0    0    0  501  0.00000000000E+00  0.00000000000E+00 -0.11579355475E+04  0.11579355475E+04  0.25500000920E-02 0.  1.
    10030    2    1    2    0    0  0.00000000000E+00  0.00000000000E+00  0.13335535671E+04  0.36494246621E+04  0.33970480197E+04 0.  0.
        2    1    3    3  502    0  0.15522981449E+03  0.15779998706E+04  0.13209531917E+04  0.20637580337E+04  0.25500000920E-02 0. -1.
       -2    1    3    3    0  502 -0.15522981449E+03 -0.15779998706E+04  0.12600375388E+02  0.15856666284E+04  0.25500000920E-02 0.  1.
</event>
<event>
 5   0  0.1550164E-06  0.3328851E+04  0.7818609E-02  0.8155593E-01
        1   -1    0    0  501    0  0.00000000000E+00  0.00000000000E+00  0.24714166671E+04  0.24714166671E+04  0.50400001928E-02 0. -1.
       -1   -1    0    0    0  501  0.00000000000E+00  0.00000000000E+00 -0.11209411608E+04  0.11209411608E+04  0.50400001928E-02 0.  1.
    10030    2    1    2    0    0  0.00000000000E+00  0.00000000000E+00  0.13504755063E+04  0.35923578279E+04  0.33288512539E+04 0.  0.
        4    1    3    3  502    0 -0.13163681454E+04  0.91575945873E+02 -0.41950971153E+03  0.13846303691E+04  0.12699999809E+01 0.  1.
       -4    1    3    3    0  502  0.13163681454E+04 -0.91575945873E+02  0.17699852178E+04  0.22077274588E+04  0.12699999809E+01 0. -1.
</event>
<event>
 5   0  0.1571391E-06  0.3261121E+04  0.7818609E-02  0.8172859E-01
       -1   -1    0    0    0  501  0.00000000000E+00  0.00000000000E+00  0.12002564480E+04  0.12002564481E+04  0.50400001928E-02 0. -1.
        1   -1    0    0  501    0  0.00000000000E+00  0.00000000000E+00 -0.22151322510E+04  0.22151322510E+04  0.50400001928E-02 0.  1.
    10030    2    1    2    0    0  0.00000000000E+00  0.00000000000E+00 -0.10148758029E+04  0.34153886991E+04  0.32611205237E+04 0.  0.
        1    1    3    3  502    0  0.11601433168E+04  0.11457720231E+04 -0.50832846932E+03  0.17079589799E+04  0.50400001928E-02 0.  1.
       -1    1    3    3    0  502 -0.11601433168E+04 -0.11457720231E+04 -0.50654733362E+03  0.17074297191E+04  0.50400001928E-02 0. -1.
</event>
<event>
 5   0  0.2722449E-06  0.3059466E+04  0.7818609E-02  0.8226951E-01
        2   -1    0    0  501    0  0.00000000000E+00  0.00000000000E+00  0.12374630133E+04  0.12374630133E+04  0.25500000920E-02 0. -1.
       -2   -1    0    0    0  501  0.00000000000E+00  0.00000000000E+00 -0.18910326324E+04  0.18910326324E+04  0.25500000920E-02 0.  1.
    10030    2    1    2    0    0  0.00000000000E+00  0.00000000000E+00 -0.65356961916E+03  0.31284956457E+04  0.30594659269E+04 0.  0.
        2    1    3    3  502    0 -0.10977796260E+04  0.52102729758E+03 -0.12769944714E+04  0.17627547850E+04  0.25500000920E-02 0.  1.
       -2    1    3    3    0  502  0.10977796260E+04 -0.52102729758E+03  0.62342485226E+03  0.13657408607E+04  0.25500000920E-02 0. -1.
</event>
<event>
 5   0  0.4189587E-06  0.3355135E+04  0.7818609E-02  0.8149006E-01
       -2   -1    0    0    0  501  0.00000000000E+00  0.00000000000E+00  0.16366015074E+04  0.16366015074E+04  0.25500000920E-02 0. -1.
        2   -1    0    0  501    0  0.00000000000E+00  0.00000000000E+00 -0.17195590138E+04  0.17195590138E+04  0.25500000920E-02 0.  1.
    10030    2    1    2    0    0  0.00000000000E+00  0.00000000000E+00 -0.82957506339E+02  0.33561605212E+04  0.33551350936E+04 0.  0.
        1    1    3    3  502    0  0.22969307593E+03  0.13777265143E+04  0.88796808421E+03  0.16551062129E+04  0.50400001928E-02 0. -1.
       -1    1    3    3    0  502 -0.22969307593E+03 -0.13777265143E+04 -0.97092559055E+03  0.17010543083E+04  0.50400001928E-02 0.  1.
</event>
<event>
 5   0  0.1550164E-06  0.3116666E+04  0.7818609E-02  0.8211179E-01
       -1   -1    0    0    0  501  0.00000000000E+00  0.00000000000E+00  0.16514784494E+04  0.16514784494E+04  0.50400001928E-02 0.  1.
        1   -1    0    0  501    0  0.00000000000E+00  0.00000000000E+00 -0.14704409101E+04  0.14704409101E+04  0.50400001928E-02 0. -1.
    10030    2    1    2    0    0  0.00000000000E+00  0.00000000000E+00  0.18103753928E+03  0.31219193595E+04  0.31166658302E+04 0.  0.
        4    1    3    3  502    0 -0.69769571463E+03  0.12605175716E+04  0.68541884419E+03  0.15954574464E+04  0.12699999809E+01 0.  1.
       -4    1    3    3    0  502  0.69769571463E+03 -0.12605175716E+04 -0.50438130491E+03  0.15264619131E+04  0.12699999809E+01 0. -1.
</event>
<event>
 5   0  0.1562618E-06  0.3382227E+04  0.7818609E-02  0.8142282E-01
       -1   -1    0    0    0  501  0.00000000000E+00  0.00000000000E+00  0.14233011703E+04  0.14233011703E+04  0.50400001928E-02 0. -1.
        1   -1    0    0  501    0  0.00000000000E+00  0.00000000000E+00 -0.20093177114E+04  0.20093177114E+04  0.50400001928E-02 0.  1.
    10030    2    1    2    0    0  0.00000000000E+00  0.00000000000E+00 -0.58601654110E+03  0.34326188816E+04  0.33822266335E+04 0.  0.
        2    1    3    3  502    0  0.56197601990E+03  0.10629598122E+04  0.91389569836E+03  0.15102668495E+04  0.25500000920E-02 0. -1.
       -2    1    3    3    0  502 -0.56197601990E+03 -0.10629598122E+04 -0.14999122395E+04  0.19223520321E+04  0.25500000920E-02 0.  1.
</event>
<event>
 5   0  0.1550164E-06  0.3322893E+04  0.7818609E-02  0.8157095E-01
        1   -1    0    0  501    0  0.00000000000E+00  0.00000000000E+00  0.10752020978E+04  0.10752020978E+04  0.50400001928E-02 0. -1.
       -1   -1    0    0    0  501  0.00000000000E+00  0.00000000000E+00 -0.25673356107E+04  0.25673356107E+04  0.50400001928E-02 0.  1.
    10030    2    1    2    0    0  0.00000000000E+00  0.00000000000E+00 -0.14921335130E+04  0.36425377085E+04  0.33228930975E+04 0.  0.
        4    1    3    3  502    0 -0.77653691208E+03 -0.89270257747E+03  0.53252840907E+03  0.12975035981E+04  0.12699999809E+01 0. -1.
       -4    1    3    3    0  502  0.77653691208E+03  0.89270257747E+03 -0.20246619220E+04  0.23450341104E+04  0.12699999809E+01 0.  1.
</event>
<event>
 5   0  0.2722449E-06  0.3550203E+04  0.7818609E-02  0.8101994E-01
        2   -1    0    0  501    0  0.00000000000E+00  0.00000000000E+00  0.16551918376E+04  0.16551918376E+04  0.25500000920E-02 0.  1.
       -2   -1    0    0    0  501  0.00000000000E+00  0.00000000000E+00 -0.19036979304E+04  0.19036979304E+04  0.25500000920E-02 0. -1.
    10030    2    1    2    0    0  0.00000000000E+00  0.00000000000E+00 -0.24850609275E+03  0.35588897680E+04  0.35502029664E+04 0.  0.
        2    1    3    3  502    0  0.46417218753E+03  0.16013642677E+04  0.48646825894E+03  0.17368001338E+04  0.25500000920E-02 0.  1.
       -2    1    3    3    0  502 -0.46417218753E+03 -0.16013642677E+04 -0.73497435168E+03  0.18220896343E+04  0.25500000920E-02 0. -1.
</event>
<event>
 5   0  0.1654257E-06  0.3408148E+04  0.7818609E-02  0.8135910E-01
       -1   -1    0    0    0  501  0.00000000000E+00  0.00000000000E+00  0.12783803673E+04  0.12783803673E+04  0.50400001928E-02 0.  1.
        1   -1    0    0  501    0  0.00000000000E+00  0.00000000000E+00 -0.22715208426E+04  0.22715208426E+04  0.50400001928E-02 0. -1.
    10030    2    1    2    0    0  0.00000000000E+00  0.00000000000E+00 -0.99314047532E+03  0.35499012100E+04  0.34081476783E+04 0.  0.
        3    1    3    3  502    0 -0.92003615734E+03  0.14307222731E+04 -0.60297025620E+03  0.18047176770E+04  0.10100000352E+00 0. -1.
       -3    1    3    3    0  502  0.92003615734E+03 -0.14307222731E+04 -0.39017021912E+03  0.17451835330E+04  0.10100000352E+00 0.  1.
</event>
<event>
 5   0  0.1571391E-06  0.3413917E+04  0.7818609E-02  0.8134499E-01
        1   -1    0    0  501    0  0.00000000000E+00  0.00000000000E+00  0.18246836240E+04  0.18246836240E+04  0.50400001928E-02 0.  1.
       -1   -1    0    0    0  501  0.00000000000E+00  0.00000000000E+00 -0.15968283926E+04  0.15968283926E+04  0.50400001928E-02 0. -1.
    10030    2    1    2    0    0  0.00000000000E+00  0.00000000000E+00  0.22785523144E+03  0.34215120166E+04  0.34139165885E+04 0.  0.
        1    1    3    3  502    0 -0.82663871881E+01  0.30306396870E+03  0.17974835444E+04  0.18228722376E+04  0.50400001928E-02 0.  1.
       -1    1    3    3    0  502  0.82663871881E+01 -0.30306396870E+03 -0.15696283129E+04  0.15986397790E+04  0.50400001928E-02 0. -1.
</event>
<event>
 5   0  0.4189587E-06  0.3156229E+04  0.7818609E-02  0.8200474E-01
       -2   -1    0    0    0  501  0.00000000000E+00  0.00000000000E+00  0.15793442117E+04  0.15793442117E+04  0.25500000920E-02 0.  1.
        2   -1    0    0  501    0  0.00000000000E+00  0.00000000000E+00 -0.15768856347E+04  0.15768856347E+04  0.25500000920E-02 0. -1.
    10030    2    1    2    0    0  0.00000000000E+00  0.00000000000E+00  0.24585770687E+01  0.31562298464E+04  0.31562288888E+04 0.  0.
        1    1    3    3  502    0 -0.12894264079E+04 -0.24701034999E+03 -0.87444821515E+03  0.15774328054E+04  0.50400001928E-02 0. -1.
       -1    1    3    3    0  502  0.12894264079E+04  0.24701034999E+03  0.87690679222E+03  0.15787970410E+04  0.50400001928E-02 0.  1.
</event>
<event>
 5   0  0.4189587E-06  0.3443866E+04  0.7818609E-02  0.8127223E-01
        2   -1    0    0  501    0  0.00000000000E+00  0.00000000000E+00  0.27145744994E+04  0.27145744994E+04  0.25500000920E-02 0.  1.
       -2   -1    0    0    0  501  0.00000000000E+00  0.00000000000E+00 -0.10922717694E+04  0.10922717694E+04  0.25500000920E-02 0. -1.
    10030    2    1    2    0    0  0.00000000000E+00  0.00000000000E+00  0.16223027300E+04  0.38068462688E+04  0.34438659043E+04 0.  0.
        1    1    3    3  502    0  0.16473543194E+04 -0.70612938676E+02  0.26256744995E+03  0.16696419097E+04  0.50400001928E-02 0.  1.
       -1    1    3    3    0  502 -0.16473543194E+04  0.70612938676E+02  0.13597352800E+04  0.21372043591E+04  0.50400001928E-02 0. -1.
</event>
<event>
 5   0  0.1550164E-06  0.3335155E+04  0.7818609E-02  0.8154007E-01
       -1   -1    0    0    0  501  0.00000000000E+00  0.00000000000E+00  0.11144850283E+04  0.11144850283E+04  0.50400001928E-02 0. -1.
        1   -1    0    0  501    0  0.00000000000E+00  0.00000000000E+00 -0.24951566309E+04  0.24951566309E+04  0.50400001928E-02 0.  1.
    10030    2    1    2    0    0  0.00000000000E+00  0.00000000000E+00 -0.13806716027E+04  0.36096416592E+04  0.33351549939E+04 0.  0.
        4    1    3    3  502    0 -0.14893369447E+04 -0.64183637356E+02  0.11854865767E+03  0.14954261839E+04  0.12699999809E+01 0. -1.
       -4    1    3    3    0  502  0.14893369447E+04  0.64183637356E+02 -0.14992202603E+04  0.21142154753E+04  0.12699999809E+01 0.  1.
</event>
<event>
 5   0  0.4173467E-06  0.2059749E+04  0.7818609E-02  0.8579184E-01
        2   -1    0    0  501    0  0.00000000000E+00  0.00000000000E+00  0.10230827877E+04  0.10230827877E+04  0.25500000920E-02 0. -1.
       -2   -1    0    0    0  501  0.00000000000E+00  0.00000000000E+00 -0.10367116350E+04  0.10367116350E+04  0.25500000920E-02 0.  1.
    10030    2    1    2    0    0  0.00000000000E+00  0.00000000000E+00 -0.13628847304E+02  0.20597944227E+04  0.20597493338E+04 0.  0.
        4    1    3    3  502    0 -0.32001867289E+03  0.86871052130E+03 -0.45801195070E+03  0.10328826074E+04  0.12699999809E+01 0.  1.
       -4    1    3    3    0  502  0.32001867289E+03 -0.86871052130E+03  0.44438310339E+03  0.10269118152E+04  0.12699999809E+01 0. -1.
</event>
<event>
 5   0  0.1562618E-06  0.3388145E+04  0.7818609E-02  0.8140822E-01
       -1   -1    0    0    0  501  0.00000000000E+00  0.00000000000E+00  0.12240480189E+04  0.12240480189E+04  0.50400001928E-02 0.  1.
        1   -1    0    0  501    0  0.00000000000E+00  0.00000000000E+00 -0.23445824768E+04  0.23445824768E+04  0.50400001928E-02 0. -1.
    10030    2    1    2    0    0  0.00000000000E+00  0.00000000000E+00 -0.11205344580E+04  0.35686304957E+04  0.33881449413E+04 0.  0.
        2    1    3    3  502    0 -0.77860009818E+03 -0.11851477764E+04 -0.15365114394E+04  0.20908516848E+04  0.25500000920E-02 0. -1.
       -2    1    3    3    0  502  0.77860009818E+03  0.11851477764E+04  0.41597698141E+03  0.14777788108E+04  0.25500000920E-02 0.  1.
</event>
<event>
 5   0  0.1571391E-06  0.3331481E+04  0.7818609E-02  0.8154931E-01
       -1   -1    0    0    0  501  0.00000000000E+00  0.00000000000E+00  0.20272833334E+04  0.20272833334E+04  0.50400001928E-02 0.  1.
        1   -1    0    0  501    0  0.00000000000E+00  0.00000000000E+00 -0.13686742981E+04  0.13686742981E+04  0.50400001928E-02 0. -1.
    10030    2    1    2    0    0  0.00000000000E+00  0.00000000000E+00  0.65860903525E+03  0.33959576315E+04  0.33314805078E+04 0.  0.
        1    1    3    3  502    0  0.84449021974E+03 -0.68176440915E+03  0.16173759076E+04  0.19477862479E+04  0.50400001928E-02 0.  1.
       -1    1    3    3    0  502 -0.84449021974E+03  0.68176440915E+03 -0.95876687236E+03  0.14481713836E+04  0.50400001928E-02 0. -1.
</event>
<event>
 5   0  0.4400349E-06  0.3412870E+04  0.7818609E-02  0.8134755E-01
       -2   -1    0    0    0  501  0.00000000000E+00  0.00000000000E+00  0.12621520602E+04  0.12621520602E+04  0.25500000920E-02 0.  1.
        2   -1    0    0  501    0  0.00000000000E+00  0.00000000000E+00 -0.23071068272E+04  0.23071068272E+04  0.25500000920E-02 0. -1.
    10030    2    1    2    0    0  0.00000000000E+00  0.00000000000E+00 -0.10449547670E+04  0.35692588874E+04  0.34128695463E+04 0.  0.
        5    1    3    3  502    0 -0.86110067156E+03  0.86080501318E+03 -0.17728457299E+04  0.21506937740E+04  0.46999998093E+01 0. -1.
       -5    1    3    3    0  502  0.86110067156E+03 -0.86080501318E+03  0.72789096289E+03  0.14185651135E+04  0.46999998093E+01 0.  1.
</event>
<event>
 5   0  0.4189587E-06  0.3207139E+04  0.7818609E-02  0.8186934E-01
        2   -1    0    0  501    0  0.00000000000E+00  0.00000000000E+00  0.16838824748E+04  0.16838824748E+04  0.25500000920E-02 0.  1.
       -2   -1    0    0    0  501  0.00000000000E+00  0.00000000000E+00 -0.15270866858E+04  0.15270866858E+04  0.25500000920E-02 0. -1.
    10030    2    1    2    0    0  0.00000000000E+00  0.00000000000E+00  0.15679578903E+03  0.32109691606E+04  0.32071386048E+04 0.  0.
        1    1    3    3  502    0  0.61966089467E+03 -0.77739012780E+03 -0.11813256611E+04  0.15439706451E+04  0.50400001928E-02 0. -1.
       -1    1    3    3    0  502 -0.61966089467E+03  0.77739012780E+03  0.13381214502E+04  0.16669985155E+04  0.50400001928E-02 0.  1.
</event>
<event>
 5   0  0.1562618E-06  0.2568026E+04  0.7818609E-02  0.8379144E-01
       -1   -1    0    0    0  501  0.00000000000E+00  0.00000000000E+00  0.11421983126E+04  0.11421983126E+04  0.50400001928E-02 0. -1.
        1   -1    0    0  501    0  0.00000000000E+00  0.00000000000E+00 -0.14434353634E+04  0.14434353634E+04  0.50400001928E-02 0.  1.
    10030    2    1    2    0    0  0.00000000000E+00  0.00000000000E+00 -0.30123705085E+03  0.25856336760E+04  0.25680260407E+04 0.  0.
        2    1    3    3  502    0 -0.67554764790E+03  0.58489475471E+02  0.94722622237E+03  0.11649133700E+04  0.25500000920E-02 0. -1.
       -2    1    3    3    0  502  0.67554764790E+03 -0.58489475471E+02 -0.12484632732E+04  0.14207203060E+04  0.25500000920E-02 0.  1.
</event>
<event>
 5   0  0.1562618E-06  0.3378561E+04  0.7818609E-02  0.8143188E-01
       -1   -1    0    0    0  501  0.00000000000E+00  0.00000000000E+00  0.11454008588E+04  0.11454008588E+04  0.50400001928E-02 0. -1.
        1   -1    0    0  501    0  0.00000000000E+00  0.00000000000E+00 -0.24914153058E+04  0.24914153058E+04  0.50400001928E-02 0.  1.
    10030    2    1    2    0    0  0.00000000000E+00  0.00000000000E+00 -0.13460144470E+04  0.36368161646E+04  0.33785613689E+04 0.  0.
        2    1    3    3  502    0 -0.86970582152E+02 -0.15621827599E+04  0.12618160383E+02  0.15646527012E+04  0.25500000920E-02 0. -1.
       -2    1    3    3    0  502  0.86970582152E+02  0.15621827599E+04 -0.13586326074E+04  0.20721634634E+04  0.25500000920E-02 0.  1.
</event>
<event>
 5   0  0.2722449E-06  0.3346681E+04  0.7818609E-02  0.8151118E-01
        2   -1    0    0  501    0  0.00000000000E+00  0.00000000000E+00  0.27643377938E+04  0.27643377938E+04  0.25500000920E-02 0. -1.
       -2   -1    0    0    0  501  0.00000000000E+00  0.00000000000E+00 -0.10129255449E+04  0.10129255449E+04  0.25500000920E-02 0.  1.
    10030    2    1    2    0    0  0.00000000000E+00  0.00000000000E+00  0.17514122489E+04  0.37772633387E+04  0.33466809625E+04 0.  0.
        2    1    3    3  502    0  0.55398973089E+03  0.13564982595E+04  0.17878112246E+04  0.23115495073E+04  0.25500000920E-02 0. -1.
       -2    1    3    3    0  502 -0.55398973089E+03 -0.13564982595E+04 -0.36398975749E+02  0.14657138314E+04  0.25500000920E-02 0.  1.
</event>
<event>
 5   0  0.1571391E-06  0.3197256E+04  0.7818609E-02  0.8189542E-01
        1   -1    0    0  501    0  0.00000000000E+00  0.00000000000E+00  0.15186689275E+04  0.15186689275E+04  0.50400001928E-02 0. -1.
       -1   -1    0    0    0  501  0.00000000000E+00  0.00000000000E+00 -0.16827964851E+04  0.16827964851E+04  0.50400001928E-02 0.  1.
    10030    2    1    2    0    0  0.00000000000E+00  0.00000000000E+00 -0.16412755765E+03  0.32014654126E+04  0.31972555314E+04 0.  0.
        1    1    3    3  502    0  0.15304952477E+04  0.80401343461E+02  0.37321132918E+03  0.15773923974E+04  0.50400001928E-02 0. -1.
       -1    1    3    3    0  502 -0.15304952477E+04 -0.80401343461E+02 -0.53733888683E+03  0.16240730152E+04  0.50400001928E-02 0.  1.
</event>
<event>
 5   0  0.4344980E-06  0.3403800E+04  0.7818609E-02  0.8136974E-01
       -2   -1    0    0    0  501  0.00000000000E+00  0.00000000000E+00  0.19989652023E+04  0.19989652024E+04  0.25500000920E-02 0. -1.
        2   -1    0    0  501    0  0.00000000000E+00  0.00000000000E+00 -0.14489814425E+04  0.14489814425E+04  0.25500000920E-02 0.  1.
    10030    2    1    2    0    0  0.00000000000E+00  0.00000000000E+00  0.54998375983E+03  0.34479466449E+04  0.34037999251E+04 0.  0.
        3    1    3    3  502    0  0.14832279671E+04 -0.57353752921E+03 -0.33913270274E+03  0.16260139913E+04  0.10100000352E+00 0. -1.
       -3    1    3    3    0  502 -0.14832279671E+04  0.57353752921E+03  0.88911646258E+03  0.18219326535E+04  0.10100000352E+00 0.  1.
</event>
<event>
 5   0  0.1571391E-06  0.3289225E+04  0.7818609E-02  0.8165642E-01
       -1   -1    0    0    0  501  0.00000000000E+00  0.00000000000E+00  0.14196153582E+04  0.14196153582E+04  0.50400001928E-02 0.  1.
        1   -1    0    0  501    0  0.00000000000E+00  0.00000000000E+00 -0.19052698495E+04  0.19052698495E+04  0.50400001928E-02 0. -1.
    10030    2    1    2    0    0  0.00000000000E+00  0.00000000000E+00 -0.48565449130E+03  0.33248852077E+04  0.32892250394E+04 0.  0.
        1    1    3    3  502    0 -0.11834349105E+04  0.44432657272E+03 -0.13062815421E+04  0.18177776976E+04  0.50400001928E-02 0. -1.
       -1    1    3    3    0  502  0.11834349105E+04 -0.44432657272E+03  0.82062705085E+03  0.15071075101E+04  0.50400001928E-02 0.  1.
</event>
<event>
 5   0  0.2722449E-06  0.3484137E+04  0.7818609E-02  0.8117559E-01
       -2   -1    0    0    0  501  0.00000000000E+00  0.00000000000E+00  0.16956434415E+04  0.16956434415E+04  0.25500000920E-02 0.  1.
        2   -1    0    0  501    0  0.00000000000E+00  0.00000000000E+00 -0.17897649897E+04  0.17897649897E+04  0.25500000920E-02 0. -1.
    10030    2    1    2    0    0  0.00000000000E+00  0.00000000000E+00 -0.94121548193E+02  0.34854084312E+04  0.34841373490E+04 0.  0.
        2    1    3    3  502    0 -0.11635015361E+04  0.12756603070E+04  0.18488200864E+03  0.17364407276E+04  0.25500000920E-02 0.  1.
       -2    1    3    3    0  502  0.11635015361E+04 -0.12756603070E+04 -0.27900355684E+03  0.17489677036E+04  0.25500000920E-02 0. -1.
</event>
<event>
 5   0  0.2722449E-06  0.3281008E+04  0.7818609E-02  0.8167745E-01
       -2   -1    0    0    0  501  0.00000000000E+00  0.00000000000E+00  0.12012224379E+04  0.12012224379E+04  0.25500000920E-02 0.  1.
        2   -1    0    0  501    0  0.00000000000E+00  0.00000000000E+00 -0.22404283591E+04  0.22404283591E+04  0.25500000920E-02 0. -1.
    10030    2    1    2    0    0  0.00000000000E+00  0.00000000000E+00 -0.10392059212E+04  0.34416507970E+04  0.32810076596E+04 0.  0.
        2    1    3    3  502    0 -0.10979645631E+04 -0.33967426987E+03 -0.17475368846E+04  0.20915998553E+04  0.25500000920E-02 0. -1.
       -2    1    3    3    0  502  0.10979645631E+04  0.33967426987E+03  0.70833096346E+03  0.13500509417E+04  0.25500000920E-02 0.  1.
</event>
<event>
 5   0  0.1571391E-06  0.3383681E+04  0.7818609E-02  0.8141923E-01
        1   -1    0    0  501    0  0.00000000000E+00  0.00000000000E+00  0.23117950429E+04  0.23117950429E+04  0.50400001928E-02 0.  1.
       -1   -1    0    0    0  501  0.00000000000E+00  0.00000000000E+00 -0.12381394522E+04  0.12381394522E+04  0.50400001928E-02 0. -1.
    10030    2    1    2    0    0  0.00000000000E+00  0.00000000000E+00  0.10736555907E+04  0.35499344952E+04  0.33836812191E+04 0.  0.
        1    1    3    3  502    0  0.15445321590E+04 -0.49323393913E+03  0.10437509224E+04  0.19282829919E+04  0.50400001928E-02 0. -1.
       -1    1    3    3    0  502 -0.15445321590E+04  0.49323393913E+03  0.29904668332E+02  0.16216515033E+04  0.50400001928E-02 0.  1.
</event>
<event>
 5   0  0.4344980E-06  0.3434814E+04  0.7818609E-02  0.8129414E-01
       -2   -1    0    0    0  501  0.00000000000E+00  0.00000000000E+00  0.13581117164E+04  0.13581117164E+04  0.25500000920E-02 0. -1.
        2   -1    0    0  501    0  0.00000000000E+00  0.00000000000E+00 -0.21717551911E+04  0.21717551911E+04  0.25500000920E-02 0.  1.
    10030    2    1    2    0    0  0.00000000000E+00  0.00000000000E+00 -0.81364347470E+03  0.35298669075E+04  0.34348136312E+04 0.  0.
        3    1    3    3  502    0 -0.57918791346E+03  0.87678612929E+03  0.98917864665E+03  0.14431517456E+04  0.10100000352E+00 0. -1.
       -3    1    3    3    0  502  0.57918791346E+03 -0.87678612929E+03 -0.18028221213E+04  0.20867151619E+04  0.10100000352E+00 0.  1.
</event>
<event>
 5   0  0.2722449E-06  0.3224703E+04  0.7818609E-02  0.8182324E-01
       -2   -1    0    0    0  501  0.00000000000E+00  0.00000000000E+00  0.10744079771E+04  0.10744079771E+04  0.25500000920E-02 0.  1.
        2   -1    0    0  501    0  0.00000000000E+00  0.00000000000E+00 -0.24196365893E+04  0.24196365893E+04  0.25500000920E-02 0. -1.
    10030    2    1    2    0    0  0.00000000000E+00  0.00000000000E+00 -0.13452286122E+04  0.34940445664E+04  0.32247026860E+04 0.  0.
        2    1    3    3  502    0  0.10140362778E+04  0.90109605184E+03 -0.16168568112E+04  0.21105614455E+04  0.25500000920E-02 0. -1.
       -2    1    3    3    0  502 -0.10140362778E+04 -0.90109605184E+03  0.27162819892E+03  0.13834831209E+04  0.25500000920E-02 0.  1.
</event>
<event>
 5   0  0.1654257E-06  0.3589600E+04  0.7818609E-02  0.8092878E-01
       -1   -1    0    0    0  501  0.00000000000E+00  0.00000000000E+00  0.15304031141E+04  0.15304031141E+04  0.50400001928E-02 0. -1.
        1   -1    0    0  501    0  0.00000000000E+00  0.00000000000E+00 -0.21048753640E+04  0.21048753640E+04  0.50400001928E-02 0.  1.
    10030    2    1    2    0    0  0.00000000000E+00  0.00000000000E+00 -0.57447224994E+03  0.36352784782E+04  0.35896004301E+04 0.  0.
        3    1    3    3  502    0  0.31382761625E+03 -0.14370807188E+04 -0.13287287678E+04  0.19822232250E+04  0.10100000352E+00 0.  1.
       -3    1    3    3    0  502 -0.31382761625E+03  0.14370807188E+04  0.75425651785E+03  0.16530552532E+04  0.10100000352E+00 0. -1.
</event>
<event>
 5   0  0.1654257E-06  0.3641601E+04  0.7818609E-02  0.8081028E-01
        1   -1    0    0  501    0  0.00000000000E+00  0.00000000000E+00  0.13056430646E+04  0.13056430646E+04  0.50400001928E-02 0. -1.
       -1   -1    0    0    0  501  0.00000000000E+00  0.00000000000E+00 -0.25392196754E+04  0.25392196754E+04  0.50400001928E-02 0.  1.
    10030    2    1    2    0    0  0.00000000000E+00  0.00000000000E+00 -0.12335766108E+04  0.38448627400E+04  0.36416010538E+04 0.  0.
        3    1    3    3  502    0  0.31927195345E+03  0.16341670254E+04  0.16114011124E+03  0.16728426683E+04  0.10100000352E+00 0. -1.
       -3    1    3    3    0  502 -0.31927195345E+03 -0.16341670254E+04 -0.13947167220E+04  0.21720200717E+04  0.10100000352E+00 0.  1.
</event>
<event>
 5   0  0.1562618E-06  0.3527367E+04  0.7818609E-02  0.8107335E-01
        1   -1    0    0  501    0  0.00000000000E+00  0.00000000000E+00  0.21057136945E+04  0.21057136945E+04  0.50400001928E-02 0. -1.
       -1   -1    0    0    0  501  0.00000000000E+00  0.00000000000E+00 -0.14772088339E+04  0.14772088339E+04  0.50400001928E-02 0.  1.
    10030    2    1    2    0    0  0.00000000000E+00  0.00000000000E+00  0.62850486059E+03  0.35829225284E+04  0.35273666501E+04 0.  0.
        2    1    3    3  502    0  0.10228568975E+04  0.92957200503E+03  0.14270613412E+04  0.19866666597E+04  0.25500000920E-02 0. -1.
       -2    1    3    3    0  502 -0.10228568975E+04 -0.92957200503E+03 -0.79855648064E+03  0.15962558686E+04  0.25500000920E-02 0.  1.
</event>
<event>
 5   0  0.4344980E-06  0.3090989E+04  0.7818609E-02  0.8218215E-01
       -2   -1    0    0    0  501  0.00000000000E+00  0.00000000000E+00  0.12010203901E+04  0.12010203901E+04  0.25500000920E-02 0. -1.
        2   -1    0    0  501    0  0.00000000000E+00  0.00000000000E+00 -0.19887705386E+04  0.19887705386E+04  0.25500000920E-02 0.  1.
    10030    2    1    2    0    0  0.00000000000E+00  0.00000000000E+00 -0.78775014848E+03  0.31897909287E+04  0.30909894649E+04 0.  0.
        3    1    3    3  502    0 -0.14861417714E+04  0.28917253219E+03 -0.73607071444E+02  0.15158021406E+04  0.10100000352E+00 0.  1.
       -3    1    3    3    0  502  0.14861417714E+04 -0.28917253219E+03 -0.71414307704E+03  0.16739887881E+04  0.10100000352E+00 0. -1.
</event>
<event>
 5   0  0.2722449E-06  0.3345258E+04  0.7818609E-02  0.8151474E-01
        2   -1    0    0  501    0  0.00000000000E+00  0.00000000000E+00  0.19894891373E+04  0.19894891373E+04  0.25500000920E-02 0. -1.
       -2   -1    0    0    0  501  0.00000000000E+00  0.00000000000E+00 -0.14062343376E+04  0.14062343376E+04  0.25500000920E-02 0.  1.
    10030    2    1    2    0    0  0.00000000000E+00  0.00000000000E+00  0.58325479972E+03  0.33957234750E+04  0.33452581002E+04 0.  0.
        2    1    3    3  502    0  0.22733680685E+03  0.15476178761E+03  0.19663817342E+04  0.19855201735E+04  0.25500000920E-02 0. -1.
       -2    1    3    3    0  502 -0.22733680685E+03 -0.15476178761E+03 -0.13831269345E+04  0.14102033015E+04  0.25500000920E-02 0.  1.
</event>
<event>
 5   0  0.2722449E-06  0.3379300E+04  0.7818609E-02  0.8143006E-01
       -2   -1    0    0    0  501  0.00000000000E+00  0.00000000000E+00  0.19593937148E+04  0.19593937148E+04  0.25500000920E-02 0. -1.
        2   -1    0    0  501    0  0.00000000000E+00  0.00000000000E+00 -0.14570407964E+04  0.14570407964E+04  0.25500000920E-02 0.  1.
    10030    2    1    2    0    0  0.00000000000E+00  0.00000000000E+00  0.50235291842E+03  0.34164345112E+04  0.33792996781E+04 0.  0.
        2    1    3    3  502    0  0.88794236107E+03  0.14197093962E+04  0.47926634121E+03  0.17417556177E+04  0.25500000920E-02 0. -1.
       -2    1    3    3    0  502 -0.88794236107E+03 -0.14197093962E+04  0.23086577212E+02  0.16746788935E+04  0.25500000920E-02 0.  1.
</event>
<event>
 5   0  0.1562618E-06  0.3339228E+04  0.7818609E-02  0.8152985E-01
       -1   -1    0    0    0  501  0.00000000000E+00  0.00000000000E+00  0.16010004692E+04  0.16010004692E+04  0.50400001928E-02 0. -1.
        1   -1    0    0  501    0  0.00000000000E+00  0.00000000000E+00 -0.17411680353E+04  0.17411680353E+04  0.50400001928E-02 0.  1.
    10030    2    1    2    0    0  0.00000000000E+00  0.00000000000E+00 -0.14016756616E+03  0.33421685045E+04  0.33392279596E+04 0.  0.
        2    1    3    3  502    0  0.41828710150E+03  0.15018721466E+04  0.52795958856E+03  0.16460028467E+04  0.25500000920E-02 0. -1.
       -2    1    3    3    0  502 -0.41828710150E+03 -0.15018721466E+04 -0.66812715471E+03  0.16961656579E+04  0.25500000920E-02 0.  1.
</event>
<event>
 5   0  0.1401125E-06  0.3389313E+04  0.7818609E-02  0.8140534E-01
        3   -1    0    0  501    0  0.00000000000E+00  0.00000000000E+00  0.17324228876E+04  0.17324228905E+04  0.10100000352E+00 0.  1.
       -3   -1    0    0    0  501  0.00000000000E+00  0.00000000000E+00 -0.16577137239E+04  0.16577137269E+04  0.10100000352E+00 0. -1.
    10030    2    1    2    0    0  0.00000000000E+00  0.00000000000E+00  0.74709163716E+02  0.33901366175E+04  0.33893133266E+04 0.  0.
        4    1    3    3  502    0 -0.25395368076E+03  0.15772008976E+04  0.60300450470E+03  0.17075336567E+04  0.12699999809E+01 0.  1.
       -4    1    3    3    0  502  0.25395368076E+03 -0.15772008976E+04 -0.52829534098E+03  0.16826029607E+04  0.12699999809E+01 0. -1.
</event>
<event>
 5   0  0.4189587E-06  0.1709839E+04  0.7818609E-02  0.8755773E-01
        2   -1    0    0  501    0  0.00000000000E+00  0.00000000000E+00  0.98834359801E+03  0.98834359801E+03  0.25500000920E-02 0.  1.
       -2   -1    0    0    0  501  0.00000000000E+00  0.00000000000E+00 -0.73950725291E+03  0.73950725292E+03  0.25500000920E-02 0. -1.
    10030    2    1    2    0    0  0.00000000000E+00  0.00000000000E+00  0.24883634510E+03  0.17278508509E+04  0.17098388919E+04 0.  0.
        1    1    3    3  502    0 -0.69351813274E+03 -0.35485314941E+03 -0.23142638520E+03  0.81267849109E+03  0.50400001928E-02 0. -1.
       -1    1    3    3    0  502  0.69351813274E+03  0.35485314941E+03  0.48026273029E+03  0.91517235984E+03  0.50400001928E-02 0.  1.
</event>
<event>
 5   0  0.2722449E-06  0.3444677E+04  0.7818609E-02  0.8127027E-01
       -2   -1    0    0    0  501  0.00000000000E+00  0.00000000000E+00  0.13877321144E+04  0.13877321144E+04  0.25500000920E-02 0. -1.
        2   -1    0    0  501    0  0.00000000000E+00  0.00000000000E+00 -0.21376247725E+04  0.21376247725E+04  0.25500000920E-02 0.  1.
    10030    2    1    2    0    0  0.00000000000E+00  0.00000000000E+00 -0.74989265804E+03  0.35253568869E+04  0.34446773697E+04 0.  0.
        2    1    3    3  502    0 -0.14511408679E+04 -0.54104694726E+01 -0.13243657211E+04  0.19646332112E+04  0.25500000920E-02 0.  1.
       -2    1    3    3    0  502  0.14511408679E+04  0.54104694726E+01  0.57447306303E+03  0.15607236756E+04  0.25500000920E-02 0. -1.
</event>
<event>
 5   0  0.1550164E-06  0.2549283E+04  0.7818609E-02  0.8385636E-01
       -1   -1    0    0    0  501  0.00000000000E+00  0.00000000000E+00  0.21523871728E+04  0.21523871728E+04  0.50400001928E-02 0. -1.
        1   -1    0    0  501    0  0.00000000000E+00  0.00000000000E+00 -0.75484120846E+03  0.75484120848E+03  0.50400001928E-02 0.  1.
    10030    2    1    2    0    0  0.00000000000E+00  0.00000000000E+00  0.13975459643E+04  0.29072283813E+04  0.25492826714E+04 0.  0.
        4    1    3    3  502    0  0.85164807107E+03  0.59005871562E+02 -0.38066190010E+03  0.93471451520E+03  0.12699999809E+01 0.  1.
       -4    1    3    3    0  502 -0.85164807107E+03 -0.59005871562E+02  0.17782078644E+04  0.19725138661E+04  0.12699999809E+01 0. -1.
</event>
<event>
 5   0  0.1654257E-06  0.3389289E+04  0.7818609E-02  0.8140540E-01
        1   -1    0    0  501    0  0.00000000000E+00  0.00000000000E+00  0.12450944833E+04  0.12450944833E+04  0.50400001928E-02 0.  1.
       -1   -1    0    0    0  501  0.00000000000E+00  0.00000000000E+00 -0.23065081448E+04  0.23065081448E+04  0.50400001928E-02 0. -1.
    10030    2    1    2    0    0  0.00000000000E+00  0.00000000000E+00 -0.10614136616E+04  0.35516026281E+04  0.33892893454E+04 0.  0.
        3    1    3    3  502    0 -0.71751422532E+03 -0.61446928882E+03 -0.20050033881E+04  0.22164019868E+04  0.10100000352E+00 0. -1.
       -3    1    3    3    0  502  0.71751422532E+03  0.61446928882E+03  0.94358972654E+03  0.13352006414E+04  0.10100000352E+00 0.  1.
</event>
<event>
 5   0  0.1562618E-06  0.3342661E+04  0.7818609E-02  0.8152124E-01
        1   -1    0    0  501    0  0.00000000000E+00  0.00000000000E+00  0.13770092046E+04  0.13770092046E+04  0.50400001928E-02 0.  1.
       -1   -1    0    0    0  501  0.00000000000E+00  0.00000000000E+00 -0.20285601342E+04  0.20285601342E+04  0.50400001928E-02 0. -1.
    10030    2    1    2    0    0  0.00000000000E+00  0.00000000000E+00 -0.65155092959E+03  0.34055693389E+04  0.33426612015E+04 0.  0.
        2    1    3    3  502    0  0.84252673853E+03 -0.27131853154E+03 -0.17701590061E+04  0.19791230274E+04  0.25500000920E-02 0. -1.
       -2    1    3    3    0  502 -0.84252673853E+03  0.27131853154E+03  0.11186080765E+04  0.14264463115E+04  0.25500000920E-02 0.  1.
</event>
<event>
 5   0  0.1401125E-06  0.3371627E+04  0.7818609E-02  0.8144905E-01
        3   -1    0    0  501    0  0.00000000000E+00  0.00000000000E+00  0.27378629210E+04  0.27378629229E+04  0.10100000352E+00 0.  1.
       -3   -1    0    0    0  501  0.00000000000E+00  0.00000000000E+00 -0.10380238670E+04  0.10380238719E+04  0.10100000352E+00 0. -1.
    10030    2    1    2    0    0  0.00000000000E+00  0.00000000000E+00  0.16998390541E+04  0.37758867948E+04  0.33716269482E+04 0.  0.
        5    1    3    3  502    0 -0.95812312990E+02 -0.39584350166E+03  0.26819319701E+04  0.27126837743E+04  0.46999998093E+01 0.  1.
       -5    1    3    3    0  502  0.95812312990E+02  0.39584350166E+03 -0.98209291603E+03  0.10632030205E+04  0.46999998093E+01 0. -1.
</event>
<event>
 5   0  0.1571391E-06  0.3423038E+04  0.7818609E-02  0.8132275E-01
       -1   -1    0    0    0  501  0.00000000000E+00  0.00000000000E+00  0.27169042155E+04  0.27169042155E+04  0.50400001928E-02 0. -1.
        1   -1    0    0  501    0  0.00000000000E+00  0.00000000000E+00 -0.10781748451E+04  0.10781748451E+04  0.50400001928E-02 0.  1.
    10030    2    1    2    0    0  0.00000000000E+00  0.00000000000E+00  0.16387293704E+04  0.37950790607E+04  0.34230382889E+04 0.  0.
        1    1    3    3  502    0 -0.20893053273E+03  0.13001983053E+04  0.20314039176E+04  0.24209026162E+04  0.50400001928E-02 0. -1.
       -1    1    3    3    0  502  0.20893053273E+03 -0.13001983053E+04 -0.39267454718E+03  0.13741764445E+04  0.50400001928E-02 0.  1.
</event>
<event>
 5   0  0.4344980E-06  0.3312385E+04  0.7818609E-02  0.8159751E-01
       -2   -1    0    0    0  501  0.00000000000E+00  0.00000000000E+00  0.12950240069E+04  0.12950240069E+04  0.25500000920E-02 0.  1.
        2   -1    0    0  501    0  0.00000000000E+00  0.00000000000E+00 -0.21180870136E+04  0.21180870136E+04  0.25500000920E-02 0. -1.
    10030    2    1    2    0    0  0.00000000000E+00  0.00000000000E+00 -0.82306300671E+03  0.34131110204E+04  0.33123849602E+04 0.  0.
        3    1    3    3  502    0 -0.13838992049E+03  0.15726554658E+04  0.10426668492E+03  0.15821720943E+04  0.10100000352E+00 0.  1.
       -3    1    3    3    0  502  0.13838992049E+03 -0.15726554658E+04 -0.92732969163E+03  0.18309389262E+04  0.10100000352E+00 0. -1.
</event>
<event>
 5   0  0.1562618E-06  0.3413778E+04  0.7818609E-02  0.8134533E-01
       -1   -1    0    0    0  501  0.00000000000E+00  0.00000000000E+00  0.17539945079E+04  0.17539945079E+04  0.50400001928E-02 0. -1.
        1   -1    0    0  501    0  0.00000000000E+00  0.00000000000E+00 -0.16610485471E+04  0.16610485471E+04  0.50400001928E-02 0.  1.
    10030    2    1    2    0    0  0.00000000000E+00  0.00000000000E+00  0.92945960780E+02  0.34150430550E+04  0.34137779828E+04 0.  0.
        2    1    3    3  502    0 -0.72873676817E+03  0.15083082977E+04  0.37434255754E+03  0.17164450322E+04  0.25500000920E-02 0. -1.
       -2    1    3    3    0  502  0.72873676817E+03 -0.15083082977E+04 -0.28139659676E+03  0.16985980228E+04  0.25500000920E-02 0.  1.
</event>
<event>
 5   0  0.4189587E-06  0.3303662E+04  0.7818609E-02  0.8161964E-01
        2   -1    0    0  501    0  0.00000000000E+00  0.00000000000E+00  0.29328520950E+04  0.29328520950E+04  0.25500000920E-02 0.  1.
       -2   -1    0    0    0  501  0.00000000000E+00  0.00000000000E+00 -0.93033851713E+03  0.93033851714E+03  0.25500000920E-02 0. -1.
    10030    2    1    2    0    0  0.00000000000E+00  0.00000000000E+00  0.20025135779E+04  0.38631906122E+04  0.33036617678E+04 0.  0.
        1    1    3    3  502    0  0.24334013447E+02 -0.57027597755E+03  0.28138644337E+04  0.28711739560E+04  0.50400001928E-02 0.  1.
       -1    1    3    3    0  502 -0.24334013447E+02  0.57027597755E+03 -0.81135085579E+03  0.99201665611E+03  0.50400001928E-02 0. -1.
</event>
<event>
 5   0  0.1562618E-06  0.3432478E+04  0.7818609E-02  0.8129981E-01
       -1   -1    0    0    0  501  0.00000000000E+00  0.00000000000E+00  0.12986627642E+04  0.12986627642E+04  0.50400001928E-02 0.  1.
        1   -1    0    0  501    0  0.00000000000E+00  0.00000000000E+00 -0.22680844224E+04  0.22680844224E+04  0.50400001928E-02 0. -1.
    10030    2    1    2    0    0  0.00000000000E+00  0.00000000000E+00 -0.96942165818E+03  0.35667471866E+04  0.34324782799E+04 0.  0.
        2    1    3    3  502    0 -0.61179744303E+03  0.94453583678E+02 -0.21480317871E+04  0.22354547969E+04  0.25500000920E-02 0. -1.
       -2    1    3    3    0  502  0.61179744303E+03 -0.94453583678E+02  0.11786101289E+04  0.13312923897E+04  0.25500000920E-02 0.  1.
</event>
<event>
 5   0  0.1654257E-06  0.3256622E+04  0.7818609E-02  0.8174022E-01
       -1   -1    0    0    0  501  0.00000000000E+00  0.00000000000E+00  0.10506365217E+04  0.10506365217E+04  0.50400001928E-02 0. -1.
        1   -1    0    0  501    0  0.00000000000E+00  0.00000000000E+00 -0.25236094043E+04  0.25236094043E+04  0.50400001928E-02 0.  1.
    10030    2    1    2    0    0  0.00000000000E+00  0.00000000000E+00 -0.14729728827E+04  0.35742459260E+04  0.32566216892E+04 0.  0.
        3    1    3    3  502    0  0.10034984044E+04 -0.47431181687E+03  0.57110444151E+03  0.12482551985E+04  0.10100000352E+00 0. -1.
       -3    1    3    3    0  502 -0.10034984044E+04  0.47431181687E+03 -0.20440773242E+04  0.23259907275E+04  0.10100000352E+00 0.  1.
</event>
<event>
 5   0  0.4173467E-06  0.2009463E+04  0.7818609E-02  0.8602209E-01
       -2   -1    0    0    0  501  0.00000000000E+00  0.00000000000E+00  0.74500283627E+03  0.74500283627E+03  0.25500000920E-02 0.  1.
        2   -1    0    0  501    0  0.00000000000E+00  0.00000000000E+00 -0.13550091616E+04  0.13550091616E+04  0.25500000920E-02 0. -1.
    10030    2    1    2    0    0  0.00000000000E+00  0.00000000000E+00 -0.61000632535E+03  0.21000119979E+04  0.20094632802E+04 0.  0.
        4    1    3    3  502    0 -0.31839907564E+03  0.39630452967E+03  0.60067893004E+03  0.78692568995E+03  0.12699999809E+01 0.  1.
       -4    1    3    3    0  502  0.31839907564E+03 -0.39630452967E+03 -0.12106852554E+04  0.13130863079E+04  0.12699999809E+01 0. -1.
</event>
<event>
 5   0  0.1550164E-06  0.3454339E+04  0.7818609E-02  0.8124697E-01
       -1   -1    0    0    0  501  0.00000000000E+00  0.00000000000E+00  0.17286035846E+04  0.17286035846E+04  0.50400001928E-02 0.  1.
        1   -1    0    0  501    0  0.00000000000E+00  0.00000000000E+00 -0.17257362392E+04  0.17257362392E+04  0.50400001928E-02 0. -1.
    10030    2    1    2    0    0  0.00000000000E+00  0.00000000000E+00  0.28673453281E+01  0.34543398238E+04  0.34543386337E+04 0.  0.
        4    1    3    3  502    0  0.14028609082E+04  0.10032521956E+04 -0.91186770081E+02  0.17270930304E+04  0.12699999809E+01 0. -1.
       -4    1    3    3    0  502 -0.14028609082E+04 -0.10032521956E+04  0.94054115409E+02  0.17272467934E+04  0.12699999809E+01 0.  1.
</event>
<event>
 5   0  0.2722449E-06  0.3314909E+04  0.7818609E-02  0.8159112E-01
       -2   -1    0    0    0  501  0.00000000000E+00  0.00000000000E+00  0.13812167491E+04  0.13812167491E+04  0.25500000920E-02 0. -1.
        2   -1    0    0  501    0  0.00000000000E+00  0.00000000000E+00 -0.19889387515E+04  0.19889387515E+04  0.25500000920E-02 0.  1.
    10030    2    1    2    0    0  0.00000000000E+00  0.00000000000E+00 -0.60772200242E+03  0.33701555005E+04  0.33149090584E+04 0.  0.
        2    1    3    3  502    0 -0.14548358105E+04  0.68330485552E+03  0.10748408733E+03  0.16109021044E+04  0.25500000920E-02 0. -1.
       -2    1    3    3    0  502  0.14548358105E+04 -0.68330485552E+03 -0.71520608975E+03  0.17592533961E+04  0.25500000920E-02 0.  1.
</event>
<event>
 5   0  0.1654257E-06  0.3490350E+04  0.7818609E-02  0.8116081E-01
       -1   -1    0    0    0  501  0.00000000000E+00  0.00000000000E+00  0.23457439094E+04  0.23457439094E+04  0.50400001928E-02 0.  1.
        1   -1    0    0  501    0  0.00000000000E+00  0.00000000000E+00 -0.12983665874E+04  0.12983665874E+04  0.50400001928E-02 0. -1.
    10030    2    1    2    0    0  0.00000000000E+00  0.00000000000E+00  0.10473773221E+04  0.36441104968E+04  0.34903498475E+04 0.  0.
        3    1    3    3  502    0  0.95115796374E+03  0.43610967187E+03  0.19819069397E+04  0.22411711772E+04  0.10100000352E+00 0.  1.
       -3    1    3    3    0  502 -0.95115796374E+03 -0.43610967187E+03 -0.93452961763E+03  0.14029393195E+04  0.10100000352E+00 0. -1.
</event>
<event>
 5   0  0.4189587E-06  0.2514395E+04  0.7818609E-02  0.8397875E-01
       -2   -1    0    0    0  501  0.00000000000E+00  0.00000000000E+00  0.68604599502E+03  0.68604599503E+03  0.25500000920E-02 0.  1.
        2   -1    0    0  501    0  0.00000000000E+00  0.00000000000E+00 -0.23038481850E+04  0.23038481850E+04  0.25500000920E-02 0. -1.
    10030    2    1    2    0    0  0.00000000000E+00  0.00000000000E+00 -0.16178021900E+04  0.29898941800E+04  0.25143952119E+04 0.  0.
        1    1    3    3  502    0 -0.55494215706E+03  0.26698396079E+03  0.49441225728E+03  0.78973711649E+03  0.50400001928E-02 0.  1.
       -1    1    3    3    0  502  0.55494215706E+03 -0.26698396079E+03 -0.21122144472E+04  0.22001570635E+04  0.50400001928E-02 0. -1.
</event>
<event>
 5   0  0.1562618E-06  0.3474436E+04  0.7818609E-02  0.8119875E-01
       -1   -1    0    0    0  501  0.00000000000E+00  0.00000000000E+00  0.14417872835E+04  0.14417872836E+04  0.50400001928E-02 0. -1.
        1   -1    0    0  501    0  0.00000000000E+00  0.00000000000E+00 -0.20931839115E+04  0.20931839116E+04  0.50400001928E-02 0.  1.
    10030    2    1    2    0    0  0.00000000000E+00  0.00000000000E+00 -0.65139662800E+03  0.35349711951E+04  0.34744357503E+04 0.  0.
        2    1    3    3  502    0  0.88949997682E+03  0.52816022536E+03 -0.17456370136E+04  0.20291407087E+04  0.25500000920E-02 0.  1.
       -2    1    3    3    0  502 -0.88949997682E+03 -0.52816022536E+03  0.10942403856E+04  0.15058304864E+04  0.25500000920E-02 0. -1.
</event>
<event>
 5   0  0.2722449E-06  0.3357208E+04  0.7818609E-02  0.8148489E-01
       -2   -1    0    0    0  501  0.00000000000E+00  0.00000000000E+00  0.21823060222E+04  0.21823060222E+04  0.25500000920E-02 0.  1.
        2   -1    0    0  501    0  0.00000000000E+00  0.00000000000E+00 -0.12911623074E+04  0.12911623074E+04  0.25500000920E-02 0. -1.
    10030    2    1    2    0    0  0.00000000000E+00  0.00000000000E+00  0.89114371480E+03  0.34734683295E+04  0.33572079345E+04 0.  0.
        2    1    3    3  502    0 -0.50840090881E+03 -0.11132172197E+04  0.16342655689E+04  0.20417022340E+04  0.25500000920E-02 0.  1.
       -2    1    3    3    0  502  0.50840090881E+03  0.11132172197E+04 -0.74312185415E+03  0.14317660956E+04  0.25500000920E-02 0. -1.
</event>
<event>
 5   0  0.4189587E-06  0.2596150E+04  0.7818609E-02  0.8369510E-01
       -2   -1    0    0    0  501  0.00000000000E+00  0.00000000000E+00  0.25590543997E+04  0.25590543997E+04  0.25500000920E-02 0. -1.
        2   -1    0    0  501    0  0.00000000000E+00  0.00000000000E+00 -0.65844586964E+03  0.65844586965E+03  0.25500000920E-02 0.  1.
    10030    2    1    2    0    0  0.00000000000E+00  0.00000000000E+00  0.19006085301E+04  0.32175002694E+04  0.25961500725E+04 0.  0.
        1    1    3    3  502    0 -0.79050497897E+03 -0.10150089868E+04  0.11644527685E+04  0.17352497270E+04  0.50400001928E-02 0. -1.
       -1    1    3    3    0  502  0.79050497897E+03  0.10150089868E+04  0.73615576158E+03  0.14822505424E+04  0.50400001928E-02 0.  1.
</event>
<event>
 5   0  0.1571391E-06  0.2000536E+04  0.7818609E-02  0.8606370E-01
        1   -1    0    0  501    0  0.00000000000E+00  0.00000000000E+00  0.87844442663E+03  0.87844442664E+03  0.50400001928E-02 0. -1.
       -1   -1    0    0    0  501  0.00000000000E+00  0.00000000000E+00 -0.11389860680E+04  0.11389860680E+04  0.50400001928E-02 0.  1.
    10030    2    1    2    0    0  0.00000000000E+00  0.00000000000E+00 -0.26054164138E+03  0.20174304947E+04  0.20005358917E+04 0.  0.
        1    1    3    3  502    0 -0.31588808430E+03  0.83982071010E+01  0.82678557499E+03  0.88511592389E+03  0.50400001928E-02 0. -1.
       -1    1    3    3    0  502  0.31588808430E+03 -0.83982071010E+01 -0.10873272164E+04  0.11323145708E+04  0.50400001928E-02 0.  1.
</event>
<event>
 5   0  0.1562618E-06  0.2661747E+04  0.7818609E-02  0.8347524E-01
       -1   -1    0    0    0  501  0.00000000000E+00  0.00000000000E+00  0.11838507120E+04  0.11838507120E+04  0.50400001928E-02 0.  1.
        1   -1    0    0  501    0  0.00000000000E+00  0.00000000000E+00 -0.14961555439E+04  0.14961555439E+04  0.50400001928E-02 0. -1.
    10030    2    1    2    0    0  0.00000000000E+00  0.00000000000E+00 -0.31230483193E+03  0.26800062559E+04  0.26617474004E+04 0.  0.
        2    1    3    3  502    0  0.71196253042E+03 -0.74042252865E+03  0.69588452819E+03  0.12407140856E+04  0.25500000920E-02 0.  1.
       -2    1    3    3    0  502 -0.71196253042E+03  0.74042252865E+03 -0.10081893601E+04  0.14392921703E+04  0.25500000920E-02 0. -1.
</event>
<event>
 5   0  0.2722449E-06  0.3231712E+04  0.7818609E-02  0.8180492E-01
       -2   -1    0    0    0  501  0.00000000000E+00  0.00000000000E+00  0.10779040759E+04  0.10779040759E+04  0.25500000920E-02 0. -1.
        2   -1    0    0  501    0  0.00000000000E+00  0.00000000000E+00 -0.24222843823E+04  0.24222843823E+04  0.25500000920E-02 0.  1.
    10030    2    1    2    0    0  0.00000000000E+00  0.00000000000E+00 -0.13443803064E+04  0.35001884582E+04  0.32317117499E+04 0.  0.
        2    1    3    3  502    0 -0.42964053706E+03 -0.15476616877E+04 -0.48105715510E+03  0.16766823424E+04  0.25500000920E-02 0.  1.
       -2    1    3    3    0  502  0.42964053706E+03  0.15476616877E+04 -0.86332315126E+03  0.18235061158E+04  0.25500000920E-02 0. -1.
</event>
<event>
 5   0  0.4173467E-06  0.3446209E+04  0.7818609E-02  0.8126657E-01
        2   -1    0    0  501    0  0.00000000000E+00  0.00000000000E+00  0.18494310624E+04  0.18494310624E+04  0.25500000920E-02 0.  1.
       -2   -1    0    0    0  501  0.00000000000E+00  0.00000000000E+00 -0.16054069682E+04  0.16054069682E+04  0.25500000920E-02 0. -1.
    10030    2    1    2    0    0  0.00000000000E+00  0.00000000000E+00  0.24402409429E+03  0.34548380306E+04  0.34462092303E+04 0.  0.
        4    1    3    3  502    0 -0.32003466414E+03  0.16868621811E+04  0.26784689131E+03  0.17377197054E+04  0.12699999809E+01 0. -1.
       -4    1    3    3    0  502  0.32003466414E+03 -0.16868621811E+04 -0.23822797020E+02  0.17171183252E+04  0.12699999809E+01 0.  1.
</event>
<event>
 5   0  0.4344980E-06  0.3170773E+04  0.7818609E-02  0.8196579E-01
       -2   -1    0    0    0  501  0.00000000000E+00  0.00000000000E+00  0.87586745051E+03  0.87586745052E+03  0.25500000920E-02 0. -1.
        2   -1    0    0  501    0  0.00000000000E+00  0.00000000000E+00 -0.28696700151E+04  0.28696700151E+04  0.25500000920E-02 0.  1.
    10030    2    1    2    0    0  0.00000000000E+00  0.00000000000E+00 -0.19938025646E+04  0.37455374657E+04  0.31707731297E+04 0.  0.
        3    1    3    3  502    0  0.12598242960E+04  0.96479847315E+02  0.13427444139E+03  0.12706278973E+04  0.10100000352E+00 0. -1.
       -3    1    3    3    0  502 -0.12598242960E+04 -0.96479847315E+02 -0.21280770060E+04  0.24749095683E+04  0.10100000352E+00 0.  1.
</event>
<event>
 5   0  0.4344980E-06  0.1747709E+04  0.7818609E-02  0.8734613E-01
        2   -1    0    0  501    0  0.00000000000E+00  0.00000000000E+00  0.11382899815E+04  0.11382899816E+04  0.25500000920E-02 0. -1.
       -2   -1    0    0    0  501  0.00000000000E+00  0.00000000000E+00 -0.67084960062E+03  0.67084960063E+03  0.25500000920E-02 0.  1.
    10030    2    1    2    0    0  0.00000000000E+00  0.00000000000E+00  0.46744038092E+03  0.18091395822E+04  0.17477086479E+04 0.  0.
        3    1    3    3  502    0 -0.77026435288E+03 -0.35834229895E+03  0.44562261490E+03  0.95932054165E+03  0.10100000352E+00 0. -1.
       -3    1    3    3    0  502  0.77026435288E+03  0.35834229895E+03  0.21817766021E+02  0.84981904053E+03  0.10100000352E+00 0.  1.
</event>
<event>
 5   0  0.1550164E-06  0.1924046E+04  0.7818609E-02  0.8642979E-01
        1   -1    0    0  501    0  0.00000000000E+00  0.00000000000E+00  0.13027608557E+04  0.13027608557E+04  0.50400001928E-02 0.  1.
       -1   -1    0    0    0  501  0.00000000000E+00  0.00000000000E+00 -0.71040566406E+03  0.71040566408E+03  0.50400001928E-02 0. -1.
    10030    2    1    2    0    0  0.00000000000E+00  0.00000000000E+00  0.59235519163E+03  0.20131665198E+04  0.19240464556E+04 0.  0.
        4    1    3    3  502    0  0.59441198639E+03 -0.22272273977E+03  0.10525411351E+04  0.12291360715E+04  0.12699999809E+01 0.  1.
       -4    1    3    3    0  502 -0.59441198639E+03  0.22272273977E+03 -0.46018594343E+03  0.78403044827E+03  0.12699999809E+01 0. -1.
</event>
<event>
 5   0  0.1654257E-06  0.3427789E+04  0.7818609E-02  0.8131119E-01
       -1   -1    0    0    0  501  0.00000000000E+00  0.00000000000E+00  0.17493497603E+04  0.17493497603E+04  0.50400001928E-02 0. -1.
        1   -1    0    0  501    0  0.00000000000E+00  0.00000000000E+00 -0.16791582159E+04  0.16791582159E+04  0.50400001928E-02 0.  1.
    10030    2    1    2    0    0  0.00000000000E+00  0.00000000000E+00  0.70191544380E+02  0.34285079763E+04  0.34277893883E+04 0.  0.
        3    1    3    3  502    0 -0.11931196422E+04 -0.10156281601E+04 -0.65960002478E+03  0.17000315418E+04  0.10100000352E+00 0.  1.
       -3    1    3    3    0  502  0.11931196422E+04  0.10156281601E+04  0.72979156916E+03  0.17284764345E+04  0.10100000352E+00 0. -1.
</event>
<event>
 5   0  0.1550164E-06  0.2284578E+04  0.7818609E-02  0.8484027E-01
        1   -1    0    0  501    0  0.00000000000E+00  0.00000000000E+00  0.10311398136E+04  0.10311398136E+04  0.50400001928E-02 0. -1.
       -1   -1    0    0    0  501  0.00000000000E+00  0.00000000000E+00 -0.12654197292E+04  0.12654197292E+04  0.50400001928E-02 0.  1.
    10030    2    1    2    0    0  0.00000000000E+00  0.00000000000E+00 -0.23427991565E+03  0.22965595428E+04  0.22845784414E+04 0.  0.
        4    1    3    3  502    0 -0.12776523435E+03  0.10649963725E+04 -0.51198711494E+03  0.11885594841E+04  0.12699999809E+01 0. -1.
       -4    1    3    3    0  502  0.12776523435E+03 -0.10649963725E+04  0.27770719930E+03  0.11080000587E+04  0.12699999809E+01 0.  1.
</event>
<event>
 5   0  0.2722449E-06  0.3264809E+04  0.7818609E-02  0.8171908E-01
       -2   -1    0    0    0  501  0.00000000000E+00  0.00000000000E+00  0.17384071940E+04  0.17384071940E+04  0.25500000920E-02 0. -1.
        2   -1    0    0  501    0  0.00000000000E+00  0.00000000000E+00 -0.15328659774E+04  0.15328659774E+04  0.25500000920E-02 0.  1.
    10030    2    1    2    0    0  0.00000000000E+00  0.00000000000E+00  0.20554121668E+03  0.32712731714E+04  0.32648094845E+04 0.  0.
        2    1    3    3  502    0 -0.83800286802E+03 -0.29706970538E+03 -0.12689708601E+04  0.15494470822E+04  0.25500000920E-02 0.  1.
       -2    1    3    3    0  502  0.83800286802E+03  0.29706970538E+03  0.14745120768E+04  0.17218260892E+04  0.25500000920E-02 0. -1.
</event>
<event>
 5   0  0.4173467E-06  0.3403632E+04  0.7818609E-02  0.8137016E-01
       -2   -1    0    0    0  501  0.00000000000E+00  0.00000000000E+00  0.12071600195E+04  0.12071600195E+04  0.25500000920E-02 0. -1.
        2   -1    0    0  501    0  0.00000000000E+00  0.00000000000E+00 -0.23991660454E+04  0.23991660454E+04  0.25500000920E-02 0.  1.
    10030    2    1    2    0    0  0.00000000000E+00  0.00000000000E+00 -0.11920060259E+04  0.36063260650E+04  0.34036317840E+04 0.  0.
        4    1    3    3  502    0 -0.59505344092E+03  0.12551026833E+03 -0.22801028306E+04  0.23598118476E+04  0.12699999809E+01 0.  1.
       -4    1    3    3    0  502  0.59505344092E+03 -0.12551026833E+03  0.10880968047E+04  0.12465142174E+04  0.12699999809E+01 0. -1.
</event>
<event>
 5   0  0.2101998E-06  0.2044551E+04  0.7818609E-02  0.8586070E-01
        1   -1    0    0  501    0  0.00000000000E+00  0.00000000000E+00  0.12816941025E+04  0.12816941025E+04  0.50400001928E-02 0.  1.
       -1   -1    0    0    0  501  0.00000000000E+00  0.00000000000E+00 -0.81536379585E+03  0.81536379586E+03  0.50400001928E-02 0. -1.
    10030    2    1    2    0    0  0.00000000000E+00  0.00000000000E+00  0.46633030664E+03  0.20970578984E+04  0.20445507756E+04 0.  0.
        5    1    3    3  502    0 -0.34243666577E+03  0.18265904857E+03  0.12031788191E+04  0.12642343766E+04  0.46999998093E+01 0.  1.
       -5    1    3    3    0  502  0.34243666577E+03 -0.18265904857E+03 -0.73684851250E+03  0.83282352179E+03  0.46999998093E+01 0. -1.
</event>
<event>
 5   0  0.2722449E-06  0.3232956E+04  0.7818609E-02  0.8180167E-01
        2   -1    0    0  501    0  0.00000000000E+00  0.00000000000E+00  0.26377335280E+04  0.26377335280E+04  0.25500000920E-02 0.  1.
       -2   -1    0    0    0  501  0.00000000000E+00  0.00000000000E+00 -0.99062346650E+03  0.99062346650E+03  0.25500000920E-02 0. -1.
    10030    2    1    2    0    0  0.00000000000E+00  0.00000000000E+00  0.16471100615E+04  0.36283569945E+04  0.32329557567E+04 0.  0.
        2    1    3    3  502    0  0.13202186295E+04  0.26817159982E+03 -0.17907554388E+03  0.13590295387E+04  0.25500000920E-02 0. -1.
       -2    1    3    3    0  502 -0.13202186295E+04 -0.26817159982E+03  0.18261856054E+04  0.22693274558E+04  0.25500000920E-02 0.  1.
</event>
<event>
 5   0  0.4400349E-06  0.3370393E+04  0.7818609E-02  0.8145211E-01
       -2   -1    0    0    0  501  0.00000000000E+00  0.00000000000E+00  0.15513125603E+04  0.15513125603E+04  0.25500000920E-02 0.  1.
        2   -1    0    0  501    0  0.00000000000E+00  0.00000000000E+00 -0.18306348195E+04  0.18306348195E+04  0.25500000920E-02 0. -1.
    10030    2    1    2    0    0  0.00000000000E+00  0.00000000000E+00 -0.27932225921E+03  0.33819473798E+04  0.33703927301E+04 0.  0.
        5    1    3    3  502    0  0.49546198759E+03 -0.15173026819E+04  0.40272382265E+03  0.16461769579E+04  0.46999998093E+01 0.  1.
       -5    1    3    3    0  502 -0.49546198759E+03  0.15173026819E+04 -0.68204608186E+03  0.17357704218E+04  0.46999998093E+01 0. -1.
</event>
<event>
 5   0  0.1654257E-06  0.2389660E+04  0.7818609E-02  0.8443385E-01
        1   -1    0    0  501    0  0.00000000000E+00  0.00000000000E+00  0.96939761800E+03  0.96939761802E+03  0.50400001928E-02 0.  1.
       -1   -1    0    0    0  501  0.00000000000E+00  0.00000000000E+00 -0.14726862008E+04  0.14726862008E+04  0.50400001928E-02 0. -1.
    10030    2    1    2    0    0  0.00000000000E+00  0.00000000000E+00 -0.50328858283E+03  0.24420838189E+04  0.23896598044E+04 0.  0.
        3    1    3    3  502    0  0.13791633861E+03  0.20949386674E+03 -0.14454802524E+04  0.14670793322E+04  0.10100000352E+00 0. -1.
       -3    1    3    3    0  502 -0.13791633861E+03 -0.20949386674E+03  0.94219166956E+03  0.97500448668E+03  0.10100000352E+00 0.  1.
</event>
<event>
 5   0  0.4344980E-06  0.3352697E+04  0.7818609E-02  0.8149615E-01
        2   -1    0    0  501    0  0.00000000000E+00  0.00000000000E+00  0.14962523247E+04  0.14962523247E+04  0.25500000920E-02 0.  1.
       -2   -1    0    0    0  501  0.00000000000E+00  0.00000000000E+00 -0.18781217763E+04  0.18781217763E+04  0.25500000920E-02 0. -1.
    10030    2    1    2    0    0  0.00000000000E+00  0.00000000000E+00 -0.38186945164E+03  0.33743741010E+04  0.33526968690E+04 0.  0.
        3    1    3    3  502    0 -0.52183277067E+03  0.12966148584E+04  0.74058958606E+03  0.15817687811E+04  0.10100000352E+00 0.  1.
       -3    1    3    3    0  502  0.52183277067E+03 -0.12966148584E+04 -0.11224590377E+04  0.17926053199E+04  0.10100000352E+00 0. -1.
</event>
<event>
 5   0  0.4189587E-06  0.3033579E+04  0.7818609E-02  0.8234207E-01
        2   -1    0    0  501    0  0.00000000000E+00  0.00000000000E+00  0.16581163893E+04  0.16581163893E+04  0.25500000920E-02 0. -1.
       -2   -1    0    0    0  501  0.00000000000E+00  0.00000000000E+00 -0.13875087933E+04  0.13875087933E+04  0.25500000920E-02 0.  1.
    10030    2    1    2    0    0  0.00000000000E+00  0.00000000000E+00  0.27060759597E+03  0.30456251826E+04  0.30335794504E+04 0.  0.
        1    1    3    3  502    0  0.10074245727E+04  0.56848544591E+03 -0.84969905843E+03  0.14352938590E+04  0.50400001928E-02 0.  1.
       -1    1    3    3    0  502 -0.10074245727E+04 -0.56848544591E+03  0.11203066544E+04  0.16103313236E+04  0.50400001928E-02 0. -1.
</event>
<event>
 5   0  0.1562618E-06  0.3354821E+04  0.7818609E-02  0.8149085E-01
       -1   -1    0    0    0  501  0.00000000000E+00  0.00000000000E+00  0.17903445596E+04  0.17903445596E+04  0.50400001928E-02 0.  1.
        1   -1    0    0  501    0  0.00000000000E+00  0.00000000000E+00 -0.15716004116E+04  0.15716004116E+04  0.50400001928E-02 0. -1.
    10030    2    1    2    0    0  0.00000000000E+00  0.00000000000E+00  0.21874414803E+03  0.33619449712E+04  0.33548211557E+04 0.  0.
        2    1    3    3  502    0  0.72402496945E+03  0.15033263802E+04 -0.62759615082E+02  0.16697727783E+04  0.25500000920E-02 0.  1.
       -2    1    3    3    0  502 -0.72402496945E+03 -0.15033263802E+04  0.28150376311E+03  0.16921721929E+04  0.25500000920E-02 0. -1.
</event>
<event>
 5   0  0.1562618E-06  0.3389246E+04  0.7818609E-02  0.8140551E-01
       -1   -1    0    0    0  501  0.00000000000E+00  0.00000000000E+00  0.13668352764E+04  0.13668352764E+04  0.50400001928E-02 0.  1.
        1   -1    0    0  501    0  0.00000000000E+00  0.00000000000E+00 -0.21010196778E+04  0.21010196778E+04  0.50400001928E-02 0. -1.
    10030    2    1    2    0    0  0.00000000000E+00  0.00000000000E+00 -0.73418440139E+03  0.34678549543E+04  0.33892464131E+04 0.  0.
        2    1    3    3  502    0  0.14821478587E+04 -0.61153295043E+03 -0.92846374741E+03  0.18527762290E+04  0.25500000920E-02 0. -1.
       -2    1    3    3    0  502 -0.14821478587E+04  0.61153295043E+03  0.19427934602E+03  0.16150787253E+04  0.25500000920E-02 0.  1.
</event>
<event>
 5   0  0.1654257E-06  0.3268148E+04  0.7818609E-02  0.8171048E-01
        1   -1    0    0  501    0  0.00000000000E+00  0.00000000000E+00  0.26066640330E+04  0.26066640330E+04  0.50400001928E-02 0. -1.
       -1   -1    0    0    0  501  0.00000000000E+00  0.00000000000E+00 -0.10243738246E+04  0.10243738246E+04  0.50400001928E-02 0.  1.
    10030    2    1    2    0    0  0.00000000000E+00  0.00000000000E+00  0.15822902084E+04  0.36310378576E+04  0.32681483473E+04 0.  0.
        3    1    3    3  502    0  0.39229123726E+03  0.72856653147E+03  0.23566830902E+04  0.24977303304E+04  0.10100000352E+00 0. -1.
       -3    1    3    3    0  502 -0.39229123726E+03 -0.72856653147E+03 -0.77439288182E+03  0.11333075272E+04  0.10100000352E+00 0.  1.
</event>
<event>
 5   0  0.2722449E-06  0.3331050E+04  0.7818609E-02  0.8155039E-01
       -2   -1    0    0    0  501  0.00000000000E+00  0.00000000000E+00  0.90789485504E+03  0.90789485504E+03  0.25500000920E-02 0. -1.
        2   -1    0    0  501    0  0.00000000000E+00  0.00000000000E+00 -0.30553915123E+04  0.30553915123E+04  0.25500000920E-02 0.  1.
    10030    2    1    2    0    0  0.00000000000E+00  0.00000000000E+00 -0.21474966573E+04  0.39632863674E+04  0.33310504254E+04 0.  0.
        2    1    3    3  502    0 -0.64896850067E+03 -0.59709185865E+02 -0.28973868838E+04  0.29697771054E+04  0.25500000920E-02 0.  1.
       -2    1    3    3    0  502  0.64896850067E+03  0.59709185865E+02  0.74989022649E+03  0.99350926193E+03  0.25500000920E-02 0. -1.
</event>
<event>
 5   0  0.2101998E-06  0.3110314E+04  0.7818609E-02  0.8212913E-01
       -1   -1    0    0    0  501  0.00000000000E+00  0.00000000000E+00  0.22865919938E+04  0.22865919938E+04  0.50400001928E-02 0.  1.
        1   -1    0    0  501    0  0.00000000000E+00  0.00000000000E+00 -0.10576932058E+04  0.10576932058E+04  0.50400001928E-02 0. -1.
    10030    2    1    2    0    0  0.00000000000E+00  0.00000000000E+00  0.12288987880E+04  0.33442851996E+04  0.31103136924E+04 0.  0.
        5    1    3    3  502    0  0.13184512664E+04 -0.81171358965E+03  0.45753280495E+03  0.16144816664E+04  0.46999998093E+01 0. -1.
       -5    1    3    3    0  502 -0.13184512664E+04  0.81171358965E+03  0.77136598309E+03  0.17298035332E+04  0.46999998093E+01 0.  1.
</event>
<event>
 5   0  0.4189587E-06  0.3297548E+04  0.7818609E-02  0.8163519E-01
        2   -1    0    0  501    0  0.00000000000E+00  0.00000000000E+00  0.22836381684E+04  0.22836381684E+04  0.25500000920E-02 0.  1.
       -2   -1    0    0    0  501  0.00000000000E+00  0.00000000000E+00 -0.11904058686E+04  0.11904058686E+04  0.25500000920E-02 0. -1.
    10030    2    1    2    0    0  0.00000000000E+00  0.00000000000E+00  0.10932322999E+04  0.34740440370E+04  0.32975483484E+04 0.  0.
        1    1    3    3  502    0  0.26301285042E+03  0.15711185425E+04  0.99466345245E+03  0.18780161388E+04  0.50400001928E-02 0.  1.
       -1    1    3    3    0  502 -0.26301285042E+03 -0.15711185425E+04  0.98568847404E+02  0.15960278982E+04  0.50400001928E-02 0. -1.
</event>
<event>
 5   0  0.4189587E-06  0.2462121E+04  0.7818609E-02  0.8416606E-01
       -2   -1    0    0    0  501  0.00000000000E+00  0.00000000000E+00  0.84891306514E+03  0.84891306514E+03  0.25500000920E-02 0. -1.
        2   -1    0    0  501    0  0.00000000000E+00  0.00000000000E+00 -0.17852362712E+04  0.17852362712E+04  0.25500000920E-02 0.  1.
    10030    2    1    2    0    0  0.00000000000E+00  0.00000000000E+00 -0.93632320601E+03  0.26341493363E+04  0.24621213577E+04 0.  0.
        1    1    3    3  502    0 -0.74483624830E+03 -0.78521857671E+03  0.15948019233E+03  0.10939758598E+04  0.50400001928E-02 0. -1.
       -1    1    3    3    0  502  0.74483624830E+03  0.78521857671E+03 -0.10958033983E+04  0.15401734765E+04  0.50400001928E-02 0.  1.
</event>
<event>
 5   0  0.2101998E-06  0.3373966E+04  0.7818609E-02  0.8144326E-01
       -1   -1    0    0    0  501  0.00000000000E+00  0.00000000000E+00  0.23709747247E+04  0.23709747247E+04  0.50400001928E-02 0. -1.
        1   -1    0    0  501    0  0.00000000000E+00  0.00000000000E+00 -0.12003129860E+04  0.12003129860E+04  0.50400001928E-02 0.  1.
    10030    2    1    2    0    0  0.00000000000E+00  0.00000000000E+00  0.11706617387E+04  0.35712877107E+04  0.33739660648E+04 0.  0.
        5    1    3    3  502    0 -0.94572919379E+03  0.13929602042E+04  0.47357273029E+03  0.17490097368E+04  0.46999998093E+01 0. -1.
       -5    1    3    3    0  502  0.94572919379E+03 -0.13929602042E+04  0.69708900840E+03  0.18222779739E+04  0.46999998093E+01 0.  1.
</event>
<event>
 5   0  0.2101998E-06  0.1797550E+04  0.7818609E-02  0.8707603E-01
       -1   -1    0    0    0  501  0.00000000000E+00  0.00000000000E+00  0.11985865346E+04  0.11985865346E+04  0.50400001928E-02 0.  1.
        1   -1    0    0  501    0  0.00000000000E+00  0.00000000000E+00 -0.67395768340E+03  0.67395768342E+03  0.50400001928E-02 0. -1.
    10030    2    1    2    0    0  0.00000000000E+00  0.00000000000E+00  0.52462885123E+03  0.18725442181E+04  0.17975501153E+04 0.  0.
        5    1    3    3  502    0 -0.80398586417E+03  0.14866209395E+03  0.65108800397E+03  0.10451944158E+04  0.46999998093E+01 0.  1.
       -5    1    3    3    0  502  0.80398586417E+03 -0.14866209395E+03 -0.12645915274E+03  0.82734980224E+03  0.46999998093E+01 0. -1.
</event>
<event>
 5   0  0.4189587E-06  0.3379806E+04  0.7818609E-02  0.8142880E-01
        2   -1    0    0  501    0  0.00000000000E+00  0.00000000000E+00  0.13513521265E+04  0.13513521265E+04  0.25500000920E-02 0. -1.
       -2   -1    0    0    0  501  0.00000000000E+00  0.00000000000E+00 -0.21132705291E+04  0.21132705291E+04  0.25500000920E-02 0.  1.
    10030    2    1    2    0    0  0.00000000000E+00  0.00000000000E+00 -0.76191840259E+03  0.34646226556E+04  0.33798062804E+04 0.  0.
        1    1    3    3  502    0  0.12831139359E+03  0.16817105086E+04 -0.48924425007E+03  0.17561247065E+04  0.50400001928E-02 0.  1.
       -1    1    3    3    0  502 -0.12831139359E+03 -0.16817105086E+04 -0.27267415252E+03  0.17084979491E+04  0.50400001928E-02 0. -1.
</event>
<event>
 5   0  0.1401125E-06  0.3234716E+04  0.7818609E-02  0.8179709E-01
        3   -1    0    0  501    0  0.00000000000E+00  0.00000000000E+00  0.21906609385E+04  0.21906609408E+04  0.10100000352E+00 0.  1.
       -3   -1    0    0    0  501  0.00000000000E+00  0.00000000000E+00 -0.11940900979E+04  0.11940901022E+04  0.10100000352E+00 0. -1.
    10030    2    1    2    0    0  0.00000000000E+00  0.00000000000E+00  0.99657084055E+03  0.33847510430E+04  0.32347157809E+04 0.  0.
        1    1    3    3  502    0  0.83629507361E+03 -0.28716524512E+03 -0.91877858297E+03  0.12751499569E+04  0.50400001928E-02 0. -1.
       -1    1    3    3    0  502 -0.83629507361E+03  0.28716524512E+03  0.19153494235E+04  0.21096010861E+04  0.50400001928E-02 0.  1.
</event>
<event>
 5   0  0.2722449E-06  0.3390026E+04  0.7818609E-02  0.8140358E-01
       -2   -1    0    0    0  501  0.00000000000E+00  0.00000000000E+00  0.13241891258E+04  0.13241891258E+04  0.25500000920E-02 0. -1.
        2   -1    0    0  501    0  0.00000000000E+00  0.00000000000E+00 -0.21696823562E+04  0.21696823562E+04  0.25500000920E-02 0.  1.
    10030    2    1    2    0    0  0.00000000000E+00  0.00000000000E+00 -0.84549323042E+03  0.34938714819E+04  0.33900264202E+04 0.  0.
        2    1    3    3  502    0 -0.25580456420E+03  0.93523826715E+03  0.10101525676E+04  0.14001838455E+04  0.25500000920E-02 0. -1.
       -2    1    3    3    0  502  0.25580456420E+03 -0.93523826715E+03 -0.18556457980E+04  0.20936876364E+04  0.25500000920E-02 0.  1.
</event>
<event>
 5   0  0.4173467E-06  0.3396758E+04  0.7818609E-02  0.8138702E-01
        2   -1    0    0  501    0  0.00000000000E+00  0.00000000000E+00  0.10562071957E+04  0.10562071957E+04  0.25500000920E-02 0.  1.
       -2   -1    0    0    0  501  0.00000000000E+00  0.00000000000E+00 -0.27309900020E+04  0.27309900020E+04  0.25500000920E-02 0. -1.
    10030    2    1    2    0    0  0.00000000000E+00  0.00000000000E+00 -0.16747828062E+04  0.37871971977E+04  0.33967580377E+04 0.  0.
        4    1    3    3  502    0  0.16539297083E+04  0.34243891905E+03 -0.10360324443E+04  0.19814420839E+04  0.12699999809E+01 0. -1.
       -4    1    3    3    0  502 -0.16539297083E+04 -0.34243891905E+03 -0.63875036188E+03  0.18057551138E+04  0.12699999809E+01 0.  1.
</event>
<event>
 5   0  0.1571391E-06  0.3636245E+04  0.7818609E-02  0.8082239E-01
        1   -1    0    0  501    0  0.00000000000E+00  0.00000000000E+00  0.16453501003E+04  0.16453501003E+04  0.50400001928E-02 0.  1.
       -1   -1    0    0    0  501  0.00000000000E+00  0.00000000000E+00 -0.20090372550E+04  0.20090372550E+04  0.50400001928E-02 0. -1.
    10030    2    1    2    0    0  0.00000000000E+00  0.00000000000E+00 -0.36368715475E+03  0.36543873553E+04  0.36362451232E+04 0.  0.
        1    1    3    3  502    0  0.15704557469E+04  0.87927622751E+03 -0.44024840849E+03  0.18529103050E+04  0.50400001928E-02 0. -1.
       -1    1    3    3    0  502 -0.15704557469E+04 -0.87927622751E+03  0.76561253738E+02  0.18014770503E+04  0.50400001928E-02 0.  1.
</event>
<event>
 5   0  0.2722449E-06  0.3228138E+04  0.7818609E-02  0.8181425E-01
        2   -1    0    0  501    0  0.00000000000E+00  0.00000000000E+00  0.12548267176E+04  0.12548267176E+04  0.25500000920E-02 0. -1.
       -2   -1    0    0    0  501  0.00000000000E+00  0.00000000000E+00 -0.20761587836E+04  0.20761587836E+04  0.25500000920E-02 0.  1.
    10030    2    1    2    0    0  0.00000000000E+00  0.00000000000E+00 -0.82133206596E+03  0.33309855012E+04  0.32281384801E+04 0.  0.
        2    1    3    3  502    0 -0.59549808980E+03 -0.78113386916E+03  0.91093273296E+03  0.13396217901E+04  0.25500000920E-02 0. -1.
       -2    1    3    3    0  502  0.59549808980E+03  0.78113386916E+03 -0.17322647989E+04  0.19913637111E+04  0.25500000920E-02 0.  1.
</event>
<event>
 5   0  0.4173467E-06  0.3262630E+04  0.7818609E-02  0.8172470E-01
        2   -1    0    0  501    0  0.00000000000E+00  0.00000000000E+00  0.20486550259E+04  0.20486550259E+04  0.25500000920E-02 0.  1.
       -2   -1    0    0    0  501  0.00000000000E+00  0.00000000000E+00 -0.12989932394E+04  0.12989932394E+04  0.25500000920E-02 0. -1.
    10030    2    1    2    0    0  0.00000000000E+00  0.00000000000E+00  0.74966178656E+03  0.33476482653E+04  0.32626302448E+04 0.  0.
        4    1    3    3  502    0  0.14614690953E+04 -0.13940817996E+03  0.11046034058E+04  0.18372470858E+04  0.12699999809E+01 0.  1.
       -4    1    3    3    0  502 -0.14614690953E+04  0.13940817996E+03 -0.35494161924E+03  0.15104011795E+04  0.12699999809E+01 0. -1.
</event>
<event>
 5   0  0.4344980E-06  0.2048845E+04  0.7818609E-02  0.8584119E-01
        2   -1    0    0  501    0  0.00000000000E+00  0.00000000000E+00  0.80118998930E+03  0.80118998930E+03  0.25500000920E-02 0. -1.
       -2   -1    0    0    0  501  0.00000000000E+00  0.00000000000E+00 -0.13098530992E+04  0.13098530992E+04  0.25500000920E-02 0.  1.
    10030    2    1    2    0    0  0.00000000000E+00  0.00000000000E+00 -0.50866310989E+03  0.21110430885E+04  0.20488447384E+04 0.  0.
        3    1    3    3  502    0 -0.92209653059E+03  0.41067494671E+03 -0.74312817411E+02  0.10121454088E+04  0.10100000352E+00 0.  1.
       -3    1    3    3    0  502  0.92209653059E+03 -0.41067494671E+03 -0.43435029248E+03  0.10988976797E+04  0.10100000352E+00 0. -1.
</event>
<event>
 5   0  0.1550164E-06  0.3357240E+04  0.7818609E-02  0.8148482E-01
        1   -1    0    0  501    0  0.00000000000E+00  0.00000000000E+00  0.23830718219E+04  0.23830718219E+04  0.50400001928E-02 0. -1.
       -1   -1    0    0    0  501  0.00000000000E+00  0.00000000000E+00 -0.11824086241E+04  0.11824086241E+04  0.50400001928E-02 0.  1.
    10030    2    1    2    0    0  0.00000000000E+00  0.00000000000E+00  0.12006631978E+04  0.35654804460E+04  0.33572397437E+04 0.  0.
        4    1    3    3  502    0  0.28941813540E+03 -0.14982405095E+04  0.13432010058E+04  0.20328989242E+04  0.12699999809E+01 0.  1.
       -4    1    3    3    0  502 -0.28941813540E+03  0.14982405095E+04 -0.14253780806E+03  0.15325815218E+04  0.12699999809E+01 0. -1.
</event>
<event>
 5   0  0.4400349E-06  0.3400156E+04  0.7818609E-02  0.8137868E-01
       -2   -1    0    0    0  501  0.00000000000E+00  0.00000000000E+00  0.15397686789E+04  0.15397686789E+04  0.25500000920E-02 0. -1.
        2   -1    0    0  501    0  0.00000000000E+00  0.00000000000E+00 -0.18770777721E+04  0.18770777721E+04  0.25500000920E-02 0.  1.
    10030    2    1    2    0    0  0.00000000000E+00  0.00000000000E+00 -0.33730909319E+03  0.34168464511E+04  0.34001562090E+04 0.  0.
        5    1    3    3  502    0  0.12921945234E+04 -0.55809097105E+03 -0.11267553905E+04  0.18030063833E+04  0.46999998093E+01 0.  1.
       -5    1    3    3    0  502 -0.12921945234E+04  0.55809097105E+03  0.78944629728E+03  0.16138400678E+04  0.46999998093E+01 0. -1.
</event>
<event>
 5   0  0.4189587E-06  0.3377629E+04  0.7818609E-02  0.8143419E-01
       -2   -1    0    0    0  501  0.00000000000E+00  0.00000000000E+00  0.19635462032E+04  0.19635462032E+04  0.25500000920E-02 0.  1.
        2   -1    0    0  501    0  0.00000000000E+00  0.00000000000E+00 -0.14525222049E+04  0.14525222049E+04  0.25500000920E-02 0. -1.
    10030    2    1    2    0    0  0.00000000000E+00  0.00000000000E+00  0.51102399832E+03  0.34160684081E+04  0.33776290267E+04 0.  0.
        1    1    3    3  502    0 -0.13449026574E+03  0.14621253155E+04 -0.58836761275E+03  0.15817947141E+04  0.50400001928E-02 0. -1.
       -1    1    3    3    0  502  0.13449026574E+03 -0.14621253155E+04  0.10993916111E+04  0.18342736940E+04  0.50400001928E-02 0.  1.
</event>
<event>
 5   0  0.4173467E-06  0.3383121E+04  0.7818609E-02  0.8142061E-01
       -2   -1    0    0    0  501  0.00000000000E+00  0.00000000000E+00  0.21650138883E+04  0.21650138883E+04  0.25500000920E-02 0.  1.
        2   -1    0    0  501    0  0.00000000000E+00  0.00000000000E+00 -0.13216434805E+04  0.13216434805E+04  0.25500000920E-02 0. -1.
    10030    2    1    2    0    0  0.00000000000E+00  0.00000000000E+00  0.84337040784E+03  0.34866573687E+04  0.33831207431E+04 0.  0.
        4    1    3    3  502    0  0.15908881439E+04  0.66951707411E+02  0.10100934695E+04  0.18856558667E+04  0.12699999809E+01 0.  1.
       -4    1    3    3    0  502 -0.15908881439E+04 -0.66951707411E+02 -0.16672306170E+03  0.16010015021E+04  0.12699999809E+01 0. -1.
</event>
<event>
 5   0  0.4173467E-06  0.3420837E+04  0.7818609E-02  0.8132811E-01
        2   -1    0    0  501    0  0.00000000000E+00  0.00000000000E+00  0.18416220526E+04  0.18416220526E+04  0.25500000920E-02 0.  1.
       -2   -1    0    0    0  501  0.00000000000E+00  0.00000000000E+00 -0.15885625355E+04  0.15885625355E+04  0.25500000920E-02 0. -1.
    10030    2    1    2    0    0  0.00000000000E+00  0.00000000000E+00  0.25305951706E+03  0.34301845881E+04  0.34208372059E+04 0.  0.
        4    1    3    3  502    0  0.52671277109E+03 -0.16215658744E+04 -0.10327453573E+02  0.17049957470E+04  0.12699999809E+01 0.  1.
       -4    1    3    3    0  502 -0.52671277109E+03  0.16215658744E+04  0.26338697063E+03  0.17251888411E+04  0.12699999809E+01 0. -1.
</event>
<event>
 5   0  0.1571391E-06  0.3401876E+04  0.7818609E-02  0.8137446E-01
       -1   -1    0    0    0  501  0.00000000000E+00  0.00000000000E+00  0.22575416165E+04  0.22575416165E+04  0.50400001928E-02 0. -1.
        1   -1    0    0  501    0  0.00000000000E+00  0.00000000000E+00 -0.12815666744E+04  0.12815666744E+04  0.50400001928E-02 0.  1.
    10030    2    1    2    0    0  0.00000000000E+00  0.00000000000E+00  0.97597494208E+03  0.35391082909E+04  0.34018760129E+04 0.  0.
        1    1    3    3  502    0  0.14283688255E+04  0.91628882095E+03  0.60826895840E+03  0.18027240029E+04  0.50400001928E-02 0. -1.
       -1    1    3    3    0  502 -0.14283688255E+04 -0.91628882095E+03  0.36770598368E+03  0.17363842879E+04  0.50400001928E-02 0.  1.
</event>
<event>
 5   0  0.1571391E-06  0.3345752E+04  0.7818609E-02  0.8151350E-01
        1   -1    0    0  501    0  0.00000000000E+00  0.00000000000E+00  0.17961653966E+04  0.17961653966E+04  0.50400001928E-02 0.  1.
       -1   -1    0    0    0  501  0.00000000000E+00  0.00000000000E+00 -0.15580496933E+04  0.15580496933E+04  0.50400001928E-02 0. -1.
    10030    2    1    2    0    0  0.00000000000E+00  0.00000000000E+00  0.23811570333E+03  0.33542150899E+04  0.33457524985E+04 0.  0.
        1    1    3    3  502    0  0.15261159155E+04  0.62588179691E+03 -0.16049711976E+03  0.16572619397E+04  0.50400001928E-02 0.  1.
       -1    1    3    3    0  502 -0.15261159155E+04 -0.62588179691E+03  0.39861282309E+03  0.16969531502E+04  0.50400001928E-02 0. -1.
</event>
<event>
 5   0  0.1562618E-06  0.3362953E+04  0.7818609E-02  0.8147059E-01
        1   -1    0    0  501    0  0.00000000000E+00  0.00000000000E+00  0.15466958924E+04  0.15466958924E+04  0.50400001928E-02 0. -1.
       -1   -1    0    0    0  501  0.00000000000E+00  0.00000000000E+00 -0.18280016458E+04  0.18280016458E+04  0.50400001928E-02 0.  1.
    10030    2    1    2    0    0  0.00000000000E+00  0.00000000000E+00 -0.28130575341E+03  0.33746975382E+04  0.33629526532E+04 0.  0.
        2    1    3    3  502    0  0.29340465816E+03 -0.60635204145E+03  0.14053813618E+04  0.15584754934E+04  0.25500000920E-02 0. -1.
       -2    1    3    3    0  502 -0.29340465816E+03  0.60635204145E+03 -0.16866871152E+04  0.18162220448E+04  0.25500000920E-02 0.  1.
</event>
<event>
 5   0  0.4173467E-06  0.3340719E+04  0.7818609E-02  0.8152611E-01
        2   -1    0    0  501    0  0.00000000000E+00  0.00000000000E+00  0.10694154920E+04  0.10694154920E+04  0.25500000920E-02 0. -1.
       -2   -1    0    0    0  501  0.00000000000E+00  0.00000000000E+00 -0.26089962419E+04  0.26089962419E+04  0.25500000920E-02 0.  1.
    10030    2    1    2    0    0  0.00000000000E+00  0.00000000000E+00 -0.15395807500E+04  0.36784117339E+04  0.33407190841E+04 0.  0.
        4    1    3    3  502    0  0.27500704803E+03 -0.28943968396E+03  0.10161034918E+04  0.10917289618E+04  0.12699999809E+01 0. -1.
       -4    1    3    3    0  502 -0.27500704803E+03  0.28943968396E+03 -0.25556842418E+04  0.25866827721E+04  0.12699999809E+01 0.  1.
</event>
<event>
 5   0  0.4173467E-06  0.3347079E+04  0.7818609E-02  0.8151018E-01
       -2   -1    0    0    0  501  0.00000000000E+00  0.00000000000E+00  0.18347956299E+04  0.18347956299E+04  0.25500000920E-02 0.  1.
        2   -1    0    0  501    0  0.00000000000E+00  0.00000000000E+00 -0.15264560307E+04  0.15264560307E+04  0.25500000920E-02 0. -1.
    10030    2    1    2    0    0  0.00000000000E+00  0.00000000000E+00  0.30833959921E+03  0.33612516605E+04  0.33470792367E+04 0.  0.
        4    1    3    3  502    0  0.14520249043E+04 -0.46655811225E+03  0.84605765445E+03  0.17440951701E+04  0.12699999809E+01 0. -1.
       -4    1    3    3    0  502 -0.14520249043E+04  0.46655811225E+03 -0.53771805524E+03  0.16171564905E+04  0.12699999809E+01 0.  1.
</event>
<event>
 5   0  0.2101998E-06  0.3397113E+04  0.7818609E-02  0.8138615E-01
        1   -1    0    0  501    0  0.00000000000E+00  0.00000000000E+00  0.17890815128E+04  0.17890815128E+04  0.50400001928E-02 0.  1.
       -1   -1    0    0    0  501  0.00000000000E+00  0.00000000000E+00 -0.16126115528E+04  0.16126115528E+04  0.50400001928E-02 0. -1.
    10030    2    1    2    0    0  0.00000000000E+00  0.00000000000E+00  0.17646995993E+03  0.34016930656E+04  0.33971126072E+04 0.  0.
        5    1    3    3  502    0 -0.10183209192E+04 -0.23963299475E+02  0.14493026549E+04  0.17714547721E+04  0.46999998093E+01 0.  1.
       -5    1    3    3    0  502  0.10183209192E+04  0.23963299475E+02 -0.12728326950E+04  0.16302382935E+04  0.46999998093E+01 0. -1.
</event>
<event>
 5   0  0.4173467E-06  0.3467367E+04  0.7818609E-02  0.8121567E-01
        2   -1    0    0  501    0  0.00000000000E+00  0.00000000000E+00  0.14301484780E+04  0.14301484780E+04  0.25500000920E-02 0.  1.
       -2   -1    0    0    0  501  0.00000000000E+00  0.00000000000E+00 -0.21016404780E+04  0.21016404780E+04  0.25500000920E-02 0. -1.
    10030    2    1    2    0    0  0.00000000000E+00  0.00000000000E+00 -0.67149199993E+03  0.35317889560E+04  0.34673666844E+04 0.  0.
        4    1    3    3  502    0  0.49339884178E+03 -0.16291237801E+04 -0.74384218917E+00  0.17022011850E+04  0.12699999809E+01 0.  1.
       -4    1    3    3    0  502 -0.49339884178E+03  0.16291237801E+04 -0.67074815774E+03  0.18295877710E+04  0.12699999809E+01 0. -1.
</event>
<event>
 5   0  0.1571391E-06  0.3546942E+04  0.7818609E-02  0.8102754E-01
        1   -1    0    0  501    0  0.00000000000E+00  0.00000000000E+00  0.24333288600E+04  0.24333288600E+04  0.50400001928E-02 0.  1.
       -1   -1    0    0    0  501  0.00000000000E+00  0.00000000000E+00 -0.12925503352E+04  0.12925503352E+04  0.50400001928E-02 0. -1.
    10030    2    1    2    0    0  0.00000000000E+00  0.00000000000E+00  0.11407785248E+04  0.37258791952E+04  0.35469423641E+04 0.  0.
        1    1    3    3  502    0  0.12211671183E+04  0.54212674416E+03  0.17954341297E+04  0.22380201634E+04  0.50400001928E-02 0.  1.
       -1    1    3    3    0  502 -0.12211671183E+04 -0.54212674416E+03 -0.65465560489E+03  0.14878590318E+04  0.50400001928E-02 0. -1.
</event>
<event>
 5   0  0.2101998E-06  0.2273851E+04  0.7818609E-02  0.8488303E-01
        1   -1    0    0  501    0  0.00000000000E+00  0.00000000000E+00  0.15283624304E+04  0.15283624304E+04  0.50400001928E-02 0.  1.
       -1   -1    0    0    0  501  0.00000000000E+00  0.00000000000E+00 -0.84574137334E+03  0.84574137336E+03  0.50400001928E-02 0. -1.
    10030    2    1    2    0    0  0.00000000000E+00  0.00000000000E+00  0.68262105709E+03  0.23741038038E+04  0.22738507787E+04 0.  0.
        5    1    3    3  502    0  0.85319373001E+03 -0.39264326142E+03  0.10102362778E+04  0.13793867111E+04  0.46999998093E+01 0.  1.
       -5    1    3    3    0  502 -0.85319373001E+03  0.39264326142E+03 -0.32761522076E+03  0.99471709271E+03  0.46999998093E+01 0. -1.
</event>
<event>
 5   0  0.2101998E-06  0.3555567E+04  0.7818609E-02  0.8100746E-01
       -1   -1    0    0    0  501  0.00000000000E+00  0.00000000000E+00  0.14125355141E+04  0.14125355141E+04  0.50400001928E-02 0. -1.
        1   -1    0    0  501    0  0.00000000000E+00  0.00000000000E+00 -0.22374759418E+04  0.22374759418E+04  0.50400001928E-02 0.  1.
    10030    2    1    2    0    0  0.00000000000E+00  0.00000000000E+00 -0.82494042766E+03  0.36500114559E+04  0.35555670320E+04 0.  0.
        5    1    3    3  502    0 -0.15141390166E+04  0.13937579614E+03  0.53310999262E+03  0.16112947987E+04  0.46999998093E+01 0. -1.
       -5    1    3    3    0  502  0.15141390166E+04 -0.13937579614E+03 -0.13580504203E+04  0.20387166572E+04  0.46999998093E+01 0.  1.
</event>
<event>
 5   0  0.4400349E-06  0.3467672E+04  0.7818609E-02  0.8121494E-01
        2   -1    0    0  501    0  0.00000000000E+00  0.00000000000E+00  0.15380169542E+04  0.15380169542E+04  0.25500000920E-02 0.  1.
       -2   -1    0    0    0  501  0.00000000000E+00  0.00000000000E+00 -0.19545867710E+04  0.19545867710E+04  0.25500000920E-02 0. -1.
    10030    2    1    2    0    0  0.00000000000E+00  0.00000000000E+00 -0.41656981685E+03  0.34926037252E+04  0.34676721830E+04 0.  0.
        5    1    3    3  502    0 -0.12224039209E+04  0.60422808848E+03  0.87030314989E+03  0.16176565122E+04  0.46999998093E+01 0. -1.
       -5    1    3    3    0  502  0.12224039209E+04 -0.60422808848E+03 -0.12868729667E+04  0.18749472130E+04  0.46999998093E+01 0.  1.
</event>
<event>
 5   0  0.4400349E-06  0.3407689E+04  0.7818609E-02  0.8136022E-01
       -2   -1    0    0    0  501  0.00000000000E+00  0.00000000000E+00  0.26508182097E+04  0.26508182097E+04  0.25500000920E-02 0.  1.
        2   -1    0    0  501    0  0.00000000000E+00  0.00000000000E+00 -0.10951660889E+04  0.10951660889E+04  0.25500000920E-02 0. -1.
    10030    2    1    2    0    0  0.00000000000E+00  0.00000000000E+00  0.15556521208E+04  0.37459842985E+04  0.34076890768E+04 0.  0.
        5    1    3    3  502    0 -0.94915191307E+03 -0.93099352569E+02  0.23299089215E+04  0.25175493076E+04  0.46999998093E+01 0.  1.
       -5    1    3    3    0  502  0.94915191307E+03  0.93099352569E+02 -0.77425680073E+03  0.12284349910E+04  0.46999998093E+01 0. -1.
</event>
<event>
 5   0  0.2722449E-06  0.3394319E+04  0.7818609E-02  0.8139302E-01
       -2   -1    0    0    0  501  0.00000000000E+00  0.00000000000E+00  0.11903174241E+04  0.11903174241E+04  0.25500000920E-02 0.  1.
        2   -1    0    0  501    0  0.00000000000E+00  0.00000000000E+00 -0.24198163644E+04  0.24198163644E+04  0.25500000920E-02 0. -1.
    10030    2    1    2    0    0  0.00000000000E+00  0.00000000000E+00 -0.12294989404E+04  0.36101337885E+04  0.33943185364E+04 0.  0.
        2    1    3    3  502    0 -0.57516231653E+03  0.10266706279E+04 -0.19154034588E+04  0.22480290653E+04  0.25500000920E-02 0. -1.
       -2    1    3    3    0  502  0.57516231653E+03 -0.10266706279E+04  0.68590451843E+03  0.13621047232E+04  0.25500000920E-02 0.  1.
</event>
<event>
 5   0  0.1571391E-06  0.3259554E+04  0.7818609E-02  0.8173264E-01
       -1   -1    0    0    0  501  0.00000000000E+00  0.00000000000E+00  0.15692657593E+04  0.15692657593E+04  0.50400001928E-02 0. -1.
        1   -1    0    0  501    0  0.00000000000E+00  0.00000000000E+00 -0.16926216663E+04  0.16926216663E+04  0.50400001928E-02 0.  1.
    10030    2    1    2    0    0  0.00000000000E+00  0.00000000000E+00 -0.12335590697E+03  0.32618874256E+04  0.32595540949E+04 0.  0.
        1    1    3    3  502    0 -0.13261244057E+04 -0.46681244330E+03  0.76332315390E+03  0.15997443651E+04  0.50400001928E-02 0. -1.
       -1    1    3    3    0  502  0.13261244057E+04  0.46681244330E+03 -0.88667906087E+03  0.16621430605E+04  0.50400001928E-02 0.  1.
</event>
<event>
 5   0  0.4400349E-06  0.3432741E+04  0.7818609E-02  0.8129917E-01
       -2   -1    0    0    0  501  0.00000000000E+00  0.00000000000E+00  0.94853286023E+03  0.94853286023E+03  0.25500000920E-02 0.  1.
        2   -1    0    0  501    0  0.00000000000E+00  0.00000000000E+00 -0.31057724605E+04  0.31057724605E+04  0.25500000920E-02 0. -1.
    10030    2    1    2    0    0  0.00000000000E+00  0.00000000000E+00 -0.21572396002E+04  0.40543053207E+04  0.34327407331E+04 0.  0.
        5    1    3    3  502    0 -0.13883137106E+04  0.10073900346E+04 -0.10072114349E+04  0.19891572602E+04  0.46999998093E+01 0. -1.
       -5    1    3    3    0  502  0.13883137106E+04 -0.10073900346E+04 -0.11500281653E+04  0.20651480605E+04  0.46999998093E+01 0.  1.
</event>
<event>
 5   0  0.1654257E-06  0.2032869E+04  0.7818609E-02  0.8591406E-01
        1   -1    0    0  501    0  0.00000000000E+00  0.00000000000E+00  0.14203866895E+04  0.14203866895E+04  0.50400001928E-02 0. -1.
       -1   -1    0    0    0  501  0.00000000000E+00  0.00000000000E+00 -0.72736450417E+03  0.72736450419E+03  0.50400001928E-02 0.  1.
    10030    2    1    2    0    0  0.00000000000E+00  0.00000000000E+00  0.69302218535E+03  0.21477511937E+04  0.20328687712E+04 0.  0.
        3    1    3    3  502    0  0.57169188833E+03 -0.51414812077E+03  0.10488805028E+04  0.13005115242E+04  0.10100000352E+00 0. -1.
       -3    1    3    3    0  502 -0.57169188833E+03  0.51414812077E+03 -0.35585831745E+03  0.84723966950E+03  0.10100000352E+00 0.  1.
</event>
<event>
 5   0  0.4189587E-06  0.3075702E+04  0.7818609E-02  0.8222438E-01
       -2   -1    0    0    0  501  0.00000000000E+00  0.00000000000E+00  0.12562221107E+04  0.12562221107E+04  0.25500000920E-02 0. -1.
        2   -1    0    0  501    0  0.00000000000E+00  0.00000000000E+00 -0.18826177227E+04  0.18826177227E+04  0.25500000920E-02 0.  1.
    10030    2    1    2    0    0  0.00000000000E+00  0.00000000000E+00 -0.62639561198E+03  0.31388398333E+04  0.30757022022E+04 0.  0.
        1    1    3    3  502    0  0.13184634544E+04  0.53926709512E+03 -0.90460328863E+03  0.16874424406E+04  0.50400001928E-02 0.  1.
       -1    1    3    3    0  502 -0.13184634544E+04 -0.53926709512E+03  0.27820767665E+03  0.14513973928E+04  0.50400001928E-02 0. -1.
</event>
<event>
 5   0  0.4344980E-06  0.3513600E+04  0.7818609E-02  0.8110574E-01
       -2   -1    0    0    0  501  0.00000000000E+00  0.00000000000E+00  0.10881126392E+04  0.10881126392E+04  0.25500000920E-02 0.  1.
        2   -1    0    0  501    0  0.00000000000E+00  0.00000000000E+00 -0.28364221622E+04  0.28364221622E+04  0.25500000920E-02 0. -1.
    10030    2    1    2    0    0  0.00000000000E+00  0.00000000000E+00 -0.17483095230E+04  0.39245348015E+04  0.35136003215E+04 0.  0.
        3    1    3    3  502    0 -0.16166369522E+04 -0.18410552141E+03 -0.13414596773E+03  0.16326068201E+04  0.10100000352E+00 0.  1.
       -3    1    3    3    0  502  0.16166369522E+04  0.18410552141E+03 -0.16141635553E+04  0.22919279813E+04  0.10100000352E+00 0. -1.
</event>
<event>
 5   0  0.1550164E-06  0.3417283E+04  0.7818609E-02  0.8133677E-01
       -1   -1    0    0    0  501  0.00000000000E+00  0.00000000000E+00  0.11141748309E+04  0.11141748309E+04  0.50400001928E-02 0.  1.
        1   -1    0    0  501    0  0.00000000000E+00  0.00000000000E+00 -0.26202851880E+04  0.26202851880E+04  0.50400001928E-02 0. -1.
    10030    2    1    2    0    0  0.00000000000E+00  0.00000000000E+00 -0.15061103571E+04  0.37344600190E+04  0.34172830180E+04 0.  0.
        4    1    3    3  502    0  0.15667380044E+04 -0.54353891314E+03 -0.30333579554E+03  0.16858578654E+04  0.12699999809E+01 0.  1.
       -4    1    3    3    0  502 -0.15667380044E+04  0.54353891314E+03 -0.12027745616E+04  0.20486021535E+04  0.12699999809E+01 0. -1.
</event>
<event>
 5   0  0.4344980E-06  0.2790361E+04  0.7818609E-02  0.8306267E-01
        2   -1    0    0  501    0  0.00000000000E+00  0.00000000000E+00  0.14352858745E+04  0.14352858745E+04  0.25500000920E-02 0.  1.
       -2   -1    0    0    0  501  0.00000000000E+00  0.00000000000E+00 -0.13561959430E+04  0.13561959430E+04  0.25500000920E-02 0. -1.
    10030    2    1    2    0    0  0.00000000000E+00  0.00000000000E+00  0.79089931517E+02  0.27914818174E+04  0.27903611809E+04 0.  0.
        3    1    3    3  502    0 -0.87024846953E+03  0.10725733762E+04  0.23655760780E+03  0.14013227887E+04  0.10100000352E+00 0.  1.
       -3    1    3    3    0  502  0.87024846953E+03 -0.10725733762E+04 -0.15746767629E+03  0.13901590288E+04  0.10100000352E+00 0. -1.
</event>
<event>
 5   0  0.2722449E-06  0.3354337E+04  0.7818609E-02  0.8149205E-01
        2   -1    0    0  501    0  0.00000000000E+00  0.00000000000E+00  0.15410354627E+04  0.15410354627E+04  0.25500000920E-02 0. -1.
       -2   -1    0    0    0  501  0.00000000000E+00  0.00000000000E+00 -0.18253270558E+04  0.18253270558E+04  0.25500000920E-02 0.  1.
    10030    2    1    2    0    0  0.00000000000E+00  0.00000000000E+00 -0.28429159312E+03  0.33663625185E+04  0.33543367297E+04 0.  0.
        2    1    3    3  502    0  0.77128586866E+02  0.48090873257E+03  0.14684979018E+04  0.15471613088E+04  0.25500000920E-02 0. -1.
       -2    1    3    3    0  502 -0.77128586866E+02 -0.48090873257E+03 -0.17527894949E+04  0.18192012097E+04  0.25500000920E-02 0.  1.
</event>
<event>
 5   0  0.4173467E-06  0.3226436E+04  0.7818609E-02  0.8181870E-01
        2   -1    0    0  501    0  0.00000000000E+00  0.00000000000E+00  0.23123107450E+04  0.23123107450E+04  0.25500000920E-02 0.  1.
       -2   -1    0    0    0  501  0.00000000000E+00  0.00000000000E+00 -0.11254854524E+04  0.11254854524E+04  0.25500000920E-02 0. -1.
    10030    2    1    2    0    0  0.00000000000E+00  0.00000000000E+00  0.11868252926E+04  0.34377961974E+04  0.32264358695E+04 0.  0.
        4    1    3    3  502    0 -0.10486625067E+04 -0.51387300695E+03 -0.59247148353E+03  0.13094970759E+04  0.12699999809E+01 0. -1.
       -4    1    3    3    0  502  0.10486625067E+04  0.51387300695E+03  0.17792967761E+04  0.21282991215E+04  0.12699999809E+01 0.  1.
</event>
<event>
 5   0  0.4344980E-06  0.3158686E+04  0.7818609E-02  0.8199814E-01
        2   -1    0    0  501    0  0.00000000000E+00  0.00000000000E+00  0.13781808379E+04  0.13781808379E+04  0.25500000920E-02 0. -1.
       -2   -1    0    0    0  501  0.00000000000E+00  0.00000000000E+00 -0.18098669894E+04  0.18098669894E+04  0.25500000920E-02 0.  1.
    10030    2    1    2    0    0  0.00000000000E+00  0.00000000000E+00 -0.43168615147E+03  0.31880478273E+04  0.31586858052E+04 0.  0.
        3    1    3    3  502    0  0.14660173914E+04 -0.54673926002E+03 -0.43276694693E+03  0.16233970712E+04  0.10100000352E+00 0. -1.
       -3    1    3    3    0  502 -0.14660173914E+04  0.54673926002E+03  0.10807954563E+01  0.15646507561E+04  0.10100000352E+00 0.  1.
</event>
<event>
 5   0  0.4173467E-06  0.3383166E+04  0.7818609E-02  0.8142050E-01
       -2   -1    0    0    0  501  0.00000000000E+00  0.00000000000E+00  0.20952523560E+04  0.20952523560E+04  0.25500000920E-02 0.  1.
        2   -1    0    0  501    0  0.00000000000E+00  0.00000000000E+00 -0.13656844592E+04  0.13656844592E+04  0.25500000920E-02 0. -1.
    10030    2    1    2    0    0  0.00000000000E+00  0.00000000000E+00  0.72956789679E+03  0.34609368152E+04  0.33831663161E+04 0.  0.
        4    1    3    3  502    0  0.15346790187E+04  0.26225151010E+03 -0.31180950770E+03  0.15878420347E+04  0.12699999809E+01 0. -1.
       -4    1    3    3    0  502 -0.15346790187E+04 -0.26225151010E+03  0.10413774045E+04  0.18730947805E+04  0.12699999809E+01 0.  1.
</event>
<event>
 5   0  0.4173467E-06  0.3304997E+04  0.7818609E-02  0.8161625E-01
       -2   -1    0    0    0  501  0.00000000000E+00  0.00000000000E+00  0.11713930920E+04  0.11713930920E+04  0.25500000920E-02 0. -1.
        2   -1    0    0  501    0  0.00000000000E+00  0.00000000000E+00 -0.23311994547E+04  0.23311994547E+04  0.25500000920E-02 0.  1.
    10030    2    1    2    0    0  0.00000000000E+00  0.00000000000E+00 -0.11598063627E+04  0.35025925467E+04  0.33049967851E+04 0.  0.
        4    1    3    3  502    0  0.17241717558E+03  0.60077519432E+03  0.10412906148E+04  0.12144736613E+04  0.12699999809E+01 0. -1.
       -4    1    3    3    0  502 -0.17241717558E+03 -0.60077519432E+03 -0.22010969775E+04  0.22881188855E+04  0.12699999809E+01 0.  1.
</event>
<event>
 5   0  0.1550164E-06  0.2094197E+04  0.7818609E-02  0.8563804E-01
       -1   -1    0    0    0  501  0.00000000000E+00  0.00000000000E+00  0.98727019537E+03  0.98727019538E+03  0.50400001928E-02 0. -1.
        1   -1    0    0  501    0  0.00000000000E+00  0.00000000000E+00 -0.11105522206E+04  0.11105522206E+04  0.50400001928E-02 0.  1.
    10030    2    1    2    0    0  0.00000000000E+00  0.00000000000E+00 -0.12328202525E+03  0.20978224160E+04  0.20941968464E+04 0.  0.
        4    1    3    3  502    0  0.58576474604E+03 -0.68496514037E+03  0.47230703192E+03  0.10175328626E+04  0.12699999809E+01 0. -1.
       -4    1    3    3    0  502 -0.58576474604E+03  0.68496514037E+03 -0.59558905716E+03  0.10802895534E+04  0.12699999809E+01 0.  1.
</event>
<event>
 5   0  0.4400349E-06  0.2117722E+04  0.7818609E-02  0.8553477E-01
        2   -1    0    0  501    0  0.00000000000E+00  0.00000000000E+00  0.15446974375E+04  0.15446974375E+04  0.25500000920E-02 0. -1.
       -2   -1    0    0    0  501  0.00000000000E+00  0.00000000000E+00 -0.72582918146E+03  0.72582918146E+03  0.25500000920E-02 0.  1.
    10030    2    1    2    0    0  0.00000000000E+00  0.00000000000E+00  0.81886825602E+03  0.22705266190E+04  0.21177218672E+04 0.  0.
        5    1    3    3  502    0  0.86400418802E+03  0.27395355847E+02  0.10650381225E+04  0.13717077075E+04  0.46999998093E+01 0. -1.
       -5    1    3    3    0  502 -0.86400418802E+03 -0.27395355847E+02 -0.24616986646E+03  0.89881891146E+03  0.46999998093E+01 0.  1.
</event>
<event>
 5   0  0.4173467E-06  0.3461180E+04  0.7818609E-02  0.8123052E-01
       -2   -1    0    0    0  501  0.00000000000E+00  0.00000000000E+00  0.12971600765E+04  0.12971600765E+04  0.25500000920E-02 0.  1.
        2   -1    0    0  501    0  0.00000000000E+00  0.00000000000E+00 -0.23088454991E+04  0.23088454991E+04  0.25500000920E-02 0. -1.
    10030    2    1    2    0    0  0.00000000000E+00  0.00000000000E+00 -0.10116854226E+04  0.36060055756E+04  0.34611802636E+04 0.  0.
        4    1    3    3  502    0  0.38810219755E+03 -0.10396184879E+04 -0.18893811251E+04  0.21911623776E+04  0.12699999809E+01 0. -1.
       -4    1    3    3    0  502 -0.38810219755E+03  0.10396184879E+04  0.87769570246E+03  0.14148431981E+04  0.12699999809E+01 0.  1.
</event>
<event>
 5   0  0.1654257E-06  0.3285813E+04  0.7818609E-02  0.8166515E-01
        1   -1    0    0  501    0  0.00000000000E+00  0.00000000000E+00  0.15887677580E+04  0.15887677580E+04  0.50400001928E-02 0. -1.
       -1   -1    0    0    0  501  0.00000000000E+00  0.00000000000E+00 -0.16988897286E+04  0.16988897286E+04  0.50400001928E-02 0.  1.
    10030    2    1    2    0    0  0.00000000000E+00  0.00000000000E+00 -0.11012197067E+03  0.32876574866E+04  0.32858126698E+04 0.  0.
        3    1    3    3  502    0  0.10771366130E+04  0.11523651893E+04 -0.51463619073E+03  0.16592224781E+04  0.10100000352E+00 0.  1.
       -3    1    3    3    0  502 -0.10771366130E+04 -0.11523651893E+04  0.40451422006E+03  0.16284350086E+04  0.10100000352E+00 0. -1.
</event>
<event>
 5   0  0.4344980E-06  0.3267445E+04  0.7818609E-02  0.8171229E-01
        2   -1    0    0  501    0  0.00000000000E+00  0.00000000000E+00  0.15525208514E+04  0.15525208514E+04  0.25500000920E-02 0. -1.
       -2   -1    0    0    0  501  0.00000000000E+00  0.00000000000E+00 -0.17191707429E+04  0.17191707429E+04  0.25500000920E-02 0.  1.
    10030    2    1    2    0    0  0.00000000000E+00  0.00000000000E+00 -0.16664989150E+03  0.32716915942E+04  0.32674445216E+04 0.  0.
        3    1    3    3  502    0  0.36912630261E+03 -0.58050735928E+03 -0.15670760651E+04  0.17114235085E+04  0.10100000352E+00 0.  1.
       -3    1    3    3    0  502 -0.36912630261E+03  0.58050735928E+03  0.14004261736E+04  0.15602680857E+04  0.10100000352E+00 0. -1.
</event>
<event>
 5   0  0.1571391E-06  0.1677879E+04  0.7818609E-02  0.8774082E-01
        1   -1    0    0  501    0  0.00000000000E+00  0.00000000000E+00  0.14292744472E+04  0.14292744472E+04  0.50400001928E-02 0.  1.
       -1   -1    0    0    0  501  0.00000000000E+00  0.00000000000E+00 -0.49243125432E+03  0.49243125435E+03  0.50400001928E-02 0. -1.
    10030    2    1    2    0    0  0.00000000000E+00  0.00000000000E+00  0.93684319288E+03  0.19217057016E+04  0.16778789096E+04 0.  0.
        1    1    3    3  502    0 -0.30171527173E+03 -0.20276302530E+03  0.13343872324E+04  0.13830163541E+04  0.50400001928E-02 0.  1.
       -1    1    3    3    0  502  0.30171527173E+03  0.20276302530E+03 -0.39754403956E+03  0.53868934744E+03  0.50400001928E-02 0. -1.
</event>
<event>
 5   0  0.2722449E-06  0.3768357E+04  0.7818609E-02  0.8052980E-01
        2   -1    0    0  501    0  0.00000000000E+00  0.00000000000E+00  0.24162773470E+04  0.24162773470E+04  0.25500000920E-02 0. -1.
       -2   -1    0    0    0  501  0.00000000000E+00  0.00000000000E+00 -0.14692553846E+04  0.14692553846E+04  0.25500000920E-02 0.  1.
    10030    2    1    2    0    0  0.00000000000E+00  0.00000000000E+00  0.94702196240E+03  0.38855327316E+04  0.37683569379E+04 0.  0.
        2    1    3    3  502    0  0.17213079677E+04 -0.59446884145E+03  0.97211128149E+03  0.20642903543E+04  0.25500000920E-02 0. -1.
       -2    1    3    3    0  502 -0.17213079677E+04  0.59446884145E+03 -0.25089319089E+02  0.18212423774E+04  0.25500000920E-02 0.  1.
</event>
<event>
 5   0  0.1562618E-06  0.2795092E+04  0.7818609E-02  0.8304794E-01
       -1   -1    0    0    0  501  0.00000000000E+00  0.00000000000E+00  0.19890376916E+04  0.19890376916E+04  0.50400001928E-02 0.  1.
        1   -1    0    0  501    0  0.00000000000E+00  0.00000000000E+00 -0.98194940466E+03  0.98194940467E+03  0.50400001928E-02 0. -1.
    10030    2    1    2    0    0  0.00000000000E+00  0.00000000000E+00  0.10070882869E+04  0.29709870962E+04  0.27950916816E+04 0.  0.
        2    1    3    3  502    0  0.63895025207E+03  0.91935891100E+03 -0.38554853588E+03  0.11841139748E+04  0.25500000920E-02 0. -1.
       -2    1    3    3    0  502 -0.63895025207E+03 -0.91935891100E+03  0.13926368228E+04  0.17868731214E+04  0.25500000920E-02 0.  1.
</event>
<event>
 5   0  0.2101998E-06  0.3443403E+04  0.7818609E-02  0.8127335E-01
       -1   -1    0    0    0  501  0.00000000000E+00  0.00000000000E+00  0.30091777153E+04  0.30091777153E+04  0.50400001928E-02 0. -1.
        1   -1    0    0  501    0  0.00000000000E+00  0.00000000000E+00 -0.98507173693E+03  0.98507173694E+03  0.50400001928E-02 0.  1.
    10030    2    1    2    0    0  0.00000000000E+00  0.00000000000E+00  0.20241059784E+04  0.39942494523E+04  0.34434029208E+04 0.  0.
        5    1    3    3  502    0 -0.74287876021E+03 -0.11333711859E+04  0.22439377224E+04  0.26213885041E+04  0.46999998093E+01 0. -1.
       -5    1    3    3    0  502  0.74287876021E+03  0.11333711859E+04 -0.21983174397E+03  0.13728609482E+04  0.46999998093E+01 0.  1.
</event>
<event>
 5   0  0.1571391E-06  0.3450129E+04  0.7818609E-02  0.8125711E-01
        1   -1    0    0  501    0  0.00000000000E+00  0.00000000000E+00  0.19913336287E+04  0.19913336287E+04  0.50400001928E-02 0. -1.
       -1   -1    0    0    0  501  0.00000000000E+00  0.00000000000E+00 -0.14943993893E+04  0.14943993893E+04  0.50400001928E-02 0.  1.
    10030    2    1    2    0    0  0.00000000000E+00  0.00000000000E+00  0.49693423938E+03  0.34857330179E+04  0.34501291330E+04 0.  0.
        1    1    3    3  502    0  0.75006164477E+03 -0.98142669395E+03  0.14650768813E+04  0.19163092378E+04  0.50400001928E-02 0. -1.
       -1    1    3    3    0  502 -0.75006164477E+03  0.98142669395E+03 -0.96814264196E+03  0.15694237802E+04  0.50400001928E-02 0.  1.
</event>
<event>
 5   0  0.1562618E-06  0.3332081E+04  0.7818609E-02  0.8154780E-01
        1   -1    0    0  501    0  0.00000000000E+00  0.00000000000E+00  0.28866858686E+04  0.28866858687E+04  0.50400001928E-02 0. -1.
       -1   -1    0    0    0  501  0.00000000000E+00  0.00000000000E+00 -0.96154934870E+03  0.96154934871E+03  0.50400001928E-02 0.  1.
    10030    2    1    2    0    0  0.00000000000E+00  0.00000000000E+00  0.19251365200E+04  0.38482352174E+04  0.33320809816E+04 0.  0.
        2    1    3    3  502    0  0.15068447595E+04  0.19528367293E+03  0.17517780194E+04  0.23189314503E+04  0.25500000920E-02 0. -1.
       -2    1    3    3    0  502 -0.15068447595E+04 -0.19528367293E+03  0.17335850056E+03  0.15293037670E+04  0.25500000920E-02 0.  1.
</event>
<event>
 5   0  0.4189587E-06  0.2257705E+04  0.7818609E-02  0.8494786E-01
        2   -1    0    0  501    0  0.00000000000E+00  0.00000000000E+00  0.13589103290E+04  0.13589103290E+04  0.25500000920E-02 0. -1.
       -2   -1    0    0    0  501  0.00000000000E+00  0.00000000000E+00 -0.93774280718E+03  0.93774280719E+03  0.25500000920E-02 0.  1.
    10030    2    1    2    0    0  0.00000000000E+00  0.00000000000E+00  0.42116752179E+03  0.22966531362E+04  0.22577053719E+04 0.  0.
        1    1    3    3  502    0 -0.41633620716E+03  0.28819673681E+03  0.12369064733E+04  0.13365368757E+04  0.50400001928E-02 0. -1.
       -1    1    3    3    0  502  0.41633620716E+03 -0.28819673681E+03 -0.81573895150E+03  0.96011626042E+03  0.50400001928E-02 0.  1.
</event>
<event>
 5   0  0.4173467E-06  0.3389842E+04  0.7818609E-02  0.8140404E-01
       -2   -1    0    0    0  501  0.00000000000E+00  0.00000000000E+00  0.11187726700E+04  0.11187726700E+04  0.25500000920E-02 0.  1.
        2   -1    0    0  501    0  0.00000000000E+00  0.00000000000E+00 -0.25677748919E+04  0.25677748919E+04  0.25500000920E-02 0. -1.
    10030    2    1    2    0    0  0.00000000000E+00  0.00000000000E+00 -0.14490022220E+04  0.36865475619E+04  0.33898415135E+04 0.  0.
        4    1    3    3  502    0  0.33403771477E+02  0.16512123789E+04 -0.31018772997E+03  0.16804273780E+04  0.12699999809E+01 0.  1.
       -4    1    3    3    0  502 -0.33403771477E+02 -0.16512123789E+04 -0.11388144920E+04  0.20061201839E+04  0.12699999809E+01 0. -1.
</event>
<event>
 5   0  0.4400349E-06  0.2120232E+04  0.7818609E-02  0.8552383E-01
       -2   -1    0    0    0  501  0.00000000000E+00  0.00000000000E+00  0.10002137504E+04  0.10002137504E+04  0.25500000920E-02 0. -1.
        2   -1    0    0  501    0  0.00000000000E+00  0.00000000000E+00 -0.11236052682E+04  0.11236052682E+04  0.25500000920E-02 0.  1.
    10030    2    1    2    0    0  0.00000000000E+00  0.00000000000E+00 -0.12339151780E+03  0.21238190187E+04  0.21202315339E+04 0.  0.
        5    1    3    3  502    0 -0.62903368862E+03  0.57116364775E+03  0.57334226877E+03  0.10250145077E+04  0.46999998093E+01 0. -1.
       -5    1    3    3    0  502  0.62903368862E+03 -0.57116364775E+03 -0.69673378657E+03  0.10988045109E+04  0.46999998093E+01 0.  1.
</event>
<event>
 5   0  0.1562618E-06  0.3361380E+04  0.7818609E-02  0.8147451E-01
       -1   -1    0    0    0  501  0.00000000000E+00  0.00000000000E+00  0.20741495510E+04  0.20741495510E+04  0.50400001928E-02 0.  1.
        1   -1    0    0  501    0  0.00000000000E+00  0.00000000000E+00 -0.13618683496E+04  0.13618683496E+04  0.50400001928E-02 0. -1.
    10030    2    1    2    0    0  0.00000000000E+00  0.00000000000E+00  0.71228120141E+03  0.34360179006E+04  0.33613798511E+04 0.  0.
        2    1    3    3  502    0  0.10670028364E+04  0.22548029613E+03  0.16633569161E+04  0.19889928725E+04  0.25500000920E-02 0.  1.
       -2    1    3    3    0  502 -0.10670028364E+04 -0.22548029613E+03 -0.95107571465E+03  0.14470250280E+04  0.25500000920E-02 0. -1.
</event>
<event>
 5   0  0.1654257E-06  0.3156211E+04  0.7818609E-02  0.8200478E-01
        1   -1    0    0  501    0  0.00000000000E+00  0.00000000000E+00  0.32579144331E+04  0.32579144331E+04  0.50400001928E-02 0.  1.
       -1   -1    0    0    0  501  0.00000000000E+00  0.00000000000E+00 -0.76442072839E+03  0.76442072841E+03  0.50400001928E-02 0. -1.
    10030    2    1    2    0    0  0.00000000000E+00  0.00000000000E+00  0.24934937047E+04  0.40223351615E+04  0.31562112249E+04 0.  0.
        3    1    3    3  502    0 -0.48005003546E+03 -0.11166808049E+04  0.25294184336E+04  0.28063110446E+04  0.10100000352E+00 0.  1.
       -3    1    3    3    0  502  0.48005003546E+03  0.11166808049E+04 -0.35924728913E+02  0.12160241169E+04  0.10100000352E+00 0. -1.
</event>
<event>
 5   0  0.1550164E-06  0.2121810E+04  0.7818609E-02  0.8551696E-01
        1   -1    0    0  501    0  0.00000000000E+00  0.00000000000E+00  0.10973565199E+04  0.10973565199E+04  0.50400001928E-02 0.  1.
       -1   -1    0    0    0  501  0.00000000000E+00  0.00000000000E+00 -0.10256644559E+04  0.10256644559E+04  0.50400001928E-02 0. -1.
    10030    2    1    2    0    0  0.00000000000E+00  0.00000000000E+00  0.71692063928E+02  0.21230209758E+04  0.21218101498E+04 0.  0.
        4    1    3    3  502    0  0.62120322982E+03 -0.45510217541E+03 -0.69430083880E+03  0.10368542378E+04  0.12699999809E+01 0. -1.
       -4    1    3    3    0  502 -0.62120322982E+03  0.45510217541E+03  0.76599290273E+03  0.10861667380E+04  0.12699999809E+01 0.  1.
</event>
<event>
 5   0  0.2722449E-06  0.3397735E+04  0.7818609E-02  0.8138462E-01
       -2   -1    0    0    0  501  0.00000000000E+00  0.00000000000E+00  0.12569092095E+04  0.12569092095E+04  0.25500000920E-02 0. -1.
        2   -1    0    0  501    0  0.00000000000E+00  0.00000000000E+00 -0.22962288417E+04  0.22962288417E+04  0.25500000920E-02 0.  1.
    10030    2    1    2    0    0  0.00000000000E+00  0.00000000000E+00 -0.10393196322E+04  0.35531380512E+04  0.33977352330E+04 0.  0.
        2    1    3    3  502    0 -0.32990912000E+03  0.19023056938E+03  0.12116980640E+04  0.12701338100E+04  0.25500000920E-02 0. -1.
       -2    1    3    3    0  502  0.32990912000E+03 -0.19023056938E+03 -0.22510176962E+04  0.22830042412E+04  0.25500000920E-02 0.  1.
</event>
<event>
 5   0  0.4173467E-06  0.3383879E+04  0.7818609E-02  0.8141874E-01
        2   -1    0    0  501    0  0.00000000000E+00  0.00000000000E+00  0.13841504175E+04  0.13841504175E+04  0.25500000920E-02 0. -1.
       -2   -1    0    0    0  501  0.00000000000E+00  0.00000000000E+00 -0.20681708477E+04  0.20681708477E+04  0.25500000920E-02 0.  1.
    10030    2    1    2    0    0  0.00000000000E+00  0.00000000000E+00 -0.68402043021E+03  0.34523212652E+04  0.33838791600E+04 0.  0.
        4    1    3    3  502    0 -0.45327792664E+02 -0.63487449590E+03 -0.19413710309E+04  0.20430475586E+04  0.12699999809E+01 0.  1.
       -4    1    3    3    0  502  0.45327792664E+02  0.63487449590E+03  0.12573506007E+04  0.14092737066E+04  0.12699999809E+01 0. -1.
</event>
<event>
 5   0  0.1550164E-06  0.3424923E+04  0.7818609E-02  0.8131816E-01
       -1   -1    0    0    0  501  0.00000000000E+00  0.00000000000E+00  0.16807221125E+04  0.16807221125E+04  0.50400001928E-02 0.  1.
        1   -1    0    0  501    0  0.00000000000E+00  0.00000000000E+00 -0.17448005397E+04  0.17448005397E+04  0.50400001928E-02 0. -1.
    10030    2    1    2    0    0  0.00000000000E+00  0.00000000000E+00 -0.64078427220E+02  0.34255226521E+04  0.34249232686E+04 0.  0.
        4    1    3    3  502    0 -0.11739064231E+04  0.39193587877E+03  0.11517443697E+04  0.16906172628E+04  0.12699999809E+01 0.  1.
       -4    1    3    3    0  502  0.11739064231E+04 -0.39193587877E+03 -0.12158227969E+04  0.17349053893E+04  0.12699999809E+01 0. -1.
</event>
<event>
 5   0  0.2722449E-06  0.3133557E+04  0.7818609E-02  0.8206588E-01
        2   -1    0    0  501    0  0.00000000000E+00  0.00000000000E+00  0.17684421083E+04  0.17684421083E+04  0.25500000920E-02 0. -1.
       -2   -1    0    0    0  501  0.00000000000E+00  0.00000000000E+00 -0.13881114473E+04  0.13881114473E+04  0.25500000920E-02 0.  1.
    10030    2    1    2    0    0  0.00000000000E+00  0.00000000000E+00  0.38033066097E+03  0.31565535555E+04  0.31335569146E+04 0.  0.
        2    1    3    3  502    0  0.82352034501E+03  0.81101575401E+03 -0.87536034465E+03  0.14498924253E+04  0.25500000920E-02 0.  1.
       -2    1    3    3    0  502 -0.82352034501E+03 -0.81101575401E+03  0.12556910056E+04  0.17066611303E+04  0.25500000920E-02 0. -1.
</event>
<event>
 5   0  0.1571391E-06  0.3303029E+04  0.7818609E-02  0.8162125E-01
       -1   -1    0    0    0  501  0.00000000000E+00  0.00000000000E+00  0.15015232334E+04  0.15015232334E+04  0.50400001928E-02 0.  1.
        1   -1    0    0  501    0  0.00000000000E+00  0.00000000000E+00 -0.18164887630E+04  0.18164887630E+04  0.50400001928E-02 0. -1.
    10030    2    1    2    0    0  0.00000000000E+00  0.00000000000E+00 -0.31496552959E+03  0.33180119964E+04  0.33030289620E+04 0.  0.
        1    1    3    3  502    0  0.27428055989E+03  0.20844059092E+03 -0.17799945455E+04  0.18130245138E+04  0.50400001928E-02 0. -1.
       -1    1    3    3    0  502 -0.27428055989E+03 -0.20844059092E+03  0.14650290159E+04  0.15049874827E+04  0.50400001928E-02 0.  1.
</event>
<event>
 5   0  0.4173467E-06  0.3286656E+04  0.7818609E-02  0.8166299E-01
       -2   -1    0    0    0  501  0.00000000000E+00  0.00000000000E+00  0.15519907840E+04  0.15519907840E+04  0.25500000920E-02 0. -1.
        2   -1    0    0  501    0  0.00000000000E+00  0.00000000000E+00 -0.17400408082E+04  0.17400408082E+04  0.25500000920E-02 0.  1.
    10030    2    1    2    0    0  0.00000000000E+00  0.00000000000E+00 -0.18805002425E+03  0.32920315922E+04  0.32866562328E+04 0.  0.
        4    1    3    3  502    0  0.12297416469E+04  0.36643501757E+03  0.93429253396E+03  0.15872754305E+04  0.12699999809E+01 0.  1.
       -4    1    3    3    0  502 -0.12297416469E+04 -0.36643501757E+03 -0.11223425582E+04  0.17047561618E+04  0.12699999809E+01 0. -1.
</event>
<event>
 5   0  0.1654257E-06  0.3399826E+04  0.7818609E-02  0.8137949E-01
        1   -1    0    0  501    0  0.00000000000E+00  0.00000000000E+00  0.17487993160E+04  0.17487993160E+04  0.50400001928E-02 0.  1.
       -1   -1    0    0    0  501  0.00000000000E+00  0.00000000000E+00 -0.16523930895E+04  0.16523930895E+04  0.50400001928E-02 0. -1.
    10030    2    1    2    0    0  0.00000000000E+00  0.00000000000E+00  0.96406226528E+02  0.34011924055E+04  0.33998258219E+04 0.  0.
        3    1    3    3  502    0  0.16289996666E+04 -0.48579465570E+03  0.39981950089E+02  0.17003631753E+04  0.10100000352E+00 0. -1.
       -3    1    3    3    0  502 -0.16289996666E+04  0.48579465570E+03  0.56424276439E+02  0.17008292303E+04  0.10100000352E+00 0.  1.
</event>
<event>
 5   0  0.4400349E-06  0.2410991E+04  0.7818609E-02  0.8435400E-01
       -2   -1    0    0    0  501  0.00000000000E+00  0.00000000000E+00  0.12403119422E+04  0.12403119422E+04  0.25500000920E-02 0. -1.
        2   -1    0    0  501    0  0.00000000000E+00  0.00000000000E+00 -0.11716559885E+04  0.11716559885E+04  0.25500000920E-02 0.  1.
    10030    2    1    2    0    0  0.00000000000E+00  0.00000000000E+00  0.68655953711E+02  0.24119679307E+04  0.24109905970E+04 0.  0.
        5    1    3    3  502    0  0.45084643926E+03 -0.10679130566E+04 -0.29670798261E+03  0.11965611247E+04  0.46999998093E+01 0. -1.
       -5    1    3    3    0  502 -0.45084643926E+03  0.10679130566E+04  0.36536393632E+03  0.12154068060E+04  0.46999998093E+01 0.  1.
</event>
<event>
 5   0  0.4189587E-06  0.2003351E+04  0.7818609E-02  0.8605055E-01
        2   -1    0    0  501    0  0.00000000000E+00  0.00000000000E+00  0.11774471560E+04  0.11774471560E+04  0.25500000920E-02 0. -1.
       -2   -1    0    0    0  501  0.00000000000E+00  0.00000000000E+00 -0.85214378051E+03  0.85214378052E+03  0.25500000920E-02 0.  1.
    10030    2    1    2    0    0  0.00000000000E+00  0.00000000000E+00  0.32530337550E+03  0.20295909365E+04  0.20033514628E+04 0.  0.
        1    1    3    3  502    0 -0.56675694907E+03  0.52126738027E+03 -0.48638049729E+03  0.91076841690E+03  0.50400001928E-02 0.  1.
       -1    1    3    3    0  502  0.56675694907E+03 -0.52126738027E+03  0.81168387279E+03  0.11188225196E+04  0.50400001928E-02 0. -1.
</event>
<event>
 5   0  0.1562618E-06  0.2417458E+04  0.7818609E-02  0.8432996E-01
        1   -1    0    0  501    0  0.00000000000E+00  0.00000000000E+00  0.11312177949E+04  0.11312177949E+04  0.50400001928E-02 0.  1.
       -1   -1    0    0    0  501  0.00000000000E+00  0.00000000000E+00 -0.12915517238E+04  0.12915517239E+04  0.50400001928E-02 0. -1.
    10030    2    1    2    0    0  0.00000000000E+00  0.00000000000E+00 -0.16033392892E+03  0.24227695188E+04  0.24174584117E+04 0.  0.
        2    1    3    3  502    0 -0.10389312521E+04  0.34694698270E+03 -0.59244153401E+03  0.12452860421E+04  0.25500000920E-02 0. -1.
       -2    1    3    3    0  502  0.10389312521E+04 -0.34694698270E+03  0.43210760509E+03  0.11774834767E+04  0.25500000920E-02 0.  1.
</event>
<event>
 5   0  0.5724518E-06  0.1693561E+04  0.7818609E-02  0.8765045E-01
       -2   -1    0    0    0  501  0.00000000000E+00  0.00000000000E+00  0.96488700936E+03  0.96488700937E+03  0.25500000920E-02 0.  1.
        2   -1    0    0  501    0  0.00000000000E+00  0.00000000000E+00 -0.74313054173E+03  0.74313054173E+03  0.25500000920E-02 0. -1.
    10030    2    1    2    0    0  0.00000000000E+00  0.00000000000E+00  0.22175646764E+03  0.17080175511E+04  0.16935607530E+04 0.  0.
        2    1    3    3  502    0  0.12134384771E+03  0.10283071953E+02 -0.73425290883E+03  0.74428314846E+03  0.25500000920E-02 0. -1.
       -2    1    3    3    0  502 -0.12134384771E+03 -0.10283071953E+02  0.95600937647E+03  0.96373440265E+03  0.25500000920E-02 0.  1.
</event>
<event>
 5   0  0.4173467E-06  0.3090468E+04  0.7818609E-02  0.8218359E-01
       -2   -1    0    0    0  501  0.00000000000E+00  0.00000000000E+00  0.16370013515E+04  0.16370013515E+04  0.25500000920E-02 0. -1.
        2   -1    0    0  501    0  0.00000000000E+00  0.00000000000E+00 -0.14586111031E+04  0.14586111031E+04  0.25500000920E-02 0.  1.
    10030    2    1    2    0    0  0.00000000000E+00  0.00000000000E+00  0.17839024847E+03  0.30956124546E+04  0.30904681504E+04 0.  0.
        4    1    3    3  502    0 -0.14154709149E+04 -0.59257038476E+03 -0.92901770858E+02  0.15373125654E+04  0.12699999809E+01 0.  1.
       -4    1    3    3    0  502  0.14154709149E+04  0.59257038476E+03  0.27129201933E+03  0.15582998892E+04  0.12699999809E+01 0. -1.
</event>
<event>
 5   0  0.1401125E-06  0.2943569E+04  0.7818609E-02  0.8260031E-01
       -4   -1    0    0    0  501  0.00000000000E+00  0.00000000000E+00  0.15046824535E+04  0.15046829894E+04  0.12699999809E+01 0. -1.
        4   -1    0    0  501    0  0.00000000000E+00  0.00000000000E+00 -0.14396048131E+04  0.14396053733E+04  0.12699999809E+01 0.  1.
    10030    2    1    2    0    0  0.00000000000E+00  0.00000000000E+00  0.65077640348E+02  0.29442883628E+04  0.29435690690E+04 0.  0.
        2    1    3    3  502    0  0.83511646113E+03 -0.39575001811E+03 -0.11132157225E+04  0.14468195552E+04  0.25500000920E-02 0.  1.
       -2    1    3    3    0  502 -0.83511646113E+03  0.39575001811E+03  0.11782933629E+04  0.14974688075E+04  0.25500000920E-02 0. -1.
</event>
<event>
 5   0  0.1562618E-06  0.3381567E+04  0.7818609E-02  0.8142445E-01
        1   -1    0    0  501    0  0.00000000000E+00  0.00000000000E+00  0.13540646728E+04  0.13540646728E+04  0.50400001928E-02 0. -1.
       -1   -1    0    0    0  501  0.00000000000E+00  0.00000000000E+00 -0.21112345790E+04  0.21112345790E+04  0.50400001928E-02 0.  1.
    10030    2    1    2    0    0  0.00000000000E+00  0.00000000000E+00 -0.75716990622E+03  0.34652992518E+04  0.33815665952E+04 0.  0.
        2    1    3    3  502    0  0.18256862245E+03  0.13892214373E+04 -0.13483151163E+04  0.19445362318E+04  0.25500000920E-02 0.  1.
       -2    1    3    3    0  502 -0.18256862245E+03 -0.13892214373E+04  0.59114521012E+03  0.15207630200E+04  0.25500000920E-02 0. -1.
</event>
<event>
 5   0  0.4400349E-06  0.3376553E+04  0.7818609E-02  0.8143685E-01
       -2   -1    0    0    0  501  0.00000000000E+00  0.00000000000E+00  0.12265763192E+04  0.12265763192E+04  0.25500000920E-02 0.  1.
        2   -1    0    0  501    0  0.00000000000E+00  0.00000000000E+00 -0.23237668143E+04  0.23237668143E+04  0.25500000920E-02 0. -1.
    10030    2    1    2    0    0  0.00000000000E+00  0.00000000000E+00 -0.10971904951E+04  0.35503431335E+04  0.33765528847E+04 0.  0.
        5    1    3    3  502    0 -0.79818138099E+03 -0.73234821696E+03  0.81297799765E+03  0.13543938654E+04  0.46999998093E+01 0.  1.
       -5    1    3    3    0  502  0.79818138099E+03  0.73234821696E+03 -0.19101684927E+04  0.21959492682E+04  0.46999998093E+01 0. -1.
</event>
<event>
 5   0  0.1654257E-06  0.3377599E+04  0.7818609E-02  0.8143426E-01
       -1   -1    0    0    0  501  0.00000000000E+00  0.00000000000E+00  0.13950195580E+04  0.13950195580E+04  0.50400001928E-02 0. -1.
        1   -1    0    0  501    0  0.00000000000E+00  0.00000000000E+00 -0.20444471323E+04  0.20444471323E+04  0.50400001928E-02 0.  1.
    10030    2    1    2    0    0  0.00000000000E+00  0.00000000000E+00 -0.64942757431E+03  0.34394666902E+04  0.33775989903E+04 0.  0.
        3    1    3    3  502    0 -0.12481885673E+04 -0.82092941022E+03 -0.11266305092E+04  0.18711483401E+04  0.10100000352E+00 0.  1.
       -3    1    3    3    0  502  0.12481885673E+04  0.82092941022E+03  0.47720293490E+03  0.15683183502E+04  0.10100000352E+00 0. -1.
</event>
<event>
 5   0  0.1571391E-06  0.3262491E+04  0.7818609E-02  0.8172506E-01
       -1   -1    0    0    0  501  0.00000000000E+00  0.00000000000E+00  0.12287525211E+04  0.12287525211E+04  0.50400001928E-02 0.  1.
        1   -1    0    0  501    0  0.00000000000E+00  0.00000000000E+00 -0.21655794536E+04  0.21655794536E+04  0.50400001928E-02 0. -1.
    10030    2    1    2    0    0  0.00000000000E+00  0.00000000000E+00 -0.93682693253E+03  0.33943319747E+04  0.32624905905E+04 0.  0.
        1    1    3    3  502    0 -0.86860141567E+02 -0.97148757665E+03  0.89195298013E+03  0.13217083319E+04  0.50400001928E-02 0.  1.
       -1    1    3    3    0  502  0.86860141567E+02  0.97148757665E+03 -0.18287799127E+04  0.20726236428E+04  0.50400001928E-02 0. -1.
</event>
<event>
 5   0  0.4344980E-06  0.3421694E+04  0.7818609E-02  0.8132602E-01
       -2   -1    0    0    0  501  0.00000000000E+00  0.00000000000E+00  0.17914491885E+04  0.17914491885E+04  0.25500000920E-02 0. -1.
        2   -1    0    0  501    0  0.00000000000E+00  0.00000000000E+00 -0.16338713109E+04  0.16338713109E+04  0.25500000920E-02 0.  1.
    10030    2    1    2    0    0  0.00000000000E+00  0.00000000000E+00  0.15757787756E+03  0.34253204994E+04  0.34216939864E+04 0.  0.
        3    1    3    3  502    0  0.39297914423E+03  0.59186041963E+03  0.16368015515E+04  0.17843348042E+04  0.10100000352E+00 0. -1.
       -3    1    3    3    0  502 -0.39297914423E+03 -0.59186041963E+03 -0.14792236740E+04  0.16409856952E+04  0.10100000352E+00 0.  1.
</event>
<event>
 5   0  0.4400349E-06  0.3213003E+04  0.7818609E-02  0.8185391E-01
       -2   -1    0    0    0  501  0.00000000000E+00  0.00000000000E+00  0.15561220475E+04  0.15561220475E+04  0.25500000920E-02 0. -1.
        2   -1    0    0  501    0  0.00000000000E+00  0.00000000000E+00 -0.16585124784E+04  0.16585124784E+04  0.25500000920E-02 0.  1.
    10030    2    1    2    0    0  0.00000000000E+00  0.00000000000E+00 -0.10239043091E+03  0.32146345260E+04  0.32130034757E+04 0.  0.
        5    1    3    3  502    0 -0.57115692734E+03 -0.26152328696E+03  0.14281395201E+04  0.15601984631E+04  0.46999998093E+01 0. -1.
       -5    1    3    3    0  502  0.57115692734E+03  0.26152328696E+03 -0.15305299510E+04  0.16544360629E+04  0.46999998093E+01 0.  1.
</event>
<event>
 5   0  0.2101998E-06  0.1969356E+04  0.7818609E-02  0.8621083E-01
       -1   -1    0    0    0  501  0.00000000000E+00  0.00000000000E+00  0.64023453970E+03  0.64023453972E+03  0.50400001928E-02 0. -1.
        1   -1    0    0  501    0  0.00000000000E+00  0.00000000000E+00 -0.15144302670E+04  0.15144302670E+04  0.50400001928E-02 0.  1.
    10030    2    1    2    0    0  0.00000000000E+00  0.00000000000E+00 -0.87419572727E+03  0.21546648067E+04  0.19693557981E+04 0.  0.
        5    1    3    3  502    0  0.95284358117E+03 -0.13000220147E+03 -0.20563246599E+03  0.98342171200E+03  0.46999998093E+01 0. -1.
       -5    1    3    3    0  502 -0.95284358117E+03  0.13000220147E+03 -0.66856326128E+03  0.11712430947E+04  0.46999998093E+01 0.  1.
</event>
<event>
 5   0  0.1562618E-06  0.3210512E+04  0.7818609E-02  0.8186046E-01
        1   -1    0    0  501    0  0.00000000000E+00  0.00000000000E+00  0.14526736051E+04  0.14526736051E+04  0.50400001928E-02 0. -1.
       -1   -1    0    0    0  501  0.00000000000E+00  0.00000000000E+00 -0.17738652192E+04  0.17738652192E+04  0.50400001928E-02 0.  1.
    10030    2    1    2    0    0  0.00000000000E+00  0.00000000000E+00 -0.32119161411E+03  0.32265388244E+04  0.32105122227E+04 0.  0.
        2    1    3    3  502    0  0.20255963754E+02 -0.41976852639E+03 -0.17175975965E+04  0.17682639575E+04  0.25500000920E-02 0.  1.
       -2    1    3    3    0  502 -0.20255963754E+02  0.41976852639E+03  0.13964059824E+04  0.14582748669E+04  0.25500000920E-02 0. -1.
</event>
<event>
 5   0  0.4173467E-06  0.3370204E+04  0.7818609E-02  0.8145258E-01
        2   -1    0    0  501    0  0.00000000000E+00  0.00000000000E+00  0.17357630450E+04  0.17357630450E+04  0.25500000920E-02 0. -1.
       -2   -1    0    0    0  501  0.00000000000E+00  0.00000000000E+00 -0.16359199703E+04  0.16359199703E+04  0.25500000920E-02 0.  1.
    10030    2    1    2    0    0  0.00000000000E+00  0.00000000000E+00  0.99843074631E+02  0.33716830153E+04  0.33702044027E+04 0.  0.
        4    1    3    3  502    0 -0.94938432711E+03 -0.40138397802E+03 -0.12837530188E+04  0.16463484214E+04  0.12699999809E+01 0.  1.
       -4    1    3    3    0  502  0.94938432711E+03  0.40138397802E+03  0.13835960934E+04  0.17253345939E+04  0.12699999809E+01 0. -1.
</event>
<event>
 5   0  0.4400349E-06  0.3407889E+04  0.7818609E-02  0.8135973E-01
       -2   -1    0    0    0  501  0.00000000000E+00  0.00000000000E+00  0.13730939808E+04  0.13730939808E+04  0.25500000920E-02 0.  1.
        2   -1    0    0  501    0  0.00000000000E+00  0.00000000000E+00 -0.21145140545E+04  0.21145140545E+04  0.25500000920E-02 0. -1.
    10030    2    1    2    0    0  0.00000000000E+00  0.00000000000E+00 -0.74142007366E+03  0.34876080353E+04  0.34078888014E+04 0.  0.
        5    1    3    3  502    0  0.94740819852E+03  0.25804637841E+03 -0.17958495628E+04  0.20467701313E+04  0.46999998093E+01 0. -1.
       -5    1    3    3    0  502 -0.94740819852E+03 -0.25804637841E+03  0.10544294892E+04  0.14408379040E+04  0.46999998093E+01 0.  1.
</event>
<event>
 5   0  0.1550164E-06  0.3312699E+04  0.7818609E-02  0.8159672E-01
        1   -1    0    0  501    0  0.00000000000E+00  0.00000000000E+00  0.18168003069E+04  0.18168003069E+04  0.50400001928E-02 0. -1.
       -1   -1    0    0    0  501  0.00000000000E+00  0.00000000000E+00 -0.15100688392E+04  0.15100688392E+04  0.50400001928E-02 0.  1.
    10030    2    1    2    0    0  0.00000000000E+00  0.00000000000E+00  0.30673146777E+03  0.33268691461E+04  0.33126989181E+04 0.  0.
        4    1    3    3  502    0 -0.90889472402E+03  0.11249484671E+04  0.96421848353E+03  0.17381937665E+04  0.12699999809E+01 0. -1.
       -4    1    3    3    0  502  0.90889472402E+03 -0.11249484671E+04 -0.65748701576E+03  0.15886753796E+04  0.12699999809E+01 0.  1.
</event>
<event>
 5   0  0.2722449E-06  0.3409016E+04  0.7818609E-02  0.8135697E-01
        2   -1    0    0  501    0  0.00000000000E+00  0.00000000000E+00  0.32492921197E+04  0.32492921197E+04  0.25500000920E-02 0.  1.
       -2   -1    0    0    0  501  0.00000000000E+00  0.00000000000E+00 -0.89414764150E+03  0.89414764150E+03  0.25500000920E-02 0. -1.
    10030    2    1    2    0    0  0.00000000000E+00  0.00000000000E+00  0.23551444782E+04  0.41434397612E+04  0.34090156265E+04 0.  0.
        2    1    3    3  502    0 -0.58923303177E+03  0.25898537479E+03  0.30959127197E+04  0.31621107758E+04  0.25500000920E-02 0.  1.
       -2    1    3    3    0  502  0.58923303177E+03 -0.25898537479E+03 -0.74076824150E+03  0.98132898546E+03  0.25500000920E-02 0. -1.
</event>
<event>
 5   0  0.1562618E-06  0.3475722E+04  0.7818609E-02  0.8119568E-01
       -1   -1    0    0    0  501  0.00000000000E+00  0.00000000000E+00  0.18683660293E+04  0.18683660294E+04  0.50400001928E-02 0.  1.
        1   -1    0    0  501    0  0.00000000000E+00  0.00000000000E+00 -0.16164719594E+04  0.16164719594E+04  0.50400001928E-02 0. -1.
    10030    2    1    2    0    0  0.00000000000E+00  0.00000000000E+00  0.25189406998E+03  0.34848379887E+04  0.34757222537E+04 0.  0.
        2    1    3    3  502    0  0.99532098182E+02 -0.16937716980E+04  0.50295462133E+03  0.17696701824E+04  0.25500000920E-02 0.  1.
       -2    1    3    3    0  502 -0.99532098182E+02  0.16937716980E+04 -0.25106055135E+03  0.17151678063E+04  0.25500000920E-02 0. -1.
</event>
<event>
 5   0  0.4173467E-06  0.2056348E+04  0.7818609E-02  0.8580720E-01
        2   -1    0    0  501    0  0.00000000000E+00  0.00000000000E+00  0.91578946223E+03  0.91578946223E+03  0.25500000920E-02 0. -1.
       -2   -1    0    0    0  501  0.00000000000E+00  0.00000000000E+00 -0.11543505949E+04  0.11543505949E+04  0.25500000920E-02 0.  1.
    10030    2    1    2    0    0  0.00000000000E+00  0.00000000000E+00 -0.23856113271E+03  0.20701400572E+04  0.20563483271E+04 0.  0.
        4    1    3    3  502    0 -0.22920934171E+03  0.13711390877E+03  0.88025486149E+03  0.91988443860E+03  0.12699999809E+01 0. -1.
       -4    1    3    3    0  502  0.22920934171E+03 -0.13711390877E+03 -0.11188159942E+04  0.11502556186E+04  0.12699999809E+01 0.  1.
</event>
<event>
 5   0  0.1571391E-06  0.3402734E+04  0.7818609E-02  0.8137236E-01
        1   -1    0    0  501    0  0.00000000000E+00  0.00000000000E+00  0.15834468992E+04  0.15834468992E+04  0.50400001928E-02 0.  1.
       -1   -1    0    0    0  501  0.00000000000E+00  0.00000000000E+00 -0.18280681805E+04  0.18280681806E+04  0.50400001928E-02 0. -1.
    10030    2    1    2    0    0  0.00000000000E+00  0.00000000000E+00 -0.24462128131E+03  0.34115150798E+04  0.34027335436E+04 0.  0.
        1    1    3    3  502    0 -0.86584404835E+03  0.11723382927E+04 -0.10024063081E+04  0.17688644366E+04  0.50400001928E-02 0. -1.
       -1    1    3    3    0  502  0.86584404835E+03 -0.11723382927E+04  0.75778502677E+03  0.16426506432E+04  0.50400001928E-02 0.  1.
</event>
<event>
 5   0  0.1571391E-06  0.3376883E+04  0.7818609E-02  0.8143604E-01
        1   -1    0    0  501    0  0.00000000000E+00  0.00000000000E+00  0.13486022027E+04  0.13486022027E+04  0.50400001928E-02 0.  1.
       -1   -1    0    0    0  501  0.00000000000E+00  0.00000000000E+00 -0.21139175806E+04  0.21139175806E+04  0.50400001928E-02 0. -1.
    10030    2    1    2    0    0  0.00000000000E+00  0.00000000000E+00 -0.76531537790E+03  0.34625197833E+04  0.33768825301E+04 0.  0.
        1    1    3    3  502    0  0.12208172265E+04 -0.50503129935E+03 -0.14606920918E+04  0.19695361639E+04  0.50400001928E-02 0. -1.
       -1    1    3    3    0  502 -0.12208172265E+04  0.50503129935E+03  0.69537671385E+03  0.14929836195E+04  0.50400001928E-02 0.  1.
</event>
<event>
 5   0  0.2722449E-06  0.2041515E+04  0.7818609E-02  0.8587453E-01
        2   -1    0    0  501    0  0.00000000000E+00  0.00000000000E+00  0.64801176267E+03  0.64801176267E+03  0.25500000920E-02 0.  1.
       -2   -1    0    0    0  501  0.00000000000E+00  0.00000000000E+00 -0.16079114240E+04  0.16079114240E+04  0.25500000920E-02 0. -1.
    10030    2    1    2    0    0  0.00000000000E+00  0.00000000000E+00 -0.95989966132E+03  0.22559231867E+04  0.20415146495E+04 0.  0.
        2    1    3    3  502    0  0.44867626993E+02  0.76825613119E+03  0.26108813666E+03  0.81264851084E+03  0.25500000920E-02 0.  1.
       -2    1    3    3    0  502 -0.44867626993E+02 -0.76825613119E+03 -0.12209877980E+04  0.14432746758E+04  0.25500000920E-02 0. -1.
</event>
<event>
 5   0  0.4173467E-06  0.1882405E+04  0.7818609E-02  0.8663664E-01
        2   -1    0    0  501    0  0.00000000000E+00  0.00000000000E+00  0.14723858868E+04  0.14723858868E+04  0.25500000920E-02 0. -1.
       -2   -1    0    0    0  501  0.00000000000E+00  0.00000000000E+00 -0.60165101798E+03  0.60165101799E+03  0.25500000920E-02 0.  1.
    10030    2    1    2    0    0  0.00000000000E+00  0.00000000000E+00  0.87073486883E+03  0.20740369048E+04  0.18824053418E+04 0.  0.
        4    1    3    3  502    0  0.59649145432E+03  0.71417170447E+03  0.59125413992E+03  0.11024637633E+04  0.12699999809E+01 0. -1.
       -4    1    3    3    0  502 -0.59649145432E+03 -0.71417170447E+03  0.27948072892E+03  0.97157314150E+03  0.12699999809E+01 0.  1.
</event>
<event>
 5   0  0.4400349E-06  0.3387927E+04  0.7818609E-02  0.8140876E-01
       -2   -1    0    0    0  501  0.00000000000E+00  0.00000000000E+00  0.17532009037E+04  0.17532009037E+04  0.25500000920E-02 0. -1.
        2   -1    0    0  501    0  0.00000000000E+00  0.00000000000E+00 -0.16367272994E+04  0.16367272994E+04  0.25500000920E-02 0.  1.
    10030    2    1    2    0    0  0.00000000000E+00  0.00000000000E+00  0.11647360430E+03  0.33899282030E+04  0.33879266700E+04 0.  0.
        5    1    3    3  502    0  0.56898147380E+03  0.56140555098E+03  0.15526296331E+04  0.17463095309E+04  0.46999998093E+01 0. -1.
       -5    1    3    3    0  502 -0.56898147380E+03 -0.56140555098E+03 -0.14361560288E+04  0.16436186721E+04  0.46999998093E+01 0.  1.
</event>
<event>
 5   0  0.1550164E-06  0.3305683E+04  0.7818609E-02  0.8161451E-01
        1   -1    0    0  501    0  0.00000000000E+00  0.00000000000E+00  0.13576779057E+04  0.13576779058E+04  0.50400001928E-02 0.  1.
       -1   -1    0    0    0  501  0.00000000000E+00  0.00000000000E+00 -0.20121749842E+04  0.20121749842E+04  0.50400001928E-02 0. -1.
    10030    2    1    2    0    0  0.00000000000E+00  0.00000000000E+00 -0.65449707843E+03  0.33698528899E+04  0.33056832991E+04 0.  0.
        4    1    3    3  502    0 -0.12074233207E+04  0.44021036502E+03  0.73226703838E+03  0.14791459932E+04  0.12699999809E+01 0.  1.
       -4    1    3    3    0  502  0.12074233207E+04 -0.44021036502E+03 -0.13867641168E+04  0.18907068967E+04  0.12699999809E+01 0. -1.
</event>
<event>
 5   0  0.2101998E-06  0.3067599E+04  0.7818609E-02  0.8224687E-01
        1   -1    0    0  501    0  0.00000000000E+00  0.00000000000E+00  0.19071169245E+04  0.19071169245E+04  0.50400001928E-02 0. -1.
       -1   -1    0    0    0  501  0.00000000000E+00  0.00000000000E+00 -0.12335591494E+04  0.12335591495E+04  0.50400001928E-02 0.  1.
    10030    2    1    2    0    0  0.00000000000E+00  0.00000000000E+00  0.67355777509E+03  0.31406760740E+04  0.30675994076E+04 0.  0.
        5    1    3    3  502    0  0.78936658802E+03 -0.11765985375E+04 -0.26461155946E+03  0.14413622363E+04  0.46999998093E+01 0.  1.
       -5    1    3    3    0  502 -0.78936658802E+03  0.11765985375E+04  0.93816933456E+03  0.16993138377E+04  0.46999998093E+01 0. -1.
</event>
<event>
 5   0  0.2722449E-06  0.3452659E+04  0.7818609E-02  0.8125102E-01
        2   -1    0    0  501    0  0.00000000000E+00  0.00000000000E+00  0.15365378110E+04  0.15365378110E+04  0.25500000920E-02 0. -1.
       -2   -1    0    0    0  501  0.00000000000E+00  0.00000000000E+00 -0.19395637305E+04  0.19395637305E+04  0.25500000920E-02 0.  1.
    10030    2    1    2    0    0  0.00000000000E+00  0.00000000000E+00 -0.40302591955E+03  0.34761015415E+04  0.34526586908E+04 0.  0.
        2    1    3    3  502    0 -0.26694337454E+03  0.11575692181E+04  0.10595842993E+04  0.15918367213E+04  0.25500000920E-02 0. -1.
       -2    1    3    3    0  502  0.26694337454E+03 -0.11575692181E+04 -0.14626102189E+04  0.18842648201E+04  0.25500000920E-02 0.  1.
</event>
<event>
 5   0  0.1550164E-06  0.2599037E+04  0.7818609E-02  0.8368528E-01
       -1   -1    0    0    0  501  0.00000000000E+00  0.00000000000E+00  0.75383914197E+03  0.75383914199E+03  0.50400001928E-02 0.  1.
        1   -1    0    0  501    0  0.00000000000E+00  0.00000000000E+00 -0.22401967338E+04  0.22401967338E+04  0.50400001928E-02 0. -1.
    10030    2    1    2    0    0  0.00000000000E+00  0.00000000000E+00 -0.14863575918E+04  0.29940358758E+04  0.25990367321E+04 0.  0.
        4    1    3    3  502    0  0.24956966343E+03  0.12753277404E+04 -0.74400015569E+03  0.14974256933E+04  0.12699999809E+01 0. -1.
       -4    1    3    3    0  502 -0.24956966343E+03 -0.12753277404E+04 -0.74235743614E+03  0.14966101825E+04  0.12699999809E+01 0.  1.
</event>
<event>
 5   0  0.4400349E-06  0.2674502E+04  0.7818609E-02  0.8343326E-01
        2   -1    0    0  501    0  0.00000000000E+00  0.00000000000E+00  0.23139104109E+04  0.23139104109E+04  0.25500000920E-02 0.  1.
       -2   -1    0    0    0  501  0.00000000000E+00  0.00000000000E+00 -0.77282188004E+03  0.77282188004E+03  0.25500000920E-02 0. -1.
    10030    2    1    2    0    0  0.00000000000E+00  0.00000000000E+00  0.15410885309E+04  0.30867322910E+04  0.26745022670E+04 0.  0.
        5    1    3    3  502    0 -0.54662325025E+03  0.16582389863E+03  0.21660074618E+04  0.22400680699E+04  0.46999998093E+01 0.  1.
       -5    1    3    3    0  502  0.54662325025E+03 -0.16582389863E+03 -0.62491893092E+03  0.84666422110E+03  0.46999998093E+01 0. -1.
</event>
<event>
 5   0  0.2101998E-06  0.3316013E+04  0.7818609E-02  0.8158833E-01
       -1   -1    0    0    0  501  0.00000000000E+00  0.00000000000E+00  0.10911666382E+04  0.10911666382E+04  0.50400001928E-02 0.  1.
        1   -1    0    0  501    0  0.00000000000E+00  0.00000000000E+00 -0.25193085419E+04  0.25193085419E+04  0.50400001928E-02 0. -1.
    10030    2    1    2    0    0  0.00000000000E+00  0.00000000000E+00 -0.14281419037E+04  0.36104751802E+04  0.33160129266E+04 0.  0.
        5    1    3    3  502    0  0.81045838067E+03 -0.99193280892E+03  0.43211540476E+03  0.13518577208E+04  0.46999998093E+01 0.  1.
       -5    1    3    3    0  502 -0.81045838067E+03  0.99193280892E+03 -0.18602573084E+04  0.22586174594E+04  0.46999998093E+01 0. -1.
</event>
<event>
 5   0  0.1550164E-06  0.2602846E+04  0.7818609E-02  0.8367235E-01
        1   -1    0    0  501    0  0.00000000000E+00  0.00000000000E+00  0.13315977710E+04  0.13315977710E+04  0.50400001928E-02 0.  1.
       -1   -1    0    0    0  501  0.00000000000E+00  0.00000000000E+00 -0.12719315267E+04  0.12719315267E+04  0.50400001928E-02 0. -1.
    10030    2    1    2    0    0  0.00000000000E+00  0.00000000000E+00  0.59666244272E+02  0.26035292978E+04  0.26028455090E+04 0.  0.
        4    1    3    3  502    0 -0.48788478567E+03 -0.28633703069E+03  0.12021816036E+04  0.13286318829E+04  0.12699999809E+01 0.  1.
       -4    1    3    3    0  502  0.48788478567E+03  0.28633703069E+03 -0.11425153593E+04  0.12748974149E+04  0.12699999809E+01 0. -1.
</event>
<event>
 5   0  0.2722449E-06  0.3385170E+04  0.7818609E-02  0.8141556E-01
        2   -1    0    0  501    0  0.00000000000E+00  0.00000000000E+00  0.29480563343E+04  0.29480563343E+04  0.25500000920E-02 0.  1.
       -2   -1    0    0    0  501  0.00000000000E+00  0.00000000000E+00 -0.97177397329E+03  0.97177397329E+03  0.25500000920E-02 0. -1.
    10030    2    1    2    0    0  0.00000000000E+00  0.00000000000E+00  0.19762823611E+04  0.39198303076E+04  0.33851702572E+04 0.  0.
        2    1    3    3  502    0  0.15196419522E+04 -0.15825917980E+03  0.14475974808E+03  0.15347029079E+04  0.25500000920E-02 0. -1.
       -2    1    3    3    0  502 -0.15196419522E+04  0.15825917980E+03  0.18315226130E+04  0.23851273997E+04  0.25500000920E-02 0.  1.
</event>
<event>
 5   0  0.2101998E-06  0.3421901E+04  0.7818609E-02  0.8132552E-01
       -1   -1    0    0    0  501  0.00000000000E+00  0.00000000000E+00  0.17324757802E+04  0.17324757802E+04  0.50400001928E-02 0.  1.
        1   -1    0    0  501    0  0.00000000000E+00  0.00000000000E+00 -0.16896925019E+04  0.16896925019E+04  0.50400001928E-02 0. -1.
    10030    2    1    2    0    0  0.00000000000E+00  0.00000000000E+00  0.42783278327E+02  0.34221682822E+04  0.34219008376E+04 0.  0.
        5    1    3    3  502    0  0.95196993494E+03 -0.12774610687E+04  0.64527988430E+03  0.17188838699E+04  0.46999998093E+01 0. -1.
       -5    1    3    3    0  502 -0.95196993494E+03  0.12774610687E+04 -0.60249660597E+03  0.17032844123E+04  0.46999998093E+01 0.  1.
</event>
<event>
 5   0  0.4173467E-06  0.2935126E+04  0.7818609E-02  0.8262503E-01
        2   -1    0    0  501    0  0.00000000000E+00  0.00000000000E+00  0.18688127989E+04  0.18688127989E+04  0.25500000920E-02 0. -1.
       -2   -1    0    0    0  501  0.00000000000E+00  0.00000000000E+00 -0.11524645494E+04  0.11524645494E+04  0.25500000920E-02 0.  1.
    10030    2    1    2    0    0  0.00000000000E+00  0.00000000000E+00  0.71634824947E+03  0.30212773484E+04  0.29351255512E+04 0.  0.
        4    1    3    3  502    0  0.24272486248E+03 -0.12374912015E+04  0.11308322659E+04  0.16938367865E+04  0.12699999809E+01 0. -1.
       -4    1    3    3    0  502 -0.24272486248E+03  0.12374912015E+04 -0.41448401646E+03  0.13274405619E+04  0.12699999809E+01 0.  1.
</event>
<event>
 5   0  0.1550164E-06  0.1801816E+04  0.7818609E-02  0.8705334E-01
        1   -1    0    0  501    0  0.00000000000E+00  0.00000000000E+00  0.12810787552E+04  0.12810787552E+04  0.50400001928E-02 0.  1.
       -1   -1    0    0    0  501  0.00000000000E+00  0.00000000000E+00 -0.63355603636E+03  0.63355603638E+03  0.50400001928E-02 0. -1.
    10030    2    1    2    0    0  0.00000000000E+00  0.00000000000E+00  0.64752271883E+03  0.19146347916E+04  0.18018159489E+04 0.  0.
        4    1    3    3  502    0  0.76525010527E+03 -0.86216833079E+02  0.82057458400E+03  0.11253378723E+04  0.12699999809E+01 0.  1.
       -4    1    3    3    0  502 -0.76525010527E+03  0.86216833079E+02 -0.17305186517E+03  0.78929691933E+03  0.12699999809E+01 0. -1.
</event>
<event>
 5   0  0.4400349E-06  0.2341090E+04  0.7818609E-02  0.8461894E-01
       -2   -1    0    0    0  501  0.00000000000E+00  0.00000000000E+00  0.47346410536E+03  0.47346410537E+03  0.25500000920E-02 0. -1.
        2   -1    0    0  501    0  0.00000000000E+00  0.00000000000E+00 -0.28939388233E+04  0.28939388233E+04  0.25500000920E-02 0.  1.
    10030    2    1    2    0    0  0.00000000000E+00  0.00000000000E+00 -0.24204747179E+04  0.33674029287E+04  0.23410904775E+04 0.  0.
        5    1    3    3  502    0 -0.11851756280E+03  0.77888807416E+03 -0.24554560107E+04  0.25787592667E+04  0.46999998093E+01 0.  1.
       -5    1    3    3    0  502  0.11851756280E+03 -0.77888807416E+03  0.34981292800E+02  0.78864366200E+03  0.46999998093E+01 0. -1.
</event>
<event>
 5   0  0.2722449E-06  0.3447720E+04  0.7818609E-02  0.8126293E-01
        2   -1    0    0  501    0  0.00000000000E+00  0.00000000000E+00  0.16706685145E+04  0.16706685145E+04  0.25500000920E-02 0.  1.
       -2   -1    0    0    0  501  0.00000000000E+00  0.00000000000E+00 -0.17787447829E+04  0.17787447829E+04  0.25500000920E-02 0. -1.
    10030    2    1    2    0    0  0.00000000000E+00  0.00000000000E+00 -0.10807626838E+03  0.34494132974E+04  0.34477197706E+04 0.  0.
        2    1    3    3  502    0  0.48545918508E+03  0.11783896733E+04  0.11073162896E+04  0.16883193441E+04  0.25500000920E-02 0.  1.
       -2    1    3    3    0  502 -0.48545918508E+03 -0.11783896733E+04 -0.12153925580E+04  0.17610939533E+04  0.25500000920E-02 0. -1.
</event>
<event>
 5   0  0.2722449E-06  0.3237234E+04  0.7818609E-02  0.8179052E-01
       -2   -1    0    0    0  501  0.00000000000E+00  0.00000000000E+00  0.13283069865E+04  0.13283069865E+04  0.25500000920E-02 0. -1.
        2   -1    0    0  501    0  0.00000000000E+00  0.00000000000E+00 -0.19723761930E+04  0.19723761930E+04  0.25500000920E-02 0.  1.
    10030    2    1    2    0    0  0.00000000000E+00  0.00000000000E+00 -0.64406920649E+03  0.33006831795E+04  0.32372340522E+04 0.  0.
        2    1    3    3  502    0 -0.31816626417E+03  0.15311845073E+04 -0.74754538484E+03  0.17333723978E+04  0.25500000920E-02 0.  1.
       -2    1    3    3    0  502  0.31816626417E+03 -0.15311845073E+04  0.10347617835E+03  0.15673107817E+04  0.25500000920E-02 0. -1.
</event>
<event>
 5   0  0.4173467E-06  0.3393305E+04  0.7818609E-02  0.8139552E-01
       -2   -1    0    0    0  501  0.00000000000E+00  0.00000000000E+00  0.12435831092E+04  0.12435831092E+04  0.25500000920E-02 0.  1.
        2   -1    0    0  501    0  0.00000000000E+00  0.00000000000E+00 -0.23147861455E+04  0.23147861455E+04  0.25500000920E-02 0. -1.
    10030    2    1    2    0    0  0.00000000000E+00  0.00000000000E+00 -0.10712030363E+04  0.35583692548E+04  0.33933045558E+04 0.  0.
        4    1    3    3  502    0 -0.14896013958E+04 -0.78425470482E+03 -0.75720954372E+03  0.18458969815E+04  0.12699999809E+01 0.  1.
       -4    1    3    3    0  502  0.14896013958E+04  0.78425470482E+03 -0.31399349259E+03  0.17124722733E+04  0.12699999809E+01 0. -1.
</event>
<event>
 5   0  0.4400349E-06  0.3360893E+04  0.7818609E-02  0.8147572E-01
       -2   -1    0    0    0  501  0.00000000000E+00  0.00000000000E+00  0.10965178237E+04  0.10965178237E+04  0.25500000920E-02 0.  1.
        2   -1    0    0  501    0  0.00000000000E+00  0.00000000000E+00 -0.25753354247E+04  0.25753354247E+04  0.25500000920E-02 0. -1.
    10030    2    1    2    0    0  0.00000000000E+00  0.00000000000E+00 -0.14788176010E+04  0.36718532484E+04  0.33608934497E+04 0.  0.
        5    1    3    3  502    0  0.14102588053E+04 -0.24558931648E+03  0.22221938951E+03  0.14486364476E+04  0.46999998093E+01 0.  1.
       -5    1    3    3    0  502 -0.14102588053E+04  0.24558931648E+03 -0.17010369905E+04  0.22232168008E+04  0.46999998093E+01 0. -1.
</event>
<event>
 5   0  0.4173467E-06  0.2760505E+04  0.7818609E-02  0.8315636E-01
        2   -1    0    0  501    0  0.00000000000E+00  0.00000000000E+00  0.11984286223E+04  0.11984286223E+04  0.25500000920E-02 0. -1.
       -2   -1    0    0    0  501  0.00000000000E+00  0.00000000000E+00 -0.15896629598E+04  0.15896629598E+04  0.25500000920E-02 0.  1.
    10030    2    1    2    0    0  0.00000000000E+00  0.00000000000E+00 -0.39123433757E+03  0.27880915821E+04  0.27605054543E+04 0.  0.
        4    1    3    3  502    0  0.76110573468E+03 -0.68981065012E+03 -0.11267713114E+04  0.15247084552E+04  0.12699999809E+01 0.  1.
       -4    1    3    3    0  502 -0.76110573468E+03  0.68981065012E+03  0.73553697385E+03  0.12633831268E+04  0.12699999809E+01 0. -1.
</event>
<event>
 5   0  0.1562618E-06  0.3418892E+04  0.7818609E-02  0.8133285E-01
        1   -1    0    0  501    0  0.00000000000E+00  0.00000000000E+00  0.21009984236E+04  0.21009984236E+04  0.50400001928E-02 0. -1.
       -1   -1    0    0    0  501  0.00000000000E+00  0.00000000000E+00 -0.13908653507E+04  0.13908653508E+04  0.50400001928E-02 0.  1.
    10030    2    1    2    0    0  0.00000000000E+00  0.00000000000E+00  0.71013307287E+03  0.34918637744E+04  0.34188921653E+04 0.  0.
        2    1    3    3  502    0 -0.11618965075E+04 -0.73344980405E+03  0.13937553447E+04  0.19571678697E+04  0.25500000920E-02 0. -1.
       -2    1    3    3    0  502  0.11618965075E+04  0.73344980405E+03 -0.68362227184E+03  0.15346959047E+04  0.25500000920E-02 0.  1.
</event>
<event>
 5   0  0.1562618E-06  0.3642518E+04  0.7818609E-02  0.8080821E-01
       -1   -1    0    0    0  501  0.00000000000E+00  0.00000000000E+00  0.16266733869E+04  0.16266733869E+04  0.50400001928E-02 0. -1.
        1   -1    0    0  501    0  0.00000000000E+00  0.00000000000E+00 -0.20391211145E+04  0.20391211145E+04  0.50400001928E-02 0.  1.
    10030    2    1    2    0    0  0.00000000000E+00  0.00000000000E+00 -0.41244772756E+03  0.36657945014E+04  0.36425178377E+04 0.  0.
        2    1    3    3  502    0 -0.28104748098E+03  0.13852893579E+04  0.94957921543E+03  0.17028549493E+04  0.25500000920E-02 0. -1.
       -2    1    3    3    0  502  0.28104748098E+03 -0.13852893579E+04 -0.13620269430E+04  0.19629395521E+04  0.25500000920E-02 0.  1.
</event>
<event>
 5   0  0.1550164E-06  0.1795897E+04  0.7818609E-02  0.8708485E-01
        1   -1    0    0  501    0  0.00000000000E+00  0.00000000000E+00  0.17814385953E+04  0.17814385953E+04  0.50400001928E-02 0.  1.
       -1   -1    0    0    0  501  0.00000000000E+00  0.00000000000E+00 -0.45261805952E+03  0.45261805954E+03  0.50400001928E-02 0. -1.
    10030    2    1    2    0    0  0.00000000000E+00  0.00000000000E+00  0.13288205357E+04  0.22340566548E+04  0.17958967456E+04 0.  0.
        4    1    3    3  502    0 -0.15475398897E+03 -0.57527299082E+03  0.15002136229E+04  0.16141655238E+04  0.12699999809E+01 0. -1.
       -4    1    3    3    0  502  0.15475398897E+03  0.57527299082E+03 -0.17139308715E+03  0.61989113099E+03  0.12699999809E+01 0.  1.
</event>
<event>
 5   0  0.4173467E-06  0.3365258E+04  0.7818609E-02  0.8146486E-01
       -2   -1    0    0    0  501  0.00000000000E+00  0.00000000000E+00  0.14059244014E+04  0.14059244014E+04  0.25500000920E-02 0.  1.
        2   -1    0    0  501    0  0.00000000000E+00  0.00000000000E+00 -0.20137932736E+04  0.20137932736E+04  0.25500000920E-02 0. -1.
    10030    2    1    2    0    0  0.00000000000E+00  0.00000000000E+00 -0.60786887228E+03  0.34197176750E+04  0.33652584464E+04 0.  0.
        4    1    3    3  502    0  0.35582451785E+03  0.15081030817E+04 -0.97048643437E+03  0.18283411948E+04  0.12699999809E+01 0. -1.
       -4    1    3    3    0  502 -0.35582451785E+03 -0.15081030817E+04  0.36261756209E+03  0.15913764802E+04  0.12699999809E+01 0.  1.
</event>
<event>
 5   0  0.1571391E-06  0.2893934E+04  0.7818609E-02  0.8274685E-01
       -1   -1    0    0    0  501  0.00000000000E+00  0.00000000000E+00  0.12646841242E+04  0.12646841242E+04  0.50400001928E-02 0.  1.
        1   -1    0    0  501    0  0.00000000000E+00  0.00000000000E+00 -0.16555225672E+04  0.16555225672E+04  0.50400001928E-02 0. -1.
    10030    2    1    2    0    0  0.00000000000E+00  0.00000000000E+00 -0.39083844295E+03  0.29202066914E+04  0.28939337297E+04 0.  0.
        1    1    3    3  502    0  0.67811400425E+03 -0.10577056229E+04 -0.91966309696E+03  0.15570356449E+04  0.50400001928E-02 0. -1.
       -1    1    3    3    0  502 -0.67811400425E+03  0.10577056229E+04  0.52882465402E+03  0.13631710465E+04  0.50400001928E-02 0.  1.
</event>
<event>
 5   0  0.2101998E-06  0.3376688E+04  0.7818609E-02  0.8143652E-01
       -1   -1    0    0    0  501  0.00000000000E+00  0.00000000000E+00  0.23418518727E+04  0.23418518727E+04  0.50400001928E-02 0.  1.
        1   -1    0    0  501    0  0.00000000000E+00  0.00000000000E+00 -0.12172011247E+04  0.12172011247E+04  0.50400001928E-02 0. -1.
    10030    2    1    2    0    0  0.00000000000E+00  0.00000000000E+00  0.11246507481E+04  0.35590529974E+04  0.33766875682E+04 0.  0.
        5    1    3    3  502    0  0.55955770836E+02 -0.16696062545E+04  0.30465014551E+03  0.16981018504E+04  0.46999998093E+01 0. -1.
       -5    1    3    3    0  502 -0.55955770836E+02  0.16696062545E+04  0.82000060254E+03  0.18609511470E+04  0.46999998093E+01 0.  1.
</event>
<event>
 5   0  0.1654257E-06  0.3096246E+04  0.7818609E-02  0.8216769E-01
       -1   -1    0    0    0  501  0.00000000000E+00  0.00000000000E+00  0.11898080049E+04  0.11898080050E+04  0.50400001928E-02 0. -1.
        1   -1    0    0  501    0  0.00000000000E+00  0.00000000000E+00 -0.20143464032E+04  0.20143464033E+04  0.50400001928E-02 0.  1.
    10030    2    1    2    0    0  0.00000000000E+00  0.00000000000E+00 -0.82453839830E+03  0.32041544082E+04  0.30962464213E+04 0.  0.
        3    1    3    3  502    0  0.77218529123E+03  0.19056764170E+03 -0.17867523950E+04  0.19557786892E+04  0.10100000352E+00 0.  1.
       -3    1    3    3    0  502 -0.77218529123E+03 -0.19056764170E+03  0.96221399670E+03  0.12483757190E+04  0.10100000352E+00 0. -1.
</event>
<event>
 5   0  0.2722449E-06  0.1918468E+04  0.7818609E-02  0.8645718E-01
        2   -1    0    0  501    0  0.00000000000E+00  0.00000000000E+00  0.79375641522E+03  0.79375641522E+03  0.25500000920E-02 0. -1.
       -2   -1    0    0    0  501  0.00000000000E+00  0.00000000000E+00 -0.11592098430E+04  0.11592098430E+04  0.25500000920E-02 0.  1.
    10030    2    1    2    0    0  0.00000000000E+00  0.00000000000E+00 -0.36545342775E+03  0.19529662582E+04  0.19184683989E+04 0.  0.
        2    1    3    3  502    0  0.49835826686E+03 -0.66955652387E+03  0.29849281246E+03  0.88643378766E+03  0.25500000920E-02 0. -1.
       -2    1    3    3    0  502 -0.49835826686E+03  0.66955652387E+03 -0.66394624020E+03  0.10665324705E+04  0.25500000920E-02 0.  1.
</event>
<event>
 5   0  0.2722449E-06  0.3400420E+04  0.7818609E-02  0.8137803E-01
        2   -1    0    0  501    0  0.00000000000E+00  0.00000000000E+00  0.19995248646E+04  0.19995248647E+04  0.25500000920E-02 0. -1.
       -2   -1    0    0    0  501  0.00000000000E+00  0.00000000000E+00 -0.14457003011E+04  0.14457003011E+04  0.25500000920E-02 0.  1.
    10030    2    1    2    0    0  0.00000000000E+00  0.00000000000E+00  0.55382456355E+03  0.34452251658E+04  0.34004197970E+04 0.  0.
        2    1    3    3  502    0  0.17796996464E+03  0.64041950805E+03  0.18624292281E+04  0.19774865573E+04  0.25500000920E-02 0. -1.
       -2    1    3    3    0  502 -0.17796996464E+03 -0.64041950805E+03 -0.13086046646E+04  0.14677386084E+04  0.25500000920E-02 0.  1.
</event>
<event>
 5   0  0.4173467E-06  0.3374332E+04  0.7818609E-02  0.8144235E-01
       -2   -1    0    0    0  501  0.00000000000E+00  0.00000000000E+00  0.19981083539E+04  0.19981083539E+04  0.25500000920E-02 0.  1.
        2   -1    0    0  501    0  0.00000000000E+00  0.00000000000E+00 -0.14246118634E+04  0.14246118634E+04  0.25500000920E-02 0. -1.
    10030    2    1    2    0    0  0.00000000000E+00  0.00000000000E+00  0.57349649043E+03  0.34227202173E+04  0.33743318540E+04 0.  0.
        4    1    3    3  502    0 -0.13529106813E+03  0.89871144255E+03  0.17285895966E+04  0.19529489334E+04  0.12699999809E+01 0.  1.
       -4    1    3    3    0  502  0.13529106813E+03 -0.89871144255E+03 -0.11550931062E+04  0.14697712839E+04  0.12699999809E+01 0. -1.
</event>
<event>
 5   0  0.2101998E-06  0.3382759E+04  0.7818609E-02  0.8142151E-01
       -1   -1    0    0    0  501  0.00000000000E+00  0.00000000000E+00  0.14085467145E+04  0.14085467145E+04  0.50400001928E-02 0. -1.
        1   -1    0    0  501    0  0.00000000000E+00  0.00000000000E+00 -0.20310038488E+04  0.20310038488E+04  0.50400001928E-02 0.  1.
    10030    2    1    2    0    0  0.00000000000E+00  0.00000000000E+00 -0.62245713432E+03  0.34395505634E+04  0.33827585184E+04 0.  0.
        5    1    3    3  502    0 -0.12977741852E+04 -0.10733450280E+04 -0.15222439120E+03  0.16910002188E+04  0.46999998093E+01 0.  1.
       -5    1    3    3    0  502  0.12977741852E+04  0.10733450280E+04 -0.47023274312E+03  0.17485503446E+04  0.46999998093E+01 0. -1.
</event>
<event>
 5   0  0.1571391E-06  0.1880494E+04  0.7818609E-02  0.8664627E-01
       -1   -1    0    0    0  501  0.00000000000E+00  0.00000000000E+00  0.11601090168E+04  0.11601090168E+04  0.50400001928E-02 0.  1.
        1   -1    0    0  501    0  0.00000000000E+00  0.00000000000E+00 -0.76205303553E+03  0.76205303555E+03  0.50400001928E-02 0. -1.
    10030    2    1    2    0    0  0.00000000000E+00  0.00000000000E+00  0.39805598124E+03  0.19221620523E+04  0.18804941880E+04 0.  0.
        1    1    3    3  502    0 -0.73271163243E+03  0.36414911292E+03 -0.27447908427E+03  0.86302356889E+03  0.50400001928E-02 0. -1.
       -1    1    3    3    0  502  0.73271163243E+03 -0.36414911292E+03  0.67253506551E+03  0.10591384834E+04  0.50400001928E-02 0.  1.
</event>
<event>
 5   0  0.1562618E-06  0.3251172E+04  0.7818609E-02  0.8175432E-01
        1   -1    0    0  501    0  0.00000000000E+00  0.00000000000E+00  0.15353921161E+04  0.15353921161E+04  0.50400001928E-02 0.  1.
       -1   -1    0    0    0  501  0.00000000000E+00  0.00000000000E+00 -0.17210783262E+04  0.17210783262E+04  0.50400001928E-02 0. -1.
    10030    2    1    2    0    0  0.00000000000E+00  0.00000000000E+00 -0.18568621010E+03  0.32564704423E+04  0.32511721537E+04 0.  0.
        2    1    3    3  502    0 -0.45680949512E+03  0.13955525599E+04 -0.79132323105E+03  0.16680630439E+04  0.25500000920E-02 0. -1.
       -2    1    3    3    0  502  0.45680949512E+03 -0.13955525599E+04  0.60563702095E+03  0.15884073985E+04  0.25500000920E-02 0.  1.
</event>
<event>
 5   0  0.4400349E-06  0.3508673E+04  0.7818609E-02  0.8111738E-01
        2   -1    0    0  501    0  0.00000000000E+00  0.00000000000E+00  0.27135415039E+04  0.27135415039E+04  0.25500000920E-02 0.  1.
       -2   -1    0    0    0  501  0.00000000000E+00  0.00000000000E+00 -0.11341991045E+04  0.11341991045E+04  0.25500000920E-02 0. -1.
    10030    2    1    2    0    0  0.00000000000E+00  0.00000000000E+00  0.15793423994E+04  0.38477406084E+04  0.35086728795E+04 0.  0.
        5    1    3    3  502    0 -0.75581912323E+02  0.44404845467E+03  0.26490394484E+04  0.26870660105E+04  0.46999998093E+01 0.  1.
       -5    1    3    3    0  502  0.75581912323E+02 -0.44404845467E+03 -0.10696970490E+04  0.11606745979E+04  0.46999998093E+01 0. -1.
</event>
<event>
 5   0  0.1654257E-06  0.2563844E+04  0.7818609E-02  0.8380587E-01
       -1   -1    0    0    0  501  0.00000000000E+00  0.00000000000E+00  0.13428594406E+04  0.13428594406E+04  0.50400001928E-02 0.  1.
        1   -1    0    0  501    0  0.00000000000E+00  0.00000000000E+00 -0.12237493815E+04  0.12237493815E+04  0.50400001928E-02 0. -1.
    10030    2    1    2    0    0  0.00000000000E+00  0.00000000000E+00  0.11911005910E+03  0.25666088221E+04  0.25638435287E+04 0.  0.
        3    1    3    3  502    0  0.33679682655E+02  0.10451165572E+04 -0.68281102533E+03  0.12488530120E+04  0.10100000352E+00 0. -1.
       -3    1    3    3    0  502 -0.33679682655E+02 -0.10451165572E+04  0.80192108442E+03  0.13177558101E+04  0.10100000352E+00 0.  1.
</event>
<event>
 5   0  0.1562618E-06  0.2481579E+04  0.7818609E-02  0.8409578E-01
       -1   -1    0    0    0  501  0.00000000000E+00  0.00000000000E+00  0.15516067906E+04  0.15516067906E+04  0.50400001928E-02 0.  1.
        1   -1    0    0  501    0  0.00000000000E+00  0.00000000000E+00 -0.99223521633E+03  0.99223521634E+03  0.50400001928E-02 0. -1.
    10030    2    1    2    0    0  0.00000000000E+00  0.00000000000E+00  0.55937157425E+03  0.25438420069E+04  0.24815792549E+04 0.  0.
        2    1    3    3  502    0 -0.12041888359E+04 -0.17088204692E+03  0.53138133030E+03  0.13272669455E+04  0.25500000920E-02 0. -1.
       -2    1    3    3    0  502  0.12041888359E+04  0.17088204692E+03  0.27990243954E+02  0.12165750614E+04  0.25500000920E-02 0.  1.
</event>
<event>
 5   0  0.4344980E-06  0.2891166E+04  0.7818609E-02  0.8275511E-01
       -2   -1    0    0    0  501  0.00000000000E+00  0.00000000000E+00  0.12733964644E+04  0.12733964644E+04  0.25500000920E-02 0.  1.
        2   -1    0    0  501    0  0.00000000000E+00  0.00000000000E+00 -0.16410517500E+04  0.16410517500E+04  0.25500000920E-02 0. -1.
    10030    2    1    2    0    0  0.00000000000E+00  0.00000000000E+00 -0.36765528560E+03  0.29144482145E+04  0.28911655065E+04 0.  0.
        3    1    3    3  502    0  0.66438720545E+03 -0.85314281810E+03  0.78329745743E+03  0.13352220579E+04  0.10100000352E+00 0.  1.
       -3    1    3    3    0  502 -0.66438720545E+03  0.85314281810E+03 -0.11509527430E+04  0.15792261566E+04  0.10100000352E+00 0. -1.
</event>
<event>
 5   0  0.1654257E-06  0.2617021E+04  0.7818609E-02  0.8362443E-01
        1   -1    0    0  501    0  0.00000000000E+00  0.00000000000E+00  0.94333104630E+03  0.94333104631E+03  0.50400001928E-02 0. -1.
       -1   -1    0    0    0  501  0.00000000000E+00  0.00000000000E+00 -0.18150566418E+04  0.18150566418E+04  0.50400001928E-02 0.  1.
    10030    2    1    2    0    0  0.00000000000E+00  0.00000000000E+00 -0.87172559550E+03  0.27583876881E+04  0.26170206579E+04 0.  0.
        3    1    3    3  502    0 -0.13117525066E+03 -0.97677062098E+03 -0.13431218631E+04  0.16659124052E+04  0.10100000352E+00 0.  1.
       -3    1    3    3    0  502  0.13117525066E+03  0.97677062098E+03  0.47139626764E+03  0.10924752829E+04  0.10100000352E+00 0. -1.
</event>
<event>
 5   0  0.1654257E-06  0.1861210E+04  0.7818609E-02  0.8674409E-01
        1   -1    0    0  501    0  0.00000000000E+00  0.00000000000E+00  0.15767572838E+04  0.15767572838E+04  0.50400001928E-02 0. -1.
       -1   -1    0    0    0  501  0.00000000000E+00  0.00000000000E+00 -0.54924477345E+03  0.54924477347E+03  0.50400001928E-02 0.  1.
    10030    2    1    2    0    0  0.00000000000E+00  0.00000000000E+00  0.10275125104E+04  0.21260020573E+04  0.18612100335E+04 0.  0.
        3    1    3    3  502    0 -0.18897539043E+03 -0.45702143157E+02 -0.52578694642E+03  0.56058211468E+03  0.10100000352E+00 0.  1.
       -3    1    3    3    0  502  0.18897539043E+03  0.45702143157E+02  0.15532994568E+04  0.15654199426E+04  0.10100000352E+00 0. -1.
</event>
<event>
 5   0  0.1571391E-06  0.2947538E+04  0.7818609E-02  0.8258872E-01
       -1   -1    0    0    0  501  0.00000000000E+00  0.00000000000E+00  0.86471825356E+03  0.86471825357E+03  0.50400001928E-02 0. -1.
        1   -1    0    0  501    0  0.00000000000E+00  0.00000000000E+00 -0.25117958282E+04  0.25117958282E+04  0.50400001928E-02 0.  1.
    10030    2    1    2    0    0  0.00000000000E+00  0.00000000000E+00 -0.16470775746E+04  0.33765140817E+04  0.29475384319E+04 0.  0.
        1    1    3    3  502    0  0.12382260661E+04  0.25937993447E+03  0.42470422500E+02  0.12658141562E+04  0.50400001928E-02 0. -1.
       -1    1    3    3    0  502 -0.12382260661E+04 -0.25937993447E+03 -0.16895479971E+04  0.21106999256E+04  0.50400001928E-02 0.  1.
</event>
<event>
 5   0  0.4400349E-06  0.3360790E+04  0.7818609E-02  0.8147597E-01
        2   -1    0    0  501    0  0.00000000000E+00  0.00000000000E+00  0.24870825300E+04  0.24870825300E+04  0.25500000920E-02 0. -1.
       -2   -1    0    0    0  501  0.00000000000E+00  0.00000000000E+00 -0.11353572864E+04  0.11353572864E+04  0.25500000920E-02 0.  1.
    10030    2    1    2    0    0  0.00000000000E+00  0.00000000000E+00  0.13517252436E+04  0.36224398164E+04  0.33607899502E+04 0.  0.
        5    1    3    3  502    0  0.69926237769E+03  0.14875984186E+04  0.29971136984E+03  0.16708578405E+04  0.46999998093E+01 0.  1.
       -5    1    3    3    0  502 -0.69926237769E+03 -0.14875984186E+04  0.10520138737E+04  0.19515819759E+04  0.46999998093E+01 0. -1.
</event>
<event>
 5   0  0.1562618E-06  0.1906307E+04  0.7818609E-02  0.8651723E-01
       -1   -1    0    0    0  501  0.00000000000E+00  0.00000000000E+00  0.63211628844E+03  0.63211628847E+03  0.50400001928E-02 0.  1.
        1   -1    0    0  501    0  0.00000000000E+00  0.00000000000E+00 -0.14372379043E+04  0.14372379043E+04  0.50400001928E-02 0. -1.
    10030    2    1    2    0    0  0.00000000000E+00  0.00000000000E+00 -0.80512161589E+03  0.20693541928E+04  0.19063068900E+04 0.  0.
        2    1    3    3  502    0  0.15390718663E+03  0.80271245787E+03 -0.93487685143E+03  0.12417847798E+04  0.25500000920E-02 0. -1.
       -2    1    3    3    0  502 -0.15390718663E+03 -0.80271245787E+03  0.12975523554E+03  0.82756941296E+03  0.25500000920E-02 0.  1.
</event>
<event>
 5   0  0.1562618E-06  0.3595868E+04  0.7818609E-02  0.8091439E-01
        1   -1    0    0  501    0  0.00000000000E+00  0.00000000000E+00  0.12213706408E+04  0.12213706408E+04  0.50400001928E-02 0. -1.
       -1   -1    0    0    0  501  0.00000000000E+00  0.00000000000E+00 -0.26466712557E+04  0.26466712557E+04  0.50400001928E-02 0.  1.
    10030    2    1    2    0    0  0.00000000000E+00  0.00000000000E+00 -0.14253006149E+04  0.38680418965E+04  0.35958679440E+04 0.  0.
        2    1    3    3  502    0 -0.64631178218E+03  0.93927171502E+03 -0.22080602149E+04  0.24850513450E+04  0.25500000920E-02 0.  1.
       -2    1    3    3    0  502  0.64631178218E+03 -0.93927171502E+03  0.78275959996E+03  0.13829905516E+04  0.25500000920E-02 0. -1.
</event>
<event>
 5   0  0.4344980E-06  0.3573616E+04  0.7818609E-02  0.8096562E-01
       -2   -1    0    0    0  501  0.00000000000E+00  0.00000000000E+00  0.11886441826E+04  0.11886441826E+04  0.25500000920E-02 0. -1.
        2   -1    0    0  501    0  0.00000000000E+00  0.00000000000E+00 -0.26859863089E+04  0.26859863089E+04  0.25500000920E-02 0.  1.
    10030    2    1    2    0    0  0.00000000000E+00  0.00000000000E+00 -0.14973421263E+04  0.38746304916E+04  0.35736155366E+04 0.  0.
        3    1    3    3  502    0 -0.72830954425E+03 -0.69372556129E+03 -0.23498855287E+04  0.25561009281E+04  0.10100000352E+00 0.  1.
       -3    1    3    3    0  502  0.72830954425E+03  0.69372556129E+03  0.85254340238E+03  0.13185295635E+04  0.10100000352E+00 0. -1.
</event>
<event>
 5   0  0.2722449E-06  0.3893216E+04  0.7818609E-02  0.8026442E-01
       -2   -1    0    0    0  501  0.00000000000E+00  0.00000000000E+00  0.16106416798E+04  0.16106416798E+04  0.25500000920E-02 0.  1.
        2   -1    0    0  501    0  0.00000000000E+00  0.00000000000E+00 -0.23526537074E+04  0.23526537074E+04  0.25500000920E-02 0. -1.
    10030    2    1    2    0    0  0.00000000000E+00  0.00000000000E+00 -0.74201202754E+03  0.39632953872E+04  0.38932156988E+04 0.  0.
        2    1    3    3  502    0  0.12331372434E+04 -0.62802958190E+03 -0.17646756053E+04  0.22425718737E+04  0.25500000920E-02 0. -1.
       -2    1    3    3    0  502 -0.12331372434E+04  0.62802958190E+03  0.10226635777E+04  0.17207235135E+04  0.25500000920E-02 0.  1.
</event>
<event>
 5   0  0.4173467E-06  0.3103701E+04  0.7818609E-02  0.8214723E-01
        2   -1    0    0  501    0  0.00000000000E+00  0.00000000000E+00  0.25940835248E+04  0.25940835248E+04  0.25500000920E-02 0. -1.
       -2   -1    0    0    0  501  0.00000000000E+00  0.00000000000E+00 -0.92835880658E+03  0.92835880658E+03  0.25500000920E-02 0.  1.
    10030    2    1    2    0    0  0.00000000000E+00  0.00000000000E+00  0.16657247182E+04  0.35224423314E+04  0.31037012003E+04 0.  0.
        4    1    3    3  502    0 -0.36640085762E+02  0.12902733016E+03 -0.92176735829E+03  0.93147583088E+03  0.12699999809E+01 0.  1.
       -4    1    3    3    0  502  0.36640085762E+02 -0.12902733016E+03  0.25874920765E+04  0.25909665005E+04  0.12699999809E+01 0. -1.
</event>
<event>
 5   0  0.2101998E-06  0.3420296E+04  0.7818609E-02  0.8132943E-01
        1   -1    0    0  501    0  0.00000000000E+00  0.00000000000E+00  0.20390451077E+04  0.20390451077E+04  0.50400001928E-02 0.  1.
       -1   -1    0    0    0  501  0.00000000000E+00  0.00000000000E+00 -0.14343016797E+04  0.14343016797E+04  0.50400001928E-02 0. -1.
    10030    2    1    2    0    0  0.00000000000E+00  0.00000000000E+00  0.60474342800E+03  0.34733467873E+04  0.34202957900E+04 0.  0.
        5    1    3    3  502    0 -0.11977715520E+04  0.30379384468E+03 -0.89818193769E+03  0.15276453365E+04  0.46999998093E+01 0. -1.
       -5    1    3    3    0  502  0.11977715520E+04 -0.30379384468E+03  0.15029253657E+04  0.19457014508E+04  0.46999998093E+01 0.  1.
</event>
<event>
 5   0  0.1654257E-06  0.3388178E+04  0.7818609E-02  0.8140814E-01
        1   -1    0    0  501    0  0.00000000000E+00  0.00000000000E+00  0.13875964867E+04  0.13875964868E+04  0.50400001928E-02 0. -1.
       -1   -1    0    0    0  501  0.00000000000E+00  0.00000000000E+00 -0.20682793149E+04  0.20682793149E+04  0.50400001928E-02 0.  1.
    10030    2    1    2    0    0  0.00000000000E+00  0.00000000000E+00 -0.68068282816E+03  0.34558758017E+04  0.33881777468E+04 0.  0.
        3    1    3    3  502    0  0.70509493722E+03 -0.15395704536E+04 -0.28933168625E+03  0.17178908251E+04  0.10100000352E+00 0.  1.
       -3    1    3    3    0  502 -0.70509493722E+03  0.15395704536E+04 -0.39135114190E+03  0.17379849765E+04  0.10100000352E+00 0. -1.
</event>
<event>
 5   0  0.4173467E-06  0.3386836E+04  0.7818609E-02  0.8141145E-01
       -2   -1    0    0    0  501  0.00000000000E+00  0.00000000000E+00  0.17208904360E+04  0.17208904360E+04  0.25500000920E-02 0. -1.
        2   -1    0    0  501    0  0.00000000000E+00  0.00000000000E+00 -0.16663838127E+04  0.16663838128E+04  0.25500000920E-02 0.  1.
    10030    2    1    2    0    0  0.00000000000E+00  0.00000000000E+00  0.54506623263E+02  0.33872742488E+04  0.33868356713E+04 0.  0.
        4    1    3    3  502    0 -0.49789960458E+03 -0.15315096070E+04 -0.49649060441E+03  0.16852092528E+04  0.12699999809E+01 0.  1.
       -4    1    3    3    0  502  0.49789960458E+03  0.15315096070E+04  0.55099722768E+03  0.17020649959E+04  0.12699999809E+01 0. -1.
</event>
<event>
 5   0  0.4400349E-06  0.3244863E+04  0.7818609E-02  0.8177068E-01
        2   -1    0    0  501    0  0.00000000000E+00  0.00000000000E+00  0.15783138449E+04  0.15783138449E+04  0.25500000920E-02 0. -1.
       -2   -1    0    0    0  501  0.00000000000E+00  0.00000000000E+00 -0.16677827405E+04  0.16677827405E+04  0.25500000920E-02 0.  1.
    10030    2    1    2    0    0  0.00000000000E+00  0.00000000000E+00 -0.89468895663E+02  0.32460965854E+04  0.32448633806E+04 0.  0.
        5    1    3    3  502    0 -0.35524861171E+02  0.44646519981E+03  0.15152392584E+04  0.15800523063E+04  0.46999998093E+01 0. -1.
       -5    1    3    3    0  502  0.35524861171E+02 -0.44646519981E+03 -0.16047081541E+04  0.16660442792E+04  0.46999998093E+01 0.  1.
</event>
<event>
 5   0  0.1654257E-06  0.1698645E+04  0.7818609E-02  0.8762138E-01
        1   -1    0    0  501    0  0.00000000000E+00  0.00000000000E+00  0.11943658253E+04  0.11943658253E+04  0.50400001928E-02 0. -1.
       -1   -1    0    0    0  501  0.00000000000E+00  0.00000000000E+00 -0.60395943264E+03  0.60395943266E+03  0.50400001928E-02 0.  1.
    10030    2    1    2    0    0  0.00000000000E+00  0.00000000000E+00  0.59040639269E+03  0.17983252580E+04  0.16986447613E+04 0.  0.
        3    1    3    3  502    0 -0.28100807424E+03 -0.50855876115E+03 -0.36062548972E+03  0.68384815959E+03  0.10100000352E+00 0.  1.
       -3    1    3    3    0  502  0.28100807424E+03  0.50855876115E+03  0.95103188241E+03  0.11144770984E+04  0.10100000352E+00 0. -1.
</event>
<event>
 5   0  0.1571391E-06  0.3410530E+04  0.7818609E-02  0.8135327E-01
        1   -1    0    0  501    0  0.00000000000E+00  0.00000000000E+00  0.11459868682E+04  0.11459868682E+04  0.50400001928E-02 0.  1.
       -1   -1    0    0    0  501  0.00000000000E+00  0.00000000000E+00 -0.25374883041E+04  0.25374883041E+04  0.50400001928E-02 0. -1.
    10030    2    1    2    0    0  0.00000000000E+00  0.00000000000E+00 -0.13915014359E+04  0.36834751723E+04  0.34105297387E+04 0.  0.
        1    1    3    3  502    0 -0.66379235424E+03  0.97741464280E+03  0.63227746722E+03  0.13400501741E+04  0.50400001928E-02 0.  1.
       -1    1    3    3    0  502  0.66379235424E+03 -0.97741464280E+03 -0.20237789031E+04  0.23434249982E+04  0.50400001928E-02 0. -1.
</event>
<event>
 5   0  0.2722449E-06  0.2470464E+04  0.7818609E-02  0.8413584E-01
        2   -1    0    0  501    0  0.00000000000E+00  0.00000000000E+00  0.20404926060E+04  0.20404926060E+04  0.25500000920E-02 0. -1.
       -2   -1    0    0    0  501  0.00000000000E+00  0.00000000000E+00 -0.74775984772E+03  0.74775984772E+03  0.25500000920E-02 0.  1.
    10030    2    1    2    0    0  0.00000000000E+00  0.00000000000E+00  0.12927327583E+04  0.27882524537E+04  0.24704642805E+04 0.  0.
        2    1    3    3  502    0  0.75734755810E+03  0.70025002417E+03 -0.12066796704E+03  0.10385018914E+04  0.25500000920E-02 0.  1.
       -2    1    3    3    0  502 -0.75734755810E+03 -0.70025002417E+03  0.14134007253E+04  0.17497505624E+04  0.25500000920E-02 0. -1.
</event>
<event>
 5   0  0.4344980E-06  0.3295993E+04  0.7818609E-02  0.8163916E-01
       -2   -1    0    0    0  501  0.00000000000E+00  0.00000000000E+00  0.11774514199E+04  0.11774514199E+04  0.25500000920E-02 0.  1.
        2   -1    0    0  501    0  0.00000000000E+00  0.00000000000E+00 -0.23065858322E+04  0.23065858322E+04  0.25500000920E-02 0. -1.
    10030    2    1    2    0    0  0.00000000000E+00  0.00000000000E+00 -0.11291344123E+04  0.34840372521E+04  0.32959931815E+04 0.  0.
        3    1    3    3  502    0  0.71153003571E+03  0.42918605672E+03 -0.20689339370E+04  0.22295657220E+04  0.10100000352E+00 0. -1.
       -3    1    3    3    0  502 -0.71153003571E+03 -0.42918605672E+03  0.93979952465E+03  0.12544715301E+04  0.10100000352E+00 0.  1.
</event>
<event>
 5   0  0.4173467E-06  0.3387595E+04  0.7818609E-02  0.8140958E-01
       -2   -1    0    0    0  501  0.00000000000E+00  0.00000000000E+00  0.13373656327E+04  0.13373656327E+04  0.25500000920E-02 0. -1.
        2   -1    0    0  501    0  0.00000000000E+00  0.00000000000E+00 -0.21452246262E+04  0.21452246262E+04  0.25500000920E-02 0.  1.
    10030    2    1    2    0    0  0.00000000000E+00  0.00000000000E+00 -0.80785899343E+03  0.34825902589E+04  0.33875948338E+04 0.  0.
        4    1    3    3  502    0  0.66366712464E+03 -0.15123226761E+04 -0.17388182726E+02  0.16516288599E+04  0.12699999809E+01 0. -1.
       -4    1    3    3    0  502 -0.66366712464E+03  0.15123226761E+04 -0.79047081070E+03  0.18309613990E+04  0.12699999809E+01 0.  1.
</event>
<event>
 5   0  0.2722449E-06  0.3417039E+04  0.7818609E-02  0.8133737E-01
       -2   -1    0    0    0  501  0.00000000000E+00  0.00000000000E+00  0.15788355712E+04  0.15788355712E+04  0.25500000920E-02 0.  1.
        2   -1    0    0  501    0  0.00000000000E+00  0.00000000000E+00 -0.18488560038E+04  0.18488560038E+04  0.25500000920E-02 0. -1.
    10030    2    1    2    0    0  0.00000000000E+00  0.00000000000E+00 -0.27002043257E+03  0.34276915750E+04  0.34170394349E+04 0.  0.
        2    1    3    3  502    0  0.10302298725E+04 -0.16067206884E+03 -0.14926881589E+04  0.18207984632E+04  0.25500000920E-02 0. -1.
       -2    1    3    3    0  502 -0.10302298725E+04  0.16067206884E+03  0.12226677263E+04  0.16068931118E+04  0.25500000920E-02 0.  1.
</event>
<event>
 5   0  0.4400349E-06  0.3452286E+04  0.7818609E-02  0.8125192E-01
        2   -1    0    0  501    0  0.00000000000E+00  0.00000000000E+00  0.17962248434E+04  0.17962248434E+04  0.25500000920E-02 0.  1.
       -2   -1    0    0    0  501  0.00000000000E+00  0.00000000000E+00 -0.16587954767E+04  0.16587954767E+04  0.25500000920E-02 0. -1.
    10030    2    1    2    0    0  0.00000000000E+00  0.00000000000E+00  0.13742936671E+03  0.34550203201E+04  0.34522859935E+04 0.  0.
        5    1    3    3  502    0  0.40336425296E+03 -0.16757175991E+04  0.16267921169E+03  0.17312477605E+04  0.46999998093E+01 0.  1.
       -5    1    3    3    0  502 -0.40336425296E+03  0.16757175991E+04 -0.25249844982E+02  0.17237725595E+04  0.46999998093E+01 0. -1.
</event>
<event>
 5   0  0.4189587E-06  0.3351632E+04  0.7818609E-02  0.8149881E-01
       -2   -1    0    0    0  501  0.00000000000E+00  0.00000000000E+00  0.12926389568E+04  0.12926389568E+04  0.25500000920E-02 0.  1.
        2   -1    0    0  501    0  0.00000000000E+00  0.00000000000E+00 -0.21725778746E+04  0.21725778746E+04  0.25500000920E-02 0. -1.
    10030    2    1    2    0    0  0.00000000000E+00  0.00000000000E+00 -0.87993891781E+03  0.34652168314E+04  0.33516317205E+04 0.  0.
        1    1    3    3  502    0 -0.78362987971E+03 -0.10565167229E+04 -0.15134512139E+04  0.20052027207E+04  0.50400001928E-02 0. -1.
       -1    1    3    3    0  502  0.78362987971E+03  0.10565167229E+04  0.63351229610E+03  0.14600141107E+04  0.50400001928E-02 0.  1.
</event>
<event>
 5   0  0.1562618E-06  0.3428024E+04  0.7818609E-02  0.8131062E-01
        1   -1    0    0  501    0  0.00000000000E+00  0.00000000000E+00  0.24515779822E+04  0.24515779822E+04  0.50400001928E-02 0.  1.
       -1   -1    0    0    0  501  0.00000000000E+00  0.00000000000E+00 -0.11983451062E+04  0.11983451062E+04  0.50400001928E-02 0. -1.
    10030    2    1    2    0    0  0.00000000000E+00  0.00000000000E+00  0.12532328759E+04  0.36499230884E+04  0.34280236157E+04 0.  0.
        2    1    3    3  502    0 -0.57921214544E+03 -0.52166165627E+03  0.22519341445E+04  0.23830285320E+04  0.25500000920E-02 0.  1.
       -2    1    3    3    0  502  0.57921214544E+03  0.52166165627E+03 -0.99870126859E+03  0.12668945564E+04  0.25500000920E-02 0. -1.
</event>
<event>
 5   0  0.4400349E-06  0.3425492E+04  0.7818609E-02  0.8131678E-01
        2   -1    0    0  501    0  0.00000000000E+00  0.00000000000E+00  0.14882373968E+04  0.14882373968E+04  0.25500000920E-02 0. -1.
       -2   -1    0    0    0  501  0.00000000000E+00  0.00000000000E+00 -0.19711234822E+04  0.19711234822E+04  0.25500000920E-02 0.  1.
    10030    2    1    2    0    0  0.00000000000E+00  0.00000000000E+00 -0.48288608540E+03  0.34593608789E+04  0.34254924784E+04 0.  0.
        5    1    3    3  502    0  0.91272170854E+02 -0.57459445837E+03 -0.18682669435E+04  0.19567659193E+04  0.46999998093E+01 0.  1.
       -5    1    3    3    0  502 -0.91272170854E+02  0.57459445837E+03  0.13853808581E+04  0.15025949596E+04  0.46999998093E+01 0. -1.
</event>
<event>
 5   0  0.2101998E-06  0.2250977E+04  0.7818609E-02  0.8497505E-01
       -1   -1    0    0    0  501  0.00000000000E+00  0.00000000000E+00  0.14052367504E+04  0.14052367504E+04  0.50400001928E-02 0. -1.
        1   -1    0    0  501    0  0.00000000000E+00  0.00000000000E+00 -0.90143120788E+03  0.90143120790E+03  0.50400001928E-02 0.  1.
    10030    2    1    2    0    0  0.00000000000E+00  0.00000000000E+00  0.50380554250E+03  0.23066679583E+04  0.22509769091E+04 0.  0.
        5    1    3    3  502    0 -0.82303284673E+03 -0.76094582316E+03  0.14800113151E+03  0.11306405430E+04  0.46999998093E+01 0. -1.
       -5    1    3    3    0  502  0.82303284673E+03  0.76094582316E+03  0.35580441099E+03  0.11760274153E+04  0.46999998093E+01 0.  1.
</event>
<event>
 5   0  0.1654257E-06  0.2937192E+04  0.7818609E-02  0.8261897E-01
        1   -1    0    0  501    0  0.00000000000E+00  0.00000000000E+00  0.18098950623E+04  0.18098950623E+04  0.50400001928E-02 0.  1.
       -1   -1    0    0    0  501  0.00000000000E+00  0.00000000000E+00 -0.11916570310E+04  0.11916570310E+04  0.50400001928E-02 0. -1.
    10030    2    1    2    0    0  0.00000000000E+00  0.00000000000E+00  0.61823803135E+03  0.30015520933E+04  0.29371919763E+04 0.  0.
        3    1    3    3  502    0 -0.16045388945E+03  0.88171797576E+03  0.14980566273E+04  0.17456648327E+04  0.10100000352E+00 0.  1.
       -3    1    3    3    0  502  0.16045388945E+03 -0.88171797576E+03 -0.87981859593E+03  0.12558872606E+04  0.10100000352E+00 0. -1.
</event>
<event>
 5   0  0.1654257E-06  0.1975016E+04  0.7818609E-02  0.8618391E-01
        1   -1    0    0  501    0  0.00000000000E+00  0.00000000000E+00  0.84718514786E+03  0.84718514787E+03  0.50400001928E-02 0.  1.
       -1   -1    0    0    0  501  0.00000000000E+00  0.00000000000E+00 -0.11510736681E+04  0.11510736681E+04  0.50400001928E-02 0. -1.
    10030    2    1    2    0    0  0.00000000000E+00  0.00000000000E+00 -0.30388852024E+03  0.19982588160E+04  0.19750164715E+04 0.  0.
        3    1    3    3  502    0  0.79485751941E+03  0.51696584632E+03 -0.43109024420E+03  0.10415809960E+04  0.10100000352E+00 0. -1.
       -3    1    3    3    0  502 -0.79485751941E+03 -0.51696584632E+03  0.12720172397E+03  0.95667781996E+03  0.10100000352E+00 0.  1.
</event>
<event>
 5   0  0.1550164E-06  0.3274778E+04  0.7818609E-02  0.8169343E-01
       -1   -1    0    0    0  501  0.00000000000E+00  0.00000000000E+00  0.88895471371E+03  0.88895471373E+03  0.50400001928E-02 0. -1.
        1   -1    0    0  501    0  0.00000000000E+00  0.00000000000E+00 -0.30159498735E+04  0.30159498735E+04  0.50400001928E-02 0.  1.
    10030    2    1    2    0    0  0.00000000000E+00  0.00000000000E+00 -0.21269951598E+04  0.39049045873E+04  0.32747780728E+04 0.  0.
        4    1    3    3  502    0  0.15329446978E+04  0.38582884857E+03 -0.15725608112E+04  0.22297382055E+04  0.12699999809E+01 0. -1.
       -4    1    3    3    0  502 -0.15329446978E+04 -0.38582884857E+03 -0.55443434860E+03  0.16751663818E+04  0.12699999809E+01 0.  1.
</event>
<event>
 5   0  0.4189587E-06  0.3448936E+04  0.7818609E-02  0.8125999E-01
        2   -1    0    0  501    0  0.00000000000E+00  0.00000000000E+00  0.20863676095E+04  0.20863676095E+04  0.25500000920E-02 0. -1.
       -2   -1    0    0    0  501  0.00000000000E+00  0.00000000000E+00 -0.14253432399E+04  0.14253432399E+04  0.25500000920E-02 0.  1.
    10030    2    1    2    0    0  0.00000000000E+00  0.00000000000E+00  0.66102436961E+03  0.35117108495E+04  0.34489360494E+04 0.  0.
        1    1    3    3  502    0  0.29738557405E+03  0.67302069394E+03 -0.12574883808E+04  0.14569392788E+04  0.50400001928E-02 0.  1.
       -1    1    3    3    0  502 -0.29738557405E+03 -0.67302069394E+03  0.19185127504E+04  0.20547715707E+04  0.50400001928E-02 0. -1.
</event>
<event>
 5   0  0.4400349E-06  0.3437080E+04  0.7818609E-02  0.8128865E-01
       -2   -1    0    0    0  501  0.00000000000E+00  0.00000000000E+00  0.25261576745E+04  0.25261576745E+04  0.25500000920E-02 0.  1.
        2   -1    0    0  501    0  0.00000000000E+00  0.00000000000E+00 -0.11691192265E+04  0.11691192265E+04  0.25500000920E-02 0. -1.
    10030    2    1    2    0    0  0.00000000000E+00  0.00000000000E+00  0.13570384480E+04  0.36952769010E+04  0.34370798690E+04 0.  0.
        5    1    3    3  502    0  0.23018149317E+01 -0.10014019067E+04 -0.82301591239E+03  0.12962207988E+04  0.46999998093E+01 0. -1.
       -5    1    3    3    0  502 -0.23018149317E+01  0.10014019067E+04  0.21800543604E+04  0.23990561022E+04  0.46999998093E+01 0.  1.
</event>
<event>
 5   0  0.1550164E-06  0.3406971E+04  0.7818609E-02  0.8136198E-01
        1   -1    0    0  501    0  0.00000000000E+00  0.00000000000E+00  0.27845140343E+04  0.27845140343E+04  0.50400001928E-02 0.  1.
       -1   -1    0    0    0  501  0.00000000000E+00  0.00000000000E+00 -0.10421434012E+04  0.10421434012E+04  0.50400001928E-02 0. -1.
    10030    2    1    2    0    0  0.00000000000E+00  0.00000000000E+00  0.17423706331E+04  0.38266574355E+04  0.34069710456E+04 0.  0.
        4    1    3    3  502    0  0.20553759979E+02 -0.11195162808E+04 -0.57075020792E+03  0.12567802404E+04  0.12699999809E+01 0. -1.
       -4    1    3    3    0  502 -0.20553759979E+02  0.11195162808E+04  0.23131208410E+04  0.25698771951E+04  0.12699999809E+01 0.  1.
</event>
<event>
 5   0  0.2722449E-06  0.2298039E+04  0.7818609E-02  0.8478695E-01
       -2   -1    0    0    0  501  0.00000000000E+00  0.00000000000E+00  0.10272036343E+04  0.10272036343E+04  0.25500000920E-02 0. -1.
        2   -1    0    0  501    0  0.00000000000E+00  0.00000000000E+00 -0.12852815416E+04  0.12852815416E+04  0.25500000920E-02 0.  1.
    10030    2    1    2    0    0  0.00000000000E+00  0.00000000000E+00 -0.25807790725E+03  0.23124851759E+04  0.22980390516E+04 0.  0.
        2    1    3    3  502    0 -0.21572593166E+03 -0.11203916379E+04  0.75744471718E+01  0.11409962630E+04  0.25500000920E-02 0. -1.
       -2    1    3    3    0  502  0.21572593166E+03  0.11203916379E+04 -0.26565235442E+03  0.11714889130E+04  0.25500000920E-02 0.  1.
</event>
<event>
 5   0  0.2722449E-06  0.3684185E+04  0.7818609E-02  0.8071476E-01
        2   -1    0    0  501    0  0.00000000000E+00  0.00000000000E+00  0.20641499925E+04  0.20641499925E+04  0.25500000920E-02 0. -1.
       -2   -1    0    0    0  501  0.00000000000E+00  0.00000000000E+00 -0.16439233243E+04  0.16439233243E+04  0.25500000920E-02 0.  1.
    10030    2    1    2    0    0  0.00000000000E+00  0.00000000000E+00  0.42022666828E+03  0.37080733168E+04  0.36841847497E+04 0.  0.
        2    1    3    3  502    0  0.17778574517E+04  0.29562929324E+03  0.59354350881E+03  0.18974898404E+04  0.25500000920E-02 0. -1.
       -2    1    3    3    0  502 -0.17778574517E+04 -0.29562929324E+03 -0.17331684053E+03  0.18105834764E+04  0.25500000920E-02 0.  1.
</event>
<event>
 5   0  0.1550164E-06  0.3227773E+04  0.7818609E-02  0.8181521E-01
        1   -1    0    0  501    0  0.00000000000E+00  0.00000000000E+00  0.18384060383E+04  0.18384060383E+04  0.50400001928E-02 0.  1.
       -1   -1    0    0    0  501  0.00000000000E+00  0.00000000000E+00 -0.14167873314E+04  0.14167873314E+04  0.50400001928E-02 0. -1.
    10030    2    1    2    0    0  0.00000000000E+00  0.00000000000E+00  0.42161870691E+03  0.32551933697E+04  0.32277734648E+04 0.  0.
        4    1    3    3  502    0  0.13439090350E+04  0.66161569451E+03 -0.39496123518E+03  0.15491361502E+04  0.12699999809E+01 0.  1.
       -4    1    3    3    0  502 -0.13439090350E+04 -0.66161569451E+03  0.81657994209E+03  0.17060572195E+04  0.12699999809E+01 0. -1.
</event>
<event>
 5   0  0.4344980E-06  0.2524998E+04  0.7818609E-02  0.8394134E-01
       -2   -1    0    0    0  501  0.00000000000E+00  0.00000000000E+00  0.81630559951E+03  0.81630559952E+03  0.25500000920E-02 0. -1.
        2   -1    0    0  501    0  0.00000000000E+00  0.00000000000E+00 -0.19525820240E+04  0.19525820240E+04  0.25500000920E-02 0.  1.
    10030    2    1    2    0    0  0.00000000000E+00  0.00000000000E+00 -0.11362764245E+04  0.27688876235E+04  0.25249979325E+04 0.  0.
        3    1    3    3  502    0 -0.75689378535E+03 -0.34876199798E+03 -0.16080967767E+04  0.18112146165E+04  0.10100000352E+00 0.  1.
       -3    1    3    3    0  502  0.75689378535E+03  0.34876199798E+03  0.47182035218E+03  0.95767300707E+03  0.10100000352E+00 0. -1.
</event>
<event>
 5   0  0.1571391E-06  0.3350320E+04  0.7818609E-02  0.8150208E-01
        1   -1    0    0  501    0  0.00000000000E+00  0.00000000000E+00  0.19536729448E+04  0.19536729448E+04  0.50400001928E-02 0. -1.
       -1   -1    0    0    0  501  0.00000000000E+00  0.00000000000E+00 -0.14363518316E+04  0.14363518316E+04  0.50400001928E-02 0.  1.
    10030    2    1    2    0    0  0.00000000000E+00  0.00000000000E+00  0.51732111316E+03  0.33900247764E+04  0.33503204101E+04 0.  0.
        1    1    3    3  502    0 -0.30963373593E+02  0.89842222807E+03 -0.11716115559E+04  0.14767514579E+04  0.50400001928E-02 0.  1.
       -1    1    3    3    0  502  0.30963373593E+02 -0.89842222807E+03  0.16889326691E+04  0.19132733185E+04  0.50400001928E-02 0. -1.
</event>
<event>
 5   0  0.2722449E-06  0.3157023E+04  0.7818609E-02  0.8200261E-01
        2   -1    0    0  501    0  0.00000000000E+00  0.00000000000E+00  0.18159203666E+04  0.18159203666E+04  0.25500000920E-02 0.  1.
       -2   -1    0    0    0  501  0.00000000000E+00  0.00000000000E+00 -0.13721404391E+04  0.13721404391E+04  0.25500000920E-02 0. -1.
    10030    2    1    2    0    0  0.00000000000E+00  0.00000000000E+00  0.44377992759E+03  0.31880608057E+04  0.31570225018E+04 0.  0.
        2    1    3    3  502    0 -0.69671370044E+03 -0.55811215935E+03 -0.10927534435E+04  0.14110312721E+04  0.25500000920E-02 0. -1.
       -2    1    3    3    0  502  0.69671370044E+03  0.55811215935E+03  0.15365333710E+04  0.17770295336E+04  0.25500000920E-02 0.  1.
</event>
<event>
 5   0  0.1401125E-06  0.3868703E+04  0.7818609E-02  0.8031570E-01
       -3   -1    0    0    0  501  0.00000000000E+00  0.00000000000E+00  0.10932133894E+04  0.10932133940E+04  0.10100000352E+00 0. -1.
        3   -1    0    0  501    0  0.00000000000E+00  0.00000000000E+00 -0.34226766490E+04  0.34226766505E+04  0.10100000352E+00 0.  1.
    10030    2    1    2    0    0  0.00000000000E+00  0.00000000000E+00 -0.23294632597E+04  0.45158900446E+04  0.38687031182E+04 0.  0.
        3    1    3    3  502    0  0.15150613995E+04  0.17795596563E+03 -0.25530862073E+04  0.29741097091E+04  0.10100000352E+00 0.  1.
       -3    1    3    3    0  502 -0.15150613995E+04 -0.17795596563E+03  0.22362294763E+03  0.15417803354E+04  0.10100000352E+00 0. -1.
</event>
<event>
 5   0  0.4400349E-06  0.3427474E+04  0.7818609E-02  0.8131196E-01
        2   -1    0    0  501    0  0.00000000000E+00  0.00000000000E+00  0.29546905808E+04  0.29546905808E+04  0.25500000920E-02 0. -1.
       -2   -1    0    0    0  501  0.00000000000E+00  0.00000000000E+00 -0.99397698817E+03  0.99397698817E+03  0.25500000920E-02 0.  1.
    10030    2    1    2    0    0  0.00000000000E+00  0.00000000000E+00  0.19607135926E+04  0.39486675690E+04  0.34274739646E+04 0.  0.
        5    1    3    3  502    0  0.11491659640E+04 -0.10657980844E+04  0.17788326889E+04  0.23708175372E+04  0.46999998093E+01 0. -1.
       -5    1    3    3    0  502 -0.11491659640E+04  0.10657980844E+04  0.18188090370E+03  0.15778500318E+04  0.46999998093E+01 0.  1.
</event>
<event>
 5   0  0.1571391E-06  0.2684342E+04  0.7818609E-02  0.8340103E-01
       -1   -1    0    0    0  501  0.00000000000E+00  0.00000000000E+00  0.80674330405E+03  0.80674330407E+03  0.50400001928E-02 0. -1.
        1   -1    0    0  501    0  0.00000000000E+00  0.00000000000E+00 -0.22329566020E+04  0.22329566020E+04  0.50400001928E-02 0.  1.
    10030    2    1    2    0    0  0.00000000000E+00  0.00000000000E+00 -0.14262132979E+04  0.30396999060E+04  0.26843418463E+04 0.  0.
        1    1    3    3  502    0 -0.90421130687E+03 -0.63188038648E+03  0.15266710889E+03  0.11136328643E+04  0.50400001928E-02 0. -1.
       -1    1    3    3    0  502  0.90421130687E+03  0.63188038648E+03 -0.15788804068E+04  0.19260670417E+04  0.50400001928E-02 0.  1.
</event>
<event>
 5   0  0.1550164E-06  0.3450291E+04  0.7818609E-02  0.8125672E-01
        1   -1    0    0  501    0  0.00000000000E+00  0.00000000000E+00  0.22870450672E+04  0.22870450673E+04  0.50400001928E-02 0.  1.
       -1   -1    0    0    0  501  0.00000000000E+00  0.00000000000E+00 -0.13012978662E+04  0.13012978662E+04  0.50400001928E-02 0. -1.
    10030    2    1    2    0    0  0.00000000000E+00  0.00000000000E+00  0.98574720108E+03  0.35883429334E+04  0.34502909245E+04 0.  0.
        4    1    3    3  502    0 -0.13179689521E+04 -0.68321796426E+03  0.14068399470E+04  0.20452455097E+04  0.12699999809E+01 0.  1.
       -4    1    3    3    0  502  0.13179689521E+04  0.68321796426E+03 -0.42109274596E+03  0.15430974237E+04  0.12699999809E+01 0. -1.
</event>
<event>
 5   0  0.1654257E-06  0.2170626E+04  0.7818609E-02  0.8530754E-01
        1   -1    0    0  501    0  0.00000000000E+00  0.00000000000E+00  0.82357584675E+03  0.82357584677E+03  0.50400001928E-02 0.  1.
       -1   -1    0    0    0  501  0.00000000000E+00  0.00000000000E+00 -0.14302321555E+04  0.14302321555E+04  0.50400001928E-02 0. -1.
    10030    2    1    2    0    0  0.00000000000E+00  0.00000000000E+00 -0.60665630874E+03  0.22538080023E+04  0.21706263230E+04 0.  0.
        3    1    3    3  502    0  0.22763737849E+03  0.70435885117E+03 -0.11274470710E+04  0.13487316544E+04  0.10100000352E+00 0. -1.
       -3    1    3    3    0  502 -0.22763737849E+03 -0.70435885117E+03  0.52079076227E+03  0.90507634793E+03  0.10100000352E+00 0.  1.
</event>
<event>
 5   0  0.2722449E-06  0.2601209E+04  0.7818609E-02  0.8367791E-01
       -2   -1    0    0    0  501  0.00000000000E+00  0.00000000000E+00  0.15130390806E+04  0.15130390806E+04  0.25500000920E-02 0. -1.
        2   -1    0    0  501    0  0.00000000000E+00  0.00000000000E+00 -0.11179959672E+04  0.11179959672E+04  0.25500000920E-02 0.  1.
    10030    2    1    2    0    0  0.00000000000E+00  0.00000000000E+00  0.39504311340E+03  0.26310350479E+04  0.26012086348E+04 0.  0.
        2    1    3    3  502    0 -0.90713943168E+03 -0.90615868145E+03 -0.23029341981E+02  0.12824023764E+04  0.25500000920E-02 0. -1.
       -2    1    3    3    0  502  0.90713943168E+03  0.90615868145E+03  0.41807245538E+03  0.13486326714E+04  0.25500000920E-02 0.  1.
</event>
<event>
 5   0  0.4189587E-06  0.3462676E+04  0.7818609E-02  0.8122693E-01
       -2   -1    0    0    0  501  0.00000000000E+00  0.00000000000E+00  0.98843976365E+03  0.98843976366E+03  0.25500000920E-02 0. -1.
        2   -1    0    0  501    0  0.00000000000E+00  0.00000000000E+00 -0.30325880375E+04  0.30325880375E+04  0.25500000920E-02 0.  1.
    10030    2    1    2    0    0  0.00000000000E+00  0.00000000000E+00 -0.20441482738E+04  0.40210278011E+04  0.34626756146E+04 0.  0.
        1    1    3    3  502    0 -0.98080674910E+03 -0.14259391223E+04 -0.10771122250E+04  0.20384933174E+04  0.50400001928E-02 0.  1.
       -1    1    3    3    0  502  0.98080674910E+03  0.14259391223E+04 -0.96703604879E+03  0.19825344838E+04  0.50400001928E-02 0. -1.
</event>
<event>
 5   0  0.4400349E-06  0.2959781E+04  0.7818609E-02  0.8255310E-01
        2   -1    0    0  501    0  0.00000000000E+00  0.00000000000E+00  0.23137119061E+04  0.23137119061E+04  0.25500000920E-02 0.  1.
       -2   -1    0    0    0  501  0.00000000000E+00  0.00000000000E+00 -0.94656353666E+03  0.94656353666E+03  0.25500000920E-02 0. -1.
    10030    2    1    2    0    0  0.00000000000E+00  0.00000000000E+00  0.13671483694E+04  0.32602754427E+04  0.29597806166E+04 0.  0.
        5    1    3    3  502    0  0.13357098740E+04  0.37608548579E+03  0.12500757349E+04  0.18676917821E+04  0.46999998093E+01 0.  1.
       -5    1    3    3    0  502 -0.13357098740E+04 -0.37608548579E+03  0.11707263451E+03  0.13925836606E+04  0.46999998093E+01 0. -1.
</event>
<event>
 5   0  0.4400349E-06  0.3418485E+04  0.7818609E-02  0.8133384E-01
       -2   -1    0    0    0  501  0.00000000000E+00  0.00000000000E+00  0.12971898402E+04  0.12971898402E+04  0.25500000920E-02 0.  1.
        2   -1    0    0  501    0  0.00000000000E+00  0.00000000000E+00 -0.22521833323E+04  0.22521833323E+04  0.25500000920E-02 0. -1.
    10030    2    1    2    0    0  0.00000000000E+00  0.00000000000E+00 -0.95499349212E+03  0.35493731726E+04  0.34184846567E+04 0.  0.
        5    1    3    3  502    0 -0.19682025078E+03  0.16212800396E+03  0.12773224255E+04  0.13025353621E+04  0.46999998093E+01 0.  1.
       -5    1    3    3    0  502  0.19682025078E+03 -0.16212800396E+03 -0.22323159176E+04  0.22468378105E+04  0.46999998093E+01 0. -1.
</event>
<event>
 5   0  0.3429469E-06  0.1688643E+04  0.7818609E-02  0.8767868E-01
       -1   -1    0    0    0  501  0.00000000000E+00  0.00000000000E+00  0.59737050480E+03  0.59737050482E+03  0.50400001928E-02 0.  1.
        1   -1    0    0  501    0  0.00000000000E+00  0.00000000000E+00 -0.11933612042E+04  0.11933612043E+04  0.50400001928E-02 0. -1.
    10030    2    1    2    0    0  0.00000000000E+00  0.00000000000E+00 -0.59599069944E+03  0.17907317091E+04  0.16886429877E+04 0.  0.
        5    1    3    3  502    0 -0.34721231254E+03 -0.76899419007E+03 -0.26534017787E+03  0.88449757169E+03  0.46999998093E+01 0. -1.
       -5    1    3    3    0  502  0.34721231254E+03  0.76899419007E+03 -0.33065052158E+03  0.90623413738E+03  0.46999998093E+01 0.  1.
</event>
<event>
 5   0  0.2722449E-06  0.1968878E+04  0.7818609E-02  0.8621311E-01
       -2   -1    0    0    0  501  0.00000000000E+00  0.00000000000E+00  0.47767684393E+03  0.47767684394E+03  0.25500000920E-02 0.  1.
        2   -1    0    0  501    0  0.00000000000E+00  0.00000000000E+00 -0.20288187729E+04  0.20288187729E+04  0.25500000920E-02 0. -1.
    10030    2    1    2    0    0  0.00000000000E+00  0.00000000000E+00 -0.15511419290E+04  0.25064956169E+04  0.19688775974E+04 0.  0.
        2    1    3    3  502    0 -0.65856242720E+03 -0.64580383995E+03 -0.12135338183E+04  0.15242806166E+04  0.25500000920E-02 0.  1.
       -2    1    3    3    0  502  0.65856242720E+03  0.64580383995E+03 -0.33760811073E+03  0.98221500022E+03  0.25500000920E-02 0. -1.
</event>
<event>
 5   0  0.1654257E-06  0.3423968E+04  0.7818609E-02  0.8132049E-01
        1   -1    0    0  501    0  0.00000000000E+00  0.00000000000E+00  0.22728351607E+04  0.22728351607E+04  0.50400001928E-02 0. -1.
       -1   -1    0    0    0  501  0.00000000000E+00  0.00000000000E+00 -0.12895301504E+04  0.12895301504E+04  0.50400001928E-02 0.  1.
    10030    2    1    2    0    0  0.00000000000E+00  0.00000000000E+00  0.98330501034E+03  0.35623653111E+04  0.34239681463E+04 0.  0.
        3    1    3    3  502    0 -0.13872182568E+04 -0.25571410265E+03  0.15009808113E+04  0.20597833868E+04  0.10100000352E+00 0. -1.
       -3    1    3    3    0  502  0.13872182568E+04  0.25571410265E+03 -0.51767580096E+03  0.15025819244E+04  0.10100000352E+00 0.  1.
</event>
<event>
 5   0  0.4173467E-06  0.1736927E+04  0.7818609E-02  0.8740579E-01
        2   -1    0    0  501    0  0.00000000000E+00  0.00000000000E+00  0.68969478707E+03  0.68969478708E+03  0.25500000920E-02 0.  1.
       -2   -1    0    0    0  501  0.00000000000E+00  0.00000000000E+00 -0.10935691200E+04  0.10935691200E+04  0.25500000920E-02 0. -1.
    10030    2    1    2    0    0  0.00000000000E+00  0.00000000000E+00 -0.40387433295E+03  0.17832639071E+04  0.17369270812E+04 0.  0.
        4    1    3    3  502    0 -0.44231550810E+03  0.39525735281E+02  0.56431235008E+03  0.71809145226E+03  0.12699999809E+01 0.  1.
       -4    1    3    3    0  502  0.44231550810E+03 -0.39525735281E+02 -0.96818668303E+03  0.10651724548E+04  0.12699999809E+01 0. -1.
</event>
<event>
 5   0  0.1571391E-06  0.3007691E+04  0.7818609E-02  0.8241538E-01
        1   -1    0    0  501    0  0.00000000000E+00  0.00000000000E+00  0.17182293169E+04  0.17182293169E+04  0.50400001928E-02 0.  1.
       -1   -1    0    0    0  501  0.00000000000E+00  0.00000000000E+00 -0.13162102331E+04  0.13162102331E+04  0.50400001928E-02 0. -1.
    10030    2    1    2    0    0  0.00000000000E+00  0.00000000000E+00  0.40201908377E+03  0.30344395500E+04  0.30076908151E+04 0.  0.
        1    1    3    3  502    0  0.13582189902E+03 -0.10166112947E+04 -0.90859204414E+03  0.13702137116E+04  0.50400001928E-02 0. -1.
       -1    1    3    3    0  502 -0.13582189902E+03  0.10166112947E+04  0.13106111279E+04  0.16642258384E+04  0.50400001928E-02 0.  1.
</event>
<event>
 5   0  0.1571391E-06  0.3344385E+04  0.7818609E-02  0.8151693E-01
       -1   -1    0    0    0  501  0.00000000000E+00  0.00000000000E+00  0.10679770862E+04  0.10679770863E+04  0.50400001928E-02 0. -1.
        1   -1    0    0  501    0  0.00000000000E+00  0.00000000000E+00 -0.26182466841E+04  0.26182466841E+04  0.50400001928E-02 0.  1.
    10030    2    1    2    0    0  0.00000000000E+00  0.00000000000E+00 -0.15502695978E+04  0.36862237703E+04  0.33443848252E+04 0.  0.
        1    1    3    3  502    0  0.56774684535E+03  0.19141138120E+03 -0.24958766768E+04  0.25667830416E+04  0.50400001928E-02 0.  1.
       -1    1    3    3    0  502 -0.56774684535E+03 -0.19141138120E+03  0.94560707894E+03  0.11194407287E+04  0.50400001928E-02 0. -1.
</event>
<event>
 5   0  0.4173467E-06  0.3504800E+04  0.7818609E-02  0.8112653E-01
        2   -1    0    0  501    0  0.00000000000E+00  0.00000000000E+00  0.11051043075E+04  0.11051043075E+04  0.25500000920E-02 0. -1.
       -2   -1    0    0    0  501  0.00000000000E+00  0.00000000000E+00 -0.27788372694E+04  0.27788372694E+04  0.25500000920E-02 0.  1.
    10030    2    1    2    0    0  0.00000000000E+00  0.00000000000E+00 -0.16737329619E+04  0.38839415769E+04  0.35047995870E+04 0.  0.
        4    1    3    3  502    0  0.67734773904E+03  0.16003125338E+04 -0.58635144718E+03  0.18340146667E+04  0.12699999809E+01 0.  1.
       -4    1    3    3    0  502 -0.67734773904E+03 -0.16003125338E+04 -0.10873815147E+04  0.20499269101E+04  0.12699999809E+01 0. -1.
</event>
<event>
 5   0  0.4189587E-06  0.3461506E+04  0.7818609E-02  0.8122973E-01
       -2   -1    0    0    0  501  0.00000000000E+00  0.00000000000E+00  0.14697348403E+04  0.14697348403E+04  0.25500000920E-02 0.  1.
        2   -1    0    0  501    0  0.00000000000E+00  0.00000000000E+00 -0.20381272718E+04  0.20381272718E+04  0.25500000920E-02 0. -1.
    10030    2    1    2    0    0  0.00000000000E+00  0.00000000000E+00 -0.56839243150E+03  0.35078621122E+04  0.34615064122E+04 0.  0.
        1    1    3    3  502    0  0.15588168855E+04  0.72042008721E+03 -0.65455006969E+02  0.17184875741E+04  0.50400001928E-02 0.  1.
       -1    1    3    3    0  502 -0.15588168855E+04 -0.72042008721E+03 -0.50293742454E+03  0.17893745381E+04  0.50400001928E-02 0. -1.
</event>
<event>
 5   0  0.2722449E-06  0.3169043E+04  0.7818609E-02  0.8197041E-01
       -2   -1    0    0    0  501  0.00000000000E+00  0.00000000000E+00  0.13643840379E+04  0.13643840379E+04  0.25500000920E-02 0. -1.
        2   -1    0    0  501    0  0.00000000000E+00  0.00000000000E+00 -0.18401772082E+04  0.18401772082E+04  0.25500000920E-02 0.  1.
    10030    2    1    2    0    0  0.00000000000E+00  0.00000000000E+00 -0.47579317030E+03  0.32045612461E+04  0.31690430163E+04 0.  0.
        2    1    3    3  502    0  0.50087103906E+03  0.14939452684E+04 -0.40699565966E+03  0.16273873939E+04  0.25500000920E-02 0.  1.
       -2    1    3    3    0  502 -0.50087103906E+03 -0.14939452684E+04 -0.68797510641E+02  0.15771738522E+04  0.25500000920E-02 0. -1.
</event>
<event>
 5   0  0.2722449E-06  0.3438661E+04  0.7818609E-02  0.8128482E-01
       -2   -1    0    0    0  501  0.00000000000E+00  0.00000000000E+00  0.16614126041E+04  0.16614126041E+04  0.25500000920E-02 0.  1.
        2   -1    0    0  501    0  0.00000000000E+00  0.00000000000E+00 -0.17792672128E+04  0.17792672128E+04  0.25500000920E-02 0. -1.
    10030    2    1    2    0    0  0.00000000000E+00  0.00000000000E+00 -0.11785460877E+03  0.34406798169E+04  0.34386607703E+04 0.  0.
        2    1    3    3  502    0  0.11942302966E+04  0.11339387499E+04  0.43542137053E+03  0.17034068392E+04  0.25500000920E-02 0.  1.
       -2    1    3    3    0  502 -0.11942302966E+04 -0.11339387499E+04 -0.55327597930E+03  0.17372729777E+04  0.25500000920E-02 0. -1.
</event>
<event>
 5   0  0.1571391E-06  0.3017666E+04  0.7818609E-02  0.8238704E-01
        1   -1    0    0  501    0  0.00000000000E+00  0.00000000000E+00  0.17057666579E+04  0.17057666580E+04  0.50400001928E-02 0.  1.
       -1   -1    0    0    0  501  0.00000000000E+00  0.00000000000E+00 -0.13346358872E+04  0.13346358872E+04  0.50400001928E-02 0. -1.
    10030    2    1    2    0    0  0.00000000000E+00  0.00000000000E+00  0.37113077072E+03  0.30404025452E+04  0.30176662486E+04 0.  0.
        1    1    3    3  502    0  0.12512624428E+04 -0.59387234421E+03 -0.41747179894E+03  0.14465907386E+04  0.50400001928E-02 0. -1.
       -1    1    3    3    0  502 -0.12512624428E+04  0.59387234421E+03  0.78860256966E+03  0.15938118066E+04  0.50400001928E-02 0.  1.
</event>
<event>
 5   0  0.1571391E-06  0.3317389E+04  0.7818609E-02  0.8158485E-01
       -1   -1    0    0    0  501  0.00000000000E+00  0.00000000000E+00  0.10537260847E+04  0.10537260848E+04  0.50400001928E-02 0.  1.
        1   -1    0    0  501    0  0.00000000000E+00  0.00000000000E+00 -0.26109894260E+04  0.26109894260E+04  0.50400001928E-02 0. -1.
    10030    2    1    2    0    0  0.00000000000E+00  0.00000000000E+00 -0.15572633413E+04  0.36647155108E+04  0.33173891332E+04 0.  0.
        1    1    3    3  502    0  0.12281558117E+04  0.98861668884E+02 -0.20053583528E+04  0.23536360064E+04  0.50400001928E-02 0. -1.
       -1    1    3    3    0  502 -0.12281558117E+04 -0.98861668884E+02  0.44809501152E+03  0.13110795044E+04  0.50400001928E-02 0.  1.
</event>
<event>
 5   0  0.2722449E-06  0.3407520E+04  0.7818609E-02  0.8136063E-01
        2   -1    0    0  501    0  0.00000000000E+00  0.00000000000E+00  0.15705774819E+04  0.15705774819E+04  0.25500000920E-02 0. -1.
       -2   -1    0    0    0  501  0.00000000000E+00  0.00000000000E+00 -0.18482358693E+04  0.18482358693E+04  0.25500000920E-02 0.  1.
    10030    2    1    2    0    0  0.00000000000E+00  0.00000000000E+00 -0.27765838741E+03  0.34188133513E+04  0.34075197066E+04 0.  0.
        2    1    3    3  502    0  0.71180589107E+03 -0.15068446633E+04 -0.49433274314E+03  0.17382788404E+04  0.25500000920E-02 0.  1.
       -2    1    3    3    0  502 -0.71180589107E+03  0.15068446633E+04  0.21667435574E+03  0.16805345109E+04  0.25500000920E-02 0. -1.
</event>
<event>
 5   0  0.1562618E-06  0.3387907E+04  0.7818609E-02  0.8140881E-01
       -1   -1    0    0    0  501  0.00000000000E+00  0.00000000000E+00  0.27392098148E+04  0.27392098148E+04  0.50400001928E-02 0.  1.
        1   -1    0    0  501    0  0.00000000000E+00  0.00000000000E+00 -0.10475571528E+04  0.10475571528E+04  0.50400001928E-02 0. -1.
    10030    2    1    2    0    0  0.00000000000E+00  0.00000000000E+00  0.16916526619E+04  0.37867669676E+04  0.33879072210E+04 0.  0.
        2    1    3    3  502    0  0.10072143501E+04  0.61027307376E+03 -0.51512916283E+03  0.12854073386E+04  0.25500000920E-02 0. -1.
       -2    1    3    3    0  502 -0.10072143501E+04 -0.61027307376E+03  0.22067818248E+04  0.25013596290E+04  0.25500000920E-02 0.  1.
</event>
<event>
 5   0  0.1562618E-06  0.3381827E+04  0.7818609E-02  0.8142381E-01
        1   -1    0    0  501    0  0.00000000000E+00  0.00000000000E+00  0.11987668558E+04  0.11987668558E+04  0.50400001928E-02 0.  1.
       -1   -1    0    0    0  501  0.00000000000E+00  0.00000000000E+00 -0.23851077380E+04  0.23851077380E+04  0.50400001928E-02 0. -1.
    10030    2    1    2    0    0  0.00000000000E+00  0.00000000000E+00 -0.11863408822E+04  0.35838745939E+04  0.33818267868E+04 0.  0.
        2    1    3    3  502    0 -0.11312217134E+04  0.12188560128E+04 -0.26840469339E+03  0.16844327307E+04  0.25500000920E-02 0.  1.
       -2    1    3    3    0  502  0.11312217134E+04 -0.12188560128E+04 -0.91793618884E+03  0.18994418632E+04  0.25500000920E-02 0. -1.
</event>
<event>
 5   0  0.1550164E-06  0.3374680E+04  0.7818609E-02  0.8144149E-01
        1   -1    0    0  501    0  0.00000000000E+00  0.00000000000E+00  0.16033102989E+04  0.16033102989E+04  0.50400001928E-02 0. -1.
       -1   -1    0    0    0  501  0.00000000000E+00  0.00000000000E+00 -0.17757741929E+04  0.17757741929E+04  0.50400001928E-02 0.  1.
    10030    2    1    2    0    0  0.00000000000E+00  0.00000000000E+00 -0.17246389394E+03  0.33790844918E+04  0.33746804601E+04 0.  0.
        4    1    3    3  502    0  0.12423592213E+04 -0.93633880702E+03 -0.74048241305E+03  0.17229343032E+04  0.12699999809E+01 0.  1.
       -4    1    3    3    0  502 -0.12423592213E+04  0.93633880702E+03  0.56801851911E+03  0.16561501886E+04  0.12699999809E+01 0. -1.
</event>
<event>
 5   0  0.2722449E-06  0.1852224E+04  0.7818609E-02  0.8679010E-01
        2   -1    0    0  501    0  0.00000000000E+00  0.00000000000E+00  0.80130057891E+03  0.80130057891E+03  0.25500000920E-02 0. -1.
       -2   -1    0    0    0  501  0.00000000000E+00  0.00000000000E+00 -0.10703644561E+04  0.10703644561E+04  0.25500000920E-02 0.  1.
    10030    2    1    2    0    0  0.00000000000E+00  0.00000000000E+00 -0.26906387716E+03  0.18716650350E+04  0.18522242394E+04 0.  0.
        2    1    3    3  502    0 -0.26944650437E+02 -0.52331342000E+03  0.63709316535E+03  0.82490644990E+03  0.25500000920E-02 0. -1.
       -2    1    3    3    0  502  0.26944650437E+02  0.52331342000E+03 -0.90615704251E+03  0.10467585851E+04  0.25500000920E-02 0.  1.
</event>
<event>
 5   0  0.1571391E-06  0.2811325E+04  0.7818609E-02  0.8299761E-01
       -1   -1    0    0    0  501  0.00000000000E+00  0.00000000000E+00  0.16237222779E+04  0.16237222779E+04  0.50400001928E-02 0. -1.
        1   -1    0    0  501    0  0.00000000000E+00  0.00000000000E+00 -0.12168877221E+04  0.12168877221E+04  0.50400001928E-02 0.  1.
    10030    2    1    2    0    0  0.00000000000E+00  0.00000000000E+00  0.40683455580E+03  0.28406099999E+04  0.28113254554E+04 0.  0.
        1    1    3    3  502    0  0.23961970836E+03  0.13630853566E+04  0.45188201477E+03  0.14558903288E+04  0.50400001928E-02 0.  1.
       -1    1    3    3    0  502 -0.23961970836E+03 -0.13630853566E+04 -0.45047458968E+02  0.13847196712E+04  0.50400001928E-02 0. -1.
</event>
<event>
 5   0  0.2722449E-06  0.3315319E+04  0.7818609E-02  0.8159008E-01
       -2   -1    0    0    0  501  0.00000000000E+00  0.00000000000E+00  0.10501922575E+04  0.10501922575E+04  0.25500000920E-02 0. -1.
        2   -1    0    0  501    0  0.00000000000E+00  0.00000000000E+00 -0.26165073306E+04  0.26165073306E+04  0.25500000920E-02 0.  1.
    10030    2    1    2    0    0  0.00000000000E+00  0.00000000000E+00 -0.15663150731E+04  0.36666995882E+04  0.33153194358E+04 0.  0.
        2    1    3    3  502    0 -0.14632804302E+04  0.66907098933E+03 -0.34216114254E+03  0.16449680403E+04  0.25500000920E-02 0.  1.
       -2    1    3    3    0  502  0.14632804302E+04 -0.66907098933E+03 -0.12241539305E+04  0.20217315479E+04  0.25500000920E-02 0. -1.
</event>
<event>
 5   0  0.2722449E-06  0.1805965E+04  0.7818609E-02  0.8703134E-01
        2   -1    0    0  501    0  0.00000000000E+00  0.00000000000E+00  0.18125335891E+04  0.18125335891E+04  0.25500000920E-02 0. -1.
       -2   -1    0    0    0  501  0.00000000000E+00  0.00000000000E+00 -0.44985490882E+03  0.44985490883E+03  0.25500000920E-02 0.  1.
    10030    2    1    2    0    0  0.00000000000E+00  0.00000000000E+00  0.13626786803E+04  0.22623884980E+04  0.18059647089E+04 0.  0.
        2    1    3    3  502    0  0.56466459966E+03  0.83259524866E+02  0.15578922382E+04  0.16591583663E+04  0.25500000920E-02 0. -1.
       -2    1    3    3    0  502 -0.56466459966E+03 -0.83259524866E+02 -0.19521355787E+03  0.60323013168E+03  0.25500000920E-02 0.  1.
</event>
<event>
 5   0  0.2722449E-06  0.3165923E+04  0.7818609E-02  0.8197875E-01
       -2   -1    0    0    0  501  0.00000000000E+00  0.00000000000E+00  0.13600422118E+04  0.13600422118E+04  0.25500000920E-02 0. -1.
        2   -1    0    0  501    0  0.00000000000E+00  0.00000000000E+00 -0.18424185274E+04  0.18424185274E+04  0.25500000920E-02 0.  1.
    10030    2    1    2    0    0  0.00000000000E+00  0.00000000000E+00 -0.48237631560E+03  0.32024607391E+04  0.31659229106E+04 0.  0.
        2    1    3    3  502    0  0.48415625303E+03 -0.99716501385E+03  0.90190757783E+03  0.14290495517E+04  0.25500000920E-02 0. -1.
       -2    1    3    3    0  502 -0.48415625303E+03  0.99716501385E+03 -0.13842838934E+04  0.17734111875E+04  0.25500000920E-02 0.  1.
</event>
<event>
 5   0  0.4173467E-06  0.2040518E+04  0.7818609E-02  0.8587908E-01
       -2   -1    0    0    0  501  0.00000000000E+00  0.00000000000E+00  0.52490049267E+03  0.52490049268E+03  0.25500000920E-02 0.  1.
        2   -1    0    0  501    0  0.00000000000E+00  0.00000000000E+00 -0.19830971465E+04  0.19830971465E+04  0.25500000920E-02 0. -1.
    10030    2    1    2    0    0  0.00000000000E+00  0.00000000000E+00 -0.14581966538E+04  0.25079976392E+04  0.20405182373E+04 0.  0.
        4    1    3    3  502    0  0.48930661145E+02 -0.34118570693E+03 -0.19093688982E+04  0.19402301664E+04  0.12699999809E+01 0. -1.
       -4    1    3    3    0  502 -0.48930661145E+02  0.34118570693E+03  0.45117224436E+03  0.56776747282E+03  0.12699999809E+01 0.  1.
</event>
<event>
 5   0  0.1562618E-06  0.3271739E+04  0.7818609E-02  0.8170124E-01
        1   -1    0    0  501    0  0.00000000000E+00  0.00000000000E+00  0.20066721575E+04  0.20066721575E+04  0.50400001928E-02 0. -1.
       -1   -1    0    0    0  501  0.00000000000E+00  0.00000000000E+00 -0.13335855309E+04  0.13335855309E+04  0.50400001928E-02 0.  1.
    10030    2    1    2    0    0  0.00000000000E+00  0.00000000000E+00  0.67308662656E+03  0.33402576884E+04  0.32717389593E+04 0.  0.
        2    1    3    3  502    0 -0.13840276462E+04 -0.46924372612E+03 -0.41393405570E+03  0.15189021043E+04  0.25500000920E-02 0.  1.
       -2    1    3    3    0  502  0.13840276462E+04  0.46924372612E+03  0.10870206823E+04  0.18213555841E+04  0.25500000920E-02 0. -1.
</event>
<event>
 5   0  0.4173467E-06  0.3077996E+04  0.7818609E-02  0.8221803E-01
        2   -1    0    0  501    0  0.00000000000E+00  0.00000000000E+00  0.17121453752E+04  0.17121453752E+04  0.25500000920E-02 0. -1.
       -2   -1    0    0    0  501  0.00000000000E+00  0.00000000000E+00 -0.13833604945E+04  0.13833604945E+04  0.25500000920E-02 0.  1.
    10030    2    1    2    0    0  0.00000000000E+00  0.00000000000E+00  0.32878488062E+03  0.30955058697E+04  0.30779956289E+04 0.  0.
        4    1    3    3  502    0 -0.23625413640E+02 -0.13932986247E+04  0.82131085908E+03  0.16175266174E+04  0.12699999809E+01 0. -1.
       -4    1    3    3    0  502  0.23625413640E+02  0.13932986247E+04 -0.49252597846E+03  0.14779792523E+04  0.12699999809E+01 0.  1.
</event>
<event>
 5   0  0.4400349E-06  0.3424354E+04  0.7818609E-02  0.8131955E-01
       -2   -1    0    0    0  501  0.00000000000E+00  0.00000000000E+00  0.13239139984E+04  0.13239139984E+04  0.25500000920E-02 0.  1.
        2   -1    0    0  501    0  0.00000000000E+00  0.00000000000E+00 -0.22143057986E+04  0.22143057986E+04  0.25500000920E-02 0. -1.
    10030    2    1    2    0    0  0.00000000000E+00  0.00000000000E+00 -0.89039180026E+03  0.35382197970E+04  0.34243542127E+04 0.  0.
        5    1    3    3  502    0  0.98029341276E+03  0.11859641372E+04  0.33080449503E+03  0.15738296648E+04  0.46999998093E+01 0. -1.
       -5    1    3    3    0  502 -0.98029341276E+03 -0.11859641372E+04 -0.12211962953E+04  0.19643901322E+04  0.46999998093E+01 0.  1.
</event>
<event>
 5   0  0.1654257E-06  0.2081731E+04  0.7818609E-02  0.8569334E-01
        1   -1    0    0  501    0  0.00000000000E+00  0.00000000000E+00  0.20468160814E+04  0.20468160814E+04  0.50400001928E-02 0.  1.
       -1   -1    0    0    0  501  0.00000000000E+00  0.00000000000E+00 -0.52931014162E+03  0.52931014164E+03  0.50400001928E-02 0. -1.
    10030    2    1    2    0    0  0.00000000000E+00  0.00000000000E+00  0.15175059398E+04  0.25761262230E+04  0.20817305397E+04 0.  0.
        3    1    3    3  502    0  0.84344811088E+03  0.60167889612E+03  0.63513810885E+03  0.12152459164E+04  0.10100000352E+00 0. -1.
       -3    1    3    3    0  502 -0.84344811088E+03 -0.60167889612E+03  0.88236783092E+03  0.13608803066E+04  0.10100000352E+00 0.  1.
</event>
<event>
 5   0  0.4344980E-06  0.3435449E+04  0.7818609E-02  0.8129260E-01
        2   -1    0    0  501    0  0.00000000000E+00  0.00000000000E+00  0.11522008215E+04  0.11522008215E+04  0.25500000920E-02 0. -1.
       -2   -1    0    0    0  501  0.00000000000E+00  0.00000000000E+00 -0.25608183397E+04  0.25608183397E+04  0.25500000920E-02 0.  1.
    10030    2    1    2    0    0  0.00000000000E+00  0.00000000000E+00 -0.14086175181E+04  0.37130191612E+04  0.34354487303E+04 0.  0.
        3    1    3    3  502    0  0.13917958537E+04  0.55490455337E+03 -0.16121530748E+04  0.22009207865E+04  0.10100000352E+00 0. -1.
       -3    1    3    3    0  502 -0.13917958537E+04 -0.55490455337E+03  0.20353555663E+03  0.15120983747E+04  0.10100000352E+00 0.  1.
</event>
<event>
 5   0  0.1654257E-06  0.2509382E+04  0.7818609E-02  0.8399651E-01
       -1   -1    0    0    0  501  0.00000000000E+00  0.00000000000E+00  0.13933316515E+04  0.13933316515E+04  0.50400001928E-02 0. -1.
        1   -1    0    0  501    0  0.00000000000E+00  0.00000000000E+00 -0.11298458507E+04  0.11298458507E+04  0.50400001928E-02 0.  1.
    10030    2    1    2    0    0  0.00000000000E+00  0.00000000000E+00  0.26348580083E+03  0.25231775022E+04  0.25093823823E+04 0.  0.
        3    1    3    3  502    0 -0.89752052625E+03  0.33645061836E+03  0.94582819764E+03  0.13466005730E+04  0.10100000352E+00 0. -1.
       -3    1    3    3    0  502  0.89752052625E+03 -0.33645061836E+03 -0.68234239681E+03  0.11765769292E+04  0.10100000352E+00 0.  1.
</event>
<event>
 5   0  0.4344980E-06  0.3463667E+04  0.7818609E-02  0.8122455E-01
       -2   -1    0    0    0  501  0.00000000000E+00  0.00000000000E+00  0.11271687399E+04  0.11271687399E+04  0.25500000920E-02 0. -1.
        2   -1    0    0  501    0  0.00000000000E+00  0.00000000000E+00 -0.26608687113E+04  0.26608687113E+04  0.25500000920E-02 0.  1.
    10030    2    1    2    0    0  0.00000000000E+00  0.00000000000E+00 -0.15336999714E+04  0.37880374512E+04  0.34636674392E+04 0.  0.
        3    1    3    3  502    0  0.74736441979E+02  0.16094360631E+03 -0.26509000520E+04  0.26568326022E+04  0.10100000352E+00 0.  1.
       -3    1    3    3    0  502 -0.74736441979E+02 -0.16094360631E+03  0.11172000806E+04  0.11312048490E+04  0.10100000352E+00 0. -1.
</event>
<event>
 5   0  0.2722449E-06  0.2023796E+04  0.7818609E-02  0.8595575E-01
       -2   -1    0    0    0  501  0.00000000000E+00  0.00000000000E+00  0.89060164464E+03  0.89060164464E+03  0.25500000920E-02 0.  1.
        2   -1    0    0  501    0  0.00000000000E+00  0.00000000000E+00 -0.11497142361E+04  0.11497142361E+04  0.25500000920E-02 0. -1.
    10030    2    1    2    0    0  0.00000000000E+00  0.00000000000E+00 -0.25911259145E+03  0.20403158807E+04  0.20237958292E+04 0.  0.
        2    1    3    3  502    0  0.97638319644E+03  0.15174427344E+02  0.13790721370E+03  0.98619106117E+03  0.25500000920E-02 0.  1.
       -2    1    3    3    0  502 -0.97638319644E+03 -0.15174427344E+02 -0.39701980515E+03  0.10541248196E+04  0.25500000920E-02 0. -1.
</event>
<event>
 5   0  0.1550164E-06  0.3213704E+04  0.7818609E-02  0.8185207E-01
        1   -1    0    0  501    0  0.00000000000E+00  0.00000000000E+00  0.19023468401E+04  0.19023468401E+04  0.50400001928E-02 0.  1.
       -1   -1    0    0    0  501  0.00000000000E+00  0.00000000000E+00 -0.13572569225E+04  0.13572569225E+04  0.50400001928E-02 0. -1.
    10030    2    1    2    0    0  0.00000000000E+00  0.00000000000E+00  0.54508991756E+03  0.32596037627E+04  0.32137040423E+04 0.  0.
        4    1    3    3  502    0  0.10416479917E+04 -0.95517839034E+03  0.10480403831E+04  0.17594847409E+04  0.12699999809E+01 0.  1.
       -4    1    3    3    0  502 -0.10416479917E+04  0.95517839034E+03 -0.50295046551E+03  0.15001190218E+04  0.12699999809E+01 0. -1.
</event>
<event>
 5   0  0.1571391E-06  0.3193835E+04  0.7818609E-02  0.8190447E-01
        1   -1    0    0  501    0  0.00000000000E+00  0.00000000000E+00  0.18648792561E+04  0.18648792561E+04  0.50400001928E-02 0. -1.
       -1   -1    0    0    0  501  0.00000000000E+00  0.00000000000E+00 -0.13674584420E+04  0.13674584420E+04  0.50400001928E-02 0.  1.
    10030    2    1    2    0    0  0.00000000000E+00  0.00000000000E+00  0.49742081415E+03  0.32323376981E+04  0.31938346119E+04 0.  0.
        1    1    3    3  502    0 -0.26780620172E+03 -0.15612788956E+04  0.45321806680E+03  0.16476403029E+04  0.50400001928E-02 0. -1.
       -1    1    3    3    0  502  0.26780620172E+03  0.15612788956E+04  0.44202747353E+02  0.15846973952E+04  0.50400001928E-02 0.  1.
</event>
<event>
 5   0  0.2722449E-06  0.2809184E+04  0.7818609E-02  0.8300423E-01
        2   -1    0    0  501    0  0.00000000000E+00  0.00000000000E+00  0.13770737840E+04  0.13770737840E+04  0.25500000920E-02 0.  1.
       -2   -1    0    0    0  501  0.00000000000E+00  0.00000000000E+00 -0.14326596279E+04  0.14326596279E+04  0.25500000920E-02 0. -1.
    10030    2    1    2    0    0  0.00000000000E+00  0.00000000000E+00 -0.55585843940E+02  0.28097334119E+04  0.28091835220E+04 0.  0.
        2    1    3    3  502    0 -0.94570400933E+03 -0.51243227707E+03  0.87567515635E+03  0.13869931115E+04  0.25500000920E-02 0.  1.
       -2    1    3    3    0  502  0.94570400933E+03  0.51243227707E+03 -0.93126100029E+03  0.14227403004E+04  0.25500000920E-02 0. -1.
</event>
<event>
 5   0  0.2722449E-06  0.3285686E+04  0.7818609E-02  0.8166547E-01
        2   -1    0    0  501    0  0.00000000000E+00  0.00000000000E+00  0.10364496175E+04  0.10364496175E+04  0.25500000920E-02 0.  1.
       -2   -1    0    0    0  501  0.00000000000E+00  0.00000000000E+00 -0.26040182528E+04  0.26040182528E+04  0.25500000920E-02 0. -1.
    10030    2    1    2    0    0  0.00000000000E+00  0.00000000000E+00 -0.15675686353E+04  0.36404678702E+04  0.32856863648E+04 0.  0.
        2    1    3    3  502    0 -0.29955266519E+02  0.14592572245E+04 -0.16192648622E+04  0.21799879953E+04  0.25500000920E-02 0. -1.
       -2    1    3    3    0  502  0.29955266519E+02 -0.14592572245E+04  0.51696226932E+02  0.14604798750E+04  0.25500000920E-02 0.  1.
</event>
<event>
 5   0  0.4189587E-06  0.3408990E+04  0.7818609E-02  0.8135703E-01
        2   -1    0    0  501    0  0.00000000000E+00  0.00000000000E+00  0.19440076864E+04  0.19440076864E+04  0.25500000920E-02 0.  1.
       -2   -1    0    0    0  501  0.00000000000E+00  0.00000000000E+00 -0.14944914276E+04  0.14944914276E+04  0.25500000920E-02 0. -1.
    10030    2    1    2    0    0  0.00000000000E+00  0.00000000000E+00  0.44951625881E+03  0.34384991139E+04  0.34089897755E+04 0.  0.
        1    1    3    3  502    0  0.86964899310E+03  0.11960136593E+04 -0.63026168802E+03  0.16074725005E+04  0.50400001928E-02 0. -1.
       -1    1    3    3    0  502 -0.86964899310E+03 -0.11960136593E+04  0.10797779468E+04  0.18310266134E+04  0.50400001928E-02 0.  1.
</event>
<event>
 5   0  0.4400349E-06  0.3413710E+04  0.7818609E-02  0.8134550E-01
        2   -1    0    0  501    0  0.00000000000E+00  0.00000000000E+00  0.10080360200E+04  0.10080360200E+04  0.25500000920E-02 0. -1.
       -2   -1    0    0    0  501  0.00000000000E+00  0.00000000000E+00 -0.28901288406E+04  0.28901288406E+04  0.25500000920E-02 0.  1.
    10030    2    1    2    0    0  0.00000000000E+00  0.00000000000E+00 -0.18820928206E+04  0.38981648606E+04  0.34137099899E+04 0.  0.
        5    1    3    3  502    0  0.95067953991E+03 -0.71416892855E+03 -0.23393686152E+04  0.26242134924E+04  0.46999998093E+01 0.  1.
       -5    1    3    3    0  502 -0.95067953991E+03  0.71416892855E+03  0.45727579459E+03  0.12739513682E+04  0.46999998093E+01 0. -1.
</event>
<event>
 5   0  0.1654257E-06  0.3288540E+04  0.7818609E-02  0.8165818E-01
       -1   -1    0    0    0  501  0.00000000000E+00  0.00000000000E+00  0.16779604933E+04  0.16779604933E+04  0.50400001928E-02 0.  1.
        1   -1    0    0  501    0  0.00000000000E+00  0.00000000000E+00 -0.16112556785E+04  0.16112556785E+04  0.50400001928E-02 0. -1.
    10030    2    1    2    0    0  0.00000000000E+00  0.00000000000E+00  0.66704814796E+02  0.32892161719E+04  0.32885397204E+04 0.  0.
        3    1    3    3  502    0  0.25139128366E+03 -0.71490566015E+03  0.14928769121E+04  0.16742070258E+04  0.10100000352E+00 0.  1.
       -3    1    3    3    0  502 -0.25139128366E+03  0.71490566015E+03 -0.14261720973E+04  0.16150091460E+04  0.10100000352E+00 0. -1.
</event>
<event>
 5   0  0.1571391E-06  0.1820954E+04  0.7818609E-02  0.8695235E-01
        1   -1    0    0  501    0  0.00000000000E+00  0.00000000000E+00  0.18701305480E+04  0.18701305480E+04  0.50400001928E-02 0. -1.
       -1   -1    0    0    0  501  0.00000000000E+00  0.00000000000E+00 -0.44326784730E+03  0.44326784733E+03  0.50400001928E-02 0.  1.
    10030    2    1    2    0    0  0.00000000000E+00  0.00000000000E+00  0.14268627007E+04  0.23133983953E+04  0.18209544115E+04 0.  0.
        1    1    3    3  502    0 -0.82102474540E+03 -0.30740820667E+03  0.40123761957E+03  0.96414369545E+03  0.50400001928E-02 0.  1.
       -1    1    3    3    0  502  0.82102474540E+03  0.30740820667E+03  0.10256250811E+04  0.13492546998E+04  0.50400001928E-02 0. -1.
</event>
<event>
 5   0  0.2722449E-06  0.3331237E+04  0.7818609E-02  0.8154992E-01
        2   -1    0    0  501    0  0.00000000000E+00  0.00000000000E+00  0.23135300417E+04  0.23135300417E+04  0.25500000920E-02 0. -1.
       -2   -1    0    0    0  501  0.00000000000E+00  0.00000000000E+00 -0.11991565405E+04  0.11991565405E+04  0.25500000920E-02 0.  1.
    10030    2    1    2    0    0  0.00000000000E+00  0.00000000000E+00  0.11143735012E+04  0.35126865822E+04  0.33312368160E+04 0.  0.
        2    1    3    3  502    0  0.26566850188E+03 -0.18749113765E+03 -0.11653628227E+04  0.12098773443E+04  0.25500000920E-02 0.  1.
       -2    1    3    3    0  502 -0.26566850188E+03  0.18749113765E+03  0.22797363240E+04  0.23028092379E+04  0.25500000920E-02 0. -1.
</event>
<event>
 5   0  0.2101998E-06  0.3255672E+04  0.7818609E-02  0.8174267E-01
       -1   -1    0    0    0  501  0.00000000000E+00  0.00000000000E+00  0.14685117560E+04  0.14685117560E+04  0.50400001928E-02 0.  1.
        1   -1    0    0  501    0  0.00000000000E+00  0.00000000000E+00 -0.18044454505E+04  0.18044454505E+04  0.50400001928E-02 0. -1.
    10030    2    1    2    0    0  0.00000000000E+00  0.00000000000E+00 -0.33593369449E+03  0.32729572064E+04  0.32556715787E+04 0.  0.
        5    1    3    3  502    0 -0.84199846596E+03 -0.58916818499E+03  0.11011727316E+04  0.15062151379E+04  0.46999998093E+01 0.  1.
       -5    1    3    3    0  502  0.84199846596E+03  0.58916818499E+03 -0.14371064261E+04  0.17667420685E+04  0.46999998093E+01 0. -1.
</event>
<event>
 5   0  0.1571391E-06  0.2558193E+04  0.7818609E-02  0.8382542E-01
        1   -1    0    0  501    0  0.00000000000E+00  0.00000000000E+00  0.19107333097E+04  0.19107333097E+04  0.50400001928E-02 0. -1.
       -1   -1    0    0    0  501  0.00000000000E+00  0.00000000000E+00 -0.85626203078E+03  0.85626203080E+03  0.50400001928E-02 0.  1.
    10030    2    1    2    0    0  0.00000000000E+00  0.00000000000E+00  0.10544712789E+04  0.27669953405E+04  0.25581934126E+04 0.  0.
        1    1    3    3  502    0 -0.10408251608E+04  0.12173231960E+03 -0.26608190952E+03  0.10811731386E+04  0.50400001928E-02 0.  1.
       -1    1    3    3    0  502  0.10408251608E+04 -0.12173231960E+03  0.13205531885E+04  0.16858222020E+04  0.50400001928E-02 0. -1.
</event>
<event>
 5   0  0.1562618E-06  0.3390540E+04  0.7818609E-02  0.8140232E-01
       -1   -1    0    0    0  501  0.00000000000E+00  0.00000000000E+00  0.11216855464E+04  0.11216855464E+04  0.50400001928E-02 0.  1.
        1   -1    0    0  501    0  0.00000000000E+00  0.00000000000E+00 -0.25621617184E+04  0.25621617184E+04  0.50400001928E-02 0. -1.
    10030    2    1    2    0    0  0.00000000000E+00  0.00000000000E+00 -0.14404761720E+04  0.36838472648E+04  0.33905396427E+04 0.  0.
        2    1    3    3  502    0  0.71183955801E+03 -0.10698425085E+02 -0.23918751300E+04  0.24955754146E+04  0.25500000920E-02 0. -1.
       -2    1    3    3    0  502 -0.71183955801E+03  0.10698425085E+02  0.95139895802E+03  0.11882718502E+04  0.25500000920E-02 0.  1.
</event>
<event>
 5   0  0.2722449E-06  0.3384165E+04  0.7818609E-02  0.8141804E-01
       -2   -1    0    0    0  501  0.00000000000E+00  0.00000000000E+00  0.10917776274E+04  0.10917776274E+04  0.25500000920E-02 0. -1.
        2   -1    0    0  501    0  0.00000000000E+00  0.00000000000E+00 -0.26224602470E+04  0.26224602470E+04  0.25500000920E-02 0.  1.
    10030    2    1    2    0    0  0.00000000000E+00  0.00000000000E+00 -0.15306826196E+04  0.37142378744E+04  0.33841651416E+04 0.  0.
        2    1    3    3  502    0 -0.10913091611E+04  0.10601869186E+04 -0.15779552925E+04  0.21920070466E+04  0.25500000920E-02 0.  1.
       -2    1    3    3    0  502  0.10913091611E+04 -0.10601869186E+04  0.47272672816E+02  0.15222308278E+04  0.25500000920E-02 0. -1.
</event>
<event>
 5   0  0.4344980E-06  0.3364631E+04  0.7818609E-02  0.8146642E-01
       -2   -1    0    0    0  501  0.00000000000E+00  0.00000000000E+00  0.11550741144E+04  0.11550741144E+04  0.25500000920E-02 0. -1.
        2   -1    0    0  501    0  0.00000000000E+00  0.00000000000E+00 -0.24502194684E+04  0.24502194684E+04  0.25500000920E-02 0.  1.
    10030    2    1    2    0    0  0.00000000000E+00  0.00000000000E+00 -0.12951453540E+04  0.36052935828E+04  0.33646307866E+04 0.  0.
        3    1    3    3  502    0 -0.13160590541E+04  0.63268457624E+03 -0.15427205830E+04  0.21242146818E+04  0.10100000352E+00 0.  1.
       -3    1    3    3    0  502  0.13160590541E+04 -0.63268457624E+03  0.24757522898E+03  0.14810789010E+04  0.10100000352E+00 0. -1.
</event>
<event>
 5   0  0.2101998E-06  0.3436186E+04  0.7818609E-02  0.8129082E-01
        1   -1    0    0  501    0  0.00000000000E+00  0.00000000000E+00  0.16167838577E+04  0.16167838578E+04  0.50400001928E-02 0.  1.
       -1   -1    0    0    0  501  0.00000000000E+00  0.00000000000E+00 -0.18257498459E+04  0.18257498459E+04  0.50400001928E-02 0. -1.
    10030    2    1    2    0    0  0.00000000000E+00  0.00000000000E+00 -0.20896598819E+03  0.34425337037E+04  0.34361856057E+04 0.  0.
        5    1    3    3  502    0 -0.68415322542E+03 -0.12039627767E+04  0.91436617895E+03  0.16594214663E+04  0.46999998093E+01 0.  1.
       -5    1    3    3    0  502  0.68415322542E+03  0.12039627767E+04 -0.11233321671E+04  0.17831122374E+04  0.46999998093E+01 0. -1.
</event>
<event>
 5   0  0.1550164E-06  0.2027078E+04  0.7818609E-02  0.8594064E-01
        1   -1    0    0  501    0  0.00000000000E+00  0.00000000000E+00  0.10553054955E+04  0.10553054955E+04  0.50400001928E-02 0. -1.
       -1   -1    0    0    0  501  0.00000000000E+00  0.00000000000E+00 -0.97342572116E+03  0.97342572117E+03  0.50400001928E-02 0.  1.
    10030    2    1    2    0    0  0.00000000000E+00  0.00000000000E+00  0.81879774357E+02  0.20287312167E+04  0.20270782057E+04 0.  0.
        4    1    3    3  502    0 -0.91274396808E+03  0.44352045286E+02 -0.39781382865E+03  0.99665746892E+03  0.12699999809E+01 0.  1.
       -4    1    3    3    0  502  0.91274396808E+03 -0.44352045286E+02  0.47969360301E+03  0.10320737478E+04  0.12699999809E+01 0. -1.
</event>
<event>
 5   0  0.1654257E-06  0.3528880E+04  0.7818609E-02  0.8106980E-01
       -1   -1    0    0    0  501  0.00000000000E+00  0.00000000000E+00  0.11558718291E+04  0.11558718291E+04  0.50400001928E-02 0.  1.
        1   -1    0    0  501    0  0.00000000000E+00  0.00000000000E+00 -0.26934202608E+04  0.26934202608E+04  0.50400001928E-02 0. -1.
    10030    2    1    2    0    0  0.00000000000E+00  0.00000000000E+00 -0.15375484317E+04  0.38492920899E+04  0.35288800509E+04 0.  0.
        3    1    3    3  502    0  0.76342888217E+03 -0.65418373225E+03  0.81286974596E+03  0.12928794405E+04  0.10100000352E+00 0.  1.
       -3    1    3    3    0  502 -0.76342888217E+03  0.65418373225E+03 -0.23504181776E+04  0.25564126493E+04  0.10100000352E+00 0. -1.
</event>
<event>
 5   0  0.4344980E-06  0.3278486E+04  0.7818609E-02  0.8168391E-01
       -2   -1    0    0    0  501  0.00000000000E+00  0.00000000000E+00  0.11025568794E+04  0.11025568794E+04  0.25500000920E-02 0.  1.
        2   -1    0    0  501    0  0.00000000000E+00  0.00000000000E+00 -0.24371698141E+04  0.24371698141E+04  0.25500000920E-02 0. -1.
    10030    2    1    2    0    0  0.00000000000E+00  0.00000000000E+00 -0.13346129347E+04  0.35397266934E+04  0.32784864463E+04 0.  0.
        3    1    3    3  502    0  0.10046197039E+04  0.12351832550E+04 -0.24611942479E+03  0.16110596526E+04  0.10100000352E+00 0.  1.
       -3    1    3    3    0  502 -0.10046197039E+04 -0.12351832550E+04 -0.10884935099E+04  0.19286670408E+04  0.10100000352E+00 0. -1.
</event>
<event>
 5   0  0.1401125E-06  0.2085609E+04  0.7818609E-02  0.8567610E-01
        3   -1    0    0  501    0  0.00000000000E+00  0.00000000000E+00  0.11879225855E+04  0.11879225898E+04  0.10100000352E+00 0.  1.
       -3   -1    0    0    0  501  0.00000000000E+00  0.00000000000E+00 -0.91541380206E+03  0.91541380764E+03  0.10100000352E+00 0. -1.
    10030    2    1    2    0    0  0.00000000000E+00  0.00000000000E+00  0.27250878344E+03  0.21033363974E+04  0.20856085356E+04 0.  0.
        2    1    3    3  502    0  0.67778001330E+03  0.79222518344E+03  0.11523851721E+03  0.10489453768E+04  0.25500000920E-02 0.  1.
       -2    1    3    3    0  502 -0.67778001330E+03 -0.79222518344E+03  0.15727026623E+03  0.10543910206E+04  0.25500000920E-02 0. -1.
</event>
<event>
 5   0  0.2722449E-06  0.3415984E+04  0.7818609E-02  0.8133994E-01
        2   -1    0    0  501    0  0.00000000000E+00  0.00000000000E+00  0.18404556799E+04  0.18404556799E+04  0.25500000920E-02 0.  1.
       -2   -1    0    0    0  501  0.00000000000E+00  0.00000000000E+00 -0.15850624142E+04  0.15850624142E+04  0.25500000920E-02 0. -1.
    10030    2    1    2    0    0  0.00000000000E+00  0.00000000000E+00  0.25539326574E+03  0.34255180941E+04  0.34159842641E+04 0.  0.
        2    1    3    3  502    0 -0.32842334701E+03  0.39055949213E+01  0.18084891262E+04  0.18380723784E+04  0.25500000920E-02 0.  1.
       -2    1    3    3    0  502  0.32842334701E+03 -0.39055949213E+01 -0.15530958605E+04  0.15874457157E+04  0.25500000920E-02 0. -1.
</event>
<event>
 5   0  0.2722449E-06  0.2745839E+04  0.7818609E-02  0.8320283E-01
        2   -1    0    0  501    0  0.00000000000E+00  0.00000000000E+00  0.19104558157E+04  0.19104558157E+04  0.25500000920E-02 0. -1.
       -2   -1    0    0    0  501  0.00000000000E+00  0.00000000000E+00 -0.98662708825E+03  0.98662708825E+03  0.25500000920E-02 0.  1.
    10030    2    1    2    0    0  0.00000000000E+00  0.00000000000E+00  0.92382872740E+03  0.28970829039E+04  0.27458386396E+04 0.  0.
        2    1    3    3  502    0 -0.79298961761E+01  0.11122280815E+04 -0.38727418101E+03  0.11777501772E+04  0.25500000920E-02 0.  1.
       -2    1    3    3    0  502  0.79298961761E+01 -0.11122280815E+04  0.13111029084E+04  0.17193327267E+04  0.25500000920E-02 0. -1.
</event>
<event>
 5   0  0.4344980E-06  0.1777727E+04  0.7818609E-02  0.8718235E-01
        2   -1    0    0  501    0  0.00000000000E+00  0.00000000000E+00  0.81025232754E+03  0.81025232754E+03  0.25500000920E-02 0. -1.
       -2   -1    0    0    0  501  0.00000000000E+00  0.00000000000E+00 -0.97510140368E+03  0.97510140368E+03  0.25500000920E-02 0.  1.
    10030    2    1    2    0    0  0.00000000000E+00  0.00000000000E+00 -0.16484907614E+03  0.17853537312E+04  0.17777268428E+04 0.  0.
        3    1    3    3  502    0  0.55203476485E+03 -0.66769447502E+03  0.11722441806E+03  0.87424245377E+03  0.10100000352E+00 0. -1.
       -3    1    3    3    0  502 -0.55203476485E+03  0.66769447502E+03 -0.28207349420E+03  0.91111127746E+03  0.10100000352E+00 0.  1.
</event>
<event>
 5   0  0.4173467E-06  0.2948570E+04  0.7818609E-02  0.8258571E-01
        2   -1    0    0  501    0  0.00000000000E+00  0.00000000000E+00  0.14959065509E+04  0.14959065509E+04  0.25500000920E-02 0.  1.
       -2   -1    0    0    0  501  0.00000000000E+00  0.00000000000E+00 -0.14529757360E+04  0.14529757360E+04  0.25500000920E-02 0. -1.
    10030    2    1    2    0    0  0.00000000000E+00  0.00000000000E+00  0.42930814884E+02  0.29488822869E+04  0.29485697698E+04 0.  0.
        4    1    3    3  502    0 -0.59120403795E+03 -0.34073036005E+03 -0.12855376426E+04  0.14554133558E+04  0.12699999809E+01 0. -1.
       -4    1    3    3    0  502  0.59120403795E+03  0.34073036005E+03  0.13284684575E+04  0.14934689311E+04  0.12699999809E+01 0.  1.
</event>
<event>
 5   0  0.2722449E-06  0.2032041E+04  0.7818609E-02  0.8591785E-01
        2   -1    0    0  501    0  0.00000000000E+00  0.00000000000E+00  0.81430519523E+03  0.81430519524E+03  0.25500000920E-02 0.  1.
       -2   -1    0    0    0  501  0.00000000000E+00  0.00000000000E+00 -0.12677033683E+04  0.12677033683E+04  0.25500000920E-02 0. -1.
    10030    2    1    2    0    0  0.00000000000E+00  0.00000000000E+00 -0.45339817306E+03  0.20820085635E+04  0.20320407858E+04 0.  0.
        2    1    3    3  502    0 -0.18511108751E+03  0.48771552589E+03 -0.11200127862E+04  0.12355408492E+04  0.25500000920E-02 0. -1.
       -2    1    3    3    0  502  0.18511108751E+03 -0.48771552589E+03  0.66661461312E+03  0.84646771430E+03  0.25500000920E-02 0.  1.
</event>
<event>
 5   0  0.4173467E-06  0.3231257E+04  0.7818609E-02  0.8180611E-01
       -2   -1    0    0    0  501  0.00000000000E+00  0.00000000000E+00  0.11682064786E+04  0.11682064786E+04  0.25500000920E-02 0.  1.
        2   -1    0    0  501    0  0.00000000000E+00  0.00000000000E+00 -0.22344127583E+04  0.22344127583E+04  0.25500000920E-02 0. -1.
    10030    2    1    2    0    0  0.00000000000E+00  0.00000000000E+00 -0.10662062797E+04  0.34026192369E+04  0.32312570063E+04 0.  0.
        4    1    3    3  502    0  0.71090207673E+03  0.74129110068E+03 -0.18463829158E+04  0.21128241155E+04  0.12699999809E+01 0. -1.
       -4    1    3    3    0  502 -0.71090207673E+03 -0.74129110068E+03  0.78017663610E+03  0.12897951214E+04  0.12699999809E+01 0.  1.
</event>
<event>
 5   0  0.1562618E-06  0.3402824E+04  0.7818609E-02  0.8137213E-01
       -1   -1    0    0    0  501  0.00000000000E+00  0.00000000000E+00  0.94471500288E+03  0.94471500289E+03  0.50400001928E-02 0.  1.
        1   -1    0    0  501    0  0.00000000000E+00  0.00000000000E+00 -0.30642079738E+04  0.30642079738E+04  0.50400001928E-02 0. -1.
    10030    2    1    2    0    0  0.00000000000E+00  0.00000000000E+00 -0.21194929709E+04  0.40089229767E+04  0.34028242651E+04 0.  0.
        2    1    3    3  502    0 -0.14628868847E+04 -0.58362772832E+03 -0.18179116330E+04  0.24052987482E+04  0.25500000920E-02 0.  1.
       -2    1    3    3    0  502  0.14628868847E+04  0.58362772832E+03 -0.30158133790E+03  0.16036242285E+04  0.25500000920E-02 0. -1.
</event>
<event>
 5   0  0.1550164E-06  0.2443009E+04  0.7818609E-02  0.8423575E-01
        1   -1    0    0  501    0  0.00000000000E+00  0.00000000000E+00  0.15918334006E+04  0.15918334006E+04  0.50400001928E-02 0. -1.
       -1   -1    0    0    0  501  0.00000000000E+00  0.00000000000E+00 -0.93733001502E+03  0.93733001503E+03  0.50400001928E-02 0.  1.
    10030    2    1    2    0    0  0.00000000000E+00  0.00000000000E+00  0.65450338554E+03  0.25291634156E+04  0.24430089851E+04 0.  0.
        4    1    3    3  502    0 -0.10707613820E+04  0.58446644375E+03  0.26226329435E+03  0.12477638436E+04  0.12699999809E+01 0. -1.
       -4    1    3    3    0  502  0.10707613820E+04 -0.58446644375E+03  0.39224009119E+03  0.12813995720E+04  0.12699999809E+01 0.  1.
</event>
<event>
 5   0  0.1550164E-06  0.2542833E+04  0.7818609E-02  0.8387883E-01
       -1   -1    0    0    0  501  0.00000000000E+00  0.00000000000E+00  0.85663992200E+03  0.85663992201E+03  0.50400001928E-02 0. -1.
        1   -1    0    0  501    0  0.00000000000E+00  0.00000000000E+00 -0.18870236032E+04  0.18870236032E+04  0.50400001928E-02 0.  1.
    10030    2    1    2    0    0  0.00000000000E+00  0.00000000000E+00 -0.10303836812E+04  0.27436635252E+04  0.25428328709E+04 0.  0.
        4    1    3    3  502    0  0.10719537672E+04 -0.43400241442E+03 -0.10851698040E+04  0.15858871622E+04  0.12699999809E+01 0.  1.
       -4    1    3    3    0  502 -0.10719537672E+04  0.43400241442E+03  0.54786122732E+02  0.11577763631E+04  0.12699999809E+01 0. -1.
</event>
<event>
 5   0  0.2722449E-06  0.3434363E+04  0.7818609E-02  0.8129524E-01
       -2   -1    0    0    0  501  0.00000000000E+00  0.00000000000E+00  0.14110141857E+04  0.14110141857E+04  0.25500000920E-02 0.  1.
        2   -1    0    0  501    0  0.00000000000E+00  0.00000000000E+00 -0.20897819086E+04  0.20897819086E+04  0.25500000920E-02 0. -1.
    10030    2    1    2    0    0  0.00000000000E+00  0.00000000000E+00 -0.67876772287E+03  0.35007960943E+04  0.34343627752E+04 0.  0.
        2    1    3    3  502    0  0.11580277573E+04 -0.41453374216E+03  0.88206275092E+03  0.15135723328E+04  0.25500000920E-02 0.  1.
       -2    1    3    3    0  502 -0.11580277573E+04  0.41453374216E+03 -0.15608304738E+04  0.19872237614E+04  0.25500000920E-02 0. -1.
</event>
<event>
 5   0  0.2101998E-06  0.3346727E+04  0.7818609E-02  0.8151107E-01
        1   -1    0    0  501    0  0.00000000000E+00  0.00000000000E+00  0.11143853438E+04  0.11143853438E+04  0.50400001928E-02 0.  1.
       -1   -1    0    0    0  501  0.00000000000E+00  0.00000000000E+00 -0.25127259799E+04  0.25127259799E+04  0.50400001928E-02 0. -1.
    10030    2    1    2    0    0  0.00000000000E+00  0.00000000000E+00 -0.13983406361E+04  0.36271113237E+04  0.33467267621E+04 0.  0.
        5    1    3    3  502    0 -0.30824623355E+03  0.13349543004E+04 -0.17403902304E+04  0.22149715503E+04  0.46999998093E+01 0. -1.
       -5    1    3    3    0  502  0.30824623355E+03 -0.13349543004E+04  0.34204959434E+03  0.14121397734E+04  0.46999998093E+01 0.  1.
</event>
<event>
 5   0  0.4400349E-06  0.3036572E+04  0.7818609E-02  0.8233364E-01
       -2   -1    0    0    0  501  0.00000000000E+00  0.00000000000E+00  0.14408151804E+04  0.14408151804E+04  0.25500000920E-02 0.  1.
        2   -1    0    0  501    0  0.00000000000E+00  0.00000000000E+00 -0.15999226866E+04  0.15999226866E+04  0.25500000920E-02 0. -1.
    10030    2    1    2    0    0  0.00000000000E+00  0.00000000000E+00 -0.15910750621E+03  0.30407378669E+04  0.30365723401E+04 0.  0.
        5    1    3    3  502    0  0.56307641300E+03  0.12540324323E+04 -0.72504519576E+03  0.15541444637E+04  0.46999998093E+01 0. -1.
       -5    1    3    3    0  502 -0.56307641300E+03 -0.12540324323E+04  0.56593768954E+03  0.14865934032E+04  0.46999998093E+01 0.  1.
</event>
<event>
 5   0  0.1550164E-06  0.3104521E+04  0.7818609E-02  0.8214498E-01
        1   -1    0    0  501    0  0.00000000000E+00  0.00000000000E+00  0.18696225857E+04  0.18696225857E+04  0.50400001928E-02 0.  1.
       -1   -1    0    0    0  501  0.00000000000E+00  0.00000000000E+00 -0.12887693030E+04  0.12887693030E+04  0.50400001928E-02 0. -1.
    10030    2    1    2    0    0  0.00000000000E+00  0.00000000000E+00  0.58085328270E+03  0.31583918887E+04  0.31045207015E+04 0.  0.
        4    1    3    3  502    0  0.74622429597E+03 -0.12573174926E+04 -0.23997670225E+03  0.14816505687E+04  0.12699999809E+01 0. -1.
       -4    1    3    3    0  502 -0.74622429597E+03  0.12573174926E+04  0.82082998494E+03  0.16767413200E+04  0.12699999809E+01 0.  1.
</event>
<event>
 5   0  0.1550164E-06  0.3457115E+04  0.7818609E-02  0.8124029E-01
        1   -1    0    0  501    0  0.00000000000E+00  0.00000000000E+00  0.15600820142E+04  0.15600820142E+04  0.50400001928E-02 0.  1.
       -1   -1    0    0    0  501  0.00000000000E+00  0.00000000000E+00 -0.19152274291E+04  0.19152274291E+04  0.50400001928E-02 0. -1.
    10030    2    1    2    0    0  0.00000000000E+00  0.00000000000E+00 -0.35514541492E+03  0.34753094434E+04  0.34571154828E+04 0.  0.
        4    1    3    3  502    0  0.11765245828E+04 -0.12348901592E+03 -0.14445430612E+04  0.18671277137E+04  0.12699999809E+01 0. -1.
       -4    1    3    3    0  502 -0.11765245828E+04  0.12348901592E+03  0.10893976463E+04  0.16081817296E+04  0.12699999809E+01 0.  1.
</event>
<event>
 5   0  0.4344980E-06  0.2729609E+04  0.7818609E-02  0.8325461E-01
        2   -1    0    0  501    0  0.00000000000E+00  0.00000000000E+00  0.21579591239E+04  0.21579591239E+04  0.25500000920E-02 0.  1.
       -2   -1    0    0    0  501  0.00000000000E+00  0.00000000000E+00 -0.86317251661E+03  0.86317251661E+03  0.25500000920E-02 0. -1.
    10030    2    1    2    0    0  0.00000000000E+00  0.00000000000E+00  0.12947866073E+04  0.30211316406E+04  0.27296087689E+04 0.  0.
        3    1    3    3  502    0  0.83411120968E+03  0.10802204276E+04  0.63791640015E+03  0.15065042403E+04  0.10100000352E+00 0.  1.
       -3    1    3    3    0  502 -0.83411120968E+03 -0.10802204276E+04  0.65687020718E+03  0.15146274002E+04  0.10100000352E+00 0. -1.
</event>
<event>
 5   0  0.1401125E-06  0.2523743E+04  0.7818609E-02  0.8394575E-01
       -4   -1    0    0    0  501  0.00000000000E+00  0.00000000000E+00  0.12560339419E+04  0.12560345840E+04  0.12699999809E+01 0. -1.
        4   -1    0    0  501    0  0.00000000000E+00  0.00000000000E+00 -0.12677352835E+04  0.12677359196E+04  0.12699999809E+01 0.  1.
    10030    2    1    2    0    0  0.00000000000E+00  0.00000000000E+00 -0.11701341593E+02  0.25237705036E+04  0.25237433771E+04 0.  0.
        4    1    3    3  502    0 -0.91193786542E+03  0.72444453162E+03 -0.49151832073E+03  0.12641370267E+04  0.12699999809E+01 0.  1.
       -4    1    3    3    0  502  0.91193786542E+03 -0.72444453162E+03  0.47981697914E+03  0.12596334769E+04  0.12699999809E+01 0. -1.
</event>
<event>
 5   0  0.4189587E-06  0.3724622E+04  0.7818609E-02  0.8062527E-01
       -2   -1    0    0    0  501  0.00000000000E+00  0.00000000000E+00  0.15811739611E+04  0.15811739611E+04  0.25500000920E-02 0.  1.
        2   -1    0    0  501    0  0.00000000000E+00  0.00000000000E+00 -0.21934353079E+04  0.21934353079E+04  0.25500000920E-02 0. -1.
    10030    2    1    2    0    0  0.00000000000E+00  0.00000000000E+00 -0.61226134674E+03  0.37746092690E+04  0.37246222865E+04 0.  0.
        1    1    3    3  502    0 -0.92988033563E+02 -0.22977487179E+03  0.15643813499E+04  0.15838978104E+04  0.50400001928E-02 0.  1.
       -1    1    3    3    0  502  0.92988033563E+02  0.22977487179E+03 -0.21766426966E+04  0.21907114586E+04  0.50400001928E-02 0. -1.
</event>
<event>
 5   0  0.2101998E-06  0.3386643E+04  0.7818609E-02  0.8141192E-01
        1   -1    0    0  501    0  0.00000000000E+00  0.00000000000E+00  0.17067519006E+04  0.17067519006E+04  0.50400001928E-02 0.  1.
       -1   -1    0    0    0  501  0.00000000000E+00  0.00000000000E+00 -0.16799969125E+04  0.16799969125E+04  0.50400001928E-02 0. -1.
    10030    2    1    2    0    0  0.00000000000E+00  0.00000000000E+00  0.26754988129E+02  0.33867488131E+04  0.33866431306E+04 0.  0.
        5    1    3    3  502    0  0.14237503065E+04  0.18523805518E+03 -0.88439088458E+03  0.16862821232E+04  0.46999998093E+01 0. -1.
       -5    1    3    3    0  502 -0.14237503065E+04 -0.18523805518E+03  0.91114587271E+03  0.17004666899E+04  0.46999998093E+01 0.  1.
</event>
<event>
 5   0  0.4344980E-06  0.2628872E+04  0.7818609E-02  0.8358460E-01
       -2   -1    0    0    0  501  0.00000000000E+00  0.00000000000E+00  0.10729317910E+04  0.10729317910E+04  0.25500000920E-02 0.  1.
        2   -1    0    0  501    0  0.00000000000E+00  0.00000000000E+00 -0.16103002303E+04  0.16103002303E+04  0.25500000920E-02 0. -1.
    10030    2    1    2    0    0  0.00000000000E+00  0.00000000000E+00 -0.53736843934E+03  0.26832320213E+04  0.26288722374E+04 0.  0.
        3    1    3    3  502    0  0.64291667844E+03  0.36111473994E+03  0.84193190287E+03  0.11191939287E+04  0.10100000352E+00 0.  1.
       -3    1    3    3    0  502 -0.64291667844E+03 -0.36111473994E+03 -0.13793003422E+04  0.15640380926E+04  0.10100000352E+00 0. -1.
</event>
<event>
 5   0  0.1689504E-06  0.1826707E+04  0.7818609E-02  0.8692224E-01
        1   -1    0    0  501    0  0.00000000000E+00  0.00000000000E+00  0.89883039352E+03  0.89883039354E+03  0.50400001928E-02 0.  1.
       -1   -1    0    0    0  501  0.00000000000E+00  0.00000000000E+00 -0.92811165255E+03  0.92811165257E+03  0.50400001928E-02 0. -1.
    10030    2    1    2    0    0  0.00000000000E+00  0.00000000000E+00 -0.29281259030E+02  0.18269420461E+04  0.18267073788E+04 0.  0.
        1    1    3    3  502    0 -0.11864582279E+03 -0.80939615366E+02 -0.91674702958E+03  0.92792950641E+03  0.50400001928E-02 0. -1.
       -1    1    3    3    0  502  0.11864582279E+03  0.80939615366E+02  0.88746577055E+03  0.89901253969E+03  0.50400001928E-02 0.  1.
</event>
<event>
 5   0  0.1654257E-06  0.3365858E+04  0.7818609E-02  0.8146337E-01
        1   -1    0    0  501    0  0.00000000000E+00  0.00000000000E+00  0.17336190390E+04  0.17336190390E+04  0.50400001928E-02 0.  1.
       -1   -1    0    0    0  501  0.00000000000E+00  0.00000000000E+00 -0.16337209485E+04  0.16337209485E+04  0.50400001928E-02 0. -1.
    10030    2    1    2    0    0  0.00000000000E+00  0.00000000000E+00  0.99898090478E+02  0.33673399875E+04  0.33658578346E+04 0.  0.
        3    1    3    3  502    0 -0.38982465055E+03  0.40428962675E+03 -0.15372035725E+04  0.16365843070E+04  0.10100000352E+00 0. -1.
       -3    1    3    3    0  502  0.38982465055E+03 -0.40428962675E+03  0.16371016630E+04  0.17307556805E+04  0.10100000352E+00 0.  1.
</event>
<event>
 5   0  0.4344980E-06  0.3263752E+04  0.7818609E-02  0.8172180E-01
       -2   -1    0    0    0  501  0.00000000000E+00  0.00000000000E+00  0.10664428846E+04  0.10664428846E+04  0.25500000920E-02 0. -1.
        2   -1    0    0  501    0  0.00000000000E+00  0.00000000000E+00 -0.24971050190E+04  0.24971050190E+04  0.25500000920E-02 0.  1.
    10030    2    1    2    0    0  0.00000000000E+00  0.00000000000E+00 -0.14306621344E+04  0.35635479036E+04  0.32637523678E+04 0.  0.
        3    1    3    3  502    0 -0.16179171876E+04 -0.15842355124E+03 -0.55989653381E+03  0.17193714509E+04  0.10100000352E+00 0.  1.
       -3    1    3    3    0  502  0.16179171876E+04  0.15842355124E+03 -0.87076560055E+03  0.18441764527E+04  0.10100000352E+00 0. -1.
</event>
<event>
 5   0  0.1571391E-06  0.3437500E+04  0.7818609E-02  0.8128764E-01
        1   -1    0    0  501    0  0.00000000000E+00  0.00000000000E+00  0.13350015448E+04  0.13350015449E+04  0.50400001928E-02 0.  1.
       -1   -1    0    0    0  501  0.00000000000E+00  0.00000000000E+00 -0.22128072807E+04  0.22128072807E+04  0.50400001928E-02 0. -1.
    10030    2    1    2    0    0  0.00000000000E+00  0.00000000000E+00 -0.87780573587E+03  0.35478088256E+04  0.34374997531E+04 0.  0.
        1    1    3    3  502    0  0.72094515896E+03  0.15573504290E+04 -0.34099643848E+03  0.17496802143E+04  0.50400001928E-02 0. -1.
       -1    1    3    3    0  502 -0.72094515896E+03 -0.15573504290E+04 -0.53680929739E+03  0.17981286113E+04  0.50400001928E-02 0.  1.
</event>
<event>
 5   0  0.1562618E-06  0.3317934E+04  0.7818609E-02  0.8158347E-01
       -1   -1    0    0    0  501  0.00000000000E+00  0.00000000000E+00  0.12645366815E+04  0.12645366815E+04  0.50400001928E-02 0.  1.
        1   -1    0    0  501    0  0.00000000000E+00  0.00000000000E+00 -0.21764274191E+04  0.21764274191E+04  0.50400001928E-02 0. -1.
    10030    2    1    2    0    0  0.00000000000E+00  0.00000000000E+00 -0.91189073760E+03  0.34409641006E+04  0.33179344816E+04 0.  0.
        2    1    3    3  502    0 -0.15568157138E+03 -0.28791328846E+03 -0.21426093879E+04  0.21674652944E+04  0.25500000920E-02 0. -1.
       -2    1    3    3    0  502  0.15568157138E+03  0.28791328846E+03  0.12307186503E+04  0.12734988062E+04  0.25500000920E-02 0.  1.
</event>
<event>
 5   0  0.2722449E-06  0.3525606E+04  0.7818609E-02  0.8107748E-01
        2   -1    0    0  501    0  0.00000000000E+00  0.00000000000E+00  0.16604711670E+04  0.16604711670E+04  0.25500000920E-02 0.  1.
       -2   -1    0    0    0  501  0.00000000000E+00  0.00000000000E+00 -0.18714410223E+04  0.18714410223E+04  0.25500000920E-02 0. -1.
    10030    2    1    2    0    0  0.00000000000E+00  0.00000000000E+00 -0.21096985524E+03  0.35319121893E+04  0.35256056832E+04 0.  0.
        2    1    3    3  502    0 -0.87004335852E+03  0.26532499621E+03 -0.16181863252E+04  0.18563134925E+04  0.25500000920E-02 0. -1.
       -2    1    3    3    0  502  0.87004335852E+03 -0.26532499621E+03  0.14072164700E+04  0.16755986968E+04  0.25500000920E-02 0.  1.
</event>
<event>
 5   0  0.2722449E-06  0.3387207E+04  0.7818609E-02  0.8141053E-01
        2   -1    0    0  501    0  0.00000000000E+00  0.00000000000E+00  0.20640494752E+04  0.20640494752E+04  0.25500000920E-02 0.  1.
       -2   -1    0    0    0  501  0.00000000000E+00  0.00000000000E+00 -0.13896430583E+04  0.13896430583E+04  0.25500000920E-02 0. -1.
    10030    2    1    2    0    0  0.00000000000E+00  0.00000000000E+00  0.67440641692E+03  0.34536925335E+04  0.33872065335E+04 0.  0.
        2    1    3    3  502    0 -0.61242391980E+03  0.11945114999E+04  0.13901252230E+04  0.19324515302E+04  0.25500000920E-02 0.  1.
       -2    1    3    3    0  502  0.61242391980E+03 -0.11945114999E+04 -0.71571880604E+03  0.15212410033E+04  0.25500000920E-02 0. -1.
</event>
<event>
 5   0  0.4173467E-06  0.2028654E+04  0.7818609E-02  0.8593340E-01
        2   -1    0    0  501    0  0.00000000000E+00  0.00000000000E+00  0.73881826433E+03  0.73881826434E+03  0.25500000920E-02 0. -1.
       -2   -1    0    0    0  501  0.00000000000E+00  0.00000000000E+00 -0.13925736479E+04  0.13925736479E+04  0.25500000920E-02 0.  1.
    10030    2    1    2    0    0  0.00000000000E+00  0.00000000000E+00 -0.65375538352E+03  0.21313919122E+04  0.20286535884E+04 0.  0.
        4    1    3    3  502    0 -0.62478617571E+03  0.50357221155E+03  0.32495712346E+03  0.86576063816E+03  0.12699999809E+01 0. -1.
       -4    1    3    3    0  502  0.62478617571E+03 -0.50357221155E+03 -0.97871250698E+03  0.12656312740E+04  0.12699999809E+01 0.  1.
</event>
<event>
 5   0  0.4189587E-06  0.3386376E+04  0.7818609E-02  0.8141258E-01
        2   -1    0    0  501    0  0.00000000000E+00  0.00000000000E+00  0.14484588042E+04  0.14484588042E+04  0.25500000920E-02 0.  1.
       -2   -1    0    0    0  501  0.00000000000E+00  0.00000000000E+00 -0.19792662211E+04  0.19792662211E+04  0.25500000920E-02 0. -1.
    10030    2    1    2    0    0  0.00000000000E+00  0.00000000000E+00 -0.53080741682E+03  0.34277250253E+04  0.33863759885E+04 0.  0.
        1    1    3    3  502    0  0.87769456056E+03  0.54339650478E+03 -0.16239009791E+04  0.19242354048E+04  0.50400001928E-02 0. -1.
       -1    1    3    3    0  502 -0.87769456056E+03 -0.54339650478E+03  0.10930935623E+04  0.15034896205E+04  0.50400001928E-02 0.  1.
</event>
<event>
 5   0  0.4400349E-06  0.3276425E+04  0.7818609E-02  0.8168920E-01
       -2   -1    0    0    0  501  0.00000000000E+00  0.00000000000E+00  0.14835235712E+04  0.14835235712E+04  0.25500000920E-02 0. -1.
        2   -1    0    0  501    0  0.00000000000E+00  0.00000000000E+00 -0.18090315611E+04  0.18090315611E+04  0.25500000920E-02 0.  1.
    10030    2    1    2    0    0  0.00000000000E+00  0.00000000000E+00 -0.32550798994E+03  0.32925551323E+04  0.32764254680E+04 0.  0.
        5    1    3    3  502    0 -0.15920359559E+04  0.29524537401E+03  0.87410377902E+02  0.16215458612E+04  0.46999998093E+01 0.  1.
       -5    1    3    3    0  502  0.15920359559E+04 -0.29524537401E+03 -0.41291836784E+03  0.16710092711E+04  0.46999998093E+01 0. -1.
</event>
<event>
 5   0  0.2722449E-06  0.3467148E+04  0.7818609E-02  0.8121620E-01
       -2   -1    0    0    0  501  0.00000000000E+00  0.00000000000E+00  0.13180377227E+04  0.13180377227E+04  0.25500000920E-02 0.  1.
        2   -1    0    0  501    0  0.00000000000E+00  0.00000000000E+00 -0.22801156522E+04  0.22801156522E+04  0.25500000920E-02 0. -1.
    10030    2    1    2    0    0  0.00000000000E+00  0.00000000000E+00 -0.96207792954E+03  0.35981533749E+04  0.34671477856E+04 0.  0.
        2    1    3    3  502    0  0.14536022487E+02  0.74590351463E+02 -0.22783862462E+04  0.22796532419E+04  0.25500000920E-02 0. -1.
       -2    1    3    3    0  502 -0.14536022487E+02 -0.74590351463E+02  0.13163083166E+04  0.13185001331E+04  0.25500000920E-02 0.  1.
</event>
<event>
 5   0  0.4189587E-06  0.3421804E+04  0.7818609E-02  0.8132575E-01
       -2   -1    0    0    0  501  0.00000000000E+00  0.00000000000E+00  0.25816688083E+04  0.25816688083E+04  0.25500000920E-02 0. -1.
        2   -1    0    0  501    0  0.00000000000E+00  0.00000000000E+00 -0.11338349552E+04  0.11338349552E+04  0.25500000920E-02 0.  1.
    10030    2    1    2    0    0  0.00000000000E+00  0.00000000000E+00  0.14478338531E+04  0.37155037635E+04  0.34218043998E+04 0.  0.
        1    1    3    3  502    0 -0.13044798436E+04 -0.10207017306E+04  0.11892900787E+04  0.20390955290E+04  0.50400001928E-02 0. -1.
       -1    1    3    3    0  502  0.13044798436E+04  0.10207017306E+04  0.25854377446E+03  0.16764082345E+04  0.50400001928E-02 0.  1.
</event>
<event>
 5   0  0.1401125E-06  0.2776038E+04  0.7818609E-02  0.8310746E-01
       -3   -1    0    0    0  501  0.00000000000E+00  0.00000000000E+00  0.20749882864E+04  0.20749882889E+04  0.10100000352E+00 0. -1.
        3   -1    0    0  501    0  0.00000000000E+00  0.00000000000E+00 -0.92848546438E+03  0.92848546987E+03  0.10100000352E+00 0.  1.
    10030    2    1    2    0    0  0.00000000000E+00  0.00000000000E+00  0.11465028220E+04  0.30034737588E+04  0.27760378057E+04 0.  0.
        4    1    3    3  502    0  0.81585937992E+03  0.29029936564E+03 -0.60037628053E+03  0.10537331449E+04  0.12699999809E+01 0.  1.
       -4    1    3    3    0  502 -0.81585937992E+03 -0.29029936564E+03  0.17468791026E+04  0.19497406139E+04  0.12699999809E+01 0. -1.
</event>
<event>
 5   0  0.1401125E-06  0.3341800E+04  0.7818609E-02  0.8152340E-01
       -3   -1    0    0    0  501  0.00000000000E+00  0.00000000000E+00  0.17382528331E+04  0.17382528360E+04  0.10100000352E+00 0.  1.
        3   -1    0    0  501    0  0.00000000000E+00  0.00000000000E+00 -0.16061564944E+04  0.16061564976E+04  0.10100000352E+00 0. -1.
    10030    2    1    2    0    0  0.00000000000E+00  0.00000000000E+00  0.13209633865E+03  0.33444093336E+04  0.33417995673E+04 0.  0.
        4    1    3    3  502    0 -0.73590185818E+03 -0.63700309559E+03 -0.12931656279E+04  0.16185189040E+04  0.12699999809E+01 0. -1.
       -4    1    3    3    0  502  0.73590185818E+03  0.63700309559E+03  0.14252619665E+04  0.17258904295E+04  0.12699999809E+01 0.  1.
</event>
<event>
 5   0  0.1571391E-06  0.3196832E+04  0.7818609E-02  0.8189654E-01
       -1   -1    0    0    0  501  0.00000000000E+00  0.00000000000E+00  0.13941225695E+04  0.13941225695E+04  0.50400001928E-02 0.  1.
        1   -1    0    0  501    0  0.00000000000E+00  0.00000000000E+00 -0.18326464570E+04  0.18326464570E+04  0.50400001928E-02 0. -1.
    10030    2    1    2    0    0  0.00000000000E+00  0.00000000000E+00 -0.43852388748E+03  0.32267690265E+04  0.31968320491E+04 0.  0.
        1    1    3    3  502    0 -0.32764766196E+03  0.76001583404E+03 -0.15995312726E+04  0.18009656716E+04  0.50400001928E-02 0. -1.
       -1    1    3    3    0  502  0.32764766196E+03 -0.76001583404E+03  0.11610073851E+04  0.14258033549E+04  0.50400001928E-02 0.  1.
</event>
<event>
 5   0  0.4400349E-06  0.3388923E+04  0.7818609E-02  0.8140630E-01
        2   -1    0    0  501    0  0.00000000000E+00  0.00000000000E+00  0.24238773455E+04  0.24238773455E+04  0.25500000920E-02 0. -1.
       -2   -1    0    0    0  501  0.00000000000E+00  0.00000000000E+00 -0.11845481126E+04  0.11845481127E+04  0.25500000920E-02 0.  1.
    10030    2    1    2    0    0  0.00000000000E+00  0.00000000000E+00  0.12393292329E+04  0.36084254582E+04  0.33889227403E+04 0.  0.
        5    1    3    3  502    0  0.65420407879E+03 -0.40243671775E+03  0.22278698084E+04  0.23565577144E+04  0.46999998093E+01 0. -1.
       -5    1    3    3    0  502 -0.65420407879E+03  0.40243671775E+03 -0.98854057547E+03  0.12518677438E+04  0.46999998093E+01 0.  1.
</event>
<event>
 5   0  0.1777995E-06  0.1883937E+04  0.7818609E-02  0.8662894E-01
       -1   -1    0    0    0  501  0.00000000000E+00  0.00000000000E+00  0.82711476613E+03  0.82711476615E+03  0.50400001928E-02 0. -1.
        1   -1    0    0  501    0  0.00000000000E+00  0.00000000000E+00 -0.10727704074E+04  0.10727704074E+04  0.50400001928E-02 0.  1.
    10030    2    1    2    0    0  0.00000000000E+00  0.00000000000E+00 -0.24565564130E+03  0.18998851736E+04  0.18839365644E+04 0.  0.
        4    1    3    3  502    0  0.10852847810E+03 -0.27576896090E+03  0.77887557947E+03  0.83335210538E+03  0.12699999809E+01 0. -1.
       -4    1    3    3    0  502 -0.10852847810E+03  0.27576896090E+03 -0.10245312208E+04  0.10665330682E+04  0.12699999809E+01 0.  1.
</event>
<event>
 5   0  0.4189587E-06  0.3569346E+04  0.7818609E-02  0.8097550E-01
       -2   -1    0    0    0  501  0.00000000000E+00  0.00000000000E+00  0.15372448300E+04  0.15372448300E+04  0.25500000920E-02 0.  1.
        2   -1    0    0  501    0  0.00000000000E+00  0.00000000000E+00 -0.20719259532E+04  0.20719259532E+04  0.25500000920E-02 0. -1.
    10030    2    1    2    0    0  0.00000000000E+00  0.00000000000E+00 -0.53468112320E+03  0.36091707833E+04  0.35693458560E+04 0.  0.
        1    1    3    3  502    0  0.53128945294E+03  0.15718693023E+04  0.39727216574E+03  0.17061262439E+04  0.50400001928E-02 0. -1.
       -1    1    3    3    0  502 -0.53128945294E+03 -0.15718693023E+04 -0.93195328894E+03  0.19030445394E+04  0.50400001928E-02 0.  1.
</event>
<event>
 5   0  0.2722449E-06  0.3282749E+04  0.7818609E-02  0.8167299E-01
       -2   -1    0    0    0  501  0.00000000000E+00  0.00000000000E+00  0.15749014057E+04  0.15749014057E+04  0.25500000920E-02 0.  1.
        2   -1    0    0  501    0  0.00000000000E+00  0.00000000000E+00 -0.17106528562E+04  0.17106528562E+04  0.25500000920E-02 0. -1.
    10030    2    1    2    0    0  0.00000000000E+00  0.00000000000E+00 -0.13575145047E+03  0.32855542619E+04  0.32827485971E+04 0.  0.
        2    1    3    3  502    0 -0.11250046532E+04 -0.11762546635E+04 -0.27995086599E+03  0.16515395819E+04  0.25500000920E-02 0. -1.
       -2    1    3    3    0  502  0.11250046532E+04  0.11762546635E+04  0.14419941552E+03  0.16340146800E+04  0.25500000920E-02 0.  1.
</event>
<event>
 5   0  0.2101998E-06  0.3345283E+04  0.7818609E-02  0.8151468E-01
       -1   -1    0    0    0  501  0.00000000000E+00  0.00000000000E+00  0.15761482732E+04  0.15761482733E+04  0.50400001928E-02 0.  1.
        1   -1    0    0  501    0  0.00000000000E+00  0.00000000000E+00 -0.17750416571E+04  0.17750416571E+04  0.50400001928E-02 0. -1.
    10030    2    1    2    0    0  0.00000000000E+00  0.00000000000E+00 -0.19889338385E+03  0.33511899304E+04  0.33452825548E+04 0.  0.
        5    1    3    3  502    0  0.51538742713E+03  0.92278717724E+03 -0.13980948018E+04  0.17526698318E+04  0.46999998093E+01 0. -1.
       -5    1    3    3    0  502 -0.51538742713E+03 -0.92278717724E+03  0.11992014180E+04  0.15985200985E+04  0.46999998093E+01 0.  1.
</event>
<event>
 5   0  0.2722449E-06  0.3384259E+04  0.7818609E-02  0.8141781E-01
        2   -1    0    0  501    0  0.00000000000E+00  0.00000000000E+00  0.15312289208E+04  0.15312289208E+04  0.25500000920E-02 0. -1.
       -2   -1    0    0    0  501  0.00000000000E+00  0.00000000000E+00 -0.18699369844E+04  0.18699369844E+04  0.25500000920E-02 0.  1.
    10030    2    1    2    0    0  0.00000000000E+00  0.00000000000E+00 -0.33870806359E+03  0.34011659053E+04  0.33842586135E+04 0.  0.
        2    1    3    3  502    0 -0.10640879290E+04  0.11058813887E+03 -0.14869295695E+04  0.18317948580E+04  0.25500000920E-02 0.  1.
       -2    1    3    3    0  502  0.10640879290E+04 -0.11058813887E+03  0.11482215060E+04  0.15693710472E+04  0.25500000920E-02 0. -1.
</event>
<event>
 5   0  0.4344980E-06  0.3366050E+04  0.7818609E-02  0.8146289E-01
        2   -1    0    0  501    0  0.00000000000E+00  0.00000000000E+00  0.18523839237E+04  0.18523839237E+04  0.25500000920E-02 0.  1.
       -2   -1    0    0    0  501  0.00000000000E+00  0.00000000000E+00 -0.15291502820E+04  0.15291502820E+04  0.25500000920E-02 0. -1.
    10030    2    1    2    0    0  0.00000000000E+00  0.00000000000E+00  0.32323364166E+03  0.33815342057E+04  0.33660501478E+04 0.  0.
        3    1    3    3  502    0  0.15122446164E+04 -0.45605919814E+03  0.74540928818E+03  0.17465705795E+04  0.10100000352E+00 0.  1.
       -3    1    3    3    0  502 -0.15122446164E+04  0.45605919814E+03 -0.42217564652E+03  0.16349636262E+04  0.10100000352E+00 0. -1.
</event>
<event>
 5   0  0.1562618E-06  0.3233157E+04  0.7818609E-02  0.8180115E-01
       -1   -1    0    0    0  501  0.00000000000E+00  0.00000000000E+00  0.17410221724E+04  0.17410221724E+04  0.50400001928E-02 0.  1.
        1   -1    0    0  501    0  0.00000000000E+00  0.00000000000E+00 -0.15010297927E+04  0.15010297927E+04  0.50400001928E-02 0. -1.
    10030    2    1    2    0    0  0.00000000000E+00  0.00000000000E+00  0.23999237971E+03  0.32420519651E+04  0.32331570643E+04 0.  0.
        2    1    3    3  502    0 -0.67489745524E+03 -0.34677426803E+03  0.15513640746E+04  0.17269827620E+04  0.25500000920E-02 0.  1.
       -2    1    3    3    0  502  0.67489745524E+03  0.34677426803E+03 -0.13113716949E+04  0.15150692032E+04  0.25500000920E-02 0. -1.
</event>
<event>
 5   0  0.4189587E-06  0.3228915E+04  0.7818609E-02  0.8181222E-01
       -2   -1    0    0    0  501  0.00000000000E+00  0.00000000000E+00  0.10655280665E+04  0.10655280665E+04  0.25500000920E-02 0. -1.
        2   -1    0    0  501    0  0.00000000000E+00  0.00000000000E+00 -0.24461797110E+04  0.24461797110E+04  0.25500000920E-02 0.  1.
    10030    2    1    2    0    0  0.00000000000E+00  0.00000000000E+00 -0.13806516445E+04  0.35117077775E+04  0.32289150734E+04 0.  0.
        1    1    3    3  502    0  0.59905089032E+03  0.14984288485E+04 -0.74273499572E+03  0.17764589095E+04  0.50400001928E-02 0.  1.
       -1    1    3    3    0  502 -0.59905089032E+03 -0.14984288485E+04 -0.63791664882E+03  0.17352488681E+04  0.50400001928E-02 0. -1.
</event>
<event>
 5   0  0.2101998E-06  0.3010125E+04  0.7818609E-02  0.8240846E-01
       -1   -1    0    0    0  501  0.00000000000E+00  0.00000000000E+00  0.10413474693E+04  0.10413474693E+04  0.50400001928E-02 0. -1.
        1   -1    0    0  501    0  0.00000000000E+00  0.00000000000E+00 -0.21752708478E+04  0.21752708478E+04  0.50400001928E-02 0.  1.
    10030    2    1    2    0    0  0.00000000000E+00  0.00000000000E+00 -0.11339233785E+04  0.32166183171E+04  0.30101247764E+04 0.  0.
        5    1    3    3  502    0 -0.13351171454E+04  0.39086584422E+03  0.46787484186E+02  0.13919500921E+04  0.46999998093E+01 0. -1.
       -5    1    3    3    0  502  0.13351171454E+04 -0.39086584422E+03 -0.11807108627E+04  0.18246682250E+04  0.46999998093E+01 0.  1.
</event>
<event>
 5   0  0.1571391E-06  0.1879799E+04  0.7818609E-02  0.8664977E-01
        1   -1    0    0  501    0  0.00000000000E+00  0.00000000000E+00  0.11305775333E+04  0.11305775333E+04  0.50400001928E-02 0. -1.
       -1   -1    0    0    0  501  0.00000000000E+00  0.00000000000E+00 -0.78138052254E+03  0.78138052255E+03  0.50400001928E-02 0.  1.
    10030    2    1    2    0    0  0.00000000000E+00  0.00000000000E+00  0.34919701076E+03  0.19119580559E+04  0.18797992060E+04 0.  0.
        1    1    3    3  502    0 -0.29292432794E+03 -0.80051198124E+03 -0.22813907727E+03  0.88242366956E+03  0.50400001928E-02 0.  1.
       -1    1    3    3    0  502  0.29292432794E+03  0.80051198124E+03  0.57733608803E+03  0.10295343863E+04  0.50400001928E-02 0. -1.
</event>
<event>
 5   0  0.1654257E-06  0.3467044E+04  0.7818609E-02  0.8121645E-01
       -1   -1    0    0    0  501  0.00000000000E+00  0.00000000000E+00  0.26349581906E+04  0.26349581906E+04  0.50400001928E-02 0. -1.
        1   -1    0    0  501    0  0.00000000000E+00  0.00000000000E+00 -0.11404730022E+04  0.11404730023E+04  0.50400001928E-02 0.  1.
    10030    2    1    2    0    0  0.00000000000E+00  0.00000000000E+00  0.14944851884E+04  0.37754311929E+04  0.34670440888E+04 0.  0.
        3    1    3    3  502    0  0.13258063079E+04  0.68268947138E+03 -0.21527384357E+03  0.15067083720E+04  0.10100000352E+00 0.  1.
       -3    1    3    3    0  502 -0.13258063079E+04 -0.68268947138E+03  0.17097590319E+04  0.22687228208E+04  0.10100000352E+00 0. -1.
</event>
<event>
 5   0  0.1550164E-06  0.2230756E+04  0.7818609E-02  0.8505735E-01
        1   -1    0    0  501    0  0.00000000000E+00  0.00000000000E+00  0.12995623589E+04  0.12995623589E+04  0.50400001928E-02 0. -1.
       -1   -1    0    0    0  501  0.00000000000E+00  0.00000000000E+00 -0.95729765908E+03  0.95729765910E+03  0.50400001928E-02 0.  1.
    10030    2    1    2    0    0  0.00000000000E+00  0.00000000000E+00  0.34226469983E+03  0.22568600180E+04  0.22307559293E+04 0.  0.
        4    1    3    3  502    0 -0.12083881721E+03  0.39973711143E+03 -0.87522110131E+03  0.96974500106E+03  0.12699999809E+01 0.  1.
       -4    1    3    3    0  502  0.12083881721E+03 -0.39973711143E+03  0.12174858011E+04  0.12871150170E+04  0.12699999809E+01 0. -1.
</event>
<event>
 5   0  0.4189587E-06  0.3361069E+04  0.7818609E-02  0.8147528E-01
        2   -1    0    0  501    0  0.00000000000E+00  0.00000000000E+00  0.12031735448E+04  0.12031735448E+04  0.25500000920E-02 0. -1.
       -2   -1    0    0    0  501  0.00000000000E+00  0.00000000000E+00 -0.23472893930E+04  0.23472893930E+04  0.25500000920E-02 0.  1.
    10030    2    1    2    0    0  0.00000000000E+00  0.00000000000E+00 -0.11441158482E+04  0.35504629378E+04  0.33610691749E+04 0.  0.
        1    1    3    3  502    0 -0.76437746455E+03  0.10890071401E+04 -0.16565469660E+04  0.21247016991E+04  0.50400001928E-02 0.  1.
       -1    1    3    3    0  502  0.76437746455E+03 -0.10890071401E+04  0.51243111779E+03  0.14257612388E+04  0.50400001928E-02 0. -1.
</event>
<event>
 5   0  0.2101998E-06  0.3384454E+04  0.7818609E-02  0.8141732E-01
        1   -1    0    0  501    0  0.00000000000E+00  0.00000000000E+00  0.15511787164E+04  0.15511787164E+04  0.50400001928E-02 0.  1.
       -1   -1    0    0    0  501  0.00000000000E+00  0.00000000000E+00 -0.18461006330E+04  0.18461006330E+04  0.50400001928E-02 0. -1.
    10030    2    1    2    0    0  0.00000000000E+00  0.00000000000E+00 -0.29492191663E+03  0.33972793494E+04  0.33844538763E+04 0.  0.
        5    1    3    3  502    0  0.46739811214E+03  0.11426584834E+04 -0.13092060858E+04  0.17994921700E+04  0.46999998093E+01 0. -1.
       -5    1    3    3    0  502 -0.46739811214E+03 -0.11426584834E+04  0.10142841691E+04  0.15977871794E+04  0.46999998093E+01 0.  1.
</event>
<event>
 5   0  0.4189587E-06  0.1970365E+04  0.7818609E-02  0.8620603E-01
       -2   -1    0    0    0  501  0.00000000000E+00  0.00000000000E+00  0.10424477392E+04  0.10424477392E+04  0.25500000920E-02 0.  1.
        2   -1    0    0  501    0  0.00000000000E+00  0.00000000000E+00 -0.93106304712E+03  0.93106304712E+03  0.25500000920E-02 0. -1.
    10030    2    1    2    0    0  0.00000000000E+00  0.00000000000E+00  0.11138469212E+03  0.19735107864E+04  0.19703650104E+04 0.  0.
        1    1    3    3  502    0 -0.21536277478E+03 -0.24790069888E+03 -0.87463325296E+03  0.93424793736E+03  0.50400001928E-02 0. -1.
       -1    1    3    3    0  502  0.21536277478E+03  0.24790069888E+03  0.98601794507E+03  0.10392628490E+04  0.50400001928E-02 0.  1.
</event>
<event>
 5   0  0.4344980E-06  0.2348081E+04  0.7818609E-02  0.8459201E-01
        2   -1    0    0  501    0  0.00000000000E+00  0.00000000000E+00  0.86276551361E+03  0.86276551362E+03  0.25500000920E-02 0. -1.
       -2   -1    0    0    0  501  0.00000000000E+00  0.00000000000E+00 -0.15976191406E+04  0.15976191406E+04  0.25500000920E-02 0.  1.
    10030    2    1    2    0    0  0.00000000000E+00  0.00000000000E+00 -0.73485362699E+03  0.24603846542E+04  0.23480806617E+04 0.  0.
        3    1    3    3  502    0  0.12052731289E+03 -0.31526266583E+03  0.81083389651E+03  0.87827615221E+03  0.10100000352E+00 0. -1.
       -3    1    3    3    0  502 -0.12052731289E+03  0.31526266583E+03 -0.15456875235E+04  0.15821085020E+04  0.10100000352E+00 0.  1.
</event>
<event>
 5   0  0.1562618E-06  0.3405315E+04  0.7818609E-02  0.8136603E-01
        1   -1    0    0  501    0  0.00000000000E+00  0.00000000000E+00  0.23918218057E+04  0.23918218057E+04  0.50400001928E-02 0.  1.
       -1   -1    0    0    0  501  0.00000000000E+00  0.00000000000E+00 -0.12120645395E+04  0.12120645395E+04  0.50400001928E-02 0. -1.
    10030    2    1    2    0    0  0.00000000000E+00  0.00000000000E+00  0.11797572661E+04  0.36038863452E+04  0.34053149021E+04 0.  0.
        2    1    3    3  502    0  0.16413428581E+04 -0.11997070669E+03  0.12779105610E+03  0.16506755897E+04  0.25500000920E-02 0. -1.
       -2    1    3    3    0  502 -0.16413428581E+04  0.11997070669E+03  0.10519662100E+04  0.19532107555E+04  0.25500000920E-02 0.  1.
</event>
<event>
 5   0  0.1550164E-06  0.3243833E+04  0.7818609E-02  0.8177336E-01
        1   -1    0    0  501    0  0.00000000000E+00  0.00000000000E+00  0.10009304289E+04  0.10009304289E+04  0.50400001928E-02 0.  1.
       -1   -1    0    0    0  501  0.00000000000E+00  0.00000000000E+00 -0.26281677454E+04  0.26281677455E+04  0.50400001928E-02 0. -1.
    10030    2    1    2    0    0  0.00000000000E+00  0.00000000000E+00 -0.16272373165E+04  0.36290981744E+04  0.32438329604E+04 0.  0.
        4    1    3    3  502    0 -0.75953099083E+02  0.70981470378E+03  0.81571920218E+03  0.10839765757E+04  0.12699999809E+01 0.  1.
       -4    1    3    3    0  502  0.75953099083E+02 -0.70981470378E+03 -0.24429565187E+04  0.25451215987E+04  0.12699999809E+01 0. -1.
</event>
<event>
 5   0  0.2722449E-06  0.3337978E+04  0.7818609E-02  0.8153299E-01
       -2   -1    0    0    0  501  0.00000000000E+00  0.00000000000E+00  0.11422004455E+04  0.11422004455E+04  0.25500000920E-02 0.  1.
        2   -1    0    0  501    0  0.00000000000E+00  0.00000000000E+00 -0.24387346829E+04  0.24387346829E+04  0.25500000920E-02 0. -1.
    10030    2    1    2    0    0  0.00000000000E+00  0.00000000000E+00 -0.12965342374E+04  0.35809351283E+04  0.33379777358E+04 0.  0.
        2    1    3    3  502    0  0.11381161115E+04 -0.91338530553E+03  0.22058530371E+03  0.14758857936E+04  0.25500000920E-02 0.  1.
       -2    1    3    3    0  502 -0.11381161115E+04  0.91338530553E+03 -0.15171195411E+04  0.21050493347E+04  0.25500000920E-02 0. -1.
</event>
<event>
 5   0  0.4189587E-06  0.3406380E+04  0.7818609E-02  0.8136342E-01
       -2   -1    0    0    0  501  0.00000000000E+00  0.00000000000E+00  0.20427028020E+04  0.20427028020E+04  0.25500000920E-02 0. -1.
        2   -1    0    0  501    0  0.00000000000E+00  0.00000000000E+00 -0.14201068831E+04  0.14201068831E+04  0.25500000920E-02 0.  1.
    10030    2    1    2    0    0  0.00000000000E+00  0.00000000000E+00  0.62259591885E+03  0.34628096851E+04  0.34063800782E+04 0.  0.
        1    1    3    3  502    0 -0.16454193250E+04 -0.43912108577E+03  0.33669636878E+03  0.17359713499E+04  0.50400001928E-02 0. -1.
       -1    1    3    3    0  502  0.16454193250E+04  0.43912108577E+03  0.28589955007E+03  0.17268383352E+04  0.50400001928E-02 0.  1.
</event>
<event>
 5   0  0.1571391E-06  0.3381715E+04  0.7818609E-02  0.8142409E-01
       -1   -1    0    0    0  501  0.00000000000E+00  0.00000000000E+00  0.94903106527E+03  0.94903106528E+03  0.50400001928E-02 0.  1.
        1   -1    0    0  501    0  0.00000000000E+00  0.00000000000E+00 -0.30125446607E+04  0.30125446607E+04  0.50400001928E-02 0. -1.
    10030    2    1    2    0    0  0.00000000000E+00  0.00000000000E+00 -0.20635135955E+04  0.39615757260E+04  0.33817146353E+04 0.  0.
        1    1    3    3  502    0 -0.44872432151E+03  0.73202781285E+03 -0.27381582202E+04  0.28696216953E+04  0.50400001928E-02 0. -1.
       -1    1    3    3    0  502  0.44872432151E+03 -0.73202781285E+03  0.67464462471E+03  0.10919540307E+04  0.50400001928E-02 0.  1.
</event>
<event>
 5   0  0.4344980E-06  0.2512287E+04  0.7818609E-02  0.8398621E-01
        2   -1    0    0  501    0  0.00000000000E+00  0.00000000000E+00  0.13036988762E+04  0.13036988763E+04  0.25500000920E-02 0. -1.
       -2   -1    0    0    0  501  0.00000000000E+00  0.00000000000E+00 -0.12103228782E+04  0.12103228782E+04  0.25500000920E-02 0.  1.
    10030    2    1    2    0    0  0.00000000000E+00  0.00000000000E+00  0.93375998080E+02  0.25140217544E+04  0.25122870665E+04 0.  0.
        3    1    3    3  502    0 -0.54081199161E+03 -0.37372997498E+03  0.11178218091E+04  0.12967950153E+04  0.10100000352E+00 0. -1.
       -3    1    3    3    0  502  0.54081199161E+03  0.37372997498E+03 -0.10244458111E+04  0.12172267391E+04  0.10100000352E+00 0.  1.
</event>
<event>
 5   0  0.1550164E-06  0.3353144E+04  0.7818609E-02  0.8149503E-01
        1   -1    0    0  501    0  0.00000000000E+00  0.00000000000E+00  0.19120914268E+04  0.19120914268E+04  0.50400001928E-02 0.  1.
       -1   -1    0    0    0  501  0.00000000000E+00  0.00000000000E+00 -0.14700626526E+04  0.14700626526E+04  0.50400001928E-02 0. -1.
    10030    2    1    2    0    0  0.00000000000E+00  0.00000000000E+00  0.44202877416E+03  0.33821540794E+04  0.33531443124E+04 0.  0.
        4    1    3    3  502    0  0.58432329606E+03  0.91882501280E+03  0.15068846446E+04  0.18591331484E+04  0.12699999809E+01 0.  1.
       -4    1    3    3    0  502 -0.58432329606E+03 -0.91882501280E+03 -0.10648558704E+04  0.15230209310E+04  0.12699999809E+01 0. -1.
</event>
<event>
 5   0  0.1654257E-06  0.3399571E+04  0.7818609E-02  0.8138011E-01
       -1   -1    0    0    0  501  0.00000000000E+00  0.00000000000E+00  0.21790692966E+04  0.21790692966E+04  0.50400001928E-02 0. -1.
        1   -1    0    0  501    0  0.00000000000E+00  0.00000000000E+00 -0.13259200046E+04  0.13259200046E+04  0.50400001928E-02 0.  1.
    10030    2    1    2    0    0  0.00000000000E+00  0.00000000000E+00  0.85314929204E+03  0.35049893012E+04  0.33995714858E+04 0.  0.
        3    1    3    3  502    0 -0.10823769507E+04  0.52085480889E+03  0.16665499214E+04  0.20543169780E+04  0.10100000352E+00 0.  1.
       -3    1    3    3    0  502  0.10823769507E+04 -0.52085480889E+03 -0.81340062936E+03  0.14506723232E+04  0.10100000352E+00 0. -1.
</event>
<event>
 5   0  0.2722449E-06  0.3372432E+04  0.7818609E-02  0.8144706E-01
       -2   -1    0    0    0  501  0.00000000000E+00  0.00000000000E+00  0.26342552172E+04  0.26342552172E+04  0.25500000920E-02 0. -1.
        2   -1    0    0  501    0  0.00000000000E+00  0.00000000000E+00 -0.10793653189E+04  0.10793653189E+04  0.25500000920E-02 0.  1.
    10030    2    1    2    0    0  0.00000000000E+00  0.00000000000E+00  0.15548898982E+04  0.37136205361E+04  0.33724315991E+04 0.  0.
        2    1    3    3  502    0 -0.12706113831E+03  0.55404025365E+02 -0.10730808625E+04  0.10819966157E+04  0.25500000920E-02 0.  1.
       -2    1    3    3    0  502  0.12706113831E+03 -0.55404025365E+02  0.26279707608E+04  0.26316239204E+04  0.25500000920E-02 0. -1.
</event>
<event>
 5   0  0.1550164E-06  0.2053964E+04  0.7818609E-02  0.8581798E-01
        1   -1    0    0  501    0  0.00000000000E+00  0.00000000000E+00  0.20500082927E+04  0.20500082927E+04  0.50400001928E-02 0.  1.
       -1   -1    0    0    0  501  0.00000000000E+00  0.00000000000E+00 -0.51448183623E+03  0.51448183626E+03  0.50400001928E-02 0. -1.
    10030    2    1    2    0    0  0.00000000000E+00  0.00000000000E+00  0.15355264565E+04  0.25644901290E+04  0.20539640024E+04 0.  0.
        4    1    3    3  502    0  0.10630069201E+03  0.95777279402E+01 -0.50753738268E+03  0.51863993070E+03  0.12699999809E+01 0. -1.
       -4    1    3    3    0  502 -0.10630069201E+03 -0.95777279402E+01  0.20430638392E+04  0.20458501983E+04  0.12699999809E+01 0.  1.
</event>
<event>
 5   0  0.4400349E-06  0.1882636E+04  0.7818609E-02  0.8663548E-01
        2   -1    0    0  501    0  0.00000000000E+00  0.00000000000E+00  0.18553739869E+04  0.18553739869E+04  0.25500000920E-02 0. -1.
       -2   -1    0    0    0  501  0.00000000000E+00  0.00000000000E+00 -0.47757473681E+03  0.47757473682E+03  0.25500000920E-02 0.  1.
    10030    2    1    2    0    0  0.00000000000E+00  0.00000000000E+00  0.13777992501E+04  0.23329487237E+04  0.18826361767E+04 0.  0.
        5    1    3    3  502    0  0.12101105698E+03 -0.47354818192E+03  0.16857883236E+04  0.17552196212E+04  0.46999998093E+01 0. -1.
       -5    1    3    3    0  502 -0.12101105698E+03  0.47354818192E+03 -0.30798907353E+03  0.57772910254E+03  0.46999998093E+01 0.  1.
</event>
<event>
 5   0  0.4400349E-06  0.3416916E+04  0.7818609E-02  0.8133767E-01
       -2   -1    0    0    0  501  0.00000000000E+00  0.00000000000E+00  0.14442495942E+04  0.14442495942E+04  0.25500000920E-02 0.  1.
        2   -1    0    0  501    0  0.00000000000E+00  0.00000000000E+00 -0.20209997508E+04  0.20209997509E+04  0.25500000920E-02 0. -1.
    10030    2    1    2    0    0  0.00000000000E+00  0.00000000000E+00 -0.57675015669E+03  0.34652493450E+04  0.34169156091E+04 0.  0.
        5    1    3    3  502    0 -0.21219032812E+03 -0.83415700611E+03 -0.17850432377E+04  0.19817275536E+04  0.46999998093E+01 0. -1.
       -5    1    3    3    0  502  0.21219032812E+03  0.83415700611E+03  0.12082930810E+04  0.14835217915E+04  0.46999998093E+01 0.  1.
</event>
<event>
 5   0  0.4173467E-06  0.3429682E+04  0.7818609E-02  0.8130660E-01
        2   -1    0    0  501    0  0.00000000000E+00  0.00000000000E+00  0.14735001858E+04  0.14735001858E+04  0.25500000920E-02 0. -1.
       -2   -1    0    0    0  501  0.00000000000E+00  0.00000000000E+00 -0.19957102586E+04  0.19957102586E+04  0.25500000920E-02 0.  1.
    10030    2    1    2    0    0  0.00000000000E+00  0.00000000000E+00 -0.52221007277E+03  0.34692104443E+04  0.34296818726E+04 0.  0.
        4    1    3    3  502    0 -0.22476227629E+02 -0.17122380341E+04 -0.16832241433E+03  0.17206389262E+04  0.12699999809E+01 0.  1.
       -4    1    3    3    0  502  0.22476227629E+02  0.17122380341E+04 -0.35388765844E+03  0.17485715181E+04  0.12699999809E+01 0. -1.
</event>
<event>
 5   0  0.4400349E-06  0.3481599E+04  0.7818609E-02  0.8118165E-01
        2   -1    0    0  501    0  0.00000000000E+00  0.00000000000E+00  0.16572531828E+04  0.16572531828E+04  0.25500000920E-02 0. -1.
       -2   -1    0    0    0  501  0.00000000000E+00  0.00000000000E+00 -0.18285580957E+04  0.18285580957E+04  0.25500000920E-02 0.  1.
    10030    2    1    2    0    0  0.00000000000E+00  0.00000000000E+00 -0.17130491293E+03  0.34858112785E+04  0.34815994739E+04 0.  0.
        5    1    3    3  502    0 -0.12037842441E+04 -0.12511539345E+04  0.40511729037E+02  0.17367054916E+04  0.46999998093E+01 0. -1.
       -5    1    3    3    0  502  0.12037842441E+04  0.12511539345E+04 -0.21181664197E+03  0.17491057870E+04  0.46999998093E+01 0.  1.
</event>
<event>
 5   0  0.1654257E-06  0.3058020E+04  0.7818609E-02  0.8227354E-01
        1   -1    0    0  501    0  0.00000000000E+00  0.00000000000E+00  0.20899947788E+04  0.20899947788E+04  0.50400001928E-02 0. -1.
       -1   -1    0    0    0  501  0.00000000000E+00  0.00000000000E+00 -0.11186014491E+04  0.11186014491E+04  0.50400001928E-02 0.  1.
    10030    2    1    2    0    0  0.00000000000E+00  0.00000000000E+00  0.97139332970E+03  0.32085962280E+04  0.30580197438E+04 0.  0.
        3    1    3    3  502    0 -0.83214225194E+01  0.77626338860E+03  0.18678355669E+04  0.20227367129E+04  0.10100000352E+00 0. -1.
       -3    1    3    3    0  502  0.83214225194E+01 -0.77626338860E+03 -0.89644223722E+03  0.11858595151E+04  0.10100000352E+00 0.  1.
</event>
<event>
 5   0  0.1562618E-06  0.3391154E+04  0.7818609E-02  0.8140081E-01
       -1   -1    0    0    0  501  0.00000000000E+00  0.00000000000E+00  0.17167665374E+04  0.17167665375E+04  0.50400001928E-02 0. -1.
        1   -1    0    0  501    0  0.00000000000E+00  0.00000000000E+00 -0.16746492842E+04  0.16746492842E+04  0.50400001928E-02 0.  1.
    10030    2    1    2    0    0  0.00000000000E+00  0.00000000000E+00  0.42117253231E+02  0.33914158217E+04  0.33911542891E+04 0.  0.
        2    1    3    3  502    0 -0.54166007283E+03 -0.99533249633E+03  0.12824645234E+04  0.17113730355E+04  0.25500000920E-02 0. -1.
       -2    1    3    3    0  502  0.54166007283E+03  0.99533249633E+03 -0.12403472702E+04  0.16800427862E+04  0.25500000920E-02 0.  1.
</event>
<event>
 5   0  0.4189587E-06  0.3336580E+04  0.7818609E-02  0.8153650E-01
        2   -1    0    0  501    0  0.00000000000E+00  0.00000000000E+00  0.15142089052E+04  0.15142089052E+04  0.25500000920E-02 0. -1.
       -2   -1    0    0    0  501  0.00000000000E+00  0.00000000000E+00 -0.18380497536E+04  0.18380497536E+04  0.25500000920E-02 0.  1.
    10030    2    1    2    0    0  0.00000000000E+00  0.00000000000E+00 -0.32384084842E+03  0.33522586588E+04  0.33365798687E+04 0.  0.
        1    1    3    3  502    0 -0.90588270873E+03 -0.87963991049E+03  0.93352478234E+03  0.15703051848E+04  0.50400001928E-02 0. -1.
       -1    1    3    3    0  502  0.90588270873E+03  0.87963991049E+03 -0.12573656308E+04  0.17819534740E+04  0.50400001928E-02 0.  1.
</event>
<event>
 5   0  0.2101998E-06  0.2788168E+04  0.7818609E-02  0.8306951E-01
        1   -1    0    0  501    0  0.00000000000E+00  0.00000000000E+00  0.12542885577E+04  0.12542885577E+04  0.50400001928E-02 0. -1.
       -1   -1    0    0    0  501  0.00000000000E+00  0.00000000000E+00 -0.15494607130E+04  0.15494607130E+04  0.50400001928E-02 0.  1.
    10030    2    1    2    0    0  0.00000000000E+00  0.00000000000E+00 -0.29517215532E+03  0.28037492707E+04  0.27881684619E+04 0.  0.
        5    1    3    3  502    0  0.12626488550E+04  0.41560227281E+03 -0.56998264201E+03  0.14463435562E+04  0.46999998093E+01 0.  1.
       -5    1    3    3    0  502 -0.12626488550E+04 -0.41560227281E+03  0.27481048670E+03  0.13574057146E+04  0.46999998093E+01 0. -1.
</event>
<event>
 5   0  0.1550164E-06  0.3413747E+04  0.7818609E-02  0.8134541E-01
       -1   -1    0    0    0  501  0.00000000000E+00  0.00000000000E+00  0.18370863369E+04  0.18370863369E+04  0.50400001928E-02 0.  1.
        1   -1    0    0  501    0  0.00000000000E+00  0.00000000000E+00 -0.15858899186E+04  0.15858899186E+04  0.50400001928E-02 0. -1.
    10030    2    1    2    0    0  0.00000000000E+00  0.00000000000E+00  0.25119641830E+03  0.34229762555E+04  0.34137467401E+04 0.  0.
        4    1    3    3  502    0  0.97582333890E+03  0.14000893457E+04  0.15623771552E+03  0.17137366196E+04  0.12699999809E+01 0.  1.
       -4    1    3    3    0  502 -0.97582333890E+03 -0.14000893457E+04  0.94958702775E+02  0.17092396359E+04  0.12699999809E+01 0. -1.
</event>
<event>
 5   0  0.1571391E-06  0.2169523E+04  0.7818609E-02  0.8531221E-01
       -1   -1    0    0    0  501  0.00000000000E+00  0.00000000000E+00  0.19360403613E+04  0.19360403614E+04  0.50400001928E-02 0. -1.
        1   -1    0    0  501    0  0.00000000000E+00  0.00000000000E+00 -0.60779078682E+03  0.60779078684E+03  0.50400001928E-02 0.  1.
    10030    2    1    2    0    0  0.00000000000E+00  0.00000000000E+00  0.13282495745E+04  0.25438311482E+04  0.21695229840E+04 0.  0.
        1    1    3    3  502    0 -0.44093035827E+03 -0.81968686151E+03  0.10865135578E+02  0.93081909251E+03  0.50400001928E-02 0.  1.
       -1    1    3    3    0  502  0.44093035827E+03  0.81968686151E+03  0.13173844389E+04  0.16130120557E+04  0.50400001928E-02 0. -1.
</event>
<event>
 5   0  0.4173467E-06  0.1784229E+04  0.7818609E-02  0.8714732E-01
        2   -1    0    0  501    0  0.00000000000E+00  0.00000000000E+00  0.91566286573E+03  0.91566286573E+03  0.25500000920E-02 0.  1.
       -2   -1    0    0    0  501  0.00000000000E+00  0.00000000000E+00 -0.86917148763E+03  0.86917148764E+03  0.25500000920E-02 0. -1.
    10030    2    1    2    0    0  0.00000000000E+00  0.00000000000E+00  0.46491378093E+02  0.17848343534E+04  0.17842287467E+04 0.  0.
        4    1    3    3  502    0 -0.26697131749E+02 -0.79811164209E+03 -0.37459712441E+03  0.88205416421E+03  0.12699999809E+01 0. -1.
       -4    1    3    3    0  502  0.26697131749E+02  0.79811164209E+03  0.42108850250E+03  0.90278018915E+03  0.12699999809E+01 0.  1.
</event>
<event>
 5   0  0.1571391E-06  0.3391719E+04  0.7818609E-02  0.8139942E-01
       -1   -1    0    0    0  501  0.00000000000E+00  0.00000000000E+00  0.25627648425E+04  0.25627648425E+04  0.50400001928E-02 0.  1.
        1   -1    0    0  501    0  0.00000000000E+00  0.00000000000E+00 -0.11222021242E+04  0.11222021242E+04  0.50400001928E-02 0. -1.
    10030    2    1    2    0    0  0.00000000000E+00  0.00000000000E+00  0.14405627183E+04  0.36849669667E+04  0.33917194166E+04 0.  0.
        1    1    3    3  502    0 -0.11424594344E+04  0.89192667390E+03 -0.23629295375E+03  0.14685302553E+04  0.50400001928E-02 0.  1.
       -1    1    3    3    0  502  0.11424594344E+04 -0.89192667390E+03  0.16768556720E+04  0.22164367114E+04  0.50400001928E-02 0. -1.
</event>
<event>
 5   0  0.4189587E-06  0.3452009E+04  0.7818609E-02  0.8125258E-01
        2   -1    0    0  501    0  0.00000000000E+00  0.00000000000E+00  0.20304381120E+04  0.20304381120E+04  0.25500000920E-02 0.  1.
       -2   -1    0    0    0  501  0.00000000000E+00  0.00000000000E+00 -0.14672160281E+04  0.14672160281E+04  0.25500000920E-02 0. -1.
    10030    2    1    2    0    0  0.00000000000E+00  0.00000000000E+00  0.56322208392E+03  0.34976541402E+04  0.34520088888E+04 0.  0.
        1    1    3    3  502    0 -0.25347412203E+02  0.13934767508E+04  0.13132447289E+04  0.19149495201E+04  0.50400001928E-02 0.  1.
       -1    1    3    3    0  502  0.25347412203E+02 -0.13934767508E+04 -0.75002264498E+03  0.15827046201E+04  0.50400001928E-02 0. -1.
</event>
<event>
 5   0  0.4344980E-06  0.3377939E+04  0.7818609E-02  0.8143342E-01
       -2   -1    0    0    0  501  0.00000000000E+00  0.00000000000E+00  0.14274428122E+04  0.14274428122E+04  0.25500000920E-02 0.  1.
        2   -1    0    0  501    0  0.00000000000E+00  0.00000000000E+00 -0.19984109141E+04  0.19984109141E+04  0.25500000920E-02 0. -1.
    10030    2    1    2    0    0  0.00000000000E+00  0.00000000000E+00 -0.57096810190E+03  0.34258537263E+04  0.33779385993E+04 0.  0.
        3    1    3    3  502    0 -0.96411856397E+03 -0.13486127688E+04 -0.61307714472E+03  0.17675249931E+04  0.10100000352E+00 0. -1.
       -3    1    3    3    0  502  0.96411856397E+03  0.13486127688E+04  0.42109042818E+02  0.16583287332E+04  0.10100000352E+00 0.  1.
</event>
<event>
 5   0  0.4173467E-06  0.3586406E+04  0.7818609E-02  0.8093613E-01
        2   -1    0    0  501    0  0.00000000000E+00  0.00000000000E+00  0.19524378203E+04  0.19524378203E+04  0.25500000920E-02 0.  1.
       -2   -1    0    0    0  501  0.00000000000E+00  0.00000000000E+00 -0.16469552457E+04  0.16469552457E+04  0.25500000920E-02 0. -1.
    10030    2    1    2    0    0  0.00000000000E+00  0.00000000000E+00  0.30548257464E+03  0.35993930660E+04  0.35864063964E+04 0.  0.
        4    1    3    3  502    0  0.10859042213E+04 -0.67867495788E+03 -0.11071083860E+04  0.16927723614E+04  0.12699999809E+01 0. -1.
       -4    1    3    3    0  502 -0.10859042213E+04  0.67867495788E+03  0.14125909606E+04  0.19066207046E+04  0.12699999809E+01 0.  1.
</event>
<event>
 5   0  0.1654257E-06  0.3375850E+04  0.7818609E-02  0.8143859E-01
        1   -1    0    0  501    0  0.00000000000E+00  0.00000000000E+00  0.13326112121E+04  0.13326112121E+04  0.50400001928E-02 0.  1.
       -1   -1    0    0    0  501  0.00000000000E+00  0.00000000000E+00 -0.21379758540E+04  0.21379758540E+04  0.50400001928E-02 0. -1.
    10030    2    1    2    0    0  0.00000000000E+00  0.00000000000E+00 -0.80536464189E+03  0.34705870661E+04  0.33758498748E+04 0.  0.
        3    1    3    3  502    0  0.93822379928E+03  0.27671024614E+03 -0.18168796357E+04  0.20634640968E+04  0.10100000352E+00 0. -1.
       -3    1    3    3    0  502 -0.93822379928E+03 -0.27671024614E+03  0.10115149938E+04  0.14071229693E+04  0.10100000352E+00 0.  1.
</event>
<event>
 5   0  0.2722449E-06  0.2380921E+04  0.7818609E-02  0.8446681E-01
        2   -1    0    0  501    0  0.00000000000E+00  0.00000000000E+00  0.18887925382E+04  0.18887925382E+04  0.25500000920E-02 0.  1.
       -2   -1    0    0    0  501  0.00000000000E+00  0.00000000000E+00 -0.75031850369E+03  0.75031850370E+03  0.25500000920E-02 0. -1.
    10030    2    1    2    0    0  0.00000000000E+00  0.00000000000E+00  0.11384740345E+04  0.26391110419E+04  0.23809208227E+04 0.  0.
        2    1    3    3  502    0 -0.74449638598E+03 -0.48790352514E+02  0.15974862616E+04  0.17631272567E+04  0.25500000920E-02 0.  1.
       -2    1    3    3    0  502  0.74449638598E+03  0.48790352514E+02 -0.45901222713E+03  0.87598378518E+03  0.25500000920E-02 0. -1.
</event>
<event>
 5   0  0.2101998E-06  0.1852722E+04  0.7818609E-02  0.8678754E-01
        1   -1    0    0  501    0  0.00000000000E+00  0.00000000000E+00  0.19473203340E+04  0.19473203340E+04  0.50400001928E-02 0. -1.
       -1   -1    0    0    0  501  0.00000000000E+00  0.00000000000E+00 -0.44067975401E+03  0.44067975404E+03  0.50400001928E-02 0.  1.
    10030    2    1    2    0    0  0.00000000000E+00  0.00000000000E+00  0.15066405800E+04  0.23880000881E+04  0.18527219390E+04 0.  0.
        5    1    3    3  502    0  0.27276049860E+03  0.44396778609E+03  0.17405117025E+04  0.18168403236E+04  0.46999998093E+01 0. -1.
       -5    1    3    3    0  502 -0.27276049860E+03 -0.44396778609E+03 -0.23387112250E+03  0.57115976453E+03  0.46999998093E+01 0.  1.
</event>
<event>
 5   0  0.4189587E-06  0.3403203E+04  0.7818609E-02  0.8137121E-01
        2   -1    0    0  501    0  0.00000000000E+00  0.00000000000E+00  0.18838231104E+04  0.18838231104E+04  0.25500000920E-02 0. -1.
       -2   -1    0    0    0  501  0.00000000000E+00  0.00000000000E+00 -0.15370058576E+04  0.15370058576E+04  0.25500000920E-02 0.  1.
    10030    2    1    2    0    0  0.00000000000E+00  0.00000000000E+00  0.34681725281E+03  0.34208289680E+04  0.34032027006E+04 0.  0.
        1    1    3    3  502    0 -0.10945670154E+04  0.12796575190E+04 -0.72494555819E+02  0.16854838409E+04  0.50400001928E-02 0. -1.
       -1    1    3    3    0  502  0.10945670154E+04 -0.12796575190E+04  0.41931180863E+03  0.17353451271E+04  0.50400001928E-02 0.  1.
</event>
<event>
 5   0  0.4400349E-06  0.3319271E+04  0.7818609E-02  0.8158009E-01
       -2   -1    0    0    0  501  0.00000000000E+00  0.00000000000E+00  0.16120952813E+04  0.16120952813E+04  0.25500000920E-02 0.  1.
        2   -1    0    0  501    0  0.00000000000E+00  0.00000000000E+00 -0.17085779260E+04  0.17085779260E+04  0.25500000920E-02 0. -1.
    10030    2    1    2    0    0  0.00000000000E+00  0.00000000000E+00 -0.96482644727E+02  0.33206732072E+04  0.33192712526E+04 0.  0.
        5    1    3    3  502    0 -0.14009831362E+04  0.35398883833E+02 -0.93763959166E+03  0.16861782001E+04  0.46999998093E+01 0. -1.
       -5    1    3    3    0  502  0.14009831362E+04 -0.35398883833E+02  0.84115694693E+03  0.16344950071E+04  0.46999998093E+01 0.  1.
</event>
<event>
 5   0  0.4400349E-06  0.2592035E+04  0.7818609E-02  0.8370912E-01
        2   -1    0    0  501    0  0.00000000000E+00  0.00000000000E+00  0.17007098085E+04  0.17007098085E+04  0.25500000920E-02 0.  1.
       -2   -1    0    0    0  501  0.00000000000E+00  0.00000000000E+00 -0.98762347313E+03  0.98762347313E+03  0.25500000920E-02 0. -1.
    10030    2    1    2    0    0  0.00000000000E+00  0.00000000000E+00  0.71308633535E+03  0.26883332816E+04  0.25920346663E+04 0.  0.
        5    1    3    3  502    0  0.69534779158E+03 -0.23356570404E+03  0.14646840424E+04  0.16381034532E+04  0.46999998093E+01 0.  1.
       -5    1    3    3    0  502 -0.69534779158E+03  0.23356570404E+03 -0.75159770701E+03  0.10502298284E+04  0.46999998093E+01 0. -1.
</event>
<event>
 5   0  0.1654257E-06  0.1997213E+04  0.7818609E-02  0.8607925E-01
       -1   -1    0    0    0  501  0.00000000000E+00  0.00000000000E+00  0.72536374428E+03  0.72536374430E+03  0.50400001928E-02 0. -1.
        1   -1    0    0  501    0  0.00000000000E+00  0.00000000000E+00 -0.13747793110E+04  0.13747793110E+04  0.50400001928E-02 0.  1.
    10030    2    1    2    0    0  0.00000000000E+00  0.00000000000E+00 -0.64941556673E+03  0.21001430553E+04  0.19972131270E+04 0.  0.
        3    1    3    3  502    0  0.36706802749E+03  0.81219183764E+02 -0.12975239865E+04  0.13508900763E+04  0.10100000352E+00 0.  1.
       -3    1    3    3    0  502 -0.36706802749E+03 -0.81219183764E+02  0.64810841973E+03  0.74925297901E+03  0.10100000352E+00 0. -1.
</event>
<event>
 5   0  0.1571391E-06  0.3216179E+04  0.7818609E-02  0.8184557E-01
       -1   -1    0    0    0  501  0.00000000000E+00  0.00000000000E+00  0.14793930509E+04  0.14793930509E+04  0.50400001928E-02 0. -1.
        1   -1    0    0  501    0  0.00000000000E+00  0.00000000000E+00 -0.17479817119E+04  0.17479817119E+04  0.50400001928E-02 0.  1.
    10030    2    1    2    0    0  0.00000000000E+00  0.00000000000E+00 -0.26858866101E+03  0.32273747629E+04  0.32161790981E+04 0.  0.
        1    1    3    3  502    0 -0.35751478682E+03 -0.29049393073E+03  0.14117662979E+04  0.14850210862E+04  0.50400001928E-02 0. -1.
       -1    1    3    3    0  502  0.35751478682E+03  0.29049393073E+03 -0.16803549589E+04  0.17423536767E+04  0.50400001928E-02 0.  1.
</event>
<event>
 5   0  0.1401125E-06  0.3480532E+04  0.7818609E-02  0.8118419E-01
        3   -1    0    0  501    0  0.00000000000E+00  0.00000000000E+00  0.23527332612E+04  0.23527332634E+04  0.10100000352E+00 0.  1.
       -3   -1    0    0    0  501  0.00000000000E+00  0.00000000000E+00 -0.12872372569E+04  0.12872372609E+04  0.10100000352E+00 0. -1.
    10030    2    1    2    0    0  0.00000000000E+00  0.00000000000E+00  0.10654960043E+04  0.36399705242E+04  0.34805320975E+04 0.  0.
        2    1    3    3  502    0 -0.85402496632E+03 -0.15094949457E+04  0.68282167332E+03  0.18639149851E+04  0.25500000920E-02 0.  1.
       -2    1    3    3    0  502  0.85402496632E+03  0.15094949457E+04  0.38267433098E+03  0.17760555391E+04  0.25500000920E-02 0. -1.
</event>
<event>
 5   0  0.1571391E-06  0.1891387E+04  0.7818609E-02  0.8659156E-01
       -1   -1    0    0    0  501  0.00000000000E+00  0.00000000000E+00  0.37083895243E+03  0.37083895246E+03  0.50400001928E-02 0.  1.
        1   -1    0    0  501    0  0.00000000000E+00  0.00000000000E+00 -0.24116563145E+04  0.24116563145E+04  0.50400001928E-02 0. -1.
    10030    2    1    2    0    0  0.00000000000E+00  0.00000000000E+00 -0.20408173620E+04  0.27824952669E+04  0.18913869000E+04 0.  0.
        1    1    3    3  502    0  0.40503516013E+03 -0.23217693779E+03  0.18948806679E+03  0.50385051242E+03  0.50400001928E-02 0.  1.
       -1    1    3    3    0  502 -0.40503516013E+03  0.23217693779E+03 -0.22303054288E+04  0.22786447545E+04  0.50400001928E-02 0. -1.
</event>
<event>
 5   0  0.1562618E-06  0.3371337E+04  0.7818609E-02  0.8144977E-01
       -1   -1    0    0    0  501  0.00000000000E+00  0.00000000000E+00  0.15543083859E+04  0.15543083859E+04  0.50400001928E-02 0. -1.
        1   -1    0    0  501    0  0.00000000000E+00  0.00000000000E+00 -0.18281306917E+04  0.18281306917E+04  0.50400001928E-02 0.  1.
    10030    2    1    2    0    0  0.00000000000E+00  0.00000000000E+00 -0.27382230579E+03  0.33824390776E+04  0.33713373398E+04 0.  0.
        2    1    3    3  502    0  0.72675976320E+03  0.13074287675E+04  0.64277668712E+03  0.16281006127E+04  0.25500000920E-02 0. -1.
       -2    1    3    3    0  502 -0.72675976320E+03 -0.13074287675E+04 -0.91659899292E+03  0.17543384649E+04  0.25500000920E-02 0.  1.
</event>
<event>
 5   0  0.1654257E-06  0.2229247E+04  0.7818609E-02  0.8506353E-01
        1   -1    0    0  501    0  0.00000000000E+00  0.00000000000E+00  0.16807620626E+04  0.16807620626E+04  0.50400001928E-02 0.  1.
       -1   -1    0    0    0  501  0.00000000000E+00  0.00000000000E+00 -0.73917984139E+03  0.73917984141E+03  0.50400001928E-02 0. -1.
    10030    2    1    2    0    0  0.00000000000E+00  0.00000000000E+00  0.94158222116E+03  0.24199419040E+04  0.22292468996E+04 0.  0.
        3    1    3    3  502    0 -0.64481403666E+03 -0.13619669972E+03  0.14466029549E+04  0.15896524155E+04  0.10100000352E+00 0.  1.
       -3    1    3    3    0  502  0.64481403666E+03  0.13619669972E+03 -0.50502073374E+03  0.83028948843E+03  0.10100000352E+00 0. -1.
</event>
<event>
 5   0  0.4400349E-06  0.1782588E+04  0.7818609E-02  0.8715614E-01
        2   -1    0    0  501    0  0.00000000000E+00  0.00000000000E+00  0.64354482321E+03  0.64354482321E+03  0.25500000920E-02 0. -1.
       -2   -1    0    0    0  501  0.00000000000E+00  0.00000000000E+00 -0.12344207601E+04  0.12344207601E+04  0.25500000920E-02 0.  1.
    10030    2    1    2    0    0  0.00000000000E+00  0.00000000000E+00 -0.59087593686E+03  0.18779655833E+04  0.17825881070E+04 0.  0.
        5    1    3    3  502    0  0.33738967855E+03 -0.92098995690E+02  0.56822350996E+03  0.66724363427E+03  0.46999998093E+01 0. -1.
       -5    1    3    3    0  502 -0.33738967855E+03  0.92098995690E+02 -0.11590994468E+04  0.12107219490E+04  0.46999998093E+01 0.  1.
</event>
<event>
 5   0  0.2101998E-06  0.1764613E+04  0.7818609E-02  0.8725348E-01
       -1   -1    0    0    0  501  0.00000000000E+00  0.00000000000E+00  0.38860056242E+03  0.38860056245E+03  0.50400001928E-02 0.  1.
        1   -1    0    0  501    0  0.00000000000E+00  0.00000000000E+00 -0.20032518806E+04  0.20032518806E+04  0.50400001928E-02 0. -1.
    10030    2    1    2    0    0  0.00000000000E+00  0.00000000000E+00 -0.16146513182E+04  0.23918524430E+04  0.17646130539E+04 0.  0.
        5    1    3    3  502    0 -0.25731348399E+03  0.84393866849E+03 -0.80747595226E+03  0.11960276789E+04  0.46999998093E+01 0. -1.
       -5    1    3    3    0  502  0.25731348399E+03 -0.84393866849E+03 -0.80717536591E+03  0.11958247641E+04  0.46999998093E+01 0.  1.
</event>
<event>
 5   0  0.4189587E-06  0.3416654E+04  0.7818609E-02  0.8133831E-01
        2   -1    0    0  501    0  0.00000000000E+00  0.00000000000E+00  0.11767895792E+04  0.11767895792E+04  0.25500000920E-02 0.  1.
       -2   -1    0    0    0  501  0.00000000000E+00  0.00000000000E+00 -0.24799510689E+04  0.24799510689E+04  0.25500000920E-02 0. -1.
    10030    2    1    2    0    0  0.00000000000E+00  0.00000000000E+00 -0.13031614896E+04  0.36567406481E+04  0.34166536698E+04 0.  0.
        1    1    3    3  502    0  0.69004526425E+02 -0.24499341225E+03 -0.24595437273E+04  0.24726784553E+04  0.50400001928E-02 0. -1.
       -1    1    3    3    0  502 -0.69004526425E+02  0.24499341225E+03  0.11563822377E+04  0.11840621928E+04  0.50400001928E-02 0.  1.
</event>
<event>
 5   0  0.1571391E-06  0.3431152E+04  0.7818609E-02  0.8130303E-01
       -1   -1    0    0    0  501  0.00000000000E+00  0.00000000000E+00  0.17196024158E+04  0.17196024158E+04  0.50400001928E-02 0. -1.
        1   -1    0    0  501    0  0.00000000000E+00  0.00000000000E+00 -0.17115594004E+04  0.17115594004E+04  0.50400001928E-02 0.  1.
    10030    2    1    2    0    0  0.00000000000E+00  0.00000000000E+00  0.80430153561E+01  0.34311618162E+04  0.34311523893E+04 0.  0.
        1    1    3    3  502    0  0.64042284811E+03  0.12342816265E+04 -0.10007743270E+04  0.17132255577E+04  0.50400001928E-02 0.  1.
       -1    1    3    3    0  502 -0.64042284811E+03 -0.12342816265E+04  0.10088173424E+04  0.17179362585E+04  0.50400001928E-02 0. -1.
</event>
<event>
 5   0  0.4173467E-06  0.3470660E+04  0.7818609E-02  0.8120779E-01
        2   -1    0    0  501    0  0.00000000000E+00  0.00000000000E+00  0.22595224129E+04  0.22595224129E+04  0.25500000920E-02 0. -1.
       -2   -1    0    0    0  501  0.00000000000E+00  0.00000000000E+00 -0.13327461686E+04  0.13327461686E+04  0.25500000920E-02 0.  1.
    10030    2    1    2    0    0  0.00000000000E+00  0.00000000000E+00  0.92677624431E+03  0.35922685815E+04  0.34706597867E+04 0.  0.
        4    1    3    3  502    0  0.12101401854E+04  0.93610987298E+02 -0.82029653777E+03  0.14649540293E+04  0.12699999809E+01 0.  1.
       -4    1    3    3    0  502 -0.12101401854E+04 -0.93610987298E+02  0.17470727821E+04  0.21273145522E+04  0.12699999809E+01 0. -1.
</event>
<event>
 5   0  0.4189587E-06  0.3363675E+04  0.7818609E-02  0.8146880E-01
       -2   -1    0    0    0  501  0.00000000000E+00  0.00000000000E+00  0.13495634800E+04  0.13495634800E+04  0.25500000920E-02 0.  1.
        2   -1    0    0  501    0  0.00000000000E+00  0.00000000000E+00 -0.20959204214E+04  0.20959204214E+04  0.25500000920E-02 0. -1.
    10030    2    1    2    0    0  0.00000000000E+00  0.00000000000E+00 -0.74635694136E+03  0.34454839014E+04  0.33636751673E+04 0.  0.
        1    1    3    3  502    0  0.15363811534E+03  0.48476304204E+03 -0.20152832319E+04  0.20784528819E+04  0.50400001928E-02 0. -1.
       -1    1    3    3    0  502 -0.15363811534E+03 -0.48476304204E+03  0.12689262906E+04  0.13670310195E+04  0.50400001928E-02 0.  1.
</event>
<event>
 5   0  0.1571391E-06  0.3355365E+04  0.7818609E-02  0.8148949E-01
       -1   -1    0    0    0  501  0.00000000000E+00  0.00000000000E+00  0.14383843236E+04  0.14383843236E+04  0.50400001928E-02 0. -1.
        1   -1    0    0  501    0  0.00000000000E+00  0.00000000000E+00 -0.19567916401E+04  0.19567916401E+04  0.50400001928E-02 0.  1.
    10030    2    1    2    0    0  0.00000000000E+00  0.00000000000E+00 -0.51840731650E+03  0.33951759637E+04  0.33553649099E+04 0.  0.
        1    1    3    3  502    0  0.13868237538E+04  0.39049027935E+03 -0.11289694543E+04  0.18303919829E+04  0.50400001928E-02 0.  1.
       -1    1    3    3    0  502 -0.13868237538E+04 -0.39049027935E+03  0.61056213778E+03  0.15647839808E+04  0.50400001928E-02 0. -1.
</event>
<event>
 5   0  0.2101998E-06  0.3092452E+04  0.7818609E-02  0.8217812E-01
        1   -1    0    0  501    0  0.00000000000E+00  0.00000000000E+00  0.18352598250E+04  0.18352598250E+04  0.50400001928E-02 0. -1.
       -1   -1    0    0    0  501  0.00000000000E+00  0.00000000000E+00 -0.13027120584E+04  0.13027120584E+04  0.50400001928E-02 0.  1.
    10030    2    1    2    0    0  0.00000000000E+00  0.00000000000E+00  0.53254776663E+03  0.31379718834E+04  0.30924521689E+04 0.  0.
        5    1    3    3  502    0  0.26173985867E+03 -0.96735876958E+03  0.14611045192E+04  0.17717616230E+04  0.46999998093E+01 0. -1.
       -5    1    3    3    0  502 -0.26173985867E+03  0.96735876958E+03 -0.92855675261E+03  0.13662102604E+04  0.46999998093E+01 0.  1.
</event>
<event>
 5   0  0.1401125E-06  0.3412988E+04  0.7818609E-02  0.8134726E-01
       -3   -1    0    0    0  501  0.00000000000E+00  0.00000000000E+00  0.20266567347E+04  0.20266567372E+04  0.10100000352E+00 0. -1.
        3   -1    0    0  501    0  0.00000000000E+00  0.00000000000E+00 -0.14369092573E+04  0.14369092609E+04  0.10100000352E+00 0.  1.
    10030    2    1    2    0    0  0.00000000000E+00  0.00000000000E+00  0.58974747740E+03  0.34635659981E+04  0.34129880364E+04 0.  0.
        1    1    3    3  502    0  0.40010985503E+03  0.20445506019E+03 -0.13758011359E+04  0.14473142483E+04  0.50400001928E-02 0.  1.
       -1    1    3    3    0  502 -0.40010985503E+03 -0.20445506019E+03  0.19655486133E+04  0.20162517499E+04  0.50400001928E-02 0. -1.
</event>
<event>
 5   0  0.1562618E-06  0.1966119E+04  0.7818609E-02  0.8622627E-01
       -1   -1    0    0    0  501  0.00000000000E+00  0.00000000000E+00  0.61682801627E+03  0.61682801629E+03  0.50400001928E-02 0. -1.
        1   -1    0    0  501    0  0.00000000000E+00  0.00000000000E+00 -0.15667350297E+04  0.15667350297E+04  0.50400001928E-02 0.  1.
    10030    2    1    2    0    0  0.00000000000E+00  0.00000000000E+00 -0.94990701342E+03  0.21835630460E+04  0.19661190813E+04 0.  0.
        2    1    3    3  502    0 -0.22280876633E+03 -0.87675760934E+03 -0.47614578756E+02  0.90587791672E+03  0.25500000920E-02 0. -1.
       -2    1    3    3    0  502  0.22280876633E+03  0.87675760934E+03 -0.90229243467E+03  0.12776851293E+04  0.25500000920E-02 0.  1.
</event>
<event>
 5   0  0.4344980E-06  0.3378944E+04  0.7818609E-02  0.8143094E-01
        2   -1    0    0  501    0  0.00000000000E+00  0.00000000000E+00  0.16142081830E+04  0.16142081830E+04  0.25500000920E-02 0.  1.
       -2   -1    0    0    0  501  0.00000000000E+00  0.00000000000E+00 -0.17682451224E+04  0.17682451224E+04  0.25500000920E-02 0. -1.
    10030    2    1    2    0    0  0.00000000000E+00  0.00000000000E+00 -0.15403693947E+03  0.33824533054E+04  0.33789440635E+04 0.  0.
        3    1    3    3  502    0 -0.16017390783E+04 -0.21904651900E+03 -0.56820748068E+03  0.17135954026E+04  0.10100000352E+00 0. -1.
       -3    1    3    3    0  502  0.16017390783E+04  0.21904651900E+03  0.41417054121E+03  0.16688579028E+04  0.10100000352E+00 0.  1.
</event>
<event>
 5   0  0.2722449E-06  0.3368465E+04  0.7818609E-02  0.8145690E-01
        2   -1    0    0  501    0  0.00000000000E+00  0.00000000000E+00  0.22484866464E+04  0.22484866464E+04  0.25500000920E-02 0.  1.
       -2   -1    0    0    0  501  0.00000000000E+00  0.00000000000E+00 -0.12615769570E+04  0.12615769570E+04  0.25500000920E-02 0. -1.
    10030    2    1    2    0    0  0.00000000000E+00  0.00000000000E+00  0.98690968942E+03  0.35100636034E+04  0.33684648974E+04 0.  0.
        2    1    3    3  502    0 -0.93722559048E+02 -0.57737853307E+03  0.21392423516E+04  0.22177708916E+04  0.25500000920E-02 0.  1.
       -2    1    3    3    0  502  0.93722559048E+02  0.57737853307E+03 -0.11523326622E+04  0.12922927118E+04  0.25500000920E-02 0. -1.
</event>
<event>
 5   0  0.4344980E-06  0.3408520E+04  0.7818609E-02  0.8135818E-01
       -2   -1    0    0    0  501  0.00000000000E+00  0.00000000000E+00  0.17831219192E+04  0.17831219192E+04  0.25500000920E-02 0. -1.
        2   -1    0    0  501    0  0.00000000000E+00  0.00000000000E+00 -0.16288858245E+04  0.16288858245E+04  0.25500000920E-02 0.  1.
    10030    2    1    2    0    0  0.00000000000E+00  0.00000000000E+00  0.15423609469E+03  0.34120077436E+04  0.34085199236E+04 0.  0.
        3    1    3    3  502    0 -0.60487263493E+03  0.14143700888E+04 -0.65724585220E+03  0.16728077514E+04  0.10100000352E+00 0.  1.
       -3    1    3    3    0  502  0.60487263493E+03 -0.14143700888E+04  0.81148194690E+03  0.17391999922E+04  0.10100000352E+00 0. -1.
</event>
<event>
 5   0  0.2722449E-06  0.3472002E+04  0.7818609E-02  0.8120457E-01
        2   -1    0    0  501    0  0.00000000000E+00  0.00000000000E+00  0.18453233106E+04  0.18453233106E+04  0.25500000920E-02 0. -1.
       -2   -1    0    0    0  501  0.00000000000E+00  0.00000000000E+00 -0.16331551720E+04  0.16331551720E+04  0.25500000920E-02 0.  1.
    10030    2    1    2    0    0  0.00000000000E+00  0.00000000000E+00  0.21216813868E+03  0.34784784826E+04  0.34720019059E+04 0.  0.
        2    1    3    3  502    0 -0.96262034883E+03 -0.12234012250E+04  0.87586021719E+03  0.17861913709E+04  0.25500000920E-02 0. -1.
       -2    1    3    3    0  502  0.96262034883E+03  0.12234012250E+04 -0.66369207850E+03  0.16922871117E+04  0.25500000920E-02 0.  1.
</event>
<event>
 5   0  0.4344980E-06  0.3293459E+04  0.7818609E-02  0.8164562E-01
        2   -1    0    0  501    0  0.00000000000E+00  0.00000000000E+00  0.18914188343E+04  0.18914188344E+04  0.25500000920E-02 0. -1.
       -2   -1    0    0    0  501  0.00000000000E+00  0.00000000000E+00 -0.14336949613E+04  0.14336949613E+04  0.25500000920E-02 0.  1.
    10030    2    1    2    0    0  0.00000000000E+00  0.00000000000E+00  0.45772387306E+03  0.33251137956E+04  0.32934587609E+04 0.  0.
        3    1    3    3  502    0  0.11836094398E+04 -0.10995951849E+04  0.55079467547E+03  0.17068730654E+04  0.10100000352E+00 0. -1.
       -3    1    3    3    0  502 -0.11836094398E+04  0.10995951849E+04 -0.93070802418E+02  0.16182407303E+04  0.10100000352E+00 0.  1.
</event>
<event>
 5   0  0.4344980E-06  0.3478124E+04  0.7818609E-02  0.8118994E-01
        2   -1    0    0  501    0  0.00000000000E+00  0.00000000000E+00  0.18377324775E+04  0.18377324775E+04  0.25500000920E-02 0. -1.
       -2   -1    0    0    0  501  0.00000000000E+00  0.00000000000E+00 -0.16456892191E+04  0.16456892191E+04  0.25500000920E-02 0.  1.
    10030    2    1    2    0    0  0.00000000000E+00  0.00000000000E+00  0.19204325845E+03  0.34834216966E+04  0.34781239344E+04 0.  0.
        3    1    3    3  502    0  0.21025975385E+03  0.17171732166E+04  0.27361486123E+03  0.17515016764E+04  0.10100000352E+00 0. -1.
       -3    1    3    3    0  502 -0.21025975385E+03 -0.17171732166E+04 -0.81571602785E+02  0.17319200202E+04  0.10100000352E+00 0.  1.
</event>
<event>
 5   0  0.2722449E-06  0.1959578E+04  0.7818609E-02  0.8625756E-01
        2   -1    0    0  501    0  0.00000000000E+00  0.00000000000E+00  0.16264369068E+04  0.16264369068E+04  0.25500000920E-02 0. -1.
       -2   -1    0    0    0  501  0.00000000000E+00  0.00000000000E+00 -0.59023887312E+03  0.59023887312E+03  0.25500000920E-02 0.  1.
    10030    2    1    2    0    0  0.00000000000E+00  0.00000000000E+00  0.10361980337E+04  0.22166757799E+04  0.19595777985E+04 0.  0.
        2    1    3    3  502    0 -0.70610579890E+03  0.31403946156E+02 -0.24946436361E+03  0.74953590694E+03  0.25500000920E-02 0.  1.
       -2    1    3    3    0  502  0.70610579890E+03 -0.31403946156E+02  0.12856623973E+04  0.14671398730E+04  0.25500000920E-02 0. -1.
</event>
<event>
 5   0  0.2722449E-06  0.2190727E+04  0.7818609E-02  0.8522297E-01
       -2   -1    0    0    0  501  0.00000000000E+00  0.00000000000E+00  0.11981997747E+04  0.11981997747E+04  0.25500000920E-02 0.  1.
        2   -1    0    0  501    0  0.00000000000E+00  0.00000000000E+00 -0.10013536162E+04  0.10013536162E+04  0.25500000920E-02 0. -1.
    10030    2    1    2    0    0  0.00000000000E+00  0.00000000000E+00  0.19684615846E+03  0.21995533909E+04  0.21907274384E+04 0.  0.
        2    1    3    3  502    0 -0.27814871870E+03 -0.61427284588E+03 -0.76826014332E+03  0.10222140122E+04  0.25500000920E-02 0. -1.
       -2    1    3    3    0  502  0.27814871870E+03  0.61427284588E+03  0.96510630178E+03  0.11773393787E+04  0.25500000920E-02 0.  1.
</event>
<event>
 5   0  0.1571391E-06  0.3307396E+04  0.7818609E-02  0.8161016E-01
       -1   -1    0    0    0  501  0.00000000000E+00  0.00000000000E+00  0.18010277597E+04  0.18010277597E+04  0.50400001928E-02 0. -1.
        1   -1    0    0  501    0  0.00000000000E+00  0.00000000000E+00 -0.15184205233E+04  0.15184205234E+04  0.50400001928E-02 0.  1.
    10030    2    1    2    0    0  0.00000000000E+00  0.00000000000E+00  0.28260723636E+03  0.33194482831E+04  0.33073962650E+04 0.  0.
        1    1    3    3  502    0  0.55160766738E+03  0.18770157771E+03  0.16945912758E+04  0.17919660970E+04  0.50400001928E-02 0. -1.
       -1    1    3    3    0  502 -0.55160766738E+03 -0.18770157771E+03 -0.14119840394E+04  0.15274821860E+04  0.50400001928E-02 0.  1.
</event>
<event>
 5   0  0.2722449E-06  0.3261624E+04  0.7818609E-02  0.8172729E-01
        2   -1    0    0  501    0  0.00000000000E+00  0.00000000000E+00  0.20367291382E+04  0.20367291382E+04  0.25500000920E-02 0.  1.
       -2   -1    0    0    0  501  0.00000000000E+00  0.00000000000E+00 -0.13057939019E+04  0.13057939019E+04  0.25500000920E-02 0. -1.
    10030    2    1    2    0    0  0.00000000000E+00  0.00000000000E+00  0.73093523627E+03  0.33425230401E+04  0.32616244349E+04 0.  0.
        2    1    3    3  502    0 -0.10539865920E+04  0.83578914603E+03 -0.57941938061E+03  0.14646358085E+04  0.25500000920E-02 0. -1.
       -2    1    3    3    0  502  0.10539865920E+04 -0.83578914603E+03  0.13103546169E+04  0.18778872317E+04  0.25500000920E-02 0.  1.
</event>
<event>
 5   0  0.2101998E-06  0.1928062E+04  0.7818609E-02  0.8641013E-01
        1   -1    0    0  501    0  0.00000000000E+00  0.00000000000E+00  0.15409926632E+04  0.15409926632E+04  0.50400001928E-02 0. -1.
       -1   -1    0    0    0  501  0.00000000000E+00  0.00000000000E+00 -0.60308879363E+03  0.60308879365E+03  0.50400001928E-02 0.  1.
    10030    2    1    2    0    0  0.00000000000E+00  0.00000000000E+00  0.93790386955E+03  0.21440814568E+04  0.19280616238E+04 0.  0.
        5    1    3    3  502    0  0.76542430998E+03  0.33007121967E+03 -0.69569311934E+02  0.83647077864E+03  0.46999998093E+01 0.  1.
       -5    1    3    3    0  502 -0.76542430998E+03 -0.33007121967E+03  0.10074731815E+04  0.13076106782E+04  0.46999998093E+01 0. -1.
</event>
<event>
 5   0  0.1550164E-06  0.2888070E+04  0.7818609E-02  0.8276436E-01
        1   -1    0    0  501    0  0.00000000000E+00  0.00000000000E+00  0.23500679417E+04  0.23500679417E+04  0.50400001928E-02 0. -1.
       -1   -1    0    0    0  501  0.00000000000E+00  0.00000000000E+00 -0.88730930837E+03  0.88730930839E+03  0.50400001928E-02 0.  1.
    10030    2    1    2    0    0  0.00000000000E+00  0.00000000000E+00  0.14627586333E+04  0.32373772501E+04  0.28880700546E+04 0.  0.
        4    1    3    3  502    0 -0.29500976144E+03  0.62922390871E+03  0.21502900441E+04  0.22598014013E+04  0.12699999809E+01 0. -1.
       -4    1    3    3    0  502  0.29500976144E+03 -0.62922390871E+03 -0.68753141072E+03  0.97757584885E+03  0.12699999809E+01 0.  1.
</event>
<event>
 5   0  0.1654257E-06  0.1987340E+04  0.7818609E-02  0.8612563E-01
        1   -1    0    0  501    0  0.00000000000E+00  0.00000000000E+00  0.79126364660E+03  0.79126364661E+03  0.50400001928E-02 0. -1.
       -1   -1    0    0    0  501  0.00000000000E+00  0.00000000000E+00 -0.12478517158E+04  0.12478517158E+04  0.50400001928E-02 0.  1.
    10030    2    1    2    0    0  0.00000000000E+00  0.00000000000E+00 -0.45658806918E+03  0.20391153624E+04  0.19873396278E+04 0.  0.
        3    1    3    3  502    0  0.71798678918E+03  0.50330606182E+03 -0.70797526777E+03  0.11269653993E+04  0.10100000352E+00 0.  1.
       -3    1    3    3    0  502 -0.71798678918E+03 -0.50330606182E+03  0.25138719859E+03  0.91214996307E+03  0.10100000352E+00 0. -1.
</event>
<event>
 5   0  0.4189587E-06  0.3317400E+04  0.7818609E-02  0.8158482E-01
       -2   -1    0    0    0  501  0.00000000000E+00  0.00000000000E+00  0.23021862165E+04  0.23021862165E+04  0.25500000920E-02 0.  1.
        2   -1    0    0  501    0  0.00000000000E+00  0.00000000000E+00 -0.11950748639E+04  0.11950748639E+04  0.25500000920E-02 0. -1.
    10030    2    1    2    0    0  0.00000000000E+00  0.00000000000E+00  0.11071113525E+04  0.34972610804E+04  0.33173995113E+04 0.  0.
        1    1    3    3  502    0  0.89433200699E+03  0.59330613822E+02 -0.91779946481E+03  0.12828506219E+04  0.50400001928E-02 0. -1.
       -1    1    3    3    0  502 -0.89433200699E+03 -0.59330613822E+02  0.20249108173E+04  0.22144104585E+04  0.50400001928E-02 0.  1.
</event>
<event>
 5   0  0.4344980E-06  0.3091837E+04  0.7818609E-02  0.8217982E-01
        2   -1    0    0  501    0  0.00000000000E+00  0.00000000000E+00  0.19421977767E+04  0.19421977767E+04  0.25500000920E-02 0.  1.
       -2   -1    0    0    0  501  0.00000000000E+00  0.00000000000E+00 -0.12304949674E+04  0.12304949674E+04  0.25500000920E-02 0. -1.
    10030    2    1    2    0    0  0.00000000000E+00  0.00000000000E+00  0.71170280936E+03  0.31726927441E+04  0.30918373760E+04 0.  0.
        3    1    3    3  502    0 -0.79734080736E+03  0.10880026148E+04  0.11308249269E+04  0.17601895007E+04  0.10100000352E+00 0.  1.
       -3    1    3    3    0  502  0.79734080736E+03 -0.10880026148E+04 -0.41912211753E+03  0.14125032434E+04  0.10100000352E+00 0. -1.
</event>
<event>
 5   0  0.4400349E-06  0.1993923E+04  0.7818609E-02  0.8609467E-01
        2   -1    0    0  501    0  0.00000000000E+00  0.00000000000E+00  0.13829824560E+04  0.13829824560E+04  0.25500000920E-02 0.  1.
       -2   -1    0    0    0  501  0.00000000000E+00  0.00000000000E+00 -0.71868757551E+03  0.71868757551E+03  0.25500000920E-02 0. -1.
    10030    2    1    2    0    0  0.00000000000E+00  0.00000000000E+00  0.66429488052E+03  0.21016700315E+04  0.19939230760E+04 0.  0.
        5    1    3    3  502    0 -0.21995771918E+03 -0.40587471725E+03  0.12635223067E+04  0.13452235479E+04  0.46999998093E+01 0.  1.
       -5    1    3    3    0  502  0.21995771918E+03  0.40587471725E+03 -0.59922742617E+03  0.75644648364E+03  0.46999998093E+01 0. -1.
</event>
<event>
 5   0  0.2101998E-06  0.2586858E+04  0.7818609E-02  0.8372679E-01
        1   -1    0    0  501    0  0.00000000000E+00  0.00000000000E+00  0.17263865698E+04  0.17263865698E+04  0.50400001928E-02 0. -1.
       -1   -1    0    0    0  501  0.00000000000E+00  0.00000000000E+00 -0.96905186635E+03  0.96905186637E+03  0.50400001928E-02 0.  1.
    10030    2    1    2    0    0  0.00000000000E+00  0.00000000000E+00  0.75733470344E+03  0.26954384362E+04  0.25868576517E+04 0.  0.
        5    1    3    3  502    0  0.16408454214E+03 -0.48990203960E+03 -0.85685562636E+03  0.10005755343E+04  0.46999998093E+01 0.  1.
       -5    1    3    3    0  502 -0.16408454214E+03  0.48990203960E+03  0.16141903298E+04  0.16948629019E+04  0.46999998093E+01 0. -1.
</event>
<event>
 5   0  0.4189587E-06  0.3354177E+04  0.7818609E-02  0.8149245E-01
        2   -1    0    0  501    0  0.00000000000E+00  0.00000000000E+00  0.19943914017E+04  0.19943914017E+04  0.25500000920E-02 0. -1.
       -2   -1    0    0    0  501  0.00000000000E+00  0.00000000000E+00 -0.14102679664E+04  0.14102679664E+04  0.25500000920E-02 0.  1.
    10030    2    1    2    0    0  0.00000000000E+00  0.00000000000E+00  0.58412343532E+03  0.34046593680E+04  0.33541772799E+04 0.  0.
        1    1    3    3  502    0  0.13323456345E+04 -0.93797608985E+03  0.69513043043E+03  0.17714825289E+04  0.50400001928E-02 0. -1.
       -1    1    3    3    0  502 -0.13323456345E+04  0.93797608985E+03 -0.11100699511E+03  0.16331768391E+04  0.50400001928E-02 0.  1.
</event>
<event>
 5   0  0.4173467E-06  0.3235739E+04  0.7818609E-02  0.8179442E-01
       -2   -1    0    0    0  501  0.00000000000E+00  0.00000000000E+00  0.13591276027E+04  0.13591276027E+04  0.25500000920E-02 0. -1.
        2   -1    0    0  501    0  0.00000000000E+00  0.00000000000E+00 -0.19258690156E+04  0.19258690156E+04  0.25500000920E-02 0.  1.
    10030    2    1    2    0    0  0.00000000000E+00  0.00000000000E+00 -0.56674141288E+03  0.32849966183E+04  0.32357390120E+04 0.  0.
        4    1    3    3  502    0  0.10720203962E+04  0.42340489888E+03  0.86925424357E+03  0.14436426120E+04  0.12699999809E+01 0. -1.
       -4    1    3    3    0  502 -0.10720203962E+04 -0.42340489888E+03 -0.14359956565E+04  0.18413540063E+04  0.12699999809E+01 0.  1.
</event>
<event>
 5   0  0.4400349E-06  0.3409244E+04  0.7818609E-02  0.8135641E-01
        2   -1    0    0  501    0  0.00000000000E+00  0.00000000000E+00  0.13647103270E+04  0.13647103270E+04  0.25500000920E-02 0.  1.
       -2   -1    0    0    0  501  0.00000000000E+00  0.00000000000E+00 -0.21291965447E+04  0.21291965447E+04  0.25500000920E-02 0. -1.
    10030    2    1    2    0    0  0.00000000000E+00  0.00000000000E+00 -0.76448621767E+03  0.34939068717E+04  0.34092442052E+04 0.  0.
        5    1    3    3  502    0 -0.30586919036E+02 -0.11675884735E+04 -0.16546535818E+04  0.20253639103E+04  0.46999998093E+01 0. -1.
       -5    1    3    3    0  502  0.30586919036E+02  0.11675884735E+04  0.89016736418E+03  0.14685429614E+04  0.46999998093E+01 0.  1.
</event>
<event>
 5   0  0.1654257E-06  0.1874481E+04  0.7818609E-02  0.8667664E-01
       -1   -1    0    0    0  501  0.00000000000E+00  0.00000000000E+00  0.19057747830E+04  0.19057747830E+04  0.50400001928E-02 0.  1.
        1   -1    0    0  501    0  0.00000000000E+00  0.00000000000E+00 -0.46092518168E+03  0.46092518171E+03  0.50400001928E-02 0. -1.
    10030    2    1    2    0    0  0.00000000000E+00  0.00000000000E+00  0.14448496013E+04  0.23666999647E+04  0.18744808221E+04 0.  0.
        3    1    3    3  502    0 -0.83681896737E+03  0.35165468547E+03  0.42769037057E+03  0.10034171940E+04  0.10100000352E+00 0. -1.
       -3    1    3    3    0  502  0.83681896737E+03 -0.35165468547E+03  0.10171592307E+04  0.13632827707E+04  0.10100000352E+00 0.  1.
</event>
<event>
 5   0  0.4344980E-06  0.2173374E+04  0.7818609E-02  0.8529593E-01
       -2   -1    0    0    0  501  0.00000000000E+00  0.00000000000E+00  0.72632598428E+03  0.72632598428E+03  0.25500000920E-02 0. -1.
        2   -1    0    0  501    0  0.00000000000E+00  0.00000000000E+00 -0.16258386785E+04  0.16258386785E+04  0.25500000920E-02 0.  1.
    10030    2    1    2    0    0  0.00000000000E+00  0.00000000000E+00 -0.89951269423E+03  0.23521646628E+04  0.21733742231E+04 0.  0.
        3    1    3    3  502    0 -0.27307093761E+03  0.49019375640E+03  0.55740716030E+03  0.79092376898E+03  0.10100000352E+00 0. -1.
       -3    1    3    3    0  502  0.27307093761E+03 -0.49019375640E+03 -0.14569198545E+04  0.15612408938E+04  0.10100000352E+00 0.  1.
</event>
<event>
 5   0  0.4189587E-06  0.3475023E+04  0.7818609E-02  0.8119735E-01
       -2   -1    0    0    0  501  0.00000000000E+00  0.00000000000E+00  0.20570189320E+04  0.20570189320E+04  0.25500000920E-02 0.  1.
        2   -1    0    0  501    0  0.00000000000E+00  0.00000000000E+00 -0.14676320213E+04  0.14676320213E+04  0.25500000920E-02 0. -1.
    10030    2    1    2    0    0  0.00000000000E+00  0.00000000000E+00  0.58938691065E+03  0.35246509533E+04  0.34750233686E+04 0.  0.
        1    1    3    3  502    0  0.13989747273E+04  0.79123271862E+03  0.96424764153E+03  0.18742873357E+04  0.50400001928E-02 0.  1.
       -1    1    3    3    0  502 -0.13989747273E+04 -0.79123271862E+03 -0.37486073088E+03  0.16503636176E+04  0.50400001928E-02 0. -1.
</event>
<event>
 5   0  0.2722449E-06  0.2300105E+04  0.7818609E-02  0.8477880E-01
       -2   -1    0    0    0  501  0.00000000000E+00  0.00000000000E+00  0.93435000001E+03  0.93435000001E+03  0.25500000920E-02 0.  1.
        2   -1    0    0  501    0  0.00000000000E+00  0.00000000000E+00 -0.14155518774E+04  0.14155518774E+04  0.25500000920E-02 0. -1.
    10030    2    1    2    0    0  0.00000000000E+00  0.00000000000E+00 -0.48120187743E+03  0.23499018775E+04  0.23001051252E+04 0.  0.
        2    1    3    3  502    0  0.72861448508E+03 -0.15753616313E+03  0.65410075528E+03  0.99173812502E+03  0.25500000920E-02 0.  1.
       -2    1    3    3    0  502 -0.72861448508E+03  0.15753616313E+03 -0.11353026327E+04  0.13581637524E+04  0.25500000920E-02 0. -1.
</event>
<event>
 5   0  0.4173467E-06  0.3424196E+04  0.7818609E-02  0.8131993E-01
        2   -1    0    0  501    0  0.00000000000E+00  0.00000000000E+00  0.15872158770E+04  0.15872158770E+04  0.25500000920E-02 0. -1.
       -2   -1    0    0    0  501  0.00000000000E+00  0.00000000000E+00 -0.18468055801E+04  0.18468055801E+04  0.25500000920E-02 0.  1.
    10030    2    1    2    0    0  0.00000000000E+00  0.00000000000E+00 -0.25958970306E+03  0.34340214570E+04  0.34241957528E+04 0.  0.
        4    1    3    3  502    0 -0.17390815096E+03  0.14749593389E+04 -0.98401859275E+03  0.17815844914E+04  0.12699999809E+01 0.  1.
       -4    1    3    3    0  502  0.17390815096E+03 -0.14749593389E+04  0.72442888969E+03  0.16524369656E+04  0.12699999809E+01 0. -1.
</event>
<event>
 5   0  0.4344980E-06  0.3318220E+04  0.7818609E-02  0.8158275E-01
        2   -1    0    0  501    0  0.00000000000E+00  0.00000000000E+00  0.24513116807E+04  0.24513116807E+04  0.25500000920E-02 0.  1.
       -2   -1    0    0    0  501  0.00000000000E+00  0.00000000000E+00 -0.11229280370E+04  0.11229280370E+04  0.25500000920E-02 0. -1.
    10030    2    1    2    0    0  0.00000000000E+00  0.00000000000E+00  0.13283836438E+04  0.35742397177E+04  0.33182203746E+04 0.  0.
        3    1    3    3  502    0  0.39901562259E+03  0.16022829787E+04  0.49009737235E+03  0.17224168066E+04  0.10100000352E+00 0.  1.
       -3    1    3    3    0  502 -0.39901562259E+03 -0.16022829787E+04  0.83828627141E+03  0.18518229111E+04  0.10100000352E+00 0. -1.
</event>
<event>
 5   0  0.2722449E-06  0.3524579E+04  0.7818609E-02  0.8107990E-01
       -2   -1    0    0    0  501  0.00000000000E+00  0.00000000000E+00  0.22671846263E+04  0.22671846263E+04  0.25500000920E-02 0. -1.
        2   -1    0    0  501    0  0.00000000000E+00  0.00000000000E+00 -0.13698328961E+04  0.13698328961E+04  0.25500000920E-02 0.  1.
    10030    2    1    2    0    0  0.00000000000E+00  0.00000000000E+00  0.89735173020E+03  0.36370175224E+04  0.35245788870E+04 0.  0.
        2    1    3    3  502    0 -0.85804316504E+03  0.15267613933E+04  0.65095393983E+03  0.18684162965E+04  0.25500000920E-02 0. -1.
       -2    1    3    3    0  502  0.85804316504E+03 -0.15267613933E+04  0.24639779037E+03  0.17686012259E+04  0.25500000920E-02 0.  1.
</event>
<event>
 5   0  0.4189587E-06  0.2837493E+04  0.7818609E-02  0.8291722E-01
        2   -1    0    0  501    0  0.00000000000E+00  0.00000000000E+00  0.22039395738E+04  0.22039395738E+04  0.25500000920E-02 0. -1.
       -2   -1    0    0    0  501  0.00000000000E+00  0.00000000000E+00 -0.91329234981E+03  0.91329234981E+03  0.25500000920E-02 0.  1.
    10030    2    1    2    0    0  0.00000000000E+00  0.00000000000E+00  0.12906472240E+04  0.31172319236E+04  0.28374926624E+04 0.  0.
        1    1    3    3  502    0  0.82232089603E+03 -0.73499458022E+03 -0.33507658976E+03  0.11526946734E+04  0.50400001928E-02 0.  1.
       -1    1    3    3    0  502 -0.82232089603E+03  0.73499458022E+03  0.16257238138E+04  0.19645372503E+04  0.50400001928E-02 0. -1.
</event>
<event>
 5   0  0.2722449E-06  0.3408696E+04  0.7818609E-02  0.8135775E-01
       -2   -1    0    0    0  501  0.00000000000E+00  0.00000000000E+00  0.21008132294E+04  0.21008132294E+04  0.25500000920E-02 0. -1.
        2   -1    0    0  501    0  0.00000000000E+00  0.00000000000E+00 -0.13827033638E+04  0.13827033638E+04  0.25500000920E-02 0.  1.
    10030    2    1    2    0    0  0.00000000000E+00  0.00000000000E+00  0.71810986563E+03  0.34835165932E+04  0.34086956561E+04 0.  0.
        2    1    3    3  502    0  0.85730337928E+03 -0.28819472626E+03  0.18353310620E+04  0.20460853823E+04  0.25500000920E-02 0. -1.
       -2    1    3    3    0  502 -0.85730337928E+03  0.28819472626E+03 -0.11172211964E+04  0.14374312109E+04  0.25500000920E-02 0.  1.
</event>
<event>
 5   0  0.1550164E-06  0.3327795E+04  0.7818609E-02  0.8155859E-01
       -1   -1    0    0    0  501  0.00000000000E+00  0.00000000000E+00  0.99957093782E+03  0.99957093783E+03  0.50400001928E-02 0. -1.
        1   -1    0    0  501    0  0.00000000000E+00  0.00000000000E+00 -0.27697439055E+04  0.27697439055E+04  0.50400001928E-02 0.  1.
    10030    2    1    2    0    0  0.00000000000E+00  0.00000000000E+00 -0.17701729677E+04  0.37693148433E+04  0.33277953742E+04 0.  0.
        4    1    3    3  502    0 -0.14736285110E+03  0.15469217916E+04 -0.15588823236E+04  0.22010903096E+04  0.12699999809E+01 0.  1.
       -4    1    3    3    0  502  0.14736285110E+03 -0.15469217916E+04 -0.21129064407E+03  0.15682245338E+04  0.12699999809E+01 0. -1.
</event>
<event>
 5   0  0.1562618E-06  0.3357930E+04  0.7818609E-02  0.8148310E-01
        1   -1    0    0  501    0  0.00000000000E+00  0.00000000000E+00  0.19571572867E+04  0.19571572867E+04  0.50400001928E-02 0. -1.
       -1   -1    0    0    0  501  0.00000000000E+00  0.00000000000E+00 -0.14403150053E+04  0.14403150053E+04  0.50400001928E-02 0.  1.
    10030    2    1    2    0    0  0.00000000000E+00  0.00000000000E+00  0.51684228146E+03  0.33974722920E+04  0.33579297239E+04 0.  0.
        2    1    3    3  502    0 -0.92032412207E+03 -0.71655301470E+03 -0.96347503604E+03  0.15128545395E+04  0.25500000920E-02 0.  1.
       -2    1    3    3    0  502  0.92032412207E+03  0.71655301470E+03  0.14803173175E+04  0.18846177525E+04  0.25500000920E-02 0. -1.
</event>
<event>
 5   0  0.1562618E-06  0.2539641E+04  0.7818609E-02  0.8388998E-01
       -1   -1    0    0    0  501  0.00000000000E+00  0.00000000000E+00  0.12854620823E+04  0.12854620823E+04  0.50400001928E-02 0. -1.
        1   -1    0    0  501    0  0.00000000000E+00  0.00000000000E+00 -0.12543693132E+04  0.12543693132E+04  0.50400001928E-02 0.  1.
    10030    2    1    2    0    0  0.00000000000E+00  0.00000000000E+00  0.31092769074E+02  0.25398313956E+04  0.25396410686E+04 0.  0.
        2    1    3    3  502    0  0.74764300263E+03 -0.80945873316E+03  0.64666474372E+03  0.12776418868E+04  0.25500000920E-02 0. -1.
       -2    1    3    3    0  502 -0.74764300263E+03  0.80945873316E+03 -0.61557197465E+03  0.12621895088E+04  0.25500000920E-02 0.  1.
</event>
<event>
 5   0  0.2101998E-06  0.3214095E+04  0.7818609E-02  0.8185105E-01
        1   -1    0    0  501    0  0.00000000000E+00  0.00000000000E+00  0.22482528230E+04  0.22482528230E+04  0.50400001928E-02 0.  1.
       -1   -1    0    0    0  501  0.00000000000E+00  0.00000000000E+00 -0.11487146685E+04  0.11487146685E+04  0.50400001928E-02 0. -1.
    10030    2    1    2    0    0  0.00000000000E+00  0.00000000000E+00  0.10995381545E+04  0.33969674915E+04  0.32140945824E+04 0.  0.
        5    1    3    3  502    0  0.63609331411E+03  0.13461764291E+04  0.11889719130E+04  0.19053823717E+04  0.46999998093E+01 0.  1.
       -5    1    3    3    0  502 -0.63609331411E+03 -0.13461764291E+04 -0.89433758444E+02  0.14915851198E+04  0.46999998093E+01 0. -1.
</event>
<event>
 5   0  0.4189587E-06  0.3413510E+04  0.7818609E-02  0.8134599E-01
        2   -1    0    0  501    0  0.00000000000E+00  0.00000000000E+00  0.29677248144E+04  0.29677248144E+04  0.25500000920E-02 0. -1.
       -2   -1    0    0    0  501  0.00000000000E+00  0.00000000000E+00 -0.98156408665E+03  0.98156408666E+03  0.25500000920E-02 0.  1.
    10030    2    1    2    0    0  0.00000000000E+00  0.00000000000E+00  0.19861607277E+04  0.39492889010E+04  0.34135096876E+04 0.  0.
        1    1    3    3  502    0  0.76699043391E+03  0.15240314015E+04  0.10456686563E+04  0.20010919462E+04  0.50400001928E-02 0. -1.
       -1    1    3    3    0  502 -0.76699043391E+03 -0.15240314015E+04  0.94049207140E+03  0.19481969548E+04  0.50400001928E-02 0.  1.
</event>
<event>
 5   0  0.1401125E-06  0.2645002E+04  0.7818609E-02  0.8353074E-01
        3   -1    0    0  501    0  0.00000000000E+00  0.00000000000E+00  0.15359645594E+04  0.15359645628E+04  0.10100000352E+00 0.  1.
       -3   -1    0    0    0  501  0.00000000000E+00  0.00000000000E+00 -0.11387043412E+04  0.11387043457E+04  0.10100000352E+00 0. -1.
    10030    2    1    2    0    0  0.00000000000E+00  0.00000000000E+00  0.39726021824E+03  0.26746689084E+04  0.26450024742E+04 0.  0.
        3    1    3    3  502    0  0.67434808111E+03  0.87610649945E+03  0.93251214466E+03  0.14463356606E+04  0.10100000352E+00 0.  1.
       -3    1    3    3    0  502 -0.67434808111E+03 -0.87610649945E+03 -0.53525192642E+03  0.12283332479E+04  0.10100000352E+00 0. -1.
</event>
<event>
 5   0  0.4189587E-06  0.3217640E+04  0.7818609E-02  0.8184174E-01
        2   -1    0    0  501    0  0.00000000000E+00  0.00000000000E+00  0.29585648544E+04  0.29585648544E+04  0.25500000920E-02 0.  1.
       -2   -1    0    0    0  501  0.00000000000E+00  0.00000000000E+00 -0.87485027157E+03  0.87485027158E+03  0.25500000920E-02 0. -1.
    10030    2    1    2    0    0  0.00000000000E+00  0.00000000000E+00  0.20837145828E+04  0.38334151260E+04  0.32176396730E+04 0.  0.
        1    1    3    3  502    0 -0.38368078890E+03 -0.83837919511E+03  0.26125804485E+04  0.27704994537E+04  0.50400001928E-02 0.  1.
       -1    1    3    3    0  502  0.38368078890E+03  0.83837919511E+03 -0.52886586570E+03  0.10629156723E+04  0.50400001928E-02 0. -1.
</event>
<event>
 5   0  0.1571391E-06  0.2918836E+04  0.7818609E-02  0.8267295E-01
       -1   -1    0    0    0  501  0.00000000000E+00  0.00000000000E+00  0.97579262349E+03  0.97579262351E+03  0.50400001928E-02 0. -1.
        1   -1    0    0  501    0  0.00000000000E+00  0.00000000000E+00 -0.21827389328E+04  0.21827389328E+04  0.50400001928E-02 0.  1.
    10030    2    1    2    0    0  0.00000000000E+00  0.00000000000E+00 -0.12069463093E+04  0.31585315563E+04  0.29188357608E+04 0.  0.
        1    1    3    3  502    0 -0.11815503036E+04 -0.87421431450E+02 -0.15256256886E+04  0.19316411076E+04  0.50400001928E-02 0.  1.
       -1    1    3    3    0  502  0.11815503036E+04  0.87421431450E+02  0.31867937930E+03  0.12268904488E+04  0.50400001928E-02 0. -1.
</event>
<event>
 5   0  0.1562618E-06  0.3496669E+04  0.7818609E-02  0.8114580E-01
       -1   -1    0    0    0  501  0.00000000000E+00  0.00000000000E+00  0.21969736787E+04  0.21969736787E+04  0.50400001928E-02 0.  1.
        1   -1    0    0  501    0  0.00000000000E+00  0.00000000000E+00 -0.13913111971E+04  0.13913111971E+04  0.50400001928E-02 0. -1.
    10030    2    1    2    0    0  0.00000000000E+00  0.00000000000E+00  0.80566248164E+03  0.35882848758E+04  0.34966693174E+04 0.  0.
        2    1    3    3  502    0 -0.54447203872E+02 -0.85919345867E+03  0.19643758179E+04  0.21447494612E+04  0.25500000920E-02 0.  1.
       -2    1    3    3    0  502  0.54447203872E+02  0.85919345867E+03 -0.11587133363E+04  0.14435354146E+04  0.25500000920E-02 0. -1.
</event>
<event>
 5   0  0.2101998E-06  0.3227176E+04  0.7818609E-02  0.8181677E-01
       -1   -1    0    0    0  501  0.00000000000E+00  0.00000000000E+00  0.99569788576E+03  0.99569788577E+03  0.50400001928E-02 0. -1.
        1   -1    0    0  501    0  0.00000000000E+00  0.00000000000E+00 -0.26149160748E+04  0.26149160748E+04  0.50400001928E-02 0.  1.
    10030    2    1    2    0    0  0.00000000000E+00  0.00000000000E+00 -0.16192181891E+04  0.36106139606E+04  0.32271761075E+04 0.  0.
        5    1    3    3  502    0  0.87674230233E+02 -0.76521363228E+03 -0.23959635724E+04  0.25167244990E+04  0.46999998093E+01 0.  1.
       -5    1    3    3    0  502 -0.87674230233E+02  0.76521363228E+03  0.77674538332E+03  0.10938894616E+04  0.46999998093E+01 0. -1.
</event>
<event>
 5   0  0.2722449E-06  0.1965035E+04  0.7818609E-02  0.8623145E-01
        2   -1    0    0  501    0  0.00000000000E+00  0.00000000000E+00  0.19903964396E+04  0.19903964396E+04  0.25500000920E-02 0. -1.
       -2   -1    0    0    0  501  0.00000000000E+00  0.00000000000E+00 -0.48499902346E+03  0.48499902346E+03  0.25500000920E-02 0.  1.
    10030    2    1    2    0    0  0.00000000000E+00  0.00000000000E+00  0.15053974161E+04  0.24753954630E+04  0.19650346862E+04 0.  0.
        2    1    3    3  502    0  0.52959501268E+03  0.56097898454E+03  0.15191351934E+04  0.17038016417E+04  0.25500000920E-02 0. -1.
       -2    1    3    3    0  502 -0.52959501268E+03 -0.56097898454E+03 -0.13737777281E+02  0.77159382131E+03  0.25500000920E-02 0.  1.
</event>
<event>
 5   0  0.2722449E-06  0.3289687E+04  0.7818609E-02  0.8165525E-01
        2   -1    0    0  501    0  0.00000000000E+00  0.00000000000E+00  0.79853705005E+03  0.79853705005E+03  0.25500000920E-02 0.  1.
       -2   -1    0    0    0  501  0.00000000000E+00  0.00000000000E+00 -0.33880826883E+04  0.33880826883E+04  0.25500000920E-02 0. -1.
    10030    2    1    2    0    0  0.00000000000E+00  0.00000000000E+00 -0.25895456383E+04  0.41866197384E+04  0.32896866448E+04 0.  0.
        2    1    3    3  502    0  0.44548242776E+03  0.10793345784E+02 -0.33097995973E+04  0.33396623278E+04  0.25500000920E-02 0. -1.
       -2    1    3    3    0  502 -0.44548242776E+03 -0.10793345784E+02  0.72025395902E+03  0.84695741053E+03  0.25500000920E-02 0.  1.
</event>
<event>
 5   0  0.4189587E-06  0.2718314E+04  0.7818609E-02  0.8329087E-01
        2   -1    0    0  501    0  0.00000000000E+00  0.00000000000E+00  0.18326207712E+04  0.18326207712E+04  0.25500000920E-02 0.  1.
       -2   -1    0    0    0  501  0.00000000000E+00  0.00000000000E+00 -0.10080142698E+04  0.10080142698E+04  0.25500000920E-02 0. -1.
    10030    2    1    2    0    0  0.00000000000E+00  0.00000000000E+00  0.82460650135E+03  0.28406350410E+04  0.27183141014E+04 0.  0.
        1    1    3    3  502    0 -0.83847712420E+02 -0.10734404125E+04 -0.45448099496E+03  0.11686991627E+04  0.50400001928E-02 0. -1.
       -1    1    3    3    0  502  0.83847712420E+02  0.10734404125E+04  0.12790874963E+04  0.16719358783E+04  0.50400001928E-02 0.  1.
</event>
<event>
 5   0  0.1550164E-06  0.3437783E+04  0.7818609E-02  0.8128695E-01
        1   -1    0    0  501    0  0.00000000000E+00  0.00000000000E+00  0.17017215019E+04  0.17017215019E+04  0.50400001928E-02 0.  1.
       -1   -1    0    0    0  501  0.00000000000E+00  0.00000000000E+00 -0.17362347124E+04  0.17362347124E+04  0.50400001928E-02 0. -1.
    10030    2    1    2    0    0  0.00000000000E+00  0.00000000000E+00 -0.34513210506E+02  0.34379562144E+04  0.34377829731E+04 0.  0.
        4    1    3    3  502    0  0.56788500736E+03 -0.14311310852E+04 -0.78146575309E+03  0.17266499068E+04  0.12699999809E+01 0. -1.
       -4    1    3    3    0  502 -0.56788500736E+03  0.14311310852E+04  0.74695254258E+03  0.17113063076E+04  0.12699999809E+01 0.  1.
</event>
<event>
 5   0  0.2722449E-06  0.3374445E+04  0.7818609E-02  0.8144207E-01
        2   -1    0    0  501    0  0.00000000000E+00  0.00000000000E+00  0.24105186609E+04  0.24105186609E+04  0.25500000920E-02 0. -1.
       -2   -1    0    0    0  501  0.00000000000E+00  0.00000000000E+00 -0.11809572803E+04  0.11809572803E+04  0.25500000920E-02 0.  1.
    10030    2    1    2    0    0  0.00000000000E+00  0.00000000000E+00  0.12295613806E+04  0.35914759412E+04  0.33744448799E+04 0.  0.
        2    1    3    3  502    0 -0.42330492894E+03 -0.10105962303E+04 -0.75079439070E+03  0.13282258922E+04  0.25500000920E-02 0.  1.
       -2    1    3    3    0  502  0.42330492894E+03  0.10105962303E+04  0.19803557713E+04  0.22632500490E+04  0.25500000920E-02 0. -1.
</event>
<event>
 5   0  0.1562618E-06  0.1727014E+04  0.7818609E-02  0.8746105E-01
        1   -1    0    0  501    0  0.00000000000E+00  0.00000000000E+00  0.88445703172E+03  0.88445703173E+03  0.50400001928E-02 0.  1.
       -1   -1    0    0    0  501  0.00000000000E+00  0.00000000000E+00 -0.84305331592E+03  0.84305331594E+03  0.50400001928E-02 0. -1.
    10030    2    1    2    0    0  0.00000000000E+00  0.00000000000E+00  0.41403715791E+02  0.17275103477E+04  0.17270141093E+04 0.  0.
        2    1    3    3  502    0  0.32286330435E+03 -0.15012335334E+03 -0.76620499744E+03  0.84489516073E+03  0.25500000920E-02 0. -1.
       -2    1    3    3    0  502 -0.32286330435E+03  0.15012335334E+03  0.80760871323E+03  0.88261518694E+03  0.25500000920E-02 0.  1.
</event>
<event>
 5   0  0.4189587E-06  0.3460314E+04  0.7818609E-02  0.8123260E-01
        2   -1    0    0  501    0  0.00000000000E+00  0.00000000000E+00  0.20454307440E+04  0.20454307440E+04  0.25500000920E-02 0. -1.
       -2   -1    0    0    0  501  0.00000000000E+00  0.00000000000E+00 -0.14634782808E+04  0.14634782808E+04  0.25500000920E-02 0.  1.
    10030    2    1    2    0    0  0.00000000000E+00  0.00000000000E+00  0.58195246319E+03  0.35089090249E+04  0.34603141296E+04 0.  0.
        1    1    3    3  502    0  0.78730446279E+00 -0.26811067342E+03 -0.14422847132E+04  0.14669932334E+04  0.50400001928E-02 0.  1.
       -1    1    3    3    0  502 -0.78730446279E+00  0.26811067342E+03  0.20242371764E+04  0.20419157914E+04  0.50400001928E-02 0. -1.
</event>
<event>
 5   0  0.4344980E-06  0.3228390E+04  0.7818609E-02  0.8181359E-01
       -2   -1    0    0    0  501  0.00000000000E+00  0.00000000000E+00  0.17555497638E+04  0.17555497638E+04  0.25500000920E-02 0. -1.
        2   -1    0    0  501    0  0.00000000000E+00  0.00000000000E+00 -0.14842220098E+04  0.14842220098E+04  0.25500000920E-02 0.  1.
    10030    2    1    2    0    0  0.00000000000E+00  0.00000000000E+00  0.27132775396E+03  0.32397717736E+04  0.32283900624E+04 0.  0.
        3    1    3    3  502    0 -0.21968351987E+03 -0.13299764756E+04 -0.75545734456E+03  0.15452553460E+04  0.10100000352E+00 0.  1.
       -3    1    3    3    0  502  0.21968351987E+03  0.13299764756E+04  0.10267850985E+04  0.16945164276E+04  0.10100000352E+00 0. -1.
</event>
<event>
 5   0  0.1550164E-06  0.3431452E+04  0.7818609E-02  0.8130230E-01
        1   -1    0    0  501    0  0.00000000000E+00  0.00000000000E+00  0.17340813611E+04  0.17340813611E+04  0.50400001928E-02 0.  1.
       -1   -1    0    0    0  501  0.00000000000E+00  0.00000000000E+00 -0.16975649414E+04  0.16975649414E+04  0.50400001928E-02 0. -1.
    10030    2    1    2    0    0  0.00000000000E+00  0.00000000000E+00  0.36516419698E+02  0.34316463025E+04  0.34314520099E+04 0.  0.
        4    1    3    3  502    0 -0.16460815310E+03 -0.89237122832E+03 -0.14379464362E+04  0.17003275624E+04  0.12699999809E+01 0. -1.
       -4    1    3    3    0  502  0.16460815310E+03  0.89237122832E+03  0.14744628559E+04  0.17313187400E+04  0.12699999809E+01 0.  1.
</event>
<event>
 5   0  0.1550164E-06  0.3359469E+04  0.7818609E-02  0.8147926E-01
        1   -1    0    0  501    0  0.00000000000E+00  0.00000000000E+00  0.23240753434E+04  0.23240753434E+04  0.50400001928E-02 0.  1.
       -1   -1    0    0    0  501  0.00000000000E+00  0.00000000000E+00 -0.12140349967E+04  0.12140349967E+04  0.50400001928E-02 0. -1.
    10030    2    1    2    0    0  0.00000000000E+00  0.00000000000E+00  0.11100403468E+04  0.35381103401E+04  0.33594694830E+04 0.  0.
        4    1    3    3  502    0  0.10237094564E+04 -0.48536607756E+03 -0.75106410838E+03  0.13592866468E+04  0.12699999809E+01 0. -1.
       -4    1    3    3    0  502 -0.10237094564E+04  0.48536607756E+03  0.18611044552E+04  0.21788236933E+04  0.12699999809E+01 0.  1.
</event>
<event>
 5   0  0.1550164E-06  0.3556418E+04  0.7818609E-02  0.8100548E-01
       -1   -1    0    0    0  501  0.00000000000E+00  0.00000000000E+00  0.11910409226E+04  0.11910409226E+04  0.50400001928E-02 0. -1.
        1   -1    0    0  501    0  0.00000000000E+00  0.00000000000E+00 -0.26548434696E+04  0.26548434696E+04  0.50400001928E-02 0.  1.
    10030    2    1    2    0    0  0.00000000000E+00  0.00000000000E+00 -0.14638025470E+04  0.38458843923E+04  0.35564179819E+04 0.  0.
        4    1    3    3  502    0  0.26695601216E+03  0.54242413371E+03 -0.25402977264E+04  0.26112456041E+04  0.12699999809E+01 0.  1.
       -4    1    3    3    0  502 -0.26695601216E+03 -0.54242413371E+03  0.10764951794E+04  0.12346387882E+04  0.12699999809E+01 0. -1.
</event>
<event>
 5   0  0.2722449E-06  0.2587759E+04  0.7818609E-02  0.8372371E-01
        2   -1    0    0  501    0  0.00000000000E+00  0.00000000000E+00  0.18355119816E+04  0.18355119816E+04  0.25500000920E-02 0. -1.
       -2   -1    0    0    0  501  0.00000000000E+00  0.00000000000E+00 -0.91207446461E+03  0.91207446461E+03  0.25500000920E-02 0.  1.
    10030    2    1    2    0    0  0.00000000000E+00  0.00000000000E+00  0.92343751699E+03  0.27475864462E+04  0.25877585729E+04 0.  0.
        2    1    3    3  502    0 -0.20012870464E+03  0.27646715178E+03  0.17868560608E+04  0.18191591921E+04  0.25500000920E-02 0. -1.
       -2    1    3    3    0  502  0.20012870464E+03 -0.27646715178E+03 -0.86341854376E+03  0.92842725409E+03  0.25500000920E-02 0.  1.
</event>
<event>
 5   0  0.1550164E-06  0.1801151E+04  0.7818609E-02  0.8705688E-01
       -1   -1    0    0    0  501  0.00000000000E+00  0.00000000000E+00  0.50238293823E+03  0.50238293826E+03  0.50400001928E-02 0. -1.
        1   -1    0    0  501    0  0.00000000000E+00  0.00000000000E+00 -0.16143776919E+04  0.16143776919E+04  0.50400001928E-02 0.  1.
    10030    2    1    2    0    0  0.00000000000E+00  0.00000000000E+00 -0.11119947537E+04  0.21167606302E+04  0.18011505304E+04 0.  0.
        4    1    3    3  502    0  0.48800580225E+03 -0.57305864343E+03  0.25102522808E+02  0.75311195807E+03  0.12699999809E+01 0. -1.
       -4    1    3    3    0  502 -0.48800580225E+03  0.57305864343E+03 -0.11370972765E+04  0.13636486721E+04  0.12699999809E+01 0.  1.
</event>
<event>
 5   0  0.4173467E-06  0.3374595E+04  0.7818609E-02  0.8144170E-01
        2   -1    0    0  501    0  0.00000000000E+00  0.00000000000E+00  0.28286762948E+04  0.28286762948E+04  0.25500000920E-02 0.  1.
       -2   -1    0    0    0  501  0.00000000000E+00  0.00000000000E+00 -0.10064679878E+04  0.10064679878E+04  0.25500000920E-02 0. -1.
    10030    2    1    2    0    0  0.00000000000E+00  0.00000000000E+00  0.18222083071E+04  0.38351442826E+04  0.33745945762E+04 0.  0.
        4    1    3    3  502    0  0.34925485395E+03  0.34002813937E+03  0.27469158747E+04  0.27898291210E+04  0.12699999809E+01 0.  1.
       -4    1    3    3    0  502 -0.34925485395E+03 -0.34002813937E+03 -0.92470756764E+03  0.10453151616E+04  0.12699999809E+01 0. -1.
</event>
<event>
 5   0  0.1401125E-06  0.3296169E+04  0.7818609E-02  0.8163871E-01
       -3   -1    0    0    0  501  0.00000000000E+00  0.00000000000E+00  0.14095742930E+04  0.14095742966E+04  0.10100000352E+00 0. -1.
        3   -1    0    0  501    0  0.00000000000E+00  0.00000000000E+00 -0.19269520570E+04  0.19269520596E+04  0.10100000352E+00 0.  1.
    10030    2    1    2    0    0  0.00000000000E+00  0.00000000000E+00 -0.51737776398E+03  0.33365263562E+04  0.32961687419E+04 0.  0.
        4    1    3    3  502    0  0.28632847427E+03  0.74241745797E+03 -0.17196245523E+04  0.18948028633E+04  0.12699999809E+01 0.  1.
       -4    1    3    3    0  502 -0.28632847427E+03 -0.74241745797E+03  0.12022467883E+04  0.14417234929E+04  0.12699999809E+01 0. -1.
</event>
<event>
 5   0  0.2101998E-06  0.3276192E+04  0.7818609E-02  0.8168980E-01
       -1   -1    0    0    0  501  0.00000000000E+00  0.00000000000E+00  0.12230502408E+04  0.12230502409E+04  0.50400001928E-02 0. -1.
        1   -1    0    0  501    0  0.00000000000E+00  0.00000000000E+00 -0.21939891151E+04  0.21939891152E+04  0.50400001928E-02 0.  1.
    10030    2    1    2    0    0  0.00000000000E+00  0.00000000000E+00 -0.97093887430E+03  0.34170393560E+04  0.32761922506E+04 0.  0.
        5    1    3    3  502    0 -0.53744781030E+03 -0.93320443798E+03 -0.17728839080E+04  0.20743336552E+04  0.46999998093E+01 0.  1.
       -5    1    3    3    0  502  0.53744781030E+03  0.93320443798E+03  0.80194503371E+03  0.13427057008E+04  0.46999998093E+01 0. -1.
</event>
<event>
 5   0  0.4189587E-06  0.2895312E+04  0.7818609E-02  0.8274274E-01
       -2   -1    0    0    0  501  0.00000000000E+00  0.00000000000E+00  0.91053088094E+03  0.91053088094E+03  0.25500000920E-02 0. -1.
        2   -1    0    0  501    0  0.00000000000E+00  0.00000000000E+00 -0.23016326428E+04  0.23016326428E+04  0.25500000920E-02 0.  1.
    10030    2    1    2    0    0  0.00000000000E+00  0.00000000000E+00 -0.13911017619E+04  0.32121635238E+04  0.28953117952E+04 0.  0.
        1    1    3    3  502    0  0.36958194267E+03 -0.11965433865E+04 -0.15012495782E+04  0.19550082312E+04  0.50400001928E-02 0.  1.
       -1    1    3    3    0  502 -0.36958194267E+03  0.11965433865E+04  0.11014781632E+03  0.12571552925E+04  0.50400001928E-02 0. -1.
</event>
<event>
 5   0  0.1550164E-06  0.1822299E+04  0.7818609E-02  0.8694530E-01
       -1   -1    0    0    0  501  0.00000000000E+00  0.00000000000E+00  0.11752710313E+04  0.11752710313E+04  0.50400001928E-02 0. -1.
        1   -1    0    0  501    0  0.00000000000E+00  0.00000000000E+00 -0.70638432071E+03  0.70638432073E+03  0.50400001928E-02 0.  1.
    10030    2    1    2    0    0  0.00000000000E+00  0.00000000000E+00  0.46888671055E+03  0.18816553520E+04  0.18222985805E+04 0.  0.
        4    1    3    3  502    0  0.29677761989E+03  0.72480398069E+02  0.11208098769E+04  0.11616999426E+04  0.12699999809E+01 0. -1.
       -4    1    3    3    0  502 -0.29677761989E+03 -0.72480398069E+02 -0.65192316632E+03  0.71995540935E+03  0.12699999809E+01 0.  1.
</event>
<event>
 5   0  0.2101998E-06  0.3354039E+04  0.7818609E-02  0.8149280E-01
       -1   -1    0    0    0  501  0.00000000000E+00  0.00000000000E+00  0.85672571662E+03  0.85672571663E+03  0.50400001928E-02 0.  1.
        1   -1    0    0  501    0  0.00000000000E+00  0.00000000000E+00 -0.32827243980E+04  0.32827243980E+04  0.50400001928E-02 0. -1.
    10030    2    1    2    0    0  0.00000000000E+00  0.00000000000E+00 -0.24259986814E+04  0.41394501146E+04  0.33540390054E+04 0.  0.
        5    1    3    3  502    0  0.11655816737E+04  0.62074772304E+03 -0.24887167459E+04  0.28173820304E+04  0.46999998093E+01 0. -1.
       -5    1    3    3    0  502 -0.11655816737E+04 -0.62074772304E+03  0.62718064512E+02  0.13220680843E+04  0.46999998093E+01 0.  1.
</event>
<event>
 5   0  0.4344980E-06  0.2211567E+04  0.7818609E-02  0.8513629E-01
       -2   -1    0    0    0  501  0.00000000000E+00  0.00000000000E+00  0.80561164886E+03  0.80561164887E+03  0.25500000920E-02 0. -1.
        2   -1    0    0  501    0  0.00000000000E+00  0.00000000000E+00 -0.15177997829E+04  0.15177997829E+04  0.25500000920E-02 0.  1.
    10030    2    1    2    0    0  0.00000000000E+00  0.00000000000E+00 -0.71218813402E+03  0.23234114317E+04  0.22115670333E+04 0.  0.
        3    1    3    3  502    0  0.54231974089E+03  0.45655943369E+02  0.65516693365E+03  0.85172700301E+03  0.10100000352E+00 0. -1.
       -3    1    3    3    0  502 -0.54231974089E+03 -0.45655943369E+02 -0.13673550677E+04  0.14716844287E+04  0.10100000352E+00 0.  1.
</event>
<event>
 5   0  0.1571391E-06  0.3325639E+04  0.7818609E-02  0.8156402E-01
        1   -1    0    0  501    0  0.00000000000E+00  0.00000000000E+00  0.13971233063E+04  0.13971233064E+04  0.50400001928E-02 0.  1.
       -1   -1    0    0    0  501  0.00000000000E+00  0.00000000000E+00 -0.19790443736E+04  0.19790443736E+04  0.50400001928E-02 0. -1.
    10030    2    1    2    0    0  0.00000000000E+00  0.00000000000E+00 -0.58192106724E+03  0.33761676800E+04  0.33256391979E+04 0.  0.
        1    1    3    3  502    0  0.76846801601E+03 -0.84592499591E+03 -0.15171349117E+04  0.18994290012E+04  0.50400001928E-02 0. -1.
       -1    1    3    3    0  502 -0.76846801601E+03  0.84592499591E+03  0.93521384447E+03  0.14767386787E+04  0.50400001928E-02 0.  1.
</event>
<event>
 5   0  0.2101998E-06  0.2711343E+04  0.7818609E-02  0.8331334E-01
       -1   -1    0    0    0  501  0.00000000000E+00  0.00000000000E+00  0.97500313630E+03  0.97500313631E+03  0.50400001928E-02 0. -1.
        1   -1    0    0  501    0  0.00000000000E+00  0.00000000000E+00 -0.18849640795E+04  0.18849640795E+04  0.50400001928E-02 0.  1.
    10030    2    1    2    0    0  0.00000000000E+00  0.00000000000E+00 -0.90996094319E+03  0.28599672158E+04  0.27113434968E+04 0.  0.
        5    1    3    3  502    0  0.12981778351E+04 -0.12239353511E+03 -0.84622736250E+03  0.15544673390E+04  0.46999998093E+01 0. -1.
       -5    1    3    3    0  502 -0.12981778351E+04  0.12239353511E+03 -0.63733580691E+02  0.13054998768E+04  0.46999998093E+01 0.  1.
</event>
<event>
 5   0  0.1571391E-06  0.3260742E+04  0.7818609E-02  0.8172957E-01
       -1   -1    0    0    0  501  0.00000000000E+00  0.00000000000E+00  0.16871686499E+04  0.16871686500E+04  0.50400001928E-02 0.  1.
        1   -1    0    0  501    0  0.00000000000E+00  0.00000000000E+00 -0.15754857128E+04  0.15754857128E+04  0.50400001928E-02 0. -1.
    10030    2    1    2    0    0  0.00000000000E+00  0.00000000000E+00  0.11168293716E+03  0.32626543627E+04  0.32607423100E+04 0.  0.
        1    1    3    3  502    0 -0.10441625772E+03 -0.13289414558E+04  0.99507286329E+03  0.16634777279E+04  0.50400001928E-02 0.  1.
       -1    1    3    3    0  502  0.10441625772E+03  0.13289414558E+04 -0.88338992613E+03  0.15991766349E+04  0.50400001928E-02 0. -1.
</event>
<event>
 5   0  0.2722449E-06  0.3947224E+04  0.7818609E-02  0.8015279E-01
        2   -1    0    0  501    0  0.00000000000E+00  0.00000000000E+00  0.12230908424E+04  0.12230908424E+04  0.25500000920E-02 0. -1.
       -2   -1    0    0    0  501  0.00000000000E+00  0.00000000000E+00 -0.31846730808E+04  0.31846730808E+04  0.25500000920E-02 0.  1.
    10030    2    1    2    0    0  0.00000000000E+00  0.00000000000E+00 -0.19615822384E+04  0.44077639232E+04  0.39472240783E+04 0.  0.
        2    1    3    3  502    0  0.18986161293E+03  0.18492883541E+04 -0.24072186769E+03  0.18745297721E+04  0.25500000920E-02 0.  1.
       -2    1    3    3    0  502 -0.18986161293E+03 -0.18492883541E+04 -0.17208603708E+04  0.25332341511E+04  0.25500000920E-02 0. -1.
</event>
<event>
 5   0  0.4400349E-06  0.3417544E+04  0.7818609E-02  0.8133614E-01
        2   -1    0    0  501    0  0.00000000000E+00  0.00000000000E+00  0.94599773777E+03  0.94599773778E+03  0.25500000920E-02 0.  1.
       -2   -1    0    0    0  501  0.00000000000E+00  0.00000000000E+00 -0.30865839889E+04  0.30865839889E+04  0.25500000920E-02 0. -1.
    10030    2    1    2    0    0  0.00000000000E+00  0.00000000000E+00 -0.21405862511E+04  0.40325817266E+04  0.34175438379E+04 0.  0.
        5    1    3    3  502    0 -0.10197954390E+04 -0.10839496209E+04 -0.79579356516E+02  0.14903974242E+04  0.46999998093E+01 0. -1.
       -5    1    3    3    0  502  0.10197954390E+04  0.10839496209E+04 -0.20610068946E+04  0.25421843024E+04  0.46999998093E+01 0.  1.
</event>
<event>
 5   0  0.2101998E-06  0.2123840E+04  0.7818609E-02  0.8550814E-01
        1   -1    0    0  501    0  0.00000000000E+00  0.00000000000E+00  0.78577500665E+03  0.78577500667E+03  0.50400001928E-02 0.  1.
       -1   -1    0    0    0  501  0.00000000000E+00  0.00000000000E+00 -0.14351110008E+04  0.14351110008E+04  0.50400001928E-02 0. -1.
    10030    2    1    2    0    0  0.00000000000E+00  0.00000000000E+00 -0.64933599412E+03  0.22208860074E+04  0.21238402541E+04 0.  0.
        5    1    3    3  502    0 -0.94197331607E+03  0.39168577239E+03 -0.63296284117E+03  0.12005813262E+04  0.46999998093E+01 0. -1.
       -5    1    3    3    0  502  0.94197331607E+03 -0.39168577239E+03 -0.16373152944E+02  0.10203046813E+04  0.46999998093E+01 0.  1.
</event>
<event>
 5   0  0.4173467E-06  0.3376162E+04  0.7818609E-02  0.8143782E-01
        2   -1    0    0  501    0  0.00000000000E+00  0.00000000000E+00  0.14402929609E+04  0.14402929609E+04  0.25500000920E-02 0. -1.
       -2   -1    0    0    0  501  0.00000000000E+00  0.00000000000E+00 -0.19784987912E+04  0.19784987912E+04  0.25500000920E-02 0.  1.
    10030    2    1    2    0    0  0.00000000000E+00  0.00000000000E+00 -0.53820583031E+03  0.34187917521E+04  0.33761622485E+04 0.  0.
        4    1    3    3  502    0  0.24589701703E+03 -0.88285272978E+03  0.11664437999E+04  0.14834038684E+04  0.12699999809E+01 0. -1.
       -4    1    3    3    0  502 -0.24589701703E+03  0.88285272978E+03 -0.17046496302E+04  0.19353878837E+04  0.12699999809E+01 0.  1.
</event>
<event>
 5   0  0.4173467E-06  0.3343809E+04  0.7818609E-02  0.8151837E-01
       -2   -1    0    0    0  501  0.00000000000E+00  0.00000000000E+00  0.15576700869E+04  0.15576700869E+04  0.25500000920E-02 0.  1.
        2   -1    0    0  501    0  0.00000000000E+00  0.00000000000E+00 -0.17945162812E+04  0.17945162812E+04  0.25500000920E-02 0. -1.
    10030    2    1    2    0    0  0.00000000000E+00  0.00000000000E+00 -0.23684619427E+03  0.33521863681E+04  0.33438088053E+04 0.  0.
        4    1    3    3  502    0  0.60775057766E+03  0.17529391870E+03  0.14330893088E+04  0.15664722476E+04  0.12699999809E+01 0.  1.
       -4    1    3    3    0  502 -0.60775057766E+03 -0.17529391870E+03 -0.16699355031E+04  0.17857141205E+04  0.12699999809E+01 0. -1.
</event>
<event>
 5   0  0.4173467E-06  0.3395861E+04  0.7818609E-02  0.8138923E-01
       -2   -1    0    0    0  501  0.00000000000E+00  0.00000000000E+00  0.12516569193E+04  0.12516569193E+04  0.25500000920E-02 0.  1.
        2   -1    0    0  501    0  0.00000000000E+00  0.00000000000E+00 -0.23033209103E+04  0.23033209103E+04  0.25500000920E-02 0. -1.
    10030    2    1    2    0    0  0.00000000000E+00  0.00000000000E+00 -0.10516639910E+04  0.35549778296E+04  0.33958607479E+04 0.  0.
        4    1    3    3  502    0  0.36076019606E+03 -0.89204658777E+03 -0.19903351253E+04  0.22107307745E+04  0.12699999809E+01 0. -1.
       -4    1    3    3    0  502 -0.36076019606E+03  0.89204658777E+03  0.93867113429E+03  0.13442470551E+04  0.12699999809E+01 0.  1.
</event>
<event>
 5   0  0.2722449E-06  0.3436856E+04  0.7818609E-02  0.8128919E-01
       -2   -1    0    0    0  501  0.00000000000E+00  0.00000000000E+00  0.15018714955E+04  0.15018714955E+04  0.25500000920E-02 0.  1.
        2   -1    0    0  501    0  0.00000000000E+00  0.00000000000E+00 -0.19662097786E+04  0.19662097786E+04  0.25500000920E-02 0. -1.
    10030    2    1    2    0    0  0.00000000000E+00  0.00000000000E+00 -0.46433828305E+03  0.34680812741E+04  0.34368557844E+04 0.  0.
        2    1    3    3  502    0  0.43802706766E+03 -0.11169800384E+04  0.10092448367E+04  0.15678288359E+04  0.25500000920E-02 0.  1.
       -2    1    3    3    0  502 -0.43802706766E+03  0.11169800384E+04 -0.14735831197E+04  0.19002524382E+04  0.25500000920E-02 0. -1.
</event>
<event>
 5   0  0.4189587E-06  0.3358765E+04  0.7818609E-02  0.8148101E-01
        2   -1    0    0  501    0  0.00000000000E+00  0.00000000000E+00  0.16477004353E+04  0.16477004353E+04  0.25500000920E-02 0.  1.
       -2   -1    0    0    0  501  0.00000000000E+00  0.00000000000E+00 -0.17116738981E+04  0.17116738981E+04  0.25500000920E-02 0. -1.
    10030    2    1    2    0    0  0.00000000000E+00  0.00000000000E+00 -0.63973462839E+02  0.33593743334E+04  0.33587651463E+04 0.  0.
        1    1    3    3  502    0  0.16027944614E+04 -0.34254677305E+03 -0.39816438702E+03  0.16866603856E+04  0.50400001928E-02 0. -1.
       -1    1    3    3    0  502 -0.16027944614E+04  0.34254677305E+03  0.33419092418E+03  0.16727139478E+04  0.50400001928E-02 0.  1.
</event>
<event>
 5   0  0.1571391E-06  0.3261146E+04  0.7818609E-02  0.8172853E-01
       -1   -1    0    0    0  501  0.00000000000E+00  0.00000000000E+00  0.24557327323E+04  0.24557327324E+04  0.50400001928E-02 0.  1.
        1   -1    0    0  501    0  0.00000000000E+00  0.00000000000E+00 -0.10826782615E+04  0.10826782616E+04  0.50400001928E-02 0. -1.
    10030    2    1    2    0    0  0.00000000000E+00  0.00000000000E+00  0.13730544708E+04  0.35384109939E+04  0.32611460841E+04 0.  0.
        1    1    3    3  502    0 -0.13518405670E+04  0.21251846200E+03 -0.27549608995E+03  0.13958993914E+04  0.50400001928E-02 0. -1.
       -1    1    3    3    0  502  0.13518405670E+04 -0.21251846200E+03  0.16485505608E+04  0.21425116025E+04  0.50400001928E-02 0.  1.
</event>
<event>
 5   0  0.1550164E-06  0.1762441E+04  0.7818609E-02  0.8726532E-01
        1   -1    0    0  501    0  0.00000000000E+00  0.00000000000E+00  0.14881298258E+04  0.14881298259E+04  0.50400001928E-02 0.  1.
       -1   -1    0    0    0  501  0.00000000000E+00  0.00000000000E+00 -0.52182907391E+03  0.52182907393E+03  0.50400001928E-02 0. -1.
    10030    2    1    2    0    0  0.00000000000E+00  0.00000000000E+00  0.96630075194E+03  0.20099588998E+04  0.17624408176E+04 0.  0.
        4    1    3    3  502    0  0.24251043356E+03 -0.54273665438E+03  0.12250272270E+04  0.13616415483E+04  0.12699999809E+01 0.  1.
       -4    1    3    3    0  502 -0.24251043356E+03  0.54273665438E+03 -0.25872647505E+03  0.64831735145E+03  0.12699999809E+01 0. -1.
</event>
<event>
 5   0  0.4344980E-06  0.3536086E+04  0.7818609E-02  0.8105291E-01
        2   -1    0    0  501    0  0.00000000000E+00  0.00000000000E+00  0.18610164032E+04  0.18610164032E+04  0.25500000920E-02 0. -1.
       -2   -1    0    0    0  501  0.00000000000E+00  0.00000000000E+00 -0.16797147440E+04  0.16797147440E+04  0.25500000920E-02 0.  1.
    10030    2    1    2    0    0  0.00000000000E+00  0.00000000000E+00  0.18130165925E+03  0.35407311472E+04  0.35360863628E+04 0.  0.
        3    1    3    3  502    0 -0.15696703561E+03  0.68605722570E+03 -0.15334116712E+04  0.16872061317E+04  0.10100000352E+00 0.  1.
       -3    1    3    3    0  502  0.15696703561E+03 -0.68605722570E+03  0.17147133305E+04  0.18535250155E+04  0.10100000352E+00 0. -1.
</event>
<event>
 5   0  0.2722449E-06  0.3469448E+04  0.7818609E-02  0.8121069E-01
        2   -1    0    0  501    0  0.00000000000E+00  0.00000000000E+00  0.13406005033E+04  0.13406005033E+04  0.25500000920E-02 0.  1.
       -2   -1    0    0    0  501  0.00000000000E+00  0.00000000000E+00 -0.22447159360E+04  0.22447159360E+04  0.25500000920E-02 0. -1.
    10030    2    1    2    0    0  0.00000000000E+00  0.00000000000E+00 -0.90411543273E+03  0.35853164393E+04  0.34694479754E+04 0.  0.
        2    1    3    3  502    0  0.29271338333E+03 -0.15456316722E+04 -0.12076459988E+04  0.19831962205E+04  0.25500000920E-02 0. -1.
       -2    1    3    3    0  502 -0.29271338333E+03  0.15456316722E+04  0.30353056605E+03  0.16021202188E+04  0.25500000920E-02 0.  1.
</event>
<event>
 5   0  0.1571391E-06  0.3291576E+04  0.7818609E-02  0.8165042E-01
       -1   -1    0    0    0  501  0.00000000000E+00  0.00000000000E+00  0.10164421156E+04  0.10164421156E+04  0.50400001928E-02 0.  1.
        1   -1    0    0  501    0  0.00000000000E+00  0.00000000000E+00 -0.26648039415E+04  0.26648039415E+04  0.50400001928E-02 0. -1.
    10030    2    1    2    0    0  0.00000000000E+00  0.00000000000E+00 -0.16483618259E+04  0.36812460571E+04  0.32915764952E+04 0.  0.
        1    1    3    3  502    0  0.13385718610E+04  0.95458965172E+03 -0.90789495795E+03  0.18781079002E+04  0.50400001928E-02 0.  1.
       -1    1    3    3    0  502 -0.13385718610E+04 -0.95458965172E+03 -0.74046686800E+03  0.18031381569E+04  0.50400001928E-02 0. -1.
</event>
<event>
 5   0  0.4173467E-06  0.3020243E+04  0.7818609E-02  0.8237974E-01
        2   -1    0    0  501    0  0.00000000000E+00  0.00000000000E+00  0.13619493751E+04  0.13619493751E+04  0.25500000920E-02 0. -1.
       -2   -1    0    0    0  501  0.00000000000E+00  0.00000000000E+00 -0.16744139968E+04  0.16744139968E+04  0.25500000920E-02 0.  1.
    10030    2    1    2    0    0  0.00000000000E+00  0.00000000000E+00 -0.31246462176E+03  0.30363633719E+04  0.30202431006E+04 0.  0.
        4    1    3    3  502    0 -0.57154355038E+03 -0.24664240101E+02 -0.15612592758E+04  0.16627695252E+04  0.12699999809E+01 0.  1.
       -4    1    3    3    0  502  0.57154355038E+03  0.24664240101E+02  0.12487946541E+04  0.13735938467E+04  0.12699999809E+01 0. -1.
</event>
<event>
 5   0  0.1562618E-06  0.2050684E+04  0.7818609E-02  0.8583284E-01
       -1   -1    0    0    0  501  0.00000000000E+00  0.00000000000E+00  0.17925583295E+04  0.17925583295E+04  0.50400001928E-02 0.  1.
        1   -1    0    0  501    0  0.00000000000E+00  0.00000000000E+00 -0.58649457155E+03  0.58649457157E+03  0.50400001928E-02 0. -1.
    10030    2    1    2    0    0  0.00000000000E+00  0.00000000000E+00  0.12060637580E+04  0.23790529011E+04  0.20506835246E+04 0.  0.
        2    1    3    3  502    0  0.94722086106E+03 -0.37965604662E+03  0.48725345632E+03  0.11308324385E+04  0.25500000920E-02 0. -1.
       -2    1    3    3    0  502 -0.94722086106E+03  0.37965604662E+03  0.71881030166E+03  0.12482204626E+04  0.25500000920E-02 0.  1.
</event>
<event>
 5   0  0.4344980E-06  0.3443057E+04  0.7818609E-02  0.8127419E-01
        2   -1    0    0  501    0  0.00000000000E+00  0.00000000000E+00  0.19566236401E+04  0.19566236401E+04  0.25500000920E-02 0. -1.
       -2   -1    0    0    0  501  0.00000000000E+00  0.00000000000E+00 -0.15146809398E+04  0.15146809398E+04  0.25500000920E-02 0.  1.
    10030    2    1    2    0    0  0.00000000000E+00  0.00000000000E+00  0.44194270036E+03  0.34713045799E+04  0.34430570916E+04 0.  0.
        3    1    3    3  502    0  0.13170488884E+03  0.57088008046E+02  0.19505794439E+04  0.19558541345E+04  0.10100000352E+00 0. -1.
       -3    1    3    3    0  502 -0.13170488884E+03 -0.57088008046E+02 -0.15086367435E+04  0.15154504454E+04  0.10100000352E+00 0.  1.
</event>
<event>
 5   0  0.4400349E-06  0.3456838E+04  0.7818609E-02  0.8124096E-01
       -2   -1    0    0    0  501  0.00000000000E+00  0.00000000000E+00  0.15042410810E+04  0.15042410810E+04  0.25500000920E-02 0.  1.
        2   -1    0    0  501    0  0.00000000000E+00  0.00000000000E+00 -0.19860061421E+04  0.19860061421E+04  0.25500000920E-02 0. -1.
    10030    2    1    2    0    0  0.00000000000E+00  0.00000000000E+00 -0.48176506114E+03  0.34902472231E+04  0.34568378765E+04 0.  0.
        5    1    3    3  502    0  0.26420928504E+03 -0.14503527241E+03  0.14774968569E+04  0.15079326340E+04  0.46999998093E+01 0.  1.
       -5    1    3    3    0  502 -0.26420928504E+03  0.14503527241E+03 -0.19592619180E+04  0.19823145891E+04  0.46999998093E+01 0. -1.
</event>
<event>
 5   0  0.1571391E-06  0.3402559E+04  0.7818609E-02  0.8137279E-01
       -1   -1    0    0    0  501  0.00000000000E+00  0.00000000000E+00  0.19965360587E+04  0.19965360588E+04  0.50400001928E-02 0.  1.
        1   -1    0    0  501    0  0.00000000000E+00  0.00000000000E+00 -0.14496863822E+04  0.14496863822E+04  0.50400001928E-02 0. -1.
    10030    2    1    2    0    0  0.00000000000E+00  0.00000000000E+00  0.54684967658E+03  0.34462224409E+04  0.34025585290E+04 0.  0.
        1    1    3    3  502    0  0.11391063354E+04  0.12171334279E+04  0.61745132942E+03  0.17777016535E+04  0.50400001928E-02 0.  1.
       -1    1    3    3    0  502 -0.11391063354E+04 -0.12171334279E+04 -0.70601652834E+02  0.16685207874E+04  0.50400001928E-02 0. -1.
</event>
<event>
 5   0  0.2101998E-06  0.3326562E+04  0.7818609E-02  0.8156169E-01
       -1   -1    0    0    0  501  0.00000000000E+00  0.00000000000E+00  0.15406728281E+04  0.15406728281E+04  0.50400001928E-02 0.  1.
        1   -1    0    0  501    0  0.00000000000E+00  0.00000000000E+00 -0.17956466971E+04  0.17956466971E+04  0.50400001928E-02 0. -1.
    10030    2    1    2    0    0  0.00000000000E+00  0.00000000000E+00 -0.25497386899E+03  0.33363195253E+04  0.33265622346E+04 0.  0.
        5    1    3    3  502    0  0.10285774558E+04  0.51804179532E+03  0.10760926388E+04  0.15761777633E+04  0.46999998093E+01 0.  1.
       -5    1    3    3    0  502 -0.10285774558E+04 -0.51804179532E+03 -0.13310665078E+04  0.17601417620E+04  0.46999998093E+01 0. -1.
</event>
<event>
 5   0  0.4173467E-06  0.1882325E+04  0.7818609E-02  0.8663705E-01
       -2   -1    0    0    0  501  0.00000000000E+00  0.00000000000E+00  0.20859648674E+04  0.20859648674E+04  0.25500000920E-02 0. -1.
        2   -1    0    0  501    0  0.00000000000E+00  0.00000000000E+00 -0.42464140424E+03  0.42464140425E+03  0.25500000920E-02 0.  1.
    10030    2    1    2    0    0  0.00000000000E+00  0.00000000000E+00  0.16613234631E+04  0.25106062716E+04  0.18823252115E+04 0.  0.
        4    1    3    3  502    0  0.12473263335E+03  0.73650946384E+03  0.15942791912E+04  0.17606056266E+04  0.12699999809E+01 0. -1.
       -4    1    3    3    0  502 -0.12473263335E+03 -0.73650946384E+03  0.67044271893E+02  0.75000064496E+03  0.12699999809E+01 0.  1.
</event>
<event>
 5   0  0.1654257E-06  0.3360122E+04  0.7818609E-02  0.8147764E-01
        1   -1    0    0  501    0  0.00000000000E+00  0.00000000000E+00  0.17473133340E+04  0.17473133340E+04  0.50400001928E-02 0. -1.
       -1   -1    0    0    0  501  0.00000000000E+00  0.00000000000E+00 -0.16153973442E+04  0.16153973443E+04  0.50400001928E-02 0.  1.
    10030    2    1    2    0    0  0.00000000000E+00  0.00000000000E+00  0.13191598974E+03  0.33627106783E+04  0.33601222117E+04 0.  0.
        3    1    3    3  502    0 -0.10188555829E+04  0.37677458550E+03 -0.12166608946E+04  0.16310394016E+04  0.10100000352E+00 0.  1.
       -3    1    3    3    0  502  0.10188555829E+04 -0.37677458550E+03  0.13485768843E+04  0.17316712766E+04  0.10100000352E+00 0. -1.
</event>
<event>
 5   0  0.2722449E-06  0.3178037E+04  0.7818609E-02  0.8194642E-01
        2   -1    0    0  501    0  0.00000000000E+00  0.00000000000E+00  0.20677100892E+04  0.20677100892E+04  0.25500000920E-02 0.  1.
       -2   -1    0    0    0  501  0.00000000000E+00  0.00000000000E+00 -0.12211475685E+04  0.12211475685E+04  0.25500000920E-02 0. -1.
    10030    2    1    2    0    0  0.00000000000E+00  0.00000000000E+00  0.84656252065E+03  0.32888576577E+04  0.31780365937E+04 0.  0.
        2    1    3    3  502    0 -0.99806886458E+03 -0.89692278069E+03  0.13040574725E+04  0.18711434538E+04  0.25500000920E-02 0.  1.
       -2    1    3    3    0  502  0.99806886458E+03  0.89692278069E+03 -0.45749495188E+03  0.14177142039E+04  0.25500000920E-02 0. -1.
</event>
<event>
 5   0  0.1550164E-06  0.3398066E+04  0.7818609E-02  0.8138381E-01
        1   -1    0    0  501    0  0.00000000000E+00  0.00000000000E+00  0.18561236661E+04  0.18561236661E+04  0.50400001928E-02 0.  1.
       -1   -1    0    0    0  501  0.00000000000E+00  0.00000000000E+00 -0.15552377885E+04  0.15552377885E+04  0.50400001928E-02 0. -1.
    10030    2    1    2    0    0  0.00000000000E+00  0.00000000000E+00  0.30088587766E+03  0.34113614546E+04  0.33980663123E+04 0.  0.
        4    1    3    3  502    0  0.49074910231E+03 -0.97701277334E+03  0.14560401645E+04  0.18208358559E+04  0.12699999809E+01 0.  1.
       -4    1    3    3    0  502 -0.49074910231E+03  0.97701277334E+03 -0.11551542869E+04  0.15905255987E+04  0.12699999809E+01 0. -1.
</event>
<event>
 5   0  0.1654257E-06  0.1882291E+04  0.7818609E-02  0.8663722E-01
       -1   -1    0    0    0  501  0.00000000000E+00  0.00000000000E+00  0.57156190423E+03  0.57156190425E+03  0.50400001928E-02 0. -1.
        1   -1    0    0  501    0  0.00000000000E+00  0.00000000000E+00 -0.15497097468E+04  0.15497097468E+04  0.50400001928E-02 0.  1.
    10030    2    1    2    0    0  0.00000000000E+00  0.00000000000E+00 -0.97814784259E+03  0.21212716511E+04  0.18822912144E+04 0.  0.
        3    1    3    3  502    0  0.49216577941E+03 -0.70659352193E+03 -0.91710236343E+03  0.12580056895E+04  0.10100000352E+00 0. -1.
       -3    1    3    3    0  502 -0.49216577941E+03  0.70659352193E+03 -0.61045479155E+02  0.86326596156E+03  0.10100000352E+00 0.  1.
</event>
<event>
 5   0  0.4400349E-06  0.3244575E+04  0.7818609E-02  0.8177143E-01
        2   -1    0    0  501    0  0.00000000000E+00  0.00000000000E+00  0.16288806720E+04  0.16288806720E+04  0.25500000920E-02 0. -1.
       -2   -1    0    0    0  501  0.00000000000E+00  0.00000000000E+00 -0.16157211761E+04  0.16157211761E+04  0.25500000920E-02 0.  1.
    10030    2    1    2    0    0  0.00000000000E+00  0.00000000000E+00  0.13159495870E+02  0.32446018481E+04  0.32445751618E+04 0.  0.
        5    1    3    3  502    0  0.15837362018E+04  0.10716642746E+03  0.34138080676E+03  0.16236588143E+04  0.46999998093E+01 0. -1.
       -5    1    3    3    0  502 -0.15837362018E+04 -0.10716642746E+03 -0.32822131089E+03  0.16209430338E+04  0.46999998093E+01 0.  1.
</event>
<event>
 5   0  0.2101998E-06  0.2783374E+04  0.7818609E-02  0.8308449E-01
        1   -1    0    0  501    0  0.00000000000E+00  0.00000000000E+00  0.21289356203E+04  0.21289356203E+04  0.50400001928E-02 0.  1.
       -1   -1    0    0    0  501  0.00000000000E+00  0.00000000000E+00 -0.90974680836E+03  0.90974680837E+03  0.50400001928E-02 0. -1.
    10030    2    1    2    0    0  0.00000000000E+00  0.00000000000E+00  0.12191888120E+04  0.30386824287E+04  0.27833737700E+04 0.  0.
        5    1    3    3  502    0 -0.84820451236E+03  0.76022320488E+03  0.14825523774E+04  0.18695918960E+04  0.46999998093E+01 0.  1.
       -5    1    3    3    0  502  0.84820451236E+03 -0.76022320488E+03 -0.26336356540E+03  0.11690905327E+04  0.46999998093E+01 0. -1.
</event>
<event>
 5   0  0.4400349E-06  0.3291569E+04  0.7818609E-02  0.8165044E-01
       -2   -1    0    0    0  501  0.00000000000E+00  0.00000000000E+00  0.20887262705E+04  0.20887262705E+04  0.25500000920E-02 0.  1.
        2   -1    0    0  501    0  0.00000000000E+00  0.00000000000E+00 -0.12967743638E+04  0.12967743638E+04  0.25500000920E-02 0. -1.
    10030    2    1    2    0    0  0.00000000000E+00  0.00000000000E+00  0.79195190673E+03  0.33855006344E+04  0.32915690366E+04 0.  0.
        5    1    3    3  502    0 -0.68135385474E+03 -0.34044223767E+03 -0.11045748312E+04  0.13417345640E+04  0.46999998093E+01 0. -1.
       -5    1    3    3    0  502  0.68135385474E+03  0.34044223767E+03  0.18965267379E+04  0.20437660703E+04  0.46999998093E+01 0.  1.
</event>
<event>
 5   0  0.4173467E-06  0.1947227E+04  0.7818609E-02  0.8631699E-01
        2   -1    0    0  501    0  0.00000000000E+00  0.00000000000E+00  0.78708069864E+03  0.78708069864E+03  0.25500000920E-02 0.  1.
       -2   -1    0    0    0  501  0.00000000000E+00  0.00000000000E+00 -0.12043527215E+04  0.12043527215E+04  0.25500000920E-02 0. -1.
    10030    2    1    2    0    0  0.00000000000E+00  0.00000000000E+00 -0.41727202284E+03  0.19914334201E+04  0.19472265214E+04 0.  0.
        4    1    3    3  502    0 -0.87827417993E+03  0.11925064253E+03  0.20341908275E+03  0.90937736227E+03  0.12699999809E+01 0.  1.
       -4    1    3    3    0  502  0.87827417993E+03 -0.11925064253E+03 -0.62069110559E+03  0.10820560579E+04  0.12699999809E+01 0. -1.
</event>
<event>
 5   0  0.1550164E-06  0.3414164E+04  0.7818609E-02  0.8134439E-01
       -1   -1    0    0    0  501  0.00000000000E+00  0.00000000000E+00  0.16492643537E+04  0.16492643538E+04  0.50400001928E-02 0.  1.
        1   -1    0    0  501    0  0.00000000000E+00  0.00000000000E+00 -0.17669269787E+04  0.17669269787E+04  0.50400001928E-02 0. -1.
    10030    2    1    2    0    0  0.00000000000E+00  0.00000000000E+00 -0.11766262493E+03  0.34161913324E+04  0.34141644258E+04 0.  0.
        4    1    3    3  502    0  0.71156516169E+03  0.22064880015E+03  0.14780223335E+04  0.16551623798E+04  0.12699999809E+01 0.  1.
       -4    1    3    3    0  502 -0.71156516169E+03 -0.22064880015E+03 -0.15956849585E+04  0.17610289526E+04  0.12699999809E+01 0. -1.
</event>
<event>
 5   0  0.4173467E-06  0.3427164E+04  0.7818609E-02  0.8131271E-01
       -2   -1    0    0    0  501  0.00000000000E+00  0.00000000000E+00  0.15152808481E+04  0.15152808481E+04  0.25500000920E-02 0. -1.
        2   -1    0    0  501    0  0.00000000000E+00  0.00000000000E+00 -0.19378345322E+04  0.19378345322E+04  0.25500000920E-02 0.  1.
    10030    2    1    2    0    0  0.00000000000E+00  0.00000000000E+00 -0.42255368408E+03  0.34531153803E+04  0.34271641650E+04 0.  0.
        4    1    3    3  502    0  0.41824382427E+03  0.44167318903E+03 -0.18253933242E+04  0.19240752333E+04  0.12699999809E+01 0.  1.
       -4    1    3    3    0  502 -0.41824382427E+03 -0.44167318903E+03  0.14028396401E+04  0.15290401470E+04  0.12699999809E+01 0. -1.
</event>
<event>
 5   0  0.4173467E-06  0.2728814E+04  0.7818609E-02  0.8325716E-01
        2   -1    0    0  501    0  0.00000000000E+00  0.00000000000E+00  0.18896207523E+04  0.18896207523E+04  0.25500000920E-02 0. -1.
       -2   -1    0    0    0  501  0.00000000000E+00  0.00000000000E+00 -0.98517483958E+03  0.98517483958E+03  0.25500000920E-02 0.  1.
    10030    2    1    2    0    0  0.00000000000E+00  0.00000000000E+00  0.90444591268E+03  0.28747955918E+04  0.27288142637E+04 0.  0.
        4    1    3    3  502    0  0.12225549281E+04 -0.26831532018E+02  0.10897794640E+04  0.16379808840E+04  0.12699999809E+01 0. -1.
       -4    1    3    3    0  502 -0.12225549281E+04  0.26831532018E+02 -0.18533355135E+03  0.12368147078E+04  0.12699999809E+01 0.  1.
</event>
<event>
 5   0  0.1562618E-06  0.3340838E+04  0.7818609E-02  0.8152581E-01
       -1   -1    0    0    0  501  0.00000000000E+00  0.00000000000E+00  0.10513326372E+04  0.10513326372E+04  0.50400001928E-02 0. -1.
        1   -1    0    0  501    0  0.00000000000E+00  0.00000000000E+00 -0.26540602763E+04  0.26540602763E+04  0.50400001928E-02 0.  1.
    10030    2    1    2    0    0  0.00000000000E+00  0.00000000000E+00 -0.16027276391E+04  0.37053929136E+04  0.33408383317E+04 0.  0.
        2    1    3    3  502    0 -0.44177281444E+03 -0.14648817077E+04 -0.57956242358E+02  0.15311435476E+04  0.25500000920E-02 0. -1.
       -2    1    3    3    0  502  0.44177281444E+03  0.14648817077E+04 -0.15447713967E+04  0.21742493660E+04  0.25500000920E-02 0.  1.
</event>
<event>
 5   0  0.1654257E-06  0.3418162E+04  0.7818609E-02  0.8133463E-01
       -1   -1    0    0    0  501  0.00000000000E+00  0.00000000000E+00  0.20079404838E+04  0.20079404838E+04  0.50400001928E-02 0. -1.
        1   -1    0    0  501    0  0.00000000000E+00  0.00000000000E+00 -0.14547036654E+04  0.14547036654E+04  0.50400001928E-02 0.  1.
    10030    2    1    2    0    0  0.00000000000E+00  0.00000000000E+00  0.55323681844E+03  0.34626441492E+04  0.34181623026E+04 0.  0.
        3    1    3    3  502    0  0.50040139049E+03  0.67067223478E+03 -0.12329943652E+04  0.14901268110E+04  0.10100000352E+00 0.  1.
       -3    1    3    3    0  502 -0.50040139049E+03 -0.67067223478E+03  0.17862311836E+04  0.19725173382E+04  0.10100000352E+00 0. -1.
</event>
<event>
 5   0  0.4173467E-06  0.2170706E+04  0.7818609E-02  0.8530721E-01
        2   -1    0    0  501    0  0.00000000000E+00  0.00000000000E+00  0.24891631976E+04  0.24891631976E+04  0.25500000920E-02 0. -1.
       -2   -1    0    0    0  501  0.00000000000E+00  0.00000000000E+00 -0.47324776663E+03  0.47324776664E+03  0.25500000920E-02 0.  1.
    10030    2    1    2    0    0  0.00000000000E+00  0.00000000000E+00  0.20159154309E+04  0.29624109642E+04  0.21707058060E+04 0.  0.
        4    1    3    3  502    0  0.23988997896E+03 -0.98524697242E+02  0.24462579978E+04  0.24599662849E+04  0.12699999809E+01 0. -1.
       -4    1    3    3    0  502 -0.23988997896E+03  0.98524697242E+02 -0.43034256690E+03  0.50244467930E+03  0.12699999809E+01 0.  1.
</event>
<event>
 5   0  0.1550164E-06  0.3328068E+04  0.7818609E-02  0.8155790E-01
        1   -1    0    0  501    0  0.00000000000E+00  0.00000000000E+00  0.16067798402E+04  0.16067798402E+04  0.50400001928E-02 0.  1.
       -1   -1    0    0    0  501  0.00000000000E+00  0.00000000000E+00 -0.17233282481E+04  0.17233282481E+04  0.50400001928E-02 0. -1.
    10030    2    1    2    0    0  0.00000000000E+00  0.00000000000E+00 -0.11654840788E+03  0.33301080884E+04  0.33280679604E+04 0.  0.
        4    1    3    3  502    0  0.31034101717E+03 -0.16317356146E+04  0.42459309651E+02  0.16615285338E+04  0.12699999809E+01 0. -1.
       -4    1    3    3    0  502 -0.31034101717E+03  0.16317356146E+04 -0.15900771753E+03  0.16685795546E+04  0.12699999809E+01 0.  1.
</event>
<event>
 5   0  0.1571391E-06  0.3443326E+04  0.7818609E-02  0.8127354E-01
       -1   -1    0    0    0  501  0.00000000000E+00  0.00000000000E+00  0.17028366926E+04  0.17028366926E+04  0.50400001928E-02 0.  1.
        1   -1    0    0  501    0  0.00000000000E+00  0.00000000000E+00 -0.17406979130E+04  0.17406979130E+04  0.50400001928E-02 0. -1.
    10030    2    1    2    0    0  0.00000000000E+00  0.00000000000E+00 -0.37861220460E+02  0.34435346056E+04  0.34433264597E+04 0.  0.
        1    1    3    3  502    0  0.66657355572E+03 -0.41420294291E+03  0.15135588026E+04  0.17049177787E+04  0.50400001928E-02 0.  1.
       -1    1    3    3    0  502 -0.66657355572E+03  0.41420294291E+03 -0.15514200230E+04  0.17386168270E+04  0.50400001928E-02 0. -1.
</event>
<event>
 5   0  0.2101998E-06  0.1902528E+04  0.7818609E-02  0.8653599E-01
       -1   -1    0    0    0  501  0.00000000000E+00  0.00000000000E+00  0.10723281049E+04  0.10723281049E+04  0.50400001928E-02 0.  1.
        1   -1    0    0  501    0  0.00000000000E+00  0.00000000000E+00 -0.84386781376E+03  0.84386781378E+03  0.50400001928E-02 0. -1.
    10030    2    1    2    0    0  0.00000000000E+00  0.00000000000E+00  0.22846029115E+03  0.19161959187E+04  0.19025279746E+04 0.  0.
        5    1    3    3  502    0  0.76878037353E+03  0.55250442413E+03  0.20845753826E+02  0.94696411593E+03  0.46999998093E+01 0. -1.
       -5    1    3    3    0  502 -0.76878037353E+03 -0.55250442413E+03  0.20761453732E+03  0.96923180278E+03  0.46999998093E+01 0.  1.
</event>
<event>
 5   0  0.4173467E-06  0.3201970E+04  0.7818609E-02  0.8188297E-01
       -2   -1    0    0    0  501  0.00000000000E+00  0.00000000000E+00  0.11162710958E+04  0.11162710958E+04  0.25500000920E-02 0. -1.
        2   -1    0    0  501    0  0.00000000000E+00  0.00000000000E+00 -0.22961737802E+04  0.22961737802E+04  0.25500000920E-02 0.  1.
    10030    2    1    2    0    0  0.00000000000E+00  0.00000000000E+00 -0.11799026844E+04  0.34124448760E+04  0.32019696574E+04 0.  0.
        4    1    3    3  502    0  0.39225360408E+03 -0.12224203064E+04 -0.16093719427E+04  0.20587020082E+04  0.12699999809E+01 0.  1.
       -4    1    3    3    0  502 -0.39225360408E+03  0.12224203064E+04  0.42946925830E+03  0.13537428678E+04  0.12699999809E+01 0. -1.
</event>
<event>
 5   0  0.2722449E-06  0.3531152E+04  0.7818609E-02  0.8106447E-01
        2   -1    0    0  501    0  0.00000000000E+00  0.00000000000E+00  0.19411695560E+04  0.19411695560E+04  0.25500000920E-02 0.  1.
       -2   -1    0    0    0  501  0.00000000000E+00  0.00000000000E+00 -0.16058661541E+04  0.16058661541E+04  0.25500000920E-02 0. -1.
    10030    2    1    2    0    0  0.00000000000E+00  0.00000000000E+00  0.33530340196E+03  0.35470357101E+04  0.35311519306E+04 0.  0.
        2    1    3    3  502    0 -0.12543443302E+04 -0.11886046301E+04  0.53135471378E+03  0.18078989178E+04  0.25500000920E-02 0. -1.
       -2    1    3    3    0  502  0.12543443302E+04  0.11886046301E+04 -0.19605131182E+03  0.17391367922E+04  0.25500000920E-02 0.  1.
</event>
<event>
 5   0  0.2101998E-06  0.3195732E+04  0.7818609E-02  0.8189945E-01
       -1   -1    0    0    0  501  0.00000000000E+00  0.00000000000E+00  0.11422968932E+04  0.11422968933E+04  0.50400001928E-02 0.  1.
        1   -1    0    0  501    0  0.00000000000E+00  0.00000000000E+00 -0.22351239258E+04  0.22351239258E+04  0.50400001928E-02 0. -1.
    10030    2    1    2    0    0  0.00000000000E+00  0.00000000000E+00 -0.10928270326E+04  0.33774208191E+04  0.31957316011E+04 0.  0.
        5    1    3    3  502    0 -0.76351746827E+03 -0.13555819695E+04 -0.93124706636E+03  0.18132304291E+04  0.46999998093E+01 0.  1.
       -5    1    3    3    0  502  0.76351746827E+03  0.13555819695E+04 -0.16157996620E+03  0.15641903899E+04  0.46999998093E+01 0. -1.
</event>
<event>
 5   0  0.1571391E-06  0.3414428E+04  0.7818609E-02  0.8134374E-01
       -1   -1    0    0    0  501  0.00000000000E+00  0.00000000000E+00  0.18819829291E+04  0.18819829291E+04  0.50400001928E-02 0.  1.
        1   -1    0    0  501    0  0.00000000000E+00  0.00000000000E+00 -0.15486745086E+04  0.15486745086E+04  0.50400001928E-02 0. -1.
    10030    2    1    2    0    0  0.00000000000E+00  0.00000000000E+00  0.33330842054E+03  0.34306574377E+04  0.34144276170E+04 0.  0.
        1    1    3    3  502    0  0.56371178322E+03 -0.41572644429E+02  0.17852365467E+04  0.18725834526E+04  0.50400001928E-02 0.  1.
       -1    1    3    3    0  502 -0.56371178322E+03  0.41572644429E+02 -0.14519281262E+04  0.15580739851E+04  0.50400001928E-02 0. -1.
</event>
<event>
 5   0  0.4189587E-06  0.3436807E+04  0.7818609E-02  0.8128931E-01
        2   -1    0    0  501    0  0.00000000000E+00  0.00000000000E+00  0.26476963350E+04  0.26476963350E+04  0.25500000920E-02 0. -1.
       -2   -1    0    0    0  501  0.00000000000E+00  0.00000000000E+00 -0.11152754675E+04  0.11152754675E+04  0.25500000920E-02 0.  1.
    10030    2    1    2    0    0  0.00000000000E+00  0.00000000000E+00  0.15324208675E+04  0.37629718025E+04  0.34368071041E+04 0.  0.
        1    1    3    3  502    0  0.40396924053E+02  0.15017443763E+04 -0.14725841848E+03  0.15094877029E+04  0.50400001928E-02 0.  1.
       -1    1    3    3    0  502 -0.40396924053E+02 -0.15017443763E+04  0.16796792860E+04  0.22534840996E+04  0.50400001928E-02 0. -1.
</event>
<event>
 5   0  0.4173467E-06  0.1849764E+04  0.7818609E-02  0.8680274E-01
        2   -1    0    0  501    0  0.00000000000E+00  0.00000000000E+00  0.93133181502E+03  0.93133181502E+03  0.25500000920E-02 0. -1.
       -2   -1    0    0    0  501  0.00000000000E+00  0.00000000000E+00 -0.91847668833E+03  0.91847668834E+03  0.25500000920E-02 0.  1.
    10030    2    1    2    0    0  0.00000000000E+00  0.00000000000E+00  0.12855126689E+02  0.18498085034E+04  0.18497638349E+04 0.  0.
        4    1    3    3  502    0 -0.23836657734E+03 -0.13077604026E+03  0.89046471965E+03  0.93104781174E+03  0.12699999809E+01 0. -1.
       -4    1    3    3    0  502  0.23836657734E+03  0.13077604026E+03 -0.87760959297E+03  0.91876069162E+03  0.12699999809E+01 0.  1.
</event>
<event>
 5   0  0.2722449E-06  0.3548793E+04  0.7818609E-02  0.8102323E-01
        2   -1    0    0  501    0  0.00000000000E+00  0.00000000000E+00  0.20545380116E+04  0.20545380116E+04  0.25500000920E-02 0.  1.
       -2   -1    0    0    0  501  0.00000000000E+00  0.00000000000E+00 -0.15324532707E+04  0.15324532707E+04  0.25500000920E-02 0. -1.
    10030    2    1    2    0    0  0.00000000000E+00  0.00000000000E+00  0.52208474088E+03  0.35869912824E+04  0.35487933137E+04 0.  0.
        2    1    3    3  502    0  0.45914959539E+03  0.14176658005E+04  0.12346805298E+04  0.19352081758E+04  0.25500000920E-02 0.  1.
       -2    1    3    3    0  502 -0.45914959539E+03 -0.14176658005E+04 -0.71259578889E+03  0.16517831066E+04  0.25500000920E-02 0. -1.
</event>
<event>
 5   0  0.1571391E-06  0.3391070E+04  0.7818609E-02  0.8140102E-01
        1   -1    0    0  501    0  0.00000000000E+00  0.00000000000E+00  0.28370678041E+04  0.28370678041E+04  0.50400001928E-02 0.  1.
       -1   -1    0    0    0  501  0.00000000000E+00  0.00000000000E+00 -0.10133134159E+04  0.10133134159E+04  0.50400001928E-02 0. -1.
    10030    2    1    2    0    0  0.00000000000E+00  0.00000000000E+00  0.18237543882E+04  0.38503812200E+04  0.33910699596E+04 0.  0.
        1    1    3    3  502    0  0.10158073063E+04 -0.61347795116E+03 -0.46319551287E+03  0.12738798072E+04  0.50400001928E-02 0.  1.
       -1    1    3    3    0  502 -0.10158073063E+04  0.61347795116E+03  0.22869499011E+04  0.25765014128E+04  0.50400001928E-02 0. -1.
</event>
<event>
 5   0  0.1654257E-06  0.2801849E+04  0.7818609E-02  0.8302695E-01
        1   -1    0    0  501    0  0.00000000000E+00  0.00000000000E+00  0.89440191337E+03  0.89440191338E+03  0.50400001928E-02 0. -1.
       -1   -1    0    0    0  501  0.00000000000E+00  0.00000000000E+00 -0.21943030079E+04  0.21943030079E+04  0.50400001928E-02 0.  1.
    10030    2    1    2    0    0  0.00000000000E+00  0.00000000000E+00 -0.12999010945E+04  0.30887049213E+04  0.28018485389E+04 0.  0.
        3    1    3    3  502    0 -0.56413795648E+03 -0.57894202376E+03 -0.19112804043E+04  0.20751911466E+04  0.10100000352E+00 0.  1.
       -3    1    3    3    0  502  0.56413795648E+03  0.57894202376E+03  0.61137930979E+03  0.10135137747E+04  0.10100000352E+00 0. -1.
</event>
<event>
 5   0  0.1571391E-06  0.3286861E+04  0.7818609E-02  0.8166247E-01
        1   -1    0    0  501    0  0.00000000000E+00  0.00000000000E+00  0.16308824262E+04  0.16308824262E+04  0.50400001928E-02 0. -1.
       -1   -1    0    0    0  501  0.00000000000E+00  0.00000000000E+00 -0.16560747129E+04  0.16560747129E+04  0.50400001928E-02 0.  1.
    10030    2    1    2    0    0  0.00000000000E+00  0.00000000000E+00 -0.25192286634E+02  0.32869571391E+04  0.32868605968E+04 0.  0.
        1    1    3    3  502    0 -0.31345659962E+03 -0.57766210610E+03 -0.15189320570E+04  0.16550236079E+04  0.50400001928E-02 0.  1.
       -1    1    3    3    0  502  0.31345659962E+03  0.57766210610E+03  0.14937397704E+04  0.16319335312E+04  0.50400001928E-02 0. -1.
</event>
<event>
 5   0  0.4400349E-06  0.3419137E+04  0.7818609E-02  0.8133225E-01
       -2   -1    0    0    0  501  0.00000000000E+00  0.00000000000E+00  0.14564703221E+04  0.14564703221E+04  0.25500000920E-02 0. -1.
        2   -1    0    0  501    0  0.00000000000E+00  0.00000000000E+00 -0.20066487966E+04  0.20066487966E+04  0.25500000920E-02 0.  1.
    10030    2    1    2    0    0  0.00000000000E+00  0.00000000000E+00 -0.55017847456E+03  0.34631191187E+04  0.34191369783E+04 0.  0.
        5    1    3    3  502    0 -0.14897449721E+04 -0.80204188149E+03 -0.52317064951E+03  0.17709717333E+04  0.46999998093E+01 0. -1.
       -5    1    3    3    0  502  0.14897449721E+04  0.80204188149E+03 -0.27007825043E+02  0.16921473855E+04  0.46999998093E+01 0.  1.
</event>
<event>
 5   0  0.4189587E-06  0.2416250E+04  0.7818609E-02  0.8433445E-01
        2   -1    0    0  501    0  0.00000000000E+00  0.00000000000E+00  0.10038696127E+04  0.10038696127E+04  0.25500000920E-02 0. -1.
       -2   -1    0    0    0  501  0.00000000000E+00  0.00000000000E+00 -0.14539399950E+04  0.14539399950E+04  0.25500000920E-02 0.  1.
    10030    2    1    2    0    0  0.00000000000E+00  0.00000000000E+00 -0.45007038229E+03  0.24578096078E+04  0.24162501359E+04 0.  0.
        1    1    3    3  502    0 -0.10455530690E+04 -0.60488238581E+03 -0.20223858247E+03  0.12247303233E+04  0.50400001928E-02 0.  1.
       -1    1    3    3    0  502  0.10455530690E+04  0.60488238581E+03 -0.24783179982E+03  0.12330792844E+04  0.50400001928E-02 0. -1.
</event>
<event>
 5   0  0.4189587E-06  0.3175424E+04  0.7818609E-02  0.8195338E-01
        2   -1    0    0  501    0  0.00000000000E+00  0.00000000000E+00  0.25129752035E+04  0.25129752035E+04  0.25500000920E-02 0. -1.
       -2   -1    0    0    0  501  0.00000000000E+00  0.00000000000E+00 -0.10031256777E+04  0.10031256777E+04  0.25500000920E-02 0.  1.
    10030    2    1    2    0    0  0.00000000000E+00  0.00000000000E+00  0.15098495258E+04  0.35161008812E+04  0.31754243521E+04 0.  0.
        1    1    3    3  502    0  0.26034815313E+03 -0.10022555461E+04 -0.57774853124E+03  0.11857869564E+04  0.50400001928E-02 0.  1.
       -1    1    3    3    0  502 -0.26034815313E+03  0.10022555461E+04  0.20875980570E+04  0.23303139248E+04  0.50400001928E-02 0. -1.
</event>
<event>
 5   0  0.1654257E-06  0.1985085E+04  0.7818609E-02  0.8613626E-01
       -1   -1    0    0    0  501  0.00000000000E+00  0.00000000000E+00  0.91817238199E+03  0.91817238201E+03  0.50400001928E-02 0.  1.
        1   -1    0    0  501    0  0.00000000000E+00  0.00000000000E+00 -0.10729359748E+04  0.10729359748E+04  0.50400001928E-02 0. -1.
    10030    2    1    2    0    0  0.00000000000E+00  0.00000000000E+00 -0.15476359281E+03  0.19911083568E+04  0.19850845622E+04 0.  0.
        3    1    3    3  502    0 -0.47735190014E+03  0.12761746502E+03  0.78603759375E+03  0.92844287004E+03  0.10100000352E+00 0.  1.
       -3    1    3    3    0  502  0.47735190014E+03 -0.12761746502E+03 -0.94080118656E+03  0.10626654868E+04  0.10100000352E+00 0. -1.
</event>
<event>
 5   0  0.2722449E-06  0.3323709E+04  0.7818609E-02  0.8156889E-01
        2   -1    0    0  501    0  0.00000000000E+00  0.00000000000E+00  0.21179130769E+04  0.21179130769E+04  0.25500000920E-02 0.  1.
       -2   -1    0    0    0  501  0.00000000000E+00  0.00000000000E+00 -0.13040006721E+04  0.13040006721E+04  0.25500000920E-02 0. -1.
    10030    2    1    2    0    0  0.00000000000E+00  0.00000000000E+00  0.81391240480E+03  0.34219137490E+04  0.33237088174E+04 0.  0.
        2    1    3    3  502    0  0.48677272807E+03  0.12112274474E+04 -0.65189673945E+03  0.14591055400E+04  0.25500000920E-02 0. -1.
       -2    1    3    3    0  502 -0.48677272807E+03 -0.12112274474E+04  0.14658091442E+04  0.19628082090E+04  0.25500000920E-02 0.  1.
</event>
<event>
 5   0  0.4173467E-06  0.3390918E+04  0.7818609E-02  0.8140139E-01
        2   -1    0    0  501    0  0.00000000000E+00  0.00000000000E+00  0.19068259416E+04  0.19068259416E+04  0.25500000920E-02 0.  1.
       -2   -1    0    0    0  501  0.00000000000E+00  0.00000000000E+00 -0.15075216798E+04  0.15075216798E+04  0.25500000920E-02 0. -1.
    10030    2    1    2    0    0  0.00000000000E+00  0.00000000000E+00  0.39930426176E+03  0.34143476214E+04  0.33909181333E+04 0.  0.
        4    1    3    3  502    0 -0.71634068212E+03 -0.15007743202E+04  0.53225599281E+03  0.17460714727E+04  0.12699999809E+01 0.  1.
       -4    1    3    3    0  502  0.71634068212E+03  0.15007743202E+04 -0.13295173105E+03  0.16682761488E+04  0.12699999809E+01 0. -1.
</event>
<event>
 5   0  0.4173467E-06  0.3363546E+04  0.7818609E-02  0.8146912E-01
        2   -1    0    0  501    0  0.00000000000E+00  0.00000000000E+00  0.25914650334E+04  0.25914650334E+04  0.25500000920E-02 0.  1.
       -2   -1    0    0    0  501  0.00000000000E+00  0.00000000000E+00 -0.10914139085E+04  0.10914139085E+04  0.25500000920E-02 0. -1.
    10030    2    1    2    0    0  0.00000000000E+00  0.00000000000E+00  0.15000511248E+04  0.36828789419E+04  0.33635463314E+04 0.  0.
        4    1    3    3  502    0  0.16373125830E+04  0.27682214517E+02  0.33050437613E+03  0.16705668364E+04  0.12699999809E+01 0.  1.
       -4    1    3    3    0  502 -0.16373125830E+04 -0.27682214517E+02  0.11695467487E+04  0.20123121055E+04  0.12699999809E+01 0. -1.
</event>
<event>
 5   0  0.2101998E-06  0.2328986E+04  0.7818609E-02  0.8466579E-01
        1   -1    0    0  501    0  0.00000000000E+00  0.00000000000E+00  0.17146181629E+04  0.17146181629E+04  0.50400001928E-02 0.  1.
       -1   -1    0    0    0  501  0.00000000000E+00  0.00000000000E+00 -0.79087252564E+03  0.79087252566E+03  0.50400001928E-02 0. -1.
    10030    2    1    2    0    0  0.00000000000E+00  0.00000000000E+00  0.92374563722E+03  0.25054906885E+04  0.23289863864E+04 0.  0.
        5    1    3    3  502    0 -0.86135898375E+03  0.44676864122E+03  0.11544657364E+04  0.15080963975E+04  0.46999998093E+01 0.  1.
       -5    1    3    3    0  502  0.86135898375E+03 -0.44676864122E+03 -0.23072009914E+03  0.99739429105E+03  0.46999998093E+01 0. -1.
</event>
<event>
 5   0  0.4189587E-06  0.3489075E+04  0.7818609E-02  0.8116384E-01
       -2   -1    0    0    0  501  0.00000000000E+00  0.00000000000E+00  0.15156112286E+04  0.15156112286E+04  0.25500000920E-02 0. -1.
        2   -1    0    0  501    0  0.00000000000E+00  0.00000000000E+00 -0.20080418042E+04  0.20080418042E+04  0.25500000920E-02 0.  1.
    10030    2    1    2    0    0  0.00000000000E+00  0.00000000000E+00 -0.49243057554E+03  0.35236530328E+04  0.34890747805E+04 0.  0.
        1    1    3    3  502    0  0.14481694500E+04  0.96334565144E+03 -0.11004166014E+03  0.17427962495E+04  0.50400001928E-02 0. -1.
       -1    1    3    3    0  502 -0.14481694500E+04 -0.96334565144E+03 -0.38238891541E+03  0.17808567834E+04  0.50400001928E-02 0.  1.
</event>
<event>
 5   0  0.4344980E-06  0.3592327E+04  0.7818609E-02  0.8092252E-01
        2   -1    0    0  501    0  0.00000000000E+00  0.00000000000E+00  0.22645944629E+04  0.22645944629E+04  0.25500000920E-02 0. -1.
       -2   -1    0    0    0  501  0.00000000000E+00  0.00000000000E+00 -0.14246274891E+04  0.14246274891E+04  0.25500000920E-02 0.  1.
    10030    2    1    2    0    0  0.00000000000E+00  0.00000000000E+00  0.83996697378E+03  0.36892219520E+04  0.35923271140E+04 0.  0.
        3    1    3    3  502    0  0.15955563702E+04 -0.21971914056E+02  0.12667974556E+04  0.20374147097E+04  0.10100000352E+00 0. -1.
       -3    1    3    3    0  502 -0.15955563702E+04  0.21971914056E+02 -0.42683048186E+03  0.16518072423E+04  0.10100000352E+00 0.  1.
</event>
<event>
 5   0  0.1550164E-06  0.3386686E+04  0.7818609E-02  0.8141182E-01
        1   -1    0    0  501    0  0.00000000000E+00  0.00000000000E+00  0.19355337803E+04  0.19355337803E+04  0.50400001928E-02 0. -1.
       -1   -1    0    0    0  501  0.00000000000E+00  0.00000000000E+00 -0.14814573850E+04  0.14814573850E+04  0.50400001928E-02 0.  1.
    10030    2    1    2    0    0  0.00000000000E+00  0.00000000000E+00  0.45407639534E+03  0.34169911653E+04  0.33866861754E+04 0.  0.
        4    1    3    3  502    0 -0.11530275047E+04  0.70283580564E+03 -0.80384756053E+03  0.15715034552E+04  0.12699999809E+01 0.  1.
       -4    1    3    3    0  502  0.11530275047E+04 -0.70283580564E+03  0.12579239559E+04  0.18454877101E+04  0.12699999809E+01 0. -1.
</event>
<event>
 5   0  0.4344980E-06  0.3186621E+04  0.7818609E-02  0.8192360E-01
        2   -1    0    0  501    0  0.00000000000E+00  0.00000000000E+00  0.30700265373E+04  0.30700265373E+04  0.25500000920E-02 0. -1.
       -2   -1    0    0    0  501  0.00000000000E+00  0.00000000000E+00 -0.82691079374E+03  0.82691079374E+03  0.25500000920E-02 0.  1.
    10030    2    1    2    0    0  0.00000000000E+00  0.00000000000E+00  0.22431157435E+04  0.38969373310E+04  0.31866208314E+04 0.  0.
        3    1    3    3  502    0  0.93044296170E+03  0.18403098189E+03  0.26871862210E+04  0.28496598576E+04  0.10100000352E+00 0. -1.
       -3    1    3    3    0  502 -0.93044296170E+03 -0.18403098189E+03 -0.44407047745E+03  0.10472774735E+04  0.10100000352E+00 0.  1.
</event>
<event>
 5   0  0.2722449E-06  0.3393535E+04  0.7818609E-02  0.8139495E-01
       -2   -1    0    0    0  501  0.00000000000E+00  0.00000000000E+00  0.15685243240E+04  0.15685243240E+04  0.25500000920E-02 0.  1.
        2   -1    0    0  501    0  0.00000000000E+00  0.00000000000E+00 -0.18354959206E+04  0.18354959206E+04  0.25500000920E-02 0. -1.
    10030    2    1    2    0    0  0.00000000000E+00  0.00000000000E+00 -0.26697159653E+03  0.34040202446E+04  0.33935350289E+04 0.  0.
        2    1    3    3  502    0  0.10891231485E+04  0.12595299593E+04  0.19373531572E+03  0.16763467194E+04  0.25500000920E-02 0.  1.
       -2    1    3    3    0  502 -0.10891231485E+04 -0.12595299593E+04 -0.46070691225E+03  0.17276735253E+04  0.25500000920E-02 0. -1.
</event>
<event>
 5   0  0.2722449E-06  0.2007137E+04  0.7818609E-02  0.8603291E-01
        2   -1    0    0  501    0  0.00000000000E+00  0.00000000000E+00  0.10848037170E+04  0.10848037170E+04  0.25500000920E-02 0. -1.
       -2   -1    0    0    0  501  0.00000000000E+00  0.00000000000E+00 -0.92841614689E+03  0.92841614689E+03  0.25500000920E-02 0.  1.
    10030    2    1    2    0    0  0.00000000000E+00  0.00000000000E+00  0.15638757010E+03  0.20132198639E+04  0.20071365545E+04 0.  0.
        2    1    3    3  502    0 -0.78513064629E+03  0.60831303759E+03  0.22241554182E+03  0.10178131246E+04  0.25500000920E-02 0. -1.
       -2    1    3    3    0  502  0.78513064629E+03 -0.60831303759E+03 -0.66027971723E+02  0.99540673923E+03  0.25500000920E-02 0.  1.
</event>
<event>
 5   0  0.1654257E-06  0.2378912E+04  0.7818609E-02  0.8447441E-01
       -1   -1    0    0    0  501  0.00000000000E+00  0.00000000000E+00  0.96642339487E+03  0.96642339488E+03  0.50400001928E-02 0.  1.
        1   -1    0    0  501    0  0.00000000000E+00  0.00000000000E+00 -0.14639598493E+04  0.14639598494E+04  0.50400001928E-02 0. -1.
    10030    2    1    2    0    0  0.00000000000E+00  0.00000000000E+00 -0.49753645448E+03  0.24303832442E+04  0.23789115558E+04 0.  0.
        3    1    3    3  502    0  0.39830522192E+03 -0.34271036181E+03 -0.13389591840E+04  0.14383703099E+04  0.10100000352E+00 0. -1.
       -3    1    3    3    0  502 -0.39830522192E+03  0.34271036181E+03  0.84142272951E+03  0.99201293431E+03  0.10100000352E+00 0.  1.
</event>
<event>
 5   0  0.1562618E-06  0.1687612E+04  0.7818609E-02  0.8768461E-01
        1   -1    0    0  501    0  0.00000000000E+00  0.00000000000E+00  0.86636386548E+03  0.86636386549E+03  0.50400001928E-02 0. -1.
       -1   -1    0    0    0  501  0.00000000000E+00  0.00000000000E+00 -0.82183547439E+03  0.82183547441E+03  0.50400001928E-02 0.  1.
    10030    2    1    2    0    0  0.00000000000E+00  0.00000000000E+00  0.44528391087E+02  0.16881993399E+04  0.16876119914E+04 0.  0.
        2    1    3    3  502    0 -0.17476070826E+03  0.69307045621E+03 -0.42635659584E+03  0.83226672962E+03  0.25500000920E-02 0.  1.
       -2    1    3    3    0  502  0.17476070826E+03 -0.69307045621E+03  0.47088498692E+03  0.85593261028E+03  0.25500000920E-02 0. -1.
</event>
<event>
 5   0  0.4173467E-06  0.2050595E+04  0.7818609E-02  0.8583325E-01
       -2   -1    0    0    0  501  0.00000000000E+00  0.00000000000E+00  0.69449431563E+03  0.69449431564E+03  0.25500000920E-02 0. -1.
        2   -1    0    0  501    0  0.00000000000E+00  0.00000000000E+00 -0.15136689615E+04  0.15136689615E+04  0.25500000920E-02 0.  1.
    10030    2    1    2    0    0  0.00000000000E+00  0.00000000000E+00 -0.81917464589E+03  0.22081632772E+04  0.20505945377E+04 0.  0.
        4    1    3    3  502    0 -0.92359555162E+03 -0.24243340224E+03 -0.81168334770E+03  0.12532494434E+04  0.12699999809E+01 0. -1.
       -4    1    3    3    0  502  0.92359555162E+03  0.24243340224E+03 -0.74912981889E+01  0.95491383378E+03  0.12699999809E+01 0.  1.
</event>
<event>
 5   0  0.4400349E-06  0.3372792E+04  0.7818609E-02  0.8144617E-01
        2   -1    0    0  501    0  0.00000000000E+00  0.00000000000E+00  0.15444241542E+04  0.15444241542E+04  0.25500000920E-02 0. -1.
       -2   -1    0    0    0  501  0.00000000000E+00  0.00000000000E+00 -0.18414186474E+04  0.18414186474E+04  0.25500000920E-02 0.  1.
    10030    2    1    2    0    0  0.00000000000E+00  0.00000000000E+00 -0.29699449319E+03  0.33858428016E+04  0.33727919812E+04 0.  0.
        5    1    3    3  502    0  0.11225211115E+04  0.12543133066E+04 -0.25162659730E+03  0.17019675530E+04  0.46999998093E+01 0.  1.
       -5    1    3    3    0  502 -0.11225211115E+04 -0.12543133066E+04 -0.45367895894E+02  0.16838752486E+04  0.46999998093E+01 0. -1.
</event>
<event>
 5   0  0.2101998E-06  0.3274606E+04  0.7818609E-02  0.8169387E-01
        1   -1    0    0  501    0  0.00000000000E+00  0.00000000000E+00  0.14324363179E+04  0.14324363179E+04  0.50400001928E-02 0.  1.
       -1   -1    0    0    0  501  0.00000000000E+00  0.00000000000E+00 -0.18714700157E+04  0.18714700157E+04  0.50400001928E-02 0. -1.
    10030    2    1    2    0    0  0.00000000000E+00  0.00000000000E+00 -0.43903369775E+03  0.33039063336E+04  0.32746063082E+04 0.  0.
        5    1    3    3  502    0 -0.28839845603E+03 -0.14661757663E+04 -0.89475424755E+03  0.17416808837E+04  0.46999998093E+01 0.  1.
       -5    1    3    3    0  502  0.28839845603E+03  0.14661757663E+04  0.45572054980E+03  0.15622254500E+04  0.46999998093E+01 0. -1.
</event>
<event>
 5   0  0.4344980E-06  0.3446527E+04  0.7818609E-02  0.8126581E-01
        2   -1    0    0  501    0  0.00000000000E+00  0.00000000000E+00  0.12644509797E+04  0.12644509797E+04  0.25500000920E-02 0.  1.
       -2   -1    0    0    0  501  0.00000000000E+00  0.00000000000E+00 -0.23485581241E+04  0.23485581241E+04  0.25500000920E-02 0. -1.
    10030    2    1    2    0    0  0.00000000000E+00  0.00000000000E+00 -0.10841071444E+04  0.36130091039E+04  0.34465267276E+04 0.  0.
        3    1    3    3  502    0  0.21064387444E+03  0.15138167785E+04  0.29240234038E+03  0.15561205671E+04  0.10100000352E+00 0.  1.
       -3    1    3    3    0  502 -0.21064387444E+03 -0.15138167785E+04 -0.13765094848E+04  0.20568885367E+04  0.10100000352E+00 0. -1.
</event>
<event>
 5   0  0.4400349E-06  0.3399967E+04  0.7818609E-02  0.8137914E-01
        2   -1    0    0  501    0  0.00000000000E+00  0.00000000000E+00  0.25710073148E+04  0.25710073148E+04  0.25500000920E-02 0.  1.
       -2   -1    0    0    0  501  0.00000000000E+00  0.00000000000E+00 -0.11240515116E+04  0.11240515116E+04  0.25500000920E-02 0. -1.
    10030    2    1    2    0    0  0.00000000000E+00  0.00000000000E+00  0.14469558031E+04  0.36950588264E+04  0.33999674461E+04 0.  0.
        5    1    3    3  502    0 -0.11942231130E+04 -0.11090310819E+04  0.12489774733E+04  0.20533108880E+04  0.46999998093E+01 0.  1.
       -5    1    3    3    0  502  0.11942231130E+04  0.11090310819E+04  0.19797832987E+03  0.16417479384E+04  0.46999998093E+01 0. -1.
</event>
<event>
 5   0  0.1571391E-06  0.2367965E+04  0.7818609E-02  0.8451595E-01
       -1   -1    0    0    0  501  0.00000000000E+00  0.00000000000E+00  0.96711476542E+03  0.96711476543E+03  0.50400001928E-02 0. -1.
        1   -1    0    0  501    0  0.00000000000E+00  0.00000000000E+00 -0.14494810269E+04  0.14494810269E+04  0.50400001928E-02 0.  1.
    10030    2    1    2    0    0  0.00000000000E+00  0.00000000000E+00 -0.48236626146E+03  0.24165957923E+04  0.23679649519E+04 0.  0.
        1    1    3    3  502    0 -0.10777425655E+04 -0.30824379613E+03  0.14778905605E+03  0.11306568359E+04  0.50400001928E-02 0. -1.
       -1    1    3    3    0  502  0.10777425655E+04  0.30824379613E+03 -0.63015531750E+03  0.12859389564E+04  0.50400001928E-02 0.  1.
</event>
<event>
 5   0  0.1654257E-06  0.2628162E+04  0.7818609E-02  0.8358698E-01
        1   -1    0    0  501    0  0.00000000000E+00  0.00000000000E+00  0.18346925034E+04  0.18346925034E+04  0.50400001928E-02 0.  1.
       -1   -1    0    0    0  501  0.00000000000E+00  0.00000000000E+00 -0.94119762604E+03  0.94119762606E+03  0.50400001928E-02 0. -1.
    10030    2    1    2    0    0  0.00000000000E+00  0.00000000000E+00  0.89349487738E+03  0.27758901295E+04  0.26281615086E+04 0.  0.
        3    1    3    3  502    0 -0.44380098311E+03 -0.63889632628E+03  0.15653631479E+04  0.17480016085E+04  0.10100000352E+00 0.  1.
       -3    1    3    3    0  502  0.44380098311E+03  0.63889632628E+03 -0.67186827054E+03  0.10278885210E+04  0.10100000352E+00 0. -1.
</event>
<event>
 5   0  0.2722449E-06  0.1816715E+04  0.7818609E-02  0.8697461E-01
        2   -1    0    0  501    0  0.00000000000E+00  0.00000000000E+00  0.10189095162E+04  0.10189095162E+04  0.25500000920E-02 0.  1.
       -2   -1    0    0    0  501  0.00000000000E+00  0.00000000000E+00 -0.80980083907E+03  0.80980083907E+03  0.25500000920E-02 0. -1.
    10030    2    1    2    0    0  0.00000000000E+00  0.00000000000E+00  0.20910867712E+03  0.18287103553E+04  0.18167154771E+04 0.  0.
        2    1    3    3  502    0  0.10535305788E+03 -0.90033111077E+03  0.45701178677E+02  0.90762545886E+03  0.25500000920E-02 0. -1.
       -2    1    3    3    0  502 -0.10535305788E+03  0.90033111077E+03  0.16340749845E+03  0.92108489640E+03  0.25500000920E-02 0.  1.
</event>
<event>
 5   0  0.4189587E-06  0.1884340E+04  0.7818609E-02  0.8662691E-01
       -2   -1    0    0    0  501  0.00000000000E+00  0.00000000000E+00  0.17818427335E+04  0.17818427335E+04  0.25500000920E-02 0. -1.
        2   -1    0    0  501    0  0.00000000000E+00  0.00000000000E+00 -0.49818355442E+03  0.49818355442E+03  0.25500000920E-02 0.  1.
    10030    2    1    2    0    0  0.00000000000E+00  0.00000000000E+00  0.12836591791E+04  0.22800262879E+04  0.18843404643E+04 0.  0.
        1    1    3    3  502    0 -0.41090805880E+02 -0.93094328429E+03  0.47355491999E+03  0.10452741818E+04  0.50400001928E-02 0.  1.
       -1    1    3    3    0  502  0.41090805880E+02  0.93094328429E+03  0.81010425906E+03  0.12347521061E+04  0.50400001928E-02 0. -1.
</event>
<event>
 5   0  0.1571391E-06  0.3395639E+04  0.7818609E-02  0.8138978E-01
       -1   -1    0    0    0  501  0.00000000000E+00  0.00000000000E+00  0.27852975487E+04  0.27852975487E+04  0.50400001928E-02 0.  1.
        1   -1    0    0  501    0  0.00000000000E+00  0.00000000000E+00 -0.10349308443E+04  0.10349308443E+04  0.50400001928E-02 0. -1.
    10030    2    1    2    0    0  0.00000000000E+00  0.00000000000E+00  0.17503667043E+04  0.38202283930E+04  0.33956385813E+04 0.  0.
        1    1    3    3  502    0  0.92476980392E+03  0.73462456789E+03  0.22474173106E+04  0.25388495453E+04  0.50400001928E-02 0.  1.
       -1    1    3    3    0  502 -0.92476980392E+03 -0.73462456789E+03 -0.49705060626E+03  0.12813788476E+04  0.50400001928E-02 0. -1.
</event>
<event>
 5   0  0.4173467E-06  0.3312927E+04  0.7818609E-02  0.8159614E-01
       -2   -1    0    0    0  501  0.00000000000E+00  0.00000000000E+00  0.91632419888E+03  0.91632419888E+03  0.25500000920E-02 0.  1.
        2   -1    0    0  501    0  0.00000000000E+00  0.00000000000E+00 -0.29944334087E+04  0.29944334087E+04  0.25500000920E-02 0. -1.
    10030    2    1    2    0    0  0.00000000000E+00  0.00000000000E+00 -0.20781092098E+04  0.39107576076E+04  0.33129272822E+04 0.  0.
        4    1    3    3  502    0 -0.15958423730E+04  0.42560130043E+03 -0.88964050977E+03  0.18759827280E+04  0.12699999809E+01 0.  1.
       -4    1    3    3    0  502  0.15958423730E+04 -0.42560130043E+03 -0.11884687000E+04  0.20347748795E+04  0.12699999809E+01 0. -1.
</event>
<event>
 5   0  0.4173467E-06  0.2365824E+04  0.7818609E-02  0.8452410E-01
       -2   -1    0    0    0  501  0.00000000000E+00  0.00000000000E+00  0.12362687984E+04  0.12362687984E+04  0.25500000920E-02 0. -1.
        2   -1    0    0  501    0  0.00000000000E+00  0.00000000000E+00 -0.11318580797E+04  0.11318580797E+04  0.25500000920E-02 0.  1.
    10030    2    1    2    0    0  0.00000000000E+00  0.00000000000E+00  0.10441071872E+03  0.23681268780E+04  0.23658240240E+04 0.  0.
        4    1    3    3  502    0  0.60479438415E+03  0.10793779202E+03  0.10640564738E+04  0.12286759567E+04  0.12699999809E+01 0. -1.
       -4    1    3    3    0  502 -0.60479438415E+03 -0.10793779202E+03 -0.95964575512E+03  0.11394509214E+04  0.12699999809E+01 0.  1.
</event>
<event>
 5   0  0.4344980E-06  0.3356485E+04  0.7818609E-02  0.8148670E-01
       -2   -1    0    0    0  501  0.00000000000E+00  0.00000000000E+00  0.11860110958E+04  0.11860110958E+04  0.25500000920E-02 0.  1.
        2   -1    0    0  501    0  0.00000000000E+00  0.00000000000E+00 -0.23747648307E+04  0.23747648307E+04  0.25500000920E-02 0. -1.
    10030    2    1    2    0    0  0.00000000000E+00  0.00000000000E+00 -0.11887537349E+04  0.35607759265E+04  0.33564847320E+04 0.  0.
        3    1    3    3  502    0 -0.15096004309E+04  0.69807309612E+03 -0.35645465873E+03  0.17009583894E+04  0.10100000352E+00 0. -1.
       -3    1    3    3    0  502  0.15096004309E+04 -0.69807309612E+03 -0.83229907621E+03  0.18598175370E+04  0.10100000352E+00 0.  1.
</event>
<event>
 5   0  0.4189587E-06  0.3543486E+04  0.7818609E-02  0.8103561E-01
        2   -1    0    0  501    0  0.00000000000E+00  0.00000000000E+00  0.20757496477E+04  0.20757496477E+04  0.25500000920E-02 0. -1.
       -2   -1    0    0    0  501  0.00000000000E+00  0.00000000000E+00 -0.15122597883E+04  0.15122597883E+04  0.25500000920E-02 0.  1.
    10030    2    1    2    0    0  0.00000000000E+00  0.00000000000E+00  0.56348985942E+03  0.35880094360E+04  0.35434856979E+04 0.  0.
        1    1    3    3  502    0 -0.48181434705E+03  0.58451502653E+03  0.19035155181E+04  0.20487006148E+04  0.50400001928E-02 0. -1.
       -1    1    3    3    0  502  0.48181434705E+03 -0.58451502653E+03 -0.13400256587E+04  0.15393088213E+04  0.50400001928E-02 0.  1.
</event>
<event>
 5   0  0.1550164E-06  0.3385659E+04  0.7818609E-02  0.8141435E-01
        1   -1    0    0  501    0  0.00000000000E+00  0.00000000000E+00  0.15400550907E+04  0.15400550907E+04  0.50400001928E-02 0.  1.
       -1   -1    0    0    0  501  0.00000000000E+00  0.00000000000E+00 -0.18607592106E+04  0.18607592106E+04  0.50400001928E-02 0. -1.
    10030    2    1    2    0    0  0.00000000000E+00  0.00000000000E+00 -0.32070411986E+03  0.34008143013E+04  0.33856589874E+04 0.  0.
        4    1    3    3  502    0  0.50368604980E+02  0.16342450375E+04  0.28021845139E+03  0.16588604017E+04  0.12699999809E+01 0. -1.
       -4    1    3    3    0  502 -0.50368604980E+02 -0.16342450375E+04 -0.60092257125E+03  0.17419538996E+04  0.12699999809E+01 0.  1.
</event>
<event>
 5   0  0.1571391E-06  0.2017606E+04  0.7818609E-02  0.8598433E-01
        1   -1    0    0  501    0  0.00000000000E+00  0.00000000000E+00  0.11665706339E+04  0.11665706339E+04  0.50400001928E-02 0.  1.
       -1   -1    0    0    0  501  0.00000000000E+00  0.00000000000E+00 -0.87237218148E+03  0.87237218150E+03  0.50400001928E-02 0. -1.
    10030    2    1    2    0    0  0.00000000000E+00  0.00000000000E+00  0.29419845242E+03  0.20389428154E+04  0.20176062736E+04 0.  0.
        1    1    3    3  502    0 -0.63198267991E+03  0.65541961317E+03  0.58609707445E+03  0.10828142767E+04  0.50400001928E-02 0.  1.
       -1    1    3    3    0  502  0.63198267991E+03 -0.65541961317E+03 -0.29189862203E+03  0.95612853875E+03  0.50400001928E-02 0. -1.
</event>
<event>
 5   0  0.1571391E-06  0.3416674E+04  0.7818609E-02  0.8133826E-01
        1   -1    0    0  501    0  0.00000000000E+00  0.00000000000E+00  0.17187199290E+04  0.17187199290E+04  0.50400001928E-02 0.  1.
       -1   -1    0    0    0  501  0.00000000000E+00  0.00000000000E+00 -0.16980167430E+04  0.16980167430E+04  0.50400001928E-02 0. -1.
    10030    2    1    2    0    0  0.00000000000E+00  0.00000000000E+00  0.20703185981E+02  0.34167366720E+04  0.34166739475E+04 0.  0.
        1    1    3    3  502    0  0.51492098844E+03 -0.34213062414E+03 -0.15822284992E+04  0.16987183439E+04  0.50400001928E-02 0. -1.
       -1    1    3    3    0  502 -0.51492098844E+03  0.34213062414E+03  0.16029316852E+04  0.17180183281E+04  0.50400001928E-02 0.  1.
</event>
<event>
 5   0  0.4344980E-06  0.2449976E+04  0.7818609E-02  0.8421027E-01
       -2   -1    0    0    0  501  0.00000000000E+00  0.00000000000E+00  0.66928933536E+03  0.66928933537E+03  0.25500000920E-02 0.  1.
        2   -1    0    0  501    0  0.00000000000E+00  0.00000000000E+00 -0.22420729091E+04  0.22420729091E+04  0.25500000920E-02 0. -1.
    10030    2    1    2    0    0  0.00000000000E+00  0.00000000000E+00 -0.15727835738E+04  0.29113622445E+04  0.24499759078E+04 0.  0.
        3    1    3    3  502    0 -0.65539885071E+03 -0.48573548252E+02  0.44206528997E+03  0.79204089156E+03  0.10100000352E+00 0.  1.
       -3    1    3    3    0  502  0.65539885071E+03  0.48573548252E+02 -0.20148488637E+04  0.21193213529E+04  0.10100000352E+00 0. -1.
</event>
<event>
 5   0  0.4173467E-06  0.2500447E+04  0.7818609E-02  0.8402826E-01
        2   -1    0    0  501    0  0.00000000000E+00  0.00000000000E+00  0.14687527348E+04  0.14687527348E+04  0.25500000920E-02 0.  1.
       -2   -1    0    0    0  501  0.00000000000E+00  0.00000000000E+00 -0.10642082761E+04  0.10642082761E+04  0.25500000920E-02 0. -1.
    10030    2    1    2    0    0  0.00000000000E+00  0.00000000000E+00  0.40454445876E+03  0.25329610109E+04  0.25004470128E+04 0.  0.
        4    1    3    3  502    0 -0.59837322398E+03  0.90043863321E+03 -0.43375908605E+03  0.11648986243E+04  0.12699999809E+01 0. -1.
       -4    1    3    3    0  502  0.59837322398E+03 -0.90043863321E+03  0.83830354481E+03  0.13680623866E+04  0.12699999809E+01 0.  1.
</event>
<event>
 5   0  0.1654257E-06  0.1915129E+04  0.7818609E-02  0.8647362E-01
       -1   -1    0    0    0  501  0.00000000000E+00  0.00000000000E+00  0.14429693367E+04  0.14429693367E+04  0.50400001928E-02 0. -1.
        1   -1    0    0  501    0  0.00000000000E+00  0.00000000000E+00 -0.63544635412E+03  0.63544635414E+03  0.50400001928E-02 0.  1.
    10030    2    1    2    0    0  0.00000000000E+00  0.00000000000E+00  0.80752298262E+03  0.20784156909E+04  0.19151288251E+04 0.  0.
        3    1    3    3  502    0 -0.29488133325E+03  0.12426267091E+03 -0.57570337702E+03  0.65865818191E+03  0.10100000352E+00 0.  1.
       -3    1    3    3    0  502  0.29488133325E+03 -0.12426267091E+03  0.13832263596E+04  0.14197575090E+04  0.10100000352E+00 0. -1.
</event>
<event>
 5   0  0.1654257E-06  0.1872624E+04  0.7818609E-02  0.8668604E-01
        1   -1    0    0  501    0  0.00000000000E+00  0.00000000000E+00  0.11840837425E+04  0.11840837425E+04  0.50400001928E-02 0.  1.
       -1   -1    0    0    0  501  0.00000000000E+00  0.00000000000E+00 -0.74038715437E+03  0.74038715439E+03  0.50400001928E-02 0. -1.
    10030    2    1    2    0    0  0.00000000000E+00  0.00000000000E+00  0.44369658813E+03  0.19244708969E+04  0.18726242471E+04 0.  0.
        3    1    3    3  502    0 -0.50010410997E+03 -0.10049678097E+02  0.10352642174E+04  0.11497726414E+04  0.10100000352E+00 0.  1.
       -3    1    3    3    0  502  0.50010410997E+03  0.10049678097E+02 -0.59156762929E+03  0.77469825550E+03  0.10100000352E+00 0. -1.
</event>
<event>
 5   0  0.4173467E-06  0.3352034E+04  0.7818609E-02  0.8149780E-01
        2   -1    0    0  501    0  0.00000000000E+00  0.00000000000E+00  0.15844358460E+04  0.15844358460E+04  0.25500000920E-02 0. -1.
       -2   -1    0    0    0  501  0.00000000000E+00  0.00000000000E+00 -0.17728917425E+04  0.17728917425E+04  0.25500000920E-02 0.  1.
    10030    2    1    2    0    0  0.00000000000E+00  0.00000000000E+00 -0.18845589656E+03  0.33573275885E+04  0.33520341453E+04 0.  0.
        4    1    3    3  502    0  0.13700295690E+04  0.96497574161E+03 -0.12381123117E+03  0.16803243841E+04  0.12699999809E+01 0.  1.
       -4    1    3    3    0  502 -0.13700295690E+04 -0.96497574161E+03 -0.64644665391E+02  0.16770032044E+04  0.12699999809E+01 0. -1.
</event>
<event>
 5   0  0.1571391E-06  0.3577446E+04  0.7818609E-02  0.8095678E-01
        1   -1    0    0  501    0  0.00000000000E+00  0.00000000000E+00  0.27440765716E+04  0.27440765716E+04  0.50400001928E-02 0. -1.
       -1   -1    0    0    0  501  0.00000000000E+00  0.00000000000E+00 -0.11659768687E+04  0.11659768687E+04  0.50400001928E-02 0.  1.
    10030    2    1    2    0    0  0.00000000000E+00  0.00000000000E+00  0.15780997030E+04  0.39100534403E+04  0.35774459092E+04 0.  0.
        1    1    3    3  502    0 -0.15528273454E+04  0.59605111505E+03  0.69859932184E+02  0.16647612761E+04  0.50400001928E-02 0.  1.
       -1    1    3    3    0  502  0.15528273454E+04 -0.59605111505E+03  0.15082397708E+04  0.22452921642E+04  0.50400001928E-02 0. -1.
</event>
<event>
 5   0  0.1562618E-06  0.3420301E+04  0.7818609E-02  0.8132942E-01
       -1   -1    0    0    0  501  0.00000000000E+00  0.00000000000E+00  0.17192265056E+04  0.17192265056E+04  0.50400001928E-02 0. -1.
        1   -1    0    0  501    0  0.00000000000E+00  0.00000000000E+00 -0.17011223857E+04  0.17011223857E+04  0.50400001928E-02 0.  1.
    10030    2    1    2    0    0  0.00000000000E+00  0.00000000000E+00  0.18104119945E+02  0.34203488913E+04  0.34203009779E+04 0.  0.
        2    1    3    3  502    0 -0.15363893465E+04  0.58771701931E+03  0.47672427821E+03  0.17126498639E+04  0.25500000920E-02 0. -1.
       -2    1    3    3    0  502  0.15363893465E+04 -0.58771701931E+03 -0.45862015827E+03  0.17076990275E+04  0.25500000920E-02 0.  1.
</event>
<event>
 5   0  0.1550164E-06  0.3407020E+04  0.7818609E-02  0.8136186E-01
        1   -1    0    0  501    0  0.00000000000E+00  0.00000000000E+00  0.15337224470E+04  0.15337224470E+04  0.50400001928E-02 0. -1.
       -1   -1    0    0    0  501  0.00000000000E+00  0.00000000000E+00 -0.18920933476E+04  0.18920933476E+04  0.50400001928E-02 0.  1.
    10030    2    1    2    0    0  0.00000000000E+00  0.00000000000E+00 -0.35837090060E+03  0.34258157946E+04  0.34070198350E+04 0.  0.
        4    1    3    3  502    0  0.64072212830E+03 -0.12995795380E+04  0.72158737670E+03  0.16186790220E+04  0.12699999809E+01 0. -1.
       -4    1    3    3    0  502 -0.64072212830E+03  0.12995795380E+04 -0.10799582773E+04  0.18071367726E+04  0.12699999809E+01 0.  1.
</event>
<event>
 5   0  0.1562618E-06  0.3418379E+04  0.7818609E-02  0.8133410E-01
        1   -1    0    0  501    0  0.00000000000E+00  0.00000000000E+00  0.16580718667E+04  0.16580718667E+04  0.50400001928E-02 0. -1.
       -1   -1    0    0    0  501  0.00000000000E+00  0.00000000000E+00 -0.17618827363E+04  0.17618827363E+04  0.50400001928E-02 0.  1.
    10030    2    1    2    0    0  0.00000000000E+00  0.00000000000E+00 -0.10381086966E+03  0.34199546030E+04  0.34183786786E+04 0.  0.
        2    1    3    3  502    0 -0.13626198959E+04  0.54560840132E+03  0.82423037853E+03  0.16833826734E+04  0.25500000920E-02 0. -1.
       -2    1    3    3    0  502  0.13626198959E+04 -0.54560840132E+03 -0.92804124819E+03  0.17365719296E+04  0.25500000920E-02 0.  1.
</event>
<event>
 5   0  0.1550164E-06  0.1915286E+04  0.7818609E-02  0.8647285E-01
       -1   -1    0    0    0  501  0.00000000000E+00  0.00000000000E+00  0.88930145429E+03  0.88930145430E+03  0.50400001928E-02 0.  1.
        1   -1    0    0  501    0  0.00000000000E+00  0.00000000000E+00 -0.10312361649E+04  0.10312361649E+04  0.50400001928E-02 0. -1.
    10030    2    1    2    0    0  0.00000000000E+00  0.00000000000E+00 -0.14193471057E+03  0.19205376192E+04  0.19152856927E+04 0.  0.
        4    1    3    3  502    0  0.25952823664E+03 -0.20437706118E+03  0.83035966109E+03  0.89365746705E+03  0.12699999809E+01 0.  1.
       -4    1    3    3    0  502 -0.25952823664E+03  0.20437706118E+03 -0.97229437166E+03  0.10268801521E+04  0.12699999809E+01 0. -1.
</event>
<event>
 5   0  0.1654257E-06  0.2593521E+04  0.7818609E-02  0.8370405E-01
       -1   -1    0    0    0  501  0.00000000000E+00  0.00000000000E+00  0.11927791921E+04  0.11927791921E+04  0.50400001928E-02 0.  1.
        1   -1    0    0  501    0  0.00000000000E+00  0.00000000000E+00 -0.14098065970E+04  0.14098065970E+04  0.50400001928E-02 0. -1.
    10030    2    1    2    0    0  0.00000000000E+00  0.00000000000E+00 -0.21702740484E+03  0.26025857891E+04  0.25935211384E+04 0.  0.
        3    1    3    3  502    0 -0.41457204818E+03 -0.22329762035E+02 -0.13413103541E+04  0.14040947538E+04  0.10100000352E+00 0. -1.
       -3    1    3    3    0  502  0.41457204818E+03  0.22329762035E+02  0.11242829493E+04  0.11984910353E+04  0.10100000352E+00 0.  1.
</event>
<event>
 5   0  0.1550164E-06  0.3336262E+04  0.7818609E-02  0.8153729E-01
        1   -1    0    0  501    0  0.00000000000E+00  0.00000000000E+00  0.15668078406E+04  0.15668078406E+04  0.50400001928E-02 0. -1.
       -1   -1    0    0    0  501  0.00000000000E+00  0.00000000000E+00 -0.17760070626E+04  0.17760070626E+04  0.50400001928E-02 0.  1.
    10030    2    1    2    0    0  0.00000000000E+00  0.00000000000E+00 -0.20919922207E+03  0.33428149032E+04  0.33362624541E+04 0.  0.
        4    1    3    3  502    0  0.20741152733E+03 -0.32609274413E+03  0.15213333462E+04  0.15696537142E+04  0.12699999809E+01 0. -1.
       -4    1    3    3    0  502 -0.20741152733E+03  0.32609274413E+03 -0.17305325682E+04  0.17731611890E+04  0.12699999809E+01 0.  1.
</event>
<event>
 5   0  0.4344980E-06  0.3347228E+04  0.7818609E-02  0.8150981E-01
       -2   -1    0    0    0  501  0.00000000000E+00  0.00000000000E+00  0.17577902296E+04  0.17577902296E+04  0.25500000920E-02 0. -1.
        2   -1    0    0  501    0  0.00000000000E+00  0.00000000000E+00 -0.15934686443E+04  0.15934686443E+04  0.25500000920E-02 0.  1.
    10030    2    1    2    0    0  0.00000000000E+00  0.00000000000E+00  0.16432158534E+03  0.33512588739E+04  0.33472278764E+04 0.  0.
        3    1    3    3  502    0  0.67586995426E+03 -0.12713298073E+04  0.93636111164E+03  0.17175132650E+04  0.10100000352E+00 0. -1.
       -3    1    3    3    0  502 -0.67586995426E+03  0.12713298073E+04 -0.77203952630E+03  0.16337456088E+04  0.10100000352E+00 0.  1.
</event>
<event>
 5   0  0.1562618E-06  0.2390837E+04  0.7818609E-02  0.8442942E-01
       -1   -1    0    0    0  501  0.00000000000E+00  0.00000000000E+00  0.11265167595E+04  0.11265167595E+04  0.50400001928E-02 0.  1.
        1   -1    0    0  501    0  0.00000000000E+00  0.00000000000E+00 -0.12685348530E+04  0.12685348530E+04  0.50400001928E-02 0. -1.
    10030    2    1    2    0    0  0.00000000000E+00  0.00000000000E+00 -0.14201809352E+03  0.23950516125E+04  0.23908373193E+04 0.  0.
        2    1    3    3  502    0  0.88251555190E+03  0.77069551282E+03 -0.30853561752E+03  0.12116102922E+04  0.25500000920E-02 0. -1.
       -2    1    3    3    0  502 -0.88251555190E+03 -0.77069551282E+03  0.16651752400E+03  0.11834413203E+04  0.25500000920E-02 0.  1.
</event>
<event>
 5   0  0.1571391E-06  0.3333397E+04  0.7818609E-02  0.8154449E-01
       -1   -1    0    0    0  501  0.00000000000E+00  0.00000000000E+00  0.89764258732E+03  0.89764258733E+03  0.50400001928E-02 0.  1.
        1   -1    0    0  501    0  0.00000000000E+00  0.00000000000E+00 -0.30946439512E+04  0.30946439512E+04  0.50400001928E-02 0. -1.
    10030    2    1    2    0    0  0.00000000000E+00  0.00000000000E+00 -0.21970013639E+04  0.39922865386E+04  0.33333971880E+04 0.  0.
        1    1    3    3  502    0  0.19763317361E+03  0.16549377276E+04 -0.11015423165E+04  0.19978171159E+04  0.50400001928E-02 0. -1.
       -1    1    3    3    0  502 -0.19763317361E+03 -0.16549377276E+04 -0.10954590474E+04  0.19944694227E+04  0.50400001928E-02 0.  1.
</event>
<event>
 5   0  0.4400349E-06  0.1731421E+04  0.7818609E-02  0.8743644E-01
        2   -1    0    0  501    0  0.00000000000E+00  0.00000000000E+00  0.63804103323E+03  0.63804103323E+03  0.25500000920E-02 0.  1.
       -2   -1    0    0    0  501  0.00000000000E+00  0.00000000000E+00 -0.11746186033E+04  0.11746186033E+04  0.25500000920E-02 0. -1.
    10030    2    1    2    0    0  0.00000000000E+00  0.00000000000E+00 -0.53657757005E+03  0.18126596365E+04  0.17314212281E+04 0.  0.
        5    1    3    3  502    0 -0.48399746819E+03 -0.68094728432E+03 -0.30727823918E+02  0.83600780044E+03  0.46999998093E+01 0.  1.
       -5    1    3    3    0  502  0.48399746819E+03  0.68094728432E+03 -0.50584974613E+03  0.97665183607E+03  0.46999998093E+01 0. -1.
</event>
<event>
 5   0  0.4173467E-06  0.3359247E+04  0.7818609E-02  0.8147982E-01
        2   -1    0    0  501    0  0.00000000000E+00  0.00000000000E+00  0.17904003887E+04  0.17904003887E+04  0.25500000920E-02 0.  1.
       -2   -1    0    0    0  501  0.00000000000E+00  0.00000000000E+00 -0.15757005295E+04  0.15757005295E+04  0.25500000920E-02 0. -1.
    10030    2    1    2    0    0  0.00000000000E+00  0.00000000000E+00  0.21469985926E+03  0.33661009182E+04  0.33592468444E+04 0.  0.
        4    1    3    3  502    0  0.64045655607E+03  0.42713883638E+03  0.16032122926E+04  0.17784609790E+04  0.12699999809E+01 0.  1.
       -4    1    3    3    0  502 -0.64045655607E+03 -0.42713883638E+03 -0.13885124334E+04  0.15876399391E+04  0.12699999809E+01 0. -1.
</event>
<event>
 5   0  0.1571391E-06  0.3272911E+04  0.7818609E-02  0.8169823E-01
        1   -1    0    0  501    0  0.00000000000E+00  0.00000000000E+00  0.19759816181E+04  0.19759816181E+04  0.50400001928E-02 0. -1.
       -1   -1    0    0    0  501  0.00000000000E+00  0.00000000000E+00 -0.13552688942E+04  0.13552688942E+04  0.50400001928E-02 0.  1.
    10030    2    1    2    0    0  0.00000000000E+00  0.00000000000E+00  0.62071272390E+03  0.33312505123E+04  0.32729108894E+04 0.  0.
        1    1    3    3  502    0 -0.33749895466E+03 -0.12593728720E+04  0.13169543294E+04  0.18531849020E+04  0.50400001928E-02 0. -1.
       -1    1    3    3    0  502  0.33749895466E+03  0.12593728720E+04 -0.69624160551E+03  0.14780656103E+04  0.50400001928E-02 0.  1.
</event>
<event>
 5   0  0.2722449E-06  0.3402860E+04  0.7818609E-02  0.8137205E-01
       -2   -1    0    0    0  501  0.00000000000E+00  0.00000000000E+00  0.13832164975E+04  0.13832164975E+04  0.25500000920E-02 0. -1.
        2   -1    0    0  501    0  0.00000000000E+00  0.00000000000E+00 -0.20928501684E+04  0.20928501684E+04  0.25500000920E-02 0.  1.
    10030    2    1    2    0    0  0.00000000000E+00  0.00000000000E+00 -0.70963367087E+03  0.34760666659E+04  0.34028604907E+04 0.  0.
        2    1    3    3  502    0 -0.94327868226E+03  0.75602741275E+03 -0.15778683053E+04  0.19877174120E+04  0.25500000920E-02 0.  1.
       -2    1    3    3    0  502  0.94327868226E+03 -0.75602741275E+03  0.86823463441E+03  0.14883492539E+04  0.25500000920E-02 0. -1.
</event>
<event>
 5   0  0.2110050E-06  0.1841586E+04  0.7818609E-02  0.8684492E-01
       -1   -1    0    0    0  501  0.00000000000E+00  0.00000000000E+00  0.79554752628E+03  0.79554752629E+03  0.50400001928E-02 0.  1.
        1   -1    0    0  501    0  0.00000000000E+00  0.00000000000E+00 -0.10657566776E+04  0.10657566776E+04  0.50400001928E-02 0. -1.
    10030    2    1    2    0    0  0.00000000000E+00  0.00000000000E+00 -0.27020915133E+03  0.18613042039E+04  0.18415863689E+04 0.  0.
        5    1    3    3  502    0 -0.50052236750E+03 -0.10939329536E+02  0.64595398828E+03  0.81726431115E+03  0.46999998093E+01 0.  1.
       -5    1    3    3    0  502  0.50052236750E+03  0.10939329536E+02 -0.91616313962E+03  0.10440398928E+04  0.46999998093E+01 0. -1.
</event>
<event>
 5   0  0.1550164E-06  0.2153678E+04  0.7818609E-02  0.8537960E-01
        1   -1    0    0  501    0  0.00000000000E+00  0.00000000000E+00  0.91441127392E+03  0.91441127394E+03  0.50400001928E-02 0. -1.
       -1   -1    0    0    0  501  0.00000000000E+00  0.00000000000E+00 -0.12681185001E+04  0.12681185001E+04  0.50400001928E-02 0.  1.
    10030    2    1    2    0    0  0.00000000000E+00  0.00000000000E+00 -0.35370722618E+03  0.21825297741E+04  0.21536776483E+04 0.  0.
        4    1    3    3  502    0 -0.29842544843E+03  0.19392946290E+03 -0.12067926705E+04  0.12581798549E+04  0.12699999809E+01 0.  1.
       -4    1    3    3    0  502  0.29842544843E+03 -0.19392946290E+03  0.85308544430E+03  0.92434991915E+03  0.12699999809E+01 0. -1.
</event>
<event>
 5   0  0.1571391E-06  0.1952109E+04  0.7818609E-02  0.8629344E-01
       -1   -1    0    0    0  501  0.00000000000E+00  0.00000000000E+00  0.70237290633E+03  0.70237290635E+03  0.50400001928E-02 0. -1.
        1   -1    0    0  501    0  0.00000000000E+00  0.00000000000E+00 -0.13563770518E+04  0.13563770518E+04  0.50400001928E-02 0.  1.
    10030    2    1    2    0    0  0.00000000000E+00  0.00000000000E+00 -0.65400414548E+03  0.20587499582E+04  0.19521091076E+04 0.  0.
        1    1    3    3  502    0 -0.18929984002E+03 -0.12354869610E+03  0.67438633860E+03  0.71126341355E+03  0.50400001928E-02 0. -1.
       -1    1    3    3    0  502  0.18929984002E+03  0.12354869610E+03 -0.13283904841E+04  0.13474865446E+04  0.50400001928E-02 0.  1.
</event>
<event>
 5   0  0.1401125E-06  0.3386811E+04  0.7818609E-02  0.8141151E-01
        3   -1    0    0  501    0  0.00000000000E+00  0.00000000000E+00  0.21214169049E+04  0.21214169073E+04  0.10100000352E+00 0.  1.
       -3   -1    0    0    0  501  0.00000000000E+00  0.00000000000E+00 -0.13517483110E+04  0.13517483147E+04  0.10100000352E+00 0. -1.
    10030    2    1    2    0    0  0.00000000000E+00  0.00000000000E+00  0.76966859395E+03  0.34731652221E+04  0.33868107292E+04 0.  0.
        5    1    3    3  502    0 -0.67183976813E+03 -0.15178156423E+04  0.72874554374E+03  0.18127948465E+04  0.46999998093E+01 0. -1.
       -5    1    3    3    0  502  0.67183976813E+03  0.15178156423E+04  0.40923050207E+02  0.16603703756E+04  0.46999998093E+01 0.  1.
</event>
<event>
 5   0  0.4344980E-06  0.2702343E+04  0.7818609E-02  0.8334245E-01
        2   -1    0    0  501    0  0.00000000000E+00  0.00000000000E+00  0.17790984818E+04  0.17790984818E+04  0.25500000920E-02 0.  1.
       -2   -1    0    0    0  501  0.00000000000E+00  0.00000000000E+00 -0.10261742711E+04  0.10261742711E+04  0.25500000920E-02 0. -1.
    10030    2    1    2    0    0  0.00000000000E+00  0.00000000000E+00  0.75292421072E+03  0.28052727529E+04  0.27023434925E+04 0.  0.
        3    1    3    3  502    0  0.68876697805E+03  0.11545892448E+04  0.23645934203E+03  0.13650601836E+04  0.10100000352E+00 0. -1.
       -3    1    3    3    0  502 -0.68876697805E+03 -0.11545892448E+04  0.51646486869E+03  0.14402125694E+04  0.10100000352E+00 0.  1.
</event>
<event>
 5   0  0.2722449E-06  0.3197872E+04  0.7818609E-02  0.8189380E-01
       -2   -1    0    0    0  501  0.00000000000E+00  0.00000000000E+00  0.14134740539E+04  0.14134740539E+04  0.25500000920E-02 0.  1.
        2   -1    0    0  501    0  0.00000000000E+00  0.00000000000E+00 -0.18087318635E+04  0.18087318635E+04  0.25500000920E-02 0. -1.
    10030    2    1    2    0    0  0.00000000000E+00  0.00000000000E+00 -0.39525780957E+03  0.32222059174E+04  0.31978715169E+04 0.  0.
        2    1    3    3  502    0 -0.89276058717E+03 -0.55804944115E+02  0.11377711814E+04  0.14472936534E+04  0.25500000920E-02 0.  1.
       -2    1    3    3    0  502  0.89276058717E+03  0.55804944115E+02 -0.15330289910E+04  0.17749122641E+04  0.25500000920E-02 0. -1.
</event>
<event>
 5   0  0.1550164E-06  0.3278925E+04  0.7818609E-02  0.8168279E-01
        1   -1    0    0  501    0  0.00000000000E+00  0.00000000000E+00  0.20725335388E+04  0.20725335388E+04  0.50400001928E-02 0. -1.
       -1   -1    0    0    0  501  0.00000000000E+00  0.00000000000E+00 -0.12968850292E+04  0.12968850292E+04  0.50400001928E-02 0.  1.
    10030    2    1    2    0    0  0.00000000000E+00  0.00000000000E+00  0.77564850959E+03  0.33694185680E+04  0.32789252623E+04 0.  0.
        4    1    3    3  502    0 -0.88775413856E+03  0.37439199341E+03 -0.97526848548E+03  0.13709219551E+04  0.12699999809E+01 0.  1.
       -4    1    3    3    0  502  0.88775413856E+03 -0.37439199341E+03  0.17509169951E+04  0.19984966129E+04  0.12699999809E+01 0. -1.
</event>
<event>
 5   0  0.1654257E-06  0.3388506E+04  0.7818609E-02  0.8140733E-01
       -1   -1    0    0    0  501  0.00000000000E+00  0.00000000000E+00  0.16353262493E+04  0.16353262493E+04  0.50400001928E-02 0. -1.
        1   -1    0    0  501    0  0.00000000000E+00  0.00000000000E+00 -0.17553034498E+04  0.17553034498E+04  0.50400001928E-02 0.  1.
    10030    2    1    2    0    0  0.00000000000E+00  0.00000000000E+00 -0.11997720047E+03  0.33906296991E+04  0.33885063417E+04 0.  0.
        3    1    3    3  502    0  0.10484083613E+04 -0.45849376655E+03 -0.13102182935E+04  0.17395541419E+04  0.10100000352E+00 0.  1.
       -3    1    3    3    0  502 -0.10484083613E+04  0.45849376655E+03  0.11902410930E+04  0.16510755572E+04  0.10100000352E+00 0. -1.
</event>
<event>
 5   0  0.4189587E-06  0.2115145E+04  0.7818609E-02  0.8554601E-01
        2   -1    0    0  501    0  0.00000000000E+00  0.00000000000E+00  0.12595455007E+04  0.12595455007E+04  0.25500000920E-02 0. -1.
       -2   -1    0    0    0  501  0.00000000000E+00  0.00000000000E+00 -0.88798639216E+03  0.88798639216E+03  0.25500000920E-02 0.  1.
    10030    2    1    2    0    0  0.00000000000E+00  0.00000000000E+00  0.37155910857E+03  0.21475318929E+04  0.21151446900E+04 0.  0.
        1    1    3    3  502    0 -0.70949360717E+03 -0.33410410025E+03 -0.53462891112E+03  0.94912317485E+03  0.50400001928E-02 0.  1.
       -1    1    3    3    0  502  0.70949360717E+03  0.33410410025E+03  0.90618801969E+03  0.11984087180E+04  0.50400001928E-02 0. -1.
</event>
<event>
 5   0  0.1562618E-06  0.1896050E+04  0.7818609E-02  0.8656825E-01
        1   -1    0    0  501    0  0.00000000000E+00  0.00000000000E+00  0.21801486523E+04  0.21801486523E+04  0.50400001928E-02 0.  1.
       -1   -1    0    0    0  501  0.00000000000E+00  0.00000000000E+00 -0.41224323393E+03  0.41224323396E+03  0.50400001928E-02 0. -1.
    10030    2    1    2    0    0  0.00000000000E+00  0.00000000000E+00  0.17679054184E+04  0.25923918863E+04  0.18960501374E+04 0.  0.
        2    1    3    3  502    0  0.85239561521E+03 -0.30195265138E+03  0.49482911782E+03  0.10308295418E+04  0.25500000920E-02 0. -1.
       -2    1    3    3    0  502 -0.85239561521E+03  0.30195265138E+03  0.12730763005E+04  0.15615623444E+04  0.25500000920E-02 0.  1.
</event>
<event>
 5   0  0.4344980E-06  0.2579307E+04  0.7818609E-02  0.8375264E-01
        2   -1    0    0  501    0  0.00000000000E+00  0.00000000000E+00  0.20885815314E+04  0.20885815314E+04  0.25500000920E-02 0. -1.
       -2   -1    0    0    0  501  0.00000000000E+00  0.00000000000E+00 -0.79633312581E+03  0.79633312581E+03  0.25500000920E-02 0.  1.
    10030    2    1    2    0    0  0.00000000000E+00  0.00000000000E+00  0.12922484056E+04  0.28849146572E+04  0.25793073949E+04 0.  0.
        3    1    3    3  502    0  0.10987522246E+03 -0.52683979324E+03 -0.66473450873E+03  0.85528048589E+03  0.10100000352E+00 0.  1.
       -3    1    3    3    0  502 -0.10987522246E+03  0.52683979324E+03  0.19569829143E+04  0.20296341713E+04  0.10100000352E+00 0. -1.
</event>
<event>
 5   0  0.2101998E-06  0.3682793E+04  0.7818609E-02  0.8071786E-01
       -1   -1    0    0    0  501  0.00000000000E+00  0.00000000000E+00  0.16755991417E+04  0.16755991417E+04  0.50400001928E-02 0.  1.
        1   -1    0    0  501    0  0.00000000000E+00  0.00000000000E+00 -0.20235988953E+04  0.20235988953E+04  0.50400001928E-02 0. -1.
    10030    2    1    2    0    0  0.00000000000E+00  0.00000000000E+00 -0.34799975358E+03  0.36991980370E+04  0.36827927295E+04 0.  0.
        5    1    3    3  502    0  0.70805860518E+03  0.37739156241E+03  0.14907747689E+04  0.16929863796E+04  0.46999998093E+01 0.  1.
       -5    1    3    3    0  502 -0.70805860518E+03 -0.37739156241E+03 -0.18387745225E+04  0.20062116574E+04  0.46999998093E+01 0. -1.
</event>
<event>
 5   0  0.1401125E-06  0.1734177E+04  0.7818609E-02  0.8742108E-01
       -4   -1    0    0    0  501  0.00000000000E+00  0.00000000000E+00  0.10380997396E+04  0.10381005165E+04  0.12699999809E+01 0.  1.
        4   -1    0    0  501    0  0.00000000000E+00  0.00000000000E+00 -0.72424746631E+03  0.72424857981E+03  0.12699999809E+01 0. -1.
    10030    2    1    2    0    0  0.00000000000E+00  0.00000000000E+00  0.31385227329E+03  0.17623490963E+04  0.17341773518E+04 0.  0.
        4    1    3    3  502    0 -0.81707775759E+03 -0.25505273177E+03  0.29764286961E+03  0.90623443361E+03  0.12699999809E+01 0.  1.
       -4    1    3    3    0  502  0.81707775759E+03  0.25505273177E+03  0.16209403671E+02  0.85611466265E+03  0.12699999809E+01 0. -1.
</event>
<event>
 5   0  0.4344980E-06  0.2171877E+04  0.7818609E-02  0.8530225E-01
        2   -1    0    0  501    0  0.00000000000E+00  0.00000000000E+00  0.16020020163E+04  0.16020020163E+04  0.25500000920E-02 0.  1.
       -2   -1    0    0    0  501  0.00000000000E+00  0.00000000000E+00 -0.73611820418E+03  0.73611820419E+03  0.25500000920E-02 0. -1.
    10030    2    1    2    0    0  0.00000000000E+00  0.00000000000E+00  0.86588381209E+03  0.23381202205E+04  0.21718773882E+04 0.  0.
        3    1    3    3  502    0  0.46144795002E+03  0.88165350634E+03  0.90097924115E+03  0.13423899281E+04  0.10100000352E+00 0.  1.
       -3    1    3    3    0  502 -0.46144795002E+03 -0.88165350634E+03 -0.35095429059E+02  0.99573029238E+03  0.10100000352E+00 0. -1.
</event>
<event>
 5   0  0.1571391E-06  0.3472757E+04  0.7818609E-02  0.8120277E-01
       -1   -1    0    0    0  501  0.00000000000E+00  0.00000000000E+00  0.12859178378E+04  0.12859178379E+04  0.50400001928E-02 0. -1.
        1   -1    0    0  501    0  0.00000000000E+00  0.00000000000E+00 -0.23446372753E+04  0.23446372753E+04  0.50400001928E-02 0.  1.
    10030    2    1    2    0    0  0.00000000000E+00  0.00000000000E+00 -0.10587194375E+04  0.36305551132E+04  0.34727573458E+04 0.  0.
        1    1    3    3  502    0 -0.11401018520E+04 -0.92322969504E+03 -0.15004511110E+04  0.20984610645E+04  0.50400001928E-02 0.  1.
       -1    1    3    3    0  502  0.11401018520E+04  0.92322969504E+03  0.44173167351E+03  0.15320940487E+04  0.50400001928E-02 0. -1.
</event>
<event>
 5   0  0.1571391E-06  0.1856798E+04  0.7818609E-02  0.8676665E-01
       -1   -1    0    0    0  501  0.00000000000E+00  0.00000000000E+00  0.12900763712E+04  0.12900763712E+04  0.50400001928E-02 0.  1.
        1   -1    0    0  501    0  0.00000000000E+00  0.00000000000E+00 -0.66811900387E+03  0.66811900389E+03  0.50400001928E-02 0. -1.
    10030    2    1    2    0    0  0.00000000000E+00  0.00000000000E+00  0.62195736733E+03  0.19581953751E+04  0.18567978243E+04 0.  0.
        1    1    3    3  502    0  0.23229322432E+03  0.56872375110E+03  0.10450634678E+04  0.12122559544E+04  0.50400001928E-02 0.  1.
       -1    1    3    3    0  502 -0.23229322432E+03 -0.56872375110E+03 -0.42310610047E+03  0.74593942074E+03  0.50400001928E-02 0. -1.
</event>
<event>
 5   0  0.4344980E-06  0.2995672E+04  0.7818609E-02  0.8244968E-01
       -2   -1    0    0    0  501  0.00000000000E+00  0.00000000000E+00  0.24119803673E+04  0.24119803673E+04  0.25500000920E-02 0.  1.
        2   -1    0    0  501    0  0.00000000000E+00  0.00000000000E+00 -0.93015373208E+03  0.93015373208E+03  0.25500000920E-02 0. -1.
    10030    2    1    2    0    0  0.00000000000E+00  0.00000000000E+00  0.14818266352E+04  0.33421340994E+04  0.29956719048E+04 0.  0.
        3    1    3    3  502    0 -0.99620703052E+03 -0.33192489361E+03  0.19325814030E+04  0.21994257142E+04  0.10100000352E+00 0.  1.
       -3    1    3    3    0  502  0.99620703052E+03  0.33192489361E+03 -0.45075476783E+03  0.11427083852E+04  0.10100000352E+00 0. -1.
</event>
<event>
 5   0  0.1562618E-06  0.3027564E+04  0.7818609E-02  0.8235903E-01
       -1   -1    0    0    0  501  0.00000000000E+00  0.00000000000E+00  0.92080495221E+03  0.92080495222E+03  0.50400001928E-02 0. -1.
        1   -1    0    0  501    0  0.00000000000E+00  0.00000000000E+00 -0.24886222616E+04  0.24886222616E+04  0.50400001928E-02 0.  1.
    10030    2    1    2    0    0  0.00000000000E+00  0.00000000000E+00 -0.15678173094E+04  0.34094272138E+04  0.30275638409E+04 0.  0.
        2    1    3    3  502    0  0.18464562703E+03  0.36126874386E+03 -0.24262535462E+04  0.24599421504E+04  0.25500000920E-02 0.  1.
       -2    1    3    3    0  502 -0.18464562703E+03 -0.36126874386E+03  0.85843623684E+03  0.94948506339E+03  0.25500000920E-02 0. -1.
</event>
<event>
 5   0  0.1550164E-06  0.3397659E+04  0.7818609E-02  0.8138481E-01
       -1   -1    0    0    0  501  0.00000000000E+00  0.00000000000E+00  0.17642868455E+04  0.17642868455E+04  0.50400001928E-02 0.  1.
        1   -1    0    0  501    0  0.00000000000E+00  0.00000000000E+00 -0.16358006931E+04  0.16358006931E+04  0.50400001928E-02 0. -1.
    10030    2    1    2    0    0  0.00000000000E+00  0.00000000000E+00  0.12848615240E+03  0.34000875385E+04  0.33976589850E+04 0.  0.
        4    1    3    3  502    0  0.88889508370E+03  0.60443550513E+03 -0.12521983604E+04  0.16502966692E+04  0.12699999809E+01 0. -1.
       -4    1    3    3    0  502 -0.88889508370E+03 -0.60443550513E+03  0.13806845128E+04  0.17497908693E+04  0.12699999809E+01 0.  1.
</event>
<event>
 5   0  0.4344980E-06  0.3464871E+04  0.7818609E-02  0.8122166E-01
        2   -1    0    0  501    0  0.00000000000E+00  0.00000000000E+00  0.15275740262E+04  0.15275740262E+04  0.25500000920E-02 0. -1.
       -2   -1    0    0    0  501  0.00000000000E+00  0.00000000000E+00 -0.19647702243E+04  0.19647702243E+04  0.25500000920E-02 0.  1.
    10030    2    1    2    0    0  0.00000000000E+00  0.00000000000E+00 -0.43719619817E+03  0.34923442505E+04  0.34648705385E+04 0.  0.
        3    1    3    3  502    0  0.94584767360E+03 -0.99351135527E+03 -0.12851183469E+04  0.18796866256E+04  0.10100000352E+00 0.  1.
       -3    1    3    3    0  502 -0.94584767360E+03  0.99351135527E+03  0.84792214872E+03  0.16126576249E+04  0.10100000352E+00 0. -1.
</event>
<event>
 5   0  0.2101998E-06  0.3417929E+04  0.7818609E-02  0.8133520E-01
       -1   -1    0    0    0  501  0.00000000000E+00  0.00000000000E+00  0.25712094604E+04  0.25712094604E+04  0.50400001928E-02 0. -1.
        1   -1    0    0  501    0  0.00000000000E+00  0.00000000000E+00 -0.11358702423E+04  0.11358702423E+04  0.50400001928E-02 0.  1.
    10030    2    1    2    0    0  0.00000000000E+00  0.00000000000E+00  0.14353392181E+04  0.37070797027E+04  0.34179293807E+04 0.  0.
        5    1    3    3  502    0  0.69380693341E+03  0.41689848690E+03 -0.91477332858E+03  0.12214764598E+04  0.46999998093E+01 0.  1.
       -5    1    3    3    0  502 -0.69380693341E+03 -0.41689848690E+03  0.23501125466E+04  0.24856032429E+04  0.46999998093E+01 0. -1.
</event>
<event>
 5   0  0.4189587E-06  0.3362204E+04  0.7818609E-02  0.8147245E-01
       -2   -1    0    0    0  501  0.00000000000E+00  0.00000000000E+00  0.18110438615E+04  0.18110438615E+04  0.25500000920E-02 0.  1.
        2   -1    0    0  501    0  0.00000000000E+00  0.00000000000E+00 -0.15604834311E+04  0.15604834311E+04  0.25500000920E-02 0. -1.
    10030    2    1    2    0    0  0.00000000000E+00  0.00000000000E+00  0.25056043038E+03  0.33715272926E+04  0.33622040026E+04 0.  0.
        1    1    3    3  502    0 -0.13916826122E+04 -0.94070190242E+03  0.58738264808E+02  0.16808184751E+04  0.50400001928E-02 0. -1.
       -1    1    3    3    0  502  0.13916826122E+04  0.94070190242E+03  0.19182216557E+03  0.16907088175E+04  0.50400001928E-02 0.  1.
</event>
<event>
 5   0  0.1562618E-06  0.3276041E+04  0.7818609E-02  0.8169019E-01
       -1   -1    0    0    0  501  0.00000000000E+00  0.00000000000E+00  0.13270236166E+04  0.13270236166E+04  0.50400001928E-02 0.  1.
        1   -1    0    0  501    0  0.00000000000E+00  0.00000000000E+00 -0.20219015076E+04  0.20219015076E+04  0.50400001928E-02 0. -1.
    10030    2    1    2    0    0  0.00000000000E+00  0.00000000000E+00 -0.69487789102E+03  0.33489251243E+04  0.32760409345E+04 0.  0.
        2    1    3    3  502    0 -0.29703671912E+03  0.89132646467E+02  0.12967394129E+04  0.13333073712E+04  0.25500000920E-02 0.  1.
       -2    1    3    3    0  502  0.29703671912E+03 -0.89132646467E+02 -0.19916173039E+04  0.20156177531E+04  0.25500000920E-02 0. -1.
</event>
<event>
 5   0  0.1562618E-06  0.1687237E+04  0.7818609E-02  0.8768677E-01
       -1   -1    0    0    0  501  0.00000000000E+00  0.00000000000E+00  0.66671888110E+03  0.66671888112E+03  0.50400001928E-02 0. -1.
        1   -1    0    0  501    0  0.00000000000E+00  0.00000000000E+00 -0.10674540903E+04  0.10674540903E+04  0.50400001928E-02 0.  1.
    10030    2    1    2    0    0  0.00000000000E+00  0.00000000000E+00 -0.40073520923E+03  0.17341729715E+04  0.16872365534E+04 0.  0.
        2    1    3    3  502    0  0.34246561422E+03  0.58900222861E+03 -0.71168585546E+03  0.98524264986E+03  0.25500000920E-02 0.  1.
       -2    1    3    3    0  502 -0.34246561422E+03 -0.58900222861E+03  0.31095064623E+03  0.74893032161E+03  0.25500000920E-02 0. -1.
</event>
<event>
 5   0  0.1550164E-06  0.3459536E+04  0.7818609E-02  0.8123447E-01
        1   -1    0    0  501    0  0.00000000000E+00  0.00000000000E+00  0.18306288962E+04  0.18306288962E+04  0.50400001928E-02 0.  1.
       -1   -1    0    0    0  501  0.00000000000E+00  0.00000000000E+00 -0.16344641275E+04  0.16344641275E+04  0.50400001928E-02 0. -1.
    10030    2    1    2    0    0  0.00000000000E+00  0.00000000000E+00  0.19616476874E+03  0.34650930238E+04  0.34595359583E+04 0.  0.
        4    1    3    3  502    0  0.54128254166E+03  0.16989012366E+03  0.17347960268E+04  0.18252036356E+04  0.12699999809E+01 0.  1.
       -4    1    3    3    0  502 -0.54128254166E+03 -0.16989012366E+03 -0.15386312581E+04  0.16398893881E+04  0.12699999809E+01 0. -1.
</event>
<event>
 5   0  0.1562618E-06  0.3315430E+04  0.7818609E-02  0.8158980E-01
        1   -1    0    0  501    0  0.00000000000E+00  0.00000000000E+00  0.20704173203E+04  0.20704173203E+04  0.50400001928E-02 0.  1.
       -1   -1    0    0    0  501  0.00000000000E+00  0.00000000000E+00 -0.13272775723E+04  0.13272775723E+04  0.50400001928E-02 0. -1.
    10030    2    1    2    0    0  0.00000000000E+00  0.00000000000E+00  0.74313974797E+03  0.33976948926E+04  0.33154296702E+04 0.  0.
        2    1    3    3  502    0  0.54584679370E+03 -0.15591592717E+04  0.51317259813E+03  0.17298186241E+04  0.25500000920E-02 0. -1.
       -2    1    3    3    0  502 -0.54584679370E+03  0.15591592717E+04  0.22996714985E+03  0.16678762684E+04  0.25500000920E-02 0.  1.
</event>
<event>
 5   0  0.2722449E-06  0.3353113E+04  0.7818609E-02  0.8149511E-01
        2   -1    0    0  501    0  0.00000000000E+00  0.00000000000E+00  0.22585884232E+04  0.22585884232E+04  0.25500000920E-02 0.  1.
       -2   -1    0    0    0  501  0.00000000000E+00  0.00000000000E+00 -0.12445123978E+04  0.12445123979E+04  0.25500000920E-02 0. -1.
    10030    2    1    2    0    0  0.00000000000E+00  0.00000000000E+00  0.10140760254E+04  0.35031008211E+04  0.33531127594E+04 0.  0.
        2    1    3    3  502    0  0.15406129666E+04 -0.65572197158E+03  0.59679783999E+03  0.17775340443E+04  0.25500000920E-02 0. -1.
       -2    1    3    3    0  502 -0.15406129666E+04  0.65572197158E+03  0.41727818536E+03  0.17255667767E+04  0.25500000920E-02 0.  1.
</event>
<event>
 5   0  0.4173467E-06  0.3404636E+04  0.7818609E-02  0.8136769E-01
       -2   -1    0    0    0  501  0.00000000000E+00  0.00000000000E+00  0.20879099218E+04  0.20879099218E+04  0.25500000920E-02 0. -1.
        2   -1    0    0  501    0  0.00000000000E+00  0.00000000000E+00 -0.13879369112E+04  0.13879369112E+04  0.25500000920E-02 0.  1.
    10030    2    1    2    0    0  0.00000000000E+00  0.00000000000E+00  0.69997301061E+03  0.34758468331E+04  0.34046363963E+04 0.  0.
        4    1    3    3  502    0  0.10427808250E+04  0.99340262727E+03 -0.57654443746E+03  0.15513367559E+04  0.12699999809E+01 0.  1.
       -4    1    3    3    0  502 -0.10427808250E+04 -0.99340262727E+03  0.12765174481E+04  0.19245100772E+04  0.12699999809E+01 0. -1.
</event>
<event>
 5   0  0.4189587E-06  0.3009461E+04  0.7818609E-02  0.8241034E-01
       -2   -1    0    0    0  501  0.00000000000E+00  0.00000000000E+00  0.10727385578E+04  0.10727385578E+04  0.25500000920E-02 0.  1.
        2   -1    0    0  501    0  0.00000000000E+00  0.00000000000E+00 -0.21106855367E+04  0.21106855367E+04  0.25500000920E-02 0. -1.
    10030    2    1    2    0    0  0.00000000000E+00  0.00000000000E+00 -0.10379469789E+04  0.31834240945E+04  0.30094609209E+04 0.  0.
        1    1    3    3  502    0 -0.14653861890E+04 -0.33348150335E+03 -0.59846503385E+03  0.16176300544E+04  0.50400001928E-02 0.  1.
       -1    1    3    3    0  502  0.14653861890E+04  0.33348150335E+03 -0.43948194509E+03  0.15657940401E+04  0.50400001928E-02 0. -1.
</event>
<event>
 5   0  0.4189587E-06  0.3396779E+04  0.7818609E-02  0.8138697E-01
        2   -1    0    0  501    0  0.00000000000E+00  0.00000000000E+00  0.18437551867E+04  0.18437551867E+04  0.25500000920E-02 0.  1.
       -2   -1    0    0    0  501  0.00000000000E+00  0.00000000000E+00 -0.15644848201E+04  0.15644848201E+04  0.25500000920E-02 0. -1.
    10030    2    1    2    0    0  0.00000000000E+00  0.00000000000E+00  0.27927036659E+03  0.34082400067E+04  0.33967790634E+04 0.  0.
        1    1    3    3  502    0 -0.15895139520E+04 -0.12576912095E+03  0.72654856895E+03  0.17522115451E+04  0.50400001928E-02 0.  1.
       -1    1    3    3    0  502  0.15895139520E+04  0.12576912095E+03 -0.44727820236E+03  0.16560284617E+04  0.50400001928E-02 0. -1.
</event>
<event>
 5   0  0.4173467E-06  0.3322581E+04  0.7818609E-02  0.8157173E-01
       -2   -1    0    0    0  501  0.00000000000E+00  0.00000000000E+00  0.17637340694E+04  0.17637340694E+04  0.25500000920E-02 0.  1.
        2   -1    0    0  501    0  0.00000000000E+00  0.00000000000E+00 -0.15647975294E+04  0.15647975294E+04  0.25500000920E-02 0. -1.
    10030    2    1    2    0    0  0.00000000000E+00  0.00000000000E+00  0.19893653997E+03  0.33285315988E+04  0.33225813545E+04 0.  0.
        4    1    3    3  502    0 -0.14306934362E+04 -0.57931447647E+03  0.71489418784E+03  0.17010479957E+04  0.12699999809E+01 0. -1.
       -4    1    3    3    0  502  0.14306934362E+04  0.57931447647E+03 -0.51595764787E+03  0.16274836031E+04  0.12699999809E+01 0.  1.
</event>
<event>
 5   0  0.1571391E-06  0.2808615E+04  0.7818609E-02  0.8300599E-01
       -1   -1    0    0    0  501  0.00000000000E+00  0.00000000000E+00  0.75691968415E+03  0.75691968417E+03  0.50400001928E-02 0. -1.
        1   -1    0    0  501    0  0.00000000000E+00  0.00000000000E+00 -0.26054006104E+04  0.26054006104E+04  0.50400001928E-02 0.  1.
    10030    2    1    2    0    0  0.00000000000E+00  0.00000000000E+00 -0.18484809262E+04  0.33623202946E+04  0.28086146102E+04 0.  0.
        1    1    3    3  502    0 -0.64334239365E+03  0.37672490516E+03  0.50044712224E+03  0.89791893388E+03  0.50400001928E-02 0. -1.
       -1    1    3    3    0  502  0.64334239365E+03 -0.37672490516E+03 -0.23489280485E+04  0.24644013607E+04  0.50400001928E-02 0.  1.
</event>
<event>
 5   0  0.1571391E-06  0.3408363E+04  0.7818609E-02  0.8135857E-01
        1   -1    0    0  501    0  0.00000000000E+00  0.00000000000E+00  0.23668964675E+04  0.23668964675E+04  0.50400001928E-02 0.  1.
       -1   -1    0    0    0  501  0.00000000000E+00  0.00000000000E+00 -0.12270223886E+04  0.12270223886E+04  0.50400001928E-02 0. -1.
    10030    2    1    2    0    0  0.00000000000E+00  0.00000000000E+00  0.11398740789E+04  0.35939188562E+04  0.34083632185E+04 0.  0.
        1    1    3    3  502    0 -0.41246043682E+03  0.78889678864E+03  0.21022376622E+04  0.22829553091E+04  0.50400001928E-02 0.  1.
       -1    1    3    3    0  502  0.41246043682E+03 -0.78889678864E+03 -0.96236358332E+03  0.13109635470E+04  0.50400001928E-02 0. -1.
</event>
<event>
 5   0  0.2101998E-06  0.3426516E+04  0.7818609E-02  0.8131429E-01
       -1   -1    0    0    0  501  0.00000000000E+00  0.00000000000E+00  0.18270130270E+04  0.18270130270E+04  0.50400001928E-02 0. -1.
        1   -1    0    0  501    0  0.00000000000E+00  0.00000000000E+00 -0.16065860756E+04  0.16065860756E+04  0.50400001928E-02 0.  1.
    10030    2    1    2    0    0  0.00000000000E+00  0.00000000000E+00  0.22042695141E+03  0.34335991025E+04  0.34265164170E+04 0.  0.
        5    1    3    3  502    0  0.10245070111E+04  0.71831173592E+03  0.12829509823E+04  0.17920858458E+04  0.46999998093E+01 0. -1.
       -5    1    3    3    0  502 -0.10245070111E+04 -0.71831173592E+03 -0.10625240309E+04  0.16415132567E+04  0.46999998093E+01 0.  1.
</event>
<event>
 5   0  0.1550164E-06  0.2598889E+04  0.7818609E-02  0.8368579E-01
       -1   -1    0    0    0  501  0.00000000000E+00  0.00000000000E+00  0.12991639596E+04  0.12991639596E+04  0.50400001928E-02 0. -1.
        1   -1    0    0  501    0  0.00000000000E+00  0.00000000000E+00 -0.12997249743E+04  0.12997249743E+04  0.50400001928E-02 0.  1.
    10030    2    1    2    0    0  0.00000000000E+00  0.00000000000E+00 -0.56101471401E+00  0.25988889339E+04  0.25988888733E+04 0.  0.
        4    1    3    3  502    0 -0.24407137673E+03  0.10313419096E+04  0.75159533744E+03  0.12992821617E+04  0.12699999809E+01 0. -1.
       -4    1    3    3    0  502  0.24407137673E+03 -0.10313419096E+04 -0.75215635215E+03  0.12996067722E+04  0.12699999809E+01 0.  1.
</event>
<event>
 5   0  0.1550164E-06  0.3423561E+04  0.7818609E-02  0.8132148E-01
       -1   -1    0    0    0  501  0.00000000000E+00  0.00000000000E+00  0.11127742289E+04  0.11127742289E+04  0.50400001928E-02 0.  1.
        1   -1    0    0  501    0  0.00000000000E+00  0.00000000000E+00 -0.26332314528E+04  0.26332314528E+04  0.50400001928E-02 0. -1.
    10030    2    1    2    0    0  0.00000000000E+00  0.00000000000E+00 -0.15204572239E+04  0.37460056817E+04  0.34235607775E+04 0.  0.
        4    1    3    3  502    0 -0.24893291178E+03  0.12869670730E+04  0.44433768185E+03  0.13840843290E+04  0.12699999809E+01 0. -1.
       -4    1    3    3    0  502  0.24893291178E+03 -0.12869670730E+04 -0.19647949058E+04  0.23619213526E+04  0.12699999809E+01 0.  1.
</event>
<event>
 5   0  0.1571391E-06  0.3536861E+04  0.7818609E-02  0.8105109E-01
       -1   -1    0    0    0  501  0.00000000000E+00  0.00000000000E+00  0.15398385981E+04  0.15398385981E+04  0.50400001928E-02 0. -1.
        1   -1    0    0  501    0  0.00000000000E+00  0.00000000000E+00 -0.20309576702E+04  0.20309576702E+04  0.50400001928E-02 0.  1.
    10030    2    1    2    0    0  0.00000000000E+00  0.00000000000E+00 -0.49111907212E+03  0.35707962684E+04  0.35368613271E+04 0.  0.
        1    1    3    3  502    0 -0.10569936023E+04 -0.10240290857E+04 -0.12355163669E+04  0.19215545104E+04  0.50400001928E-02 0.  1.
       -1    1    3    3    0  502  0.10569936023E+04  0.10240290857E+04  0.74439729481E+03  0.16492417579E+04  0.50400001928E-02 0. -1.
</event>
<event>
 5   0  0.4173467E-06  0.3391250E+04  0.7818609E-02  0.8140057E-01
       -2   -1    0    0    0  501  0.00000000000E+00  0.00000000000E+00  0.22655476477E+04  0.22655476477E+04  0.25500000920E-02 0.  1.
        2   -1    0    0  501    0  0.00000000000E+00  0.00000000000E+00 -0.12690726477E+04  0.12690726477E+04  0.25500000920E-02 0. -1.
    10030    2    1    2    0    0  0.00000000000E+00  0.00000000000E+00  0.99647499996E+03  0.35346202955E+04  0.33912502425E+04 0.  0.
        4    1    3    3  502    0 -0.16008316800E+04  0.53413033260E+03  0.32638618379E+03  0.17188620752E+04  0.12699999809E+01 0. -1.
       -4    1    3    3    0  502  0.16008316800E+04 -0.53413033260E+03  0.67008881616E+03  0.18157582202E+04  0.12699999809E+01 0.  1.
</event>
<event>
 5   0  0.4400349E-06  0.2248620E+04  0.7818609E-02  0.8498460E-01
       -2   -1    0    0    0  501  0.00000000000E+00  0.00000000000E+00  0.47629501007E+03  0.47629501007E+03  0.25500000920E-02 0. -1.
        2   -1    0    0  501    0  0.00000000000E+00  0.00000000000E+00 -0.26539699275E+04  0.26539699275E+04  0.25500000920E-02 0.  1.
    10030    2    1    2    0    0  0.00000000000E+00  0.00000000000E+00 -0.21776749174E+04  0.31302649376E+04  0.22486196951E+04 0.  0.
        5    1    3    3  502    0 -0.10165754258E+04 -0.22718282187E+03 -0.16778265694E+04  0.19748827099E+04  0.46999998093E+01 0. -1.
       -5    1    3    3    0  502  0.10165754258E+04  0.22718282187E+03 -0.49984834806E+03  0.11553822277E+04  0.46999998093E+01 0.  1.
</event>
<event>
 5   0  0.1654257E-06  0.1729876E+04  0.7818609E-02  0.8744506E-01
       -1   -1    0    0    0  501  0.00000000000E+00  0.00000000000E+00  0.89624911320E+03  0.89624911322E+03  0.50400001928E-02 0. -1.
        1   -1    0    0  501    0  0.00000000000E+00  0.00000000000E+00 -0.83472115089E+03  0.83472115090E+03  0.50400001928E-02 0.  1.
    10030    2    1    2    0    0  0.00000000000E+00  0.00000000000E+00  0.61527962319E+02  0.17309702641E+04  0.17298764017E+04 0.  0.
        3    1    3    3  502    0  0.33004680381E+03  0.78161529627E+03 -0.13746346570E+03  0.85950542679E+03  0.10100000352E+00 0.  1.
       -3    1    3    3    0  502 -0.33004680381E+03 -0.78161529627E+03  0.19899142802E+03  0.87146483733E+03  0.10100000352E+00 0. -1.
</event>
<event>
 5   0  0.4344980E-06  0.2336675E+04  0.7818609E-02  0.8463599E-01
        2   -1    0    0  501    0  0.00000000000E+00  0.00000000000E+00  0.21405565441E+04  0.21405565441E+04  0.25500000920E-02 0. -1.
       -2   -1    0    0    0  501  0.00000000000E+00  0.00000000000E+00 -0.63769049822E+03  0.63769049822E+03  0.25500000920E-02 0.  1.
    10030    2    1    2    0    0  0.00000000000E+00  0.00000000000E+00  0.15028660458E+04  0.27782470423E+04  0.23366750472E+04 0.  0.
        3    1    3    3  502    0 -0.43857347739E+03 -0.94991680221E+03  0.13696127924E+04  0.17235219284E+04  0.10100000352E+00 0.  1.
       -3    1    3    3    0  502  0.43857347739E+03  0.94991680221E+03  0.13325325344E+03  0.10547251139E+04  0.10100000352E+00 0. -1.
</event>
<event>
 5   0  0.1562618E-06  0.3224241E+04  0.7818609E-02  0.8182444E-01
        1   -1    0    0  501    0  0.00000000000E+00  0.00000000000E+00  0.19120289741E+04  0.19120289741E+04  0.50400001928E-02 0. -1.
       -1   -1    0    0    0  501  0.00000000000E+00  0.00000000000E+00 -0.13592535656E+04  0.13592535656E+04  0.50400001928E-02 0.  1.
    10030    2    1    2    0    0  0.00000000000E+00  0.00000000000E+00  0.55277540845E+03  0.32712825397E+04  0.32242408103E+04 0.  0.
        2    1    3    3  502    0 -0.86489055343E+03 -0.13081534113E+04  0.65551215563E+03  0.16997050341E+04  0.25500000920E-02 0.  1.
       -2    1    3    3    0  502  0.86489055343E+03  0.13081534113E+04 -0.10273674718E+03  0.15715775056E+04  0.25500000920E-02 0. -1.
</event>
<event>
 5   0  0.1654257E-06  0.3412580E+04  0.7818609E-02  0.8134826E-01
       -1   -1    0    0    0  501  0.00000000000E+00  0.00000000000E+00  0.13078855254E+04  0.13078855254E+04  0.50400001928E-02 0.  1.
        1   -1    0    0  501    0  0.00000000000E+00  0.00000000000E+00 -0.22260554291E+04  0.22260554291E+04  0.50400001928E-02 0. -1.
    10030    2    1    2    0    0  0.00000000000E+00  0.00000000000E+00 -0.91816990367E+03  0.35339409545E+04  0.34125800647E+04 0.  0.
        3    1    3    3  502    0  0.76153499840E+03 -0.11209280550E+04 -0.15327845083E+04  0.20459334342E+04  0.10100000352E+00 0. -1.
       -3    1    3    3    0  502 -0.76153499840E+03  0.11209280550E+04  0.61461460459E+03  0.14880075203E+04  0.10100000352E+00 0.  1.
</event>
<event>
 5   0  0.2326524E-06  0.1775010E+04  0.7818609E-02  0.8719703E-01
       -1   -1    0    0    0  501  0.00000000000E+00  0.00000000000E+00  0.12238031634E+04  0.12238031634E+04  0.50400001928E-02 0. -1.
        1   -1    0    0  501    0  0.00000000000E+00  0.00000000000E+00 -0.64362075828E+03  0.64362075830E+03  0.50400001928E-02 0.  1.
    10030    2    1    2    0    0  0.00000000000E+00  0.00000000000E+00  0.58018240511E+03  0.18674239217E+04  0.17750099944E+04 0.  0.
        5    1    3    3  502    0 -0.80874100906E+03 -0.36412292752E+03  0.32328550985E+03  0.94402496628E+03  0.46999998093E+01 0.  1.
       -5    1    3    3    0  502  0.80874100906E+03  0.36412292752E+03  0.25689689526E+03  0.92339895543E+03  0.46999998093E+01 0. -1.
</event>
<event>
 5   0  0.2722449E-06  0.3371199E+04  0.7818609E-02  0.8145011E-01
        2   -1    0    0  501    0  0.00000000000E+00  0.00000000000E+00  0.18826782669E+04  0.18826782669E+04  0.25500000920E-02 0.  1.
       -2   -1    0    0    0  501  0.00000000000E+00  0.00000000000E+00 -0.15091507772E+04  0.15091507772E+04  0.25500000920E-02 0. -1.
    10030    2    1    2    0    0  0.00000000000E+00  0.00000000000E+00  0.37352748978E+03  0.33918290441E+04  0.33711988192E+04 0.  0.
        2    1    3    3  502    0  0.47006487155E+03 -0.14496721150E+03 -0.14353271753E+04  0.15172806517E+04  0.25500000920E-02 0. -1.
       -2    1    3    3    0  502 -0.47006487155E+03  0.14496721150E+03  0.18088546651E+04  0.18745483924E+04  0.25500000920E-02 0.  1.
</event>
<event>
 5   0  0.2722449E-06  0.3014626E+04  0.7818609E-02  0.8239567E-01
        2   -1    0    0  501    0  0.00000000000E+00  0.00000000000E+00  0.19013102938E+04  0.19013102938E+04  0.25500000920E-02 0. -1.
       -2   -1    0    0    0  501  0.00000000000E+00  0.00000000000E+00 -0.11949612897E+04  0.11949612897E+04  0.25500000920E-02 0.  1.
    10030    2    1    2    0    0  0.00000000000E+00  0.00000000000E+00  0.70634900410E+03  0.30962715835E+04  0.30146258148E+04 0.  0.
        2    1    3    3  502    0 -0.61264638265E+03  0.70921857532E+03  0.15656833796E+04  0.18247440979E+04  0.25500000920E-02 0. -1.
       -2    1    3    3    0  502  0.61264638265E+03 -0.70921857532E+03 -0.85933437549E+03  0.12715274856E+04  0.25500000920E-02 0.  1.
</event>
<event>
 5   0  0.4344980E-06  0.3390765E+04  0.7818609E-02  0.8140177E-01
        2   -1    0    0  501    0  0.00000000000E+00  0.00000000000E+00  0.18928573055E+04  0.18928573055E+04  0.25500000920E-02 0. -1.
       -2   -1    0    0    0  501  0.00000000000E+00  0.00000000000E+00 -0.15185098770E+04  0.15185098770E+04  0.25500000920E-02 0.  1.
    10030    2    1    2    0    0  0.00000000000E+00  0.00000000000E+00  0.37434742848E+03  0.34113671825E+04  0.33907654087E+04 0.  0.
        3    1    3    3  502    0 -0.10453224480E+04  0.12009137903E+04  0.77331936722E+03  0.17700044650E+04  0.10100000352E+00 0. -1.
       -3    1    3    3    0  502  0.10453224480E+04 -0.12009137903E+04 -0.39897193873E+03  0.16413627175E+04  0.10100000352E+00 0.  1.
</event>
<event>
 5   0  0.2722449E-06  0.2932991E+04  0.7818609E-02  0.8263129E-01
        2   -1    0    0  501    0  0.00000000000E+00  0.00000000000E+00  0.19496347559E+04  0.19496347559E+04  0.25500000920E-02 0.  1.
       -2   -1    0    0    0  501  0.00000000000E+00  0.00000000000E+00 -0.11030833951E+04  0.11030833951E+04  0.25500000920E-02 0. -1.
    10030    2    1    2    0    0  0.00000000000E+00  0.00000000000E+00  0.84655136084E+03  0.30527181510E+04  0.29329914597E+04 0.  0.
        2    1    3    3  502    0 -0.34653790802E+03 -0.12150794426E+04 -0.35149150970E+03  0.13115078555E+04  0.25500000920E-02 0. -1.
       -2    1    3    3    0  502  0.34653790802E+03  0.12150794426E+04  0.11980428705E+04  0.17412102955E+04  0.25500000920E-02 0.  1.
</event>
<event>
 5   0  0.1571391E-06  0.2646223E+04  0.7818609E-02  0.8352668E-01
       -1   -1    0    0    0  501  0.00000000000E+00  0.00000000000E+00  0.16154274234E+04  0.16154274234E+04  0.50400001928E-02 0. -1.
        1   -1    0    0  501    0  0.00000000000E+00  0.00000000000E+00 -0.10836912031E+04  0.10836912031E+04  0.50400001928E-02 0.  1.
    10030    2    1    2    0    0  0.00000000000E+00  0.00000000000E+00  0.53173622028E+03  0.26991186265E+04  0.26462233375E+04 0.  0.
        1    1    3    3  502    0 -0.99878273695E+03 -0.86542505446E+03  0.20058078820E+03  0.13366974726E+04  0.50400001928E-02 0.  1.
       -1    1    3    3    0  502  0.99878273695E+03  0.86542505446E+03  0.33115543207E+03  0.13624211539E+04  0.50400001928E-02 0. -1.
</event>
<event>
 5   0  0.4173467E-06  0.3417396E+04  0.7818609E-02  0.8133650E-01
        2   -1    0    0  501    0  0.00000000000E+00  0.00000000000E+00  0.12976019547E+04  0.12976019547E+04  0.25500000920E-02 0. -1.
       -2   -1    0    0    0  501  0.00000000000E+00  0.00000000000E+00 -0.22500346025E+04  0.22500346025E+04  0.25500000920E-02 0.  1.
    10030    2    1    2    0    0  0.00000000000E+00  0.00000000000E+00 -0.95243264778E+03  0.35476365572E+04  0.34173962593E+04 0.  0.
        4    1    3    3  502    0 -0.56211803817E+03 -0.36744421788E+03 -0.21072917605E+04  0.22117124856E+04  0.12699999809E+01 0.  1.
       -4    1    3    3    0  502  0.56211803817E+03  0.36744421788E+03  0.11548591127E+04  0.13359240716E+04  0.12699999809E+01 0. -1.
</event>
<event>
 5   0  0.1562618E-06  0.2010549E+04  0.7818609E-02  0.8601704E-01
        1   -1    0    0  501    0  0.00000000000E+00  0.00000000000E+00  0.13006472240E+04  0.13006472240E+04  0.50400001928E-02 0. -1.
       -1   -1    0    0    0  501  0.00000000000E+00  0.00000000000E+00 -0.77698002279E+03  0.77698002281E+03  0.50400001928E-02 0.  1.
    10030    2    1    2    0    0  0.00000000000E+00  0.00000000000E+00  0.52366720121E+03  0.20776272468E+04  0.20105490890E+04 0.  0.
        2    1    3    3  502    0  0.53233429963E+03 -0.77973726146E+03  0.61861619530E+03  0.11287408917E+04  0.25500000920E-02 0.  1.
       -2    1    3    3    0  502 -0.53233429963E+03  0.77973726146E+03 -0.94948994084E+02  0.94888635513E+03  0.25500000920E-02 0. -1.
</event>
<event>
 5   0  0.4173467E-06  0.3390589E+04  0.7818609E-02  0.8140220E-01
        2   -1    0    0  501    0  0.00000000000E+00  0.00000000000E+00  0.15615128628E+04  0.15615128628E+04  0.25500000920E-02 0. -1.
       -2   -1    0    0    0  501  0.00000000000E+00  0.00000000000E+00 -0.18405372998E+04  0.18405372998E+04  0.25500000920E-02 0.  1.
    10030    2    1    2    0    0  0.00000000000E+00  0.00000000000E+00 -0.27902443704E+03  0.34020501626E+04  0.33905885436E+04 0.  0.
        4    1    3    3  502    0  0.88018708318E+03 -0.28965251699E+03  0.12849322209E+04  0.15841970544E+04  0.12699999809E+01 0. -1.
       -4    1    3    3    0  502 -0.88018708318E+03  0.28965251699E+03 -0.15639566579E+04  0.18178531081E+04  0.12699999809E+01 0.  1.
</event>
<event>
 5   0  0.1654257E-06  0.1723122E+04  0.7818609E-02  0.8748286E-01
       -1   -1    0    0    0  501  0.00000000000E+00  0.00000000000E+00  0.12654538217E+04  0.12654538217E+04  0.50400001928E-02 0. -1.
        1   -1    0    0  501    0  0.00000000000E+00  0.00000000000E+00 -0.58657795092E+03  0.58657795094E+03  0.50400001928E-02 0.  1.
    10030    2    1    2    0    0  0.00000000000E+00  0.00000000000E+00  0.67887587081E+03  0.18520317727E+04  0.17231219455E+04 0.  0.
        3    1    3    3  502    0 -0.13167452428E+03  0.62386834913E+03 -0.28333865894E+03  0.69773254420E+03  0.10100000352E+00 0.  1.
       -3    1    3    3    0  502  0.13167452428E+03 -0.62386834913E+03  0.96221452975E+03  0.11542992285E+04  0.10100000352E+00 0. -1.
</event>
<event>
 5   0  0.4189587E-06  0.3386178E+04  0.7818609E-02  0.8141307E-01
       -2   -1    0    0    0  501  0.00000000000E+00  0.00000000000E+00  0.10047667518E+04  0.10047667518E+04  0.25500000920E-02 0. -1.
        2   -1    0    0  501    0  0.00000000000E+00  0.00000000000E+00 -0.28529504885E+04  0.28529504885E+04  0.25500000920E-02 0.  1.
    10030    2    1    2    0    0  0.00000000000E+00  0.00000000000E+00 -0.18481837367E+04  0.38577172404E+04  0.33861776655E+04 0.  0.
        1    1    3    3  502    0 -0.16754472798E+04  0.30596501071E+01 -0.64639214283E+03  0.17958161797E+04  0.50400001928E-02 0. -1.
       -1    1    3    3    0  502  0.16754472798E+04 -0.30596501071E+01 -0.12017915939E+04  0.20619010607E+04  0.50400001928E-02 0.  1.
</event>
<event>
 5   0  0.2435160E-06  0.1696453E+04  0.7818609E-02  0.8763390E-01
       -1   -1    0    0    0  501  0.00000000000E+00  0.00000000000E+00  0.37103864220E+03  0.37103864223E+03  0.50400001928E-02 0.  1.
        1   -1    0    0  501    0  0.00000000000E+00  0.00000000000E+00 -0.19391193552E+04  0.19391193552E+04  0.50400001928E-02 0. -1.
    10030    2    1    2    0    0  0.00000000000E+00  0.00000000000E+00 -0.15680807130E+04  0.23101579974E+04  0.16964530205E+04 0.  0.
        5    1    3    3  502    0  0.21029260541E+03  0.65412566895E+03 -0.10676231070E+03  0.69535864966E+03  0.46999998093E+01 0.  1.
       -5    1    3    3    0  502 -0.21029260541E+03 -0.65412566895E+03 -0.14613184023E+04  0.16147993478E+04  0.46999998093E+01 0. -1.
</event>
<event>
 5   0  0.4173467E-06  0.2948278E+04  0.7818609E-02  0.8258657E-01
       -2   -1    0    0    0  501  0.00000000000E+00  0.00000000000E+00  0.12954887286E+04  0.12954887286E+04  0.25500000920E-02 0. -1.
        2   -1    0    0  501    0  0.00000000000E+00  0.00000000000E+00 -0.16774254953E+04  0.16774254953E+04  0.25500000920E-02 0.  1.
    10030    2    1    2    0    0  0.00000000000E+00  0.00000000000E+00 -0.38193676671E+03  0.29729142238E+04  0.29482780209E+04 0.  0.
        4    1    3    3  502    0  0.10266758429E+04 -0.26110438731E+03  0.84270506846E+03  0.13536588318E+04  0.12699999809E+01 0. -1.
       -4    1    3    3    0  502 -0.10266758429E+04  0.26110438731E+03 -0.12246418352E+04  0.16192553921E+04  0.12699999809E+01 0.  1.
</event>
<event>
 5   0  0.4189587E-06  0.2962133E+04  0.7818609E-02  0.8254627E-01
       -2   -1    0    0    0  501  0.00000000000E+00  0.00000000000E+00  0.94431685289E+03  0.94431685289E+03  0.25500000920E-02 0. -1.
        2   -1    0    0  501    0  0.00000000000E+00  0.00000000000E+00 -0.23229048789E+04  0.23229048789E+04  0.25500000920E-02 0.  1.
    10030    2    1    2    0    0  0.00000000000E+00  0.00000000000E+00 -0.13785880260E+04  0.32672217318E+04  0.29621331670E+04 0.  0.
        1    1    3    3  502    0 -0.36334727209E+02 -0.76080747918E+03  0.71173265264E+03  0.10424546041E+04  0.50400001928E-02 0. -1.
       -1    1    3    3    0  502  0.36334727209E+02  0.76080747918E+03 -0.20903206786E+04  0.22247671276E+04  0.50400001928E-02 0.  1.
</event>
<event>
 5   0  0.2273153E-06  0.1830209E+04  0.7818609E-02  0.8690397E-01
       -1   -1    0    0    0  501  0.00000000000E+00  0.00000000000E+00  0.88186212993E+03  0.88186212994E+03  0.50400001928E-02 0.  1.
        1   -1    0    0  501    0  0.00000000000E+00  0.00000000000E+00 -0.94960027144E+03  0.94960027145E+03  0.50400001928E-02 0. -1.
    10030    2    1    2    0    0  0.00000000000E+00  0.00000000000E+00 -0.67738141510E+02  0.18314624014E+04  0.18302092973E+04 0.  0.
        5    1    3    3  502    0 -0.26624489927E+03 -0.57087462053E+03  0.63037019946E+03  0.89116376560E+03  0.46999998093E+01 0.  1.
       -5    1    3    3    0  502  0.26624489927E+03  0.57087462053E+03 -0.69810834097E+03  0.94029863579E+03  0.46999998093E+01 0. -1.
</event>
<event>
 5   0  0.1562618E-06  0.3445505E+04  0.7818609E-02  0.8126827E-01
        1   -1    0    0  501    0  0.00000000000E+00  0.00000000000E+00  0.19876684288E+04  0.19876684288E+04  0.50400001928E-02 0. -1.
       -1   -1    0    0    0  501  0.00000000000E+00  0.00000000000E+00 -0.14931447317E+04  0.14931447317E+04  0.50400001928E-02 0.  1.
    10030    2    1    2    0    0  0.00000000000E+00  0.00000000000E+00  0.49452369705E+03  0.34808131605E+04  0.34455052708E+04 0.  0.
        2    1    3    3  502    0  0.83571554607E+03  0.14860191464E+04  0.49718995019E+03  0.17759141939E+04  0.25500000920E-02 0. -1.
       -2    1    3    3    0  502 -0.83571554607E+03 -0.14860191464E+04 -0.26662531406E+01  0.17048989666E+04  0.25500000920E-02 0.  1.
</event>
<event>
 5   0  0.1562618E-06  0.3324898E+04  0.7818609E-02  0.8156589E-01
       -1   -1    0    0    0  501  0.00000000000E+00  0.00000000000E+00  0.18777306403E+04  0.18777306404E+04  0.50400001928E-02 0.  1.
        1   -1    0    0  501    0  0.00000000000E+00  0.00000000000E+00 -0.14718495993E+04  0.14718495993E+04  0.50400001928E-02 0. -1.
    10030    2    1    2    0    0  0.00000000000E+00  0.00000000000E+00  0.40588104107E+03  0.33495802396E+04  0.33248982484E+04 0.  0.
        2    1    3    3  502    0 -0.16601743177E+04  0.29845034710E+02  0.12067899205E+03  0.16648221858E+04  0.25500000920E-02 0.  1.
       -2    1    3    3    0  502  0.16601743177E+04 -0.29845034710E+02  0.28520204901E+03  0.16847580538E+04  0.25500000920E-02 0. -1.
</event>
<event>
 5   0  0.4173467E-06  0.3301547E+04  0.7818609E-02  0.8162502E-01
       -2   -1    0    0    0  501  0.00000000000E+00  0.00000000000E+00  0.14907151007E+04  0.14907151007E+04  0.25500000920E-02 0. -1.
        2   -1    0    0  501    0  0.00000000000E+00  0.00000000000E+00 -0.18280178129E+04  0.18280178129E+04  0.25500000920E-02 0.  1.
    10030    2    1    2    0    0  0.00000000000E+00  0.00000000000E+00 -0.33730271224E+03  0.33187329136E+04  0.33015473694E+04 0.  0.
        4    1    3    3  502    0 -0.22263356348E+03  0.58278061062E+03  0.13676539927E+04  0.15032225385E+04  0.12699999809E+01 0. -1.
       -4    1    3    3    0  502  0.22263356348E+03 -0.58278061062E+03 -0.17049567049E+04  0.18155103751E+04  0.12699999809E+01 0.  1.
</event>
<event>
 5   0  0.4189587E-06  0.3288264E+04  0.7818609E-02  0.8165888E-01
       -2   -1    0    0    0  501  0.00000000000E+00  0.00000000000E+00  0.14745640848E+04  0.14745640848E+04  0.25500000920E-02 0. -1.
        2   -1    0    0  501    0  0.00000000000E+00  0.00000000000E+00 -0.18331989487E+04  0.18331989487E+04  0.25500000920E-02 0.  1.
    10030    2    1    2    0    0  0.00000000000E+00  0.00000000000E+00 -0.35863486388E+03  0.33077630335E+04  0.32882635722E+04 0.  0.
        1    1    3    3  502    0 -0.12704232050E+04 -0.10056872928E+04  0.10124018151E+03  0.16234628500E+04  0.50400001928E-02 0. -1.
       -1    1    3    3    0  502  0.12704232050E+04  0.10056872928E+04 -0.45987504539E+03  0.16843001835E+04  0.50400001928E-02 0.  1.
</event>
<event>
 5   0  0.2030817E-06  0.1842022E+04  0.7818609E-02  0.8684266E-01
       -1   -1    0    0    0  501  0.00000000000E+00  0.00000000000E+00  0.62717142689E+03  0.62717142691E+03  0.50400001928E-02 0. -1.
        1   -1    0    0  501    0  0.00000000000E+00  0.00000000000E+00 -0.13525195944E+04  0.13525195944E+04  0.50400001928E-02 0.  1.
    10030    2    1    2    0    0  0.00000000000E+00  0.00000000000E+00 -0.72534816749E+03  0.19796910213E+04  0.18420224146E+04 0.  0.
        4    1    3    3  502    0  0.27223616734E+03  0.18191557210E+03 -0.12878567695E+04  0.13288274823E+04  0.12699999809E+01 0.  1.
       -4    1    3    3    0  502 -0.27223616734E+03 -0.18191557210E+03  0.56250860198E+03  0.65086353899E+03  0.12699999809E+01 0. -1.
</event>
<event>
 5   0  0.4344980E-06  0.3260857E+04  0.7818609E-02  0.8172927E-01
       -2   -1    0    0    0  501  0.00000000000E+00  0.00000000000E+00  0.11185847353E+04  0.11185847353E+04  0.25500000920E-02 0.  1.
        2   -1    0    0  501    0  0.00000000000E+00  0.00000000000E+00 -0.23764824188E+04  0.23764824188E+04  0.25500000920E-02 0. -1.
    10030    2    1    2    0    0  0.00000000000E+00  0.00000000000E+00 -0.12578976835E+04  0.34950671541E+04  0.32608569164E+04 0.  0.
        3    1    3    3  502    0 -0.51648094718E+03 -0.10910432111E+04  0.54574814797E+03  0.13247523951E+04  0.10100000352E+00 0.  1.
       -3    1    3    3    0  502  0.51648094718E+03  0.10910432111E+04 -0.18036458315E+04  0.21703147590E+04  0.10100000352E+00 0. -1.
</event>
<event>
 5   0  0.1562618E-06  0.3025875E+04  0.7818609E-02  0.8236381E-01
        1   -1    0    0  501    0  0.00000000000E+00  0.00000000000E+00  0.15859199750E+04  0.15859199750E+04  0.50400001928E-02 0.  1.
       -1   -1    0    0    0  501  0.00000000000E+00  0.00000000000E+00 -0.14433133897E+04  0.14433133897E+04  0.50400001928E-02 0. -1.
    10030    2    1    2    0    0  0.00000000000E+00  0.00000000000E+00  0.14260658530E+03  0.30292333648E+04  0.30258747727E+04 0.  0.
        2    1    3    3  502    0 -0.14292089446E+04  0.44394530966E+03 -0.15087521634E+03  0.15041572312E+04  0.25500000920E-02 0. -1.
       -2    1    3    3    0  502  0.14292089446E+04 -0.44394530966E+03  0.29348180164E+03  0.15250761336E+04  0.25500000920E-02 0.  1.
</event>
<event>
 5   0  0.1654257E-06  0.3383215E+04  0.7818609E-02  0.8142038E-01
       -1   -1    0    0    0  501  0.00000000000E+00  0.00000000000E+00  0.19512015103E+04  0.19512015103E+04  0.50400001928E-02 0. -1.
        1   -1    0    0  501    0  0.00000000000E+00  0.00000000000E+00 -0.14665505158E+04  0.14665505158E+04  0.50400001928E-02 0.  1.
    10030    2    1    2    0    0  0.00000000000E+00  0.00000000000E+00  0.48465099451E+03  0.34177520261E+04  0.33832147915E+04 0.  0.
        3    1    3    3  502    0  0.12220384141E+04  0.83349512506E+03  0.10713389561E+04  0.18264334585E+04  0.10100000352E+00 0.  1.
       -3    1    3    3    0  502 -0.12220384141E+04 -0.83349512506E+03 -0.58668796161E+03  0.15913185676E+04  0.10100000352E+00 0. -1.
</event>
<event>
 5   0  0.1401125E-06  0.2459468E+04  0.7818609E-02  0.8417569E-01
       -3   -1    0    0    0  501  0.00000000000E+00  0.00000000000E+00  0.12703178015E+04  0.12703178056E+04  0.10100000352E+00 0.  1.
        3   -1    0    0  501    0  0.00000000000E+00  0.00000000000E+00 -0.11904468229E+04  0.11904468272E+04  0.10100000352E+00 0. -1.
    10030    2    1    2    0    0  0.00000000000E+00  0.00000000000E+00  0.79870978616E+02  0.24607646328E+04  0.24594680735E+04 0.  0.
        5    1    3    3  502    0 -0.94043907259E+03 -0.70473620912E+03  0.40226578808E+03  0.12421427567E+04  0.46999998093E+01 0.  1.
       -5    1    3    3    0  502  0.94043907259E+03  0.70473620912E+03 -0.32239480947E+03  0.12186218761E+04  0.46999998093E+01 0. -1.
</event>
<event>
 5   0  0.1562618E-06  0.2709480E+04  0.7818609E-02  0.8331936E-01
        1   -1    0    0  501    0  0.00000000000E+00  0.00000000000E+00  0.15205863125E+04  0.15205863125E+04  0.50400001928E-02 0. -1.
       -1   -1    0    0    0  501  0.00000000000E+00  0.00000000000E+00 -0.12069819794E+04  0.12069819794E+04  0.50400001928E-02 0.  1.
    10030    2    1    2    0    0  0.00000000000E+00  0.00000000000E+00  0.31360433312E+03  0.27275682920E+04  0.27094798596E+04 0.  0.
        2    1    3    3  502    0 -0.20054838320E+03 -0.85348618207E+03  0.11964903540E+04  0.14833231220E+04  0.25500000920E-02 0. -1.
       -2    1    3    3    0  502  0.20054838320E+03  0.85348618207E+03 -0.88288602093E+03  0.12442451700E+04  0.25500000920E-02 0.  1.
</event>
<event>
 5   0  0.2722449E-06  0.3368643E+04  0.7818609E-02  0.8145645E-01
       -2   -1    0    0    0  501  0.00000000000E+00  0.00000000000E+00  0.10989917998E+04  0.10989917998E+04  0.25500000920E-02 0. -1.
        2   -1    0    0  501    0  0.00000000000E+00  0.00000000000E+00 -0.25814019538E+04  0.25814019538E+04  0.25500000920E-02 0.  1.
    10030    2    1    2    0    0  0.00000000000E+00  0.00000000000E+00 -0.14824101539E+04  0.36803937536E+04  0.33686433942E+04 0.  0.
        2    1    3    3  502    0  0.79739827537E+03  0.14833730299E+04 -0.77011158716E+03  0.18518400072E+04  0.25500000920E-02 0.  1.
       -2    1    3    3    0  502 -0.79739827537E+03 -0.14833730299E+04 -0.71229856675E+03  0.18285537464E+04  0.25500000920E-02 0. -1.
</event>
<event>
 5   0  0.1550164E-06  0.3484542E+04  0.7818609E-02  0.8117463E-01
       -1   -1    0    0    0  501  0.00000000000E+00  0.00000000000E+00  0.19899339319E+04  0.19899339319E+04  0.50400001928E-02 0. -1.
        1   -1    0    0  501    0  0.00000000000E+00  0.00000000000E+00 -0.15254312568E+04  0.15254312568E+04  0.50400001928E-02 0.  1.
    10030    2    1    2    0    0  0.00000000000E+00  0.00000000000E+00  0.46450267511E+03  0.35153651886E+04  0.34845415300E+04 0.  0.
        4    1    3    3  502    0  0.12557289919E+04 -0.10234101684E+04 -0.41473442513E+03  0.16721931497E+04  0.12699999809E+01 0.  1.
       -4    1    3    3    0  502 -0.12557289919E+04  0.10234101684E+04  0.87923710024E+03  0.18431720389E+04  0.12699999809E+01 0. -1.
</event>
<event>
 5   0  0.1654257E-06  0.3418438E+04  0.7818609E-02  0.8133396E-01
       -1   -1    0    0    0  501  0.00000000000E+00  0.00000000000E+00  0.26568359491E+04  0.26568359491E+04  0.50400001928E-02 0.  1.
        1   -1    0    0  501    0  0.00000000000E+00  0.00000000000E+00 -0.10995897842E+04  0.10995897842E+04  0.50400001928E-02 0. -1.
    10030    2    1    2    0    0  0.00000000000E+00  0.00000000000E+00  0.15572461649E+04  0.37564257333E+04  0.34184380456E+04 0.  0.
        3    1    3    3  502    0  0.72532614450E+03 -0.74685239685E+03  0.22682100551E+04  0.24957290283E+04  0.10100000352E+00 0.  1.
       -3    1    3    3    0  502 -0.72532614450E+03  0.74685239685E+03 -0.71096389019E+03  0.12606967050E+04  0.10100000352E+00 0. -1.
</event>
<event>
 5   0  0.2722449E-06  0.3371522E+04  0.7818609E-02  0.8144931E-01
       -2   -1    0    0    0  501  0.00000000000E+00  0.00000000000E+00  0.11310645117E+04  0.11310645117E+04  0.25500000920E-02 0. -1.
        2   -1    0    0  501    0  0.00000000000E+00  0.00000000000E+00 -0.25124919667E+04  0.25124919667E+04  0.25500000920E-02 0.  1.
    10030    2    1    2    0    0  0.00000000000E+00  0.00000000000E+00 -0.13814274550E+04  0.36435564785E+04  0.33715222079E+04 0.  0.
        2    1    3    3  502    0  0.13133185118E+04 -0.21313341151E+02 -0.18326314705E+04  0.22547278946E+04  0.25500000920E-02 0.  1.
       -2    1    3    3    0  502 -0.13133185118E+04  0.21313341151E+02  0.45120401543E+03  0.13888285839E+04  0.25500000920E-02 0. -1.
</event>
<event>
 5   0  0.2722449E-06  0.3439162E+04  0.7818609E-02  0.8128361E-01
       -2   -1    0    0    0  501  0.00000000000E+00  0.00000000000E+00  0.18384701865E+04  0.18384701865E+04  0.25500000920E-02 0. -1.
        2   -1    0    0  501    0  0.00000000000E+00  0.00000000000E+00 -0.16083798226E+04  0.16083798226E+04  0.25500000920E-02 0.  1.
    10030    2    1    2    0    0  0.00000000000E+00  0.00000000000E+00  0.23009036389E+03  0.34468500091E+04  0.34391617307E+04 0.  0.
        2    1    3    3  502    0 -0.75957839731E+03 -0.12937475398E+04 -0.72720023937E+03  0.16672019154E+04  0.25500000920E-02 0. -1.
       -2    1    3    3    0  502  0.75957839731E+03  0.12937475398E+04  0.95729060326E+03  0.17796480937E+04  0.25500000920E-02 0.  1.
</event>
<event>
 5   0  0.2453197E-06  0.1726362E+04  0.7818609E-02  0.8746470E-01
       -1   -1    0    0    0  501  0.00000000000E+00  0.00000000000E+00  0.47132207380E+03  0.47132207382E+03  0.50400001928E-02 0.  1.
        1   -1    0    0  501    0  0.00000000000E+00  0.00000000000E+00 -0.15808333038E+04  0.15808333038E+04  0.50400001928E-02 0. -1.
    10030    2    1    2    0    0  0.00000000000E+00  0.00000000000E+00 -0.11095112300E+04  0.20521553776E+04  0.17263622228E+04 0.  0.
        5    1    3    3  502    0 -0.59181029839E+03 -0.43826827865E+03 -0.19514905279E+02  0.73669629759E+03  0.46999998093E+01 0.  1.
       -5    1    3    3    0  502  0.59181029839E+03  0.43826827865E+03 -0.10899963247E+04  0.13154590800E+04  0.46999998093E+01 0. -1.
</event>
<event>
 5   0  0.4173467E-06  0.1932061E+04  0.7818609E-02  0.8639060E-01
        2   -1    0    0  501    0  0.00000000000E+00  0.00000000000E+00  0.15683990867E+04  0.15683990867E+04  0.25500000920E-02 0. -1.
       -2   -1    0    0    0  501  0.00000000000E+00  0.00000000000E+00 -0.59501117670E+03  0.59501117670E+03  0.25500000920E-02 0.  1.
    10030    2    1    2    0    0  0.00000000000E+00  0.00000000000E+00  0.97338790997E+03  0.21634102634E+04  0.19320610612E+04 0.  0.
        4    1    3    3  502    0  0.40194164358E+02 -0.78530618574E+03 -0.14165203735E+03  0.79899204551E+03  0.12699999809E+01 0.  1.
       -4    1    3    3    0  502 -0.40194164358E+02  0.78530618574E+03  0.11150399473E+04  0.13644182179E+04  0.12699999809E+01 0. -1.
</event>
<event>
 5   0  0.1562618E-06  0.3500525E+04  0.7818609E-02  0.8113666E-01
        1   -1    0    0  501    0  0.00000000000E+00  0.00000000000E+00  0.18400545689E+04  0.18400545689E+04  0.50400001928E-02 0. -1.
       -1   -1    0    0    0  501  0.00000000000E+00  0.00000000000E+00 -0.16648520636E+04  0.16648520636E+04  0.50400001928E-02 0.  1.
    10030    2    1    2    0    0  0.00000000000E+00  0.00000000000E+00  0.17520250527E+03  0.35049066325E+04  0.35005249013E+04 0.  0.
        2    1    3    3  502    0  0.76249452257E+03  0.38280157004E+03 -0.14425406304E+04  0.16759649188E+04  0.25500000920E-02 0.  1.
       -2    1    3    3    0  502 -0.76249452257E+03 -0.38280157004E+03  0.16177431356E+04  0.18289417136E+04  0.25500000920E-02 0. -1.
</event>
<event>
 5   0  0.4344980E-06  0.3215678E+04  0.7818609E-02  0.8184689E-01
       -2   -1    0    0    0  501  0.00000000000E+00  0.00000000000E+00  0.14673251566E+04  0.14673251566E+04  0.25500000920E-02 0.  1.
        2   -1    0    0  501    0  0.00000000000E+00  0.00000000000E+00 -0.17618088874E+04  0.17618088874E+04  0.25500000920E-02 0. -1.
    10030    2    1    2    0    0  0.00000000000E+00  0.00000000000E+00 -0.29448373076E+03  0.32291340440E+04  0.32156781565E+04 0.  0.
        3    1    3    3  502    0 -0.14382488357E+04 -0.29874244176E+03  0.50920583927E+03  0.15547016939E+04  0.10100000352E+00 0. -1.
       -3    1    3    3    0  502  0.14382488357E+04  0.29874244176E+03 -0.80368957003E+03  0.16744323501E+04  0.10100000352E+00 0.  1.
</event>
<event>
 5   0  0.1562618E-06  0.3369730E+04  0.7818609E-02  0.8145376E-01
        1   -1    0    0  501    0  0.00000000000E+00  0.00000000000E+00  0.10751872906E+04  0.10751872906E+04  0.50400001928E-02 0. -1.
       -1   -1    0    0    0  501  0.00000000000E+00  0.00000000000E+00 -0.26402569174E+04  0.26402569174E+04  0.50400001928E-02 0.  1.
    10030    2    1    2    0    0  0.00000000000E+00  0.00000000000E+00 -0.15650696268E+04  0.37154442080E+04  0.33697303640E+04 0.  0.
        2    1    3    3  502    0 -0.12771531454E+04 -0.10116332321E+03  0.42399543198E+03  0.13494911267E+04  0.25500000920E-02 0. -1.
       -2    1    3    3    0  502  0.12771531454E+04  0.10116332321E+03 -0.19890650588E+04  0.23659530813E+04  0.25500000920E-02 0.  1.
</event>
<event>
 5   0  0.4189587E-06  0.3402759E+04  0.7818609E-02  0.8137229E-01
        2   -1    0    0  501    0  0.00000000000E+00  0.00000000000E+00  0.17881331456E+04  0.17881331456E+04  0.25500000920E-02 0.  1.
       -2   -1    0    0    0  501  0.00000000000E+00  0.00000000000E+00 -0.16188351431E+04  0.16188351431E+04  0.25500000920E-02 0. -1.
    10030    2    1    2    0    0  0.00000000000E+00  0.00000000000E+00  0.16929800255E+03  0.34069682887E+04  0.34027593371E+04 0.  0.
        1    1    3    3  502    0  0.12195257001E+04 -0.52552434111E+03 -0.98028026349E+03  0.16505660124E+04  0.50400001928E-02 0. -1.
       -1    1    3    3    0  502 -0.12195257001E+04  0.52552434111E+03  0.11495782660E+04  0.17564022763E+04  0.50400001928E-02 0.  1.
</event>
<event>
 5   0  0.4400349E-06  0.3085777E+04  0.7818609E-02  0.8219652E-01
       -2   -1    0    0    0  501  0.00000000000E+00  0.00000000000E+00  0.93303549626E+03  0.93303549626E+03  0.25500000920E-02 0. -1.
        2   -1    0    0  501    0  0.00000000000E+00  0.00000000000E+00 -0.25513555581E+04  0.25513555581E+04  0.25500000920E-02 0.  1.
    10030    2    1    2    0    0  0.00000000000E+00  0.00000000000E+00 -0.16183200619E+04  0.34843910544E+04  0.30857772436E+04 0.  0.
        5    1    3    3  502    0  0.37486869437E+03  0.79380608955E+03  0.62352964903E+03  0.10767850106E+04  0.46999998093E+01 0. -1.
       -5    1    3    3    0  502 -0.37486869437E+03 -0.79380608955E+03 -0.22418497109E+04  0.24076060438E+04  0.46999998093E+01 0.  1.
</event>
<event>
 5   0  0.2722449E-06  0.3519758E+04  0.7818609E-02  0.8109124E-01
        2   -1    0    0  501    0  0.00000000000E+00  0.00000000000E+00  0.16875761941E+04  0.16875761941E+04  0.25500000920E-02 0. -1.
       -2   -1    0    0    0  501  0.00000000000E+00  0.00000000000E+00 -0.18352793567E+04  0.18352793567E+04  0.25500000920E-02 0.  1.
    10030    2    1    2    0    0  0.00000000000E+00  0.00000000000E+00 -0.14770316261E+03  0.35228555509E+04  0.35197578053E+04 0.  0.
        2    1    3    3  502    0 -0.10497819243E+04 -0.97465687789E+03  0.94938649731E+03  0.17185263569E+04  0.25500000920E-02 0.  1.
       -2    1    3    3    0  502  0.10497819243E+04  0.97465687789E+03 -0.10970896599E+04  0.18043291939E+04  0.25500000920E-02 0. -1.
</event>
<event>
 5   0  0.2101998E-06  0.2467179E+04  0.7818609E-02  0.8414772E-01
        1   -1    0    0  501    0  0.00000000000E+00  0.00000000000E+00  0.13648640347E+04  0.13648640347E+04  0.50400001928E-02 0.  1.
       -1   -1    0    0    0  501  0.00000000000E+00  0.00000000000E+00 -0.11149409550E+04  0.11149409550E+04  0.50400001928E-02 0. -1.
    10030    2    1    2    0    0  0.00000000000E+00  0.00000000000E+00  0.24992307968E+03  0.24798049897E+04  0.24671788020E+04 0.  0.
        5    1    3    3  502    0  0.71453960681E+03  0.99494942619E+03 -0.21487621479E+02  0.12251428563E+04  0.46999998093E+01 0. -1.
       -5    1    3    3    0  502 -0.71453960681E+03 -0.99494942619E+03  0.27141070116E+03  0.12546621334E+04  0.46999998093E+01 0.  1.
</event>
<event>
 5   0  0.2722449E-06  0.3519446E+04  0.7818609E-02  0.8109197E-01
       -2   -1    0    0    0  501  0.00000000000E+00  0.00000000000E+00  0.13775824703E+04  0.13775824703E+04  0.25500000920E-02 0. -1.
        2   -1    0    0  501    0  0.00000000000E+00  0.00000000000E+00 -0.22478685680E+04  0.22478685680E+04  0.25500000920E-02 0.  1.
    10030    2    1    2    0    0  0.00000000000E+00  0.00000000000E+00 -0.87028609769E+03  0.36254510383E+04  0.35194456011E+04 0.  0.
        2    1    3    3  502    0  0.58893883015E+03  0.63331465201E+03 -0.20138460932E+04  0.21916916939E+04  0.25500000920E-02 0.  1.
       -2    1    3    3    0  502 -0.58893883015E+03 -0.63331465201E+03  0.11435599955E+04  0.14337593443E+04  0.25500000920E-02 0. -1.
</event>
<event>
 5   0  0.4344980E-06  0.1724762E+04  0.7818609E-02  0.8747367E-01
        2   -1    0    0  501    0  0.00000000000E+00  0.00000000000E+00  0.69457389572E+03  0.69457389572E+03  0.25500000920E-02 0. -1.
       -2   -1    0    0    0  501  0.00000000000E+00  0.00000000000E+00 -0.10707292255E+04  0.10707292255E+04  0.25500000920E-02 0.  1.
    10030    2    1    2    0    0  0.00000000000E+00  0.00000000000E+00 -0.37615532977E+03  0.17653031212E+04  0.17247615133E+04 0.  0.
        3    1    3    3  502    0 -0.23681494505E+02  0.48896983411E+03 -0.91472935984E+03  0.10374883729E+04  0.10100000352E+00 0.  1.
       -3    1    3    3    0  502  0.23681494505E+02 -0.48896983411E+03  0.53857403007E+03  0.72781474835E+03  0.10100000352E+00 0. -1.
</event>
<event>
 5   0  0.1550164E-06  0.1914071E+04  0.7818609E-02  0.8647884E-01
       -1   -1    0    0    0  501  0.00000000000E+00  0.00000000000E+00  0.41575065311E+03  0.41575065314E+03  0.50400001928E-02 0.  1.
        1   -1    0    0  501    0  0.00000000000E+00  0.00000000000E+00 -0.22030430888E+04  0.22030430888E+04  0.50400001928E-02 0. -1.
    10030    2    1    2    0    0  0.00000000000E+00  0.00000000000E+00 -0.17872924356E+04  0.26187937419E+04  0.19140706393E+04 0.  0.
        4    1    3    3  502    0 -0.87596066912E+03 -0.32392629950E+03 -0.11795914777E+04  0.15045507664E+04  0.12699999809E+01 0.  1.
       -4    1    3    3    0  502  0.87596066912E+03  0.32392629950E+03 -0.60770095793E+03  0.11142429755E+04  0.12699999809E+01 0. -1.
</event>
<event>
 5   0  0.4400349E-06  0.3351811E+04  0.7818609E-02  0.8149836E-01
       -2   -1    0    0    0  501  0.00000000000E+00  0.00000000000E+00  0.13102371841E+04  0.13102371841E+04  0.25500000920E-02 0. -1.
        2   -1    0    0  501    0  0.00000000000E+00  0.00000000000E+00 -0.21436272107E+04  0.21436272107E+04  0.25500000920E-02 0.  1.
    10030    2    1    2    0    0  0.00000000000E+00  0.00000000000E+00 -0.83339002667E+03  0.34538643948E+04  0.33518114984E+04 0.  0.
        5    1    3    3  502    0 -0.49185701888E+03 -0.16007679140E+04 -0.48392526001E+03  0.17431543216E+04  0.46999998093E+01 0. -1.
       -5    1    3    3    0  502  0.49185701888E+03  0.16007679140E+04 -0.34946476666E+03  0.17107100732E+04  0.46999998093E+01 0.  1.
</event>
<event>
 5   0  0.4344980E-06  0.3425896E+04  0.7818609E-02  0.8131580E-01
       -2   -1    0    0    0  501  0.00000000000E+00  0.00000000000E+00  0.15818192711E+04  0.15818192711E+04  0.25500000920E-02 0.  1.
        2   -1    0    0  501    0  0.00000000000E+00  0.00000000000E+00 -0.18549470561E+04  0.18549470561E+04  0.25500000920E-02 0. -1.
    10030    2    1    2    0    0  0.00000000000E+00  0.00000000000E+00 -0.27312778498E+03  0.34367663272E+04  0.34258960872E+04 0.  0.
        3    1    3    3  502    0  0.10540853749E+04  0.12267339049E+04 -0.70246276710E+03  0.17633564587E+04  0.10100000352E+00 0.  1.
       -3    1    3    3    0  502 -0.10540853749E+04 -0.12267339049E+04  0.42933498212E+03  0.16734098685E+04  0.10100000352E+00 0. -1.
</event>
<event>
 5   0  0.1571391E-06  0.3486400E+04  0.7818609E-02  0.8117020E-01
        1   -1    0    0  501    0  0.00000000000E+00  0.00000000000E+00  0.21997734291E+04  0.21997734291E+04  0.50400001928E-02 0.  1.
       -1   -1    0    0    0  501  0.00000000000E+00  0.00000000000E+00 -0.13813909408E+04  0.13813909408E+04  0.50400001928E-02 0. -1.
    10030    2    1    2    0    0  0.00000000000E+00  0.00000000000E+00  0.81838248828E+03  0.35811643699E+04  0.34864004857E+04 0.  0.
        1    1    3    3  502    0  0.11474820526E+04 -0.13946838118E+03  0.17494875522E+04  0.20968722388E+04  0.50400001928E-02 0.  1.
       -1    1    3    3    0  502 -0.11474820526E+04  0.13946838118E+03 -0.93110506392E+03  0.14842921311E+04  0.50400001928E-02 0. -1.
</event>
<event>
 5   0  0.4173467E-06  0.2089077E+04  0.7818609E-02  0.8566070E-01
        2   -1    0    0  501    0  0.00000000000E+00  0.00000000000E+00  0.11232373811E+04  0.11232373811E+04  0.25500000920E-02 0.  1.
       -2   -1    0    0    0  501  0.00000000000E+00  0.00000000000E+00 -0.97135374245E+03  0.97135374245E+03  0.25500000920E-02 0. -1.
    10030    2    1    2    0    0  0.00000000000E+00  0.00000000000E+00  0.15188363861E+03  0.20945911235E+04  0.20890771491E+04 0.  0.
        4    1    3    3  502    0  0.11029477609E+03 -0.15175353025E+03  0.11062069652E+04  0.11220024663E+04  0.12699999809E+01 0.  1.
       -4    1    3    3    0  502 -0.11029477609E+03  0.15175353025E+03 -0.95432332660E+03  0.97258865722E+03  0.12699999809E+01 0. -1.
</event>
<event>
 5   0  0.1550164E-06  0.2988453E+04  0.7818609E-02  0.8247036E-01
       -1   -1    0    0    0  501  0.00000000000E+00  0.00000000000E+00  0.17966036155E+04  0.17966036155E+04  0.50400001928E-02 0. -1.
        1   -1    0    0  501    0  0.00000000000E+00  0.00000000000E+00 -0.12427405873E+04  0.12427405874E+04  0.50400001928E-02 0.  1.
    10030    2    1    2    0    0  0.00000000000E+00  0.00000000000E+00  0.55386302816E+03  0.30393442029E+04  0.29884525978E+04 0.  0.
        4    1    3    3  502    0  0.34932356290E+03 -0.14323786632E+04  0.29948201212E+02  0.14746640614E+04  0.12699999809E+01 0.  1.
       -4    1    3    3    0  502 -0.34932356290E+03  0.14323786632E+04  0.52391482695E+03  0.15646801415E+04  0.12699999809E+01 0. -1.
</event>
<event>
 5   0  0.4173467E-06  0.3414921E+04  0.7818609E-02  0.8134254E-01
        2   -1    0    0  501    0  0.00000000000E+00  0.00000000000E+00  0.19984539382E+04  0.19984539382E+04  0.25500000920E-02 0. -1.
       -2   -1    0    0    0  501  0.00000000000E+00  0.00000000000E+00 -0.14588386831E+04  0.14588386831E+04  0.25500000920E-02 0.  1.
    10030    2    1    2    0    0  0.00000000000E+00  0.00000000000E+00  0.53961525509E+03  0.34572926214E+04  0.34149213236E+04 0.  0.
        4    1    3    3  502    0 -0.15173008644E+04 -0.48741570104E+03  0.89031057690E+03  0.18254945946E+04  0.12699999809E+01 0. -1.
       -4    1    3    3    0  502  0.15173008644E+04  0.48741570104E+03 -0.35069532181E+03  0.16317980268E+04  0.12699999809E+01 0.  1.
</event>
<event>
 5   0  0.4189587E-06  0.3030335E+04  0.7818609E-02  0.8235121E-01
        2   -1    0    0  501    0  0.00000000000E+00  0.00000000000E+00  0.16145552262E+04  0.16145552262E+04  0.25500000920E-02 0.  1.
       -2   -1    0    0    0  501  0.00000000000E+00  0.00000000000E+00 -0.14218978309E+04  0.14218978309E+04  0.25500000920E-02 0. -1.
    10030    2    1    2    0    0  0.00000000000E+00  0.00000000000E+00  0.19265739527E+03  0.30364530571E+04  0.30303350138E+04 0.  0.
        1    1    3    3  502    0  0.54142388773E+03  0.13992628164E+04  0.30807575567E+03  0.15316614923E+04  0.50400001928E-02 0.  1.
       -1    1    3    3    0  502 -0.54142388773E+03 -0.13992628164E+04 -0.11541836040E+03  0.15047915648E+04  0.50400001928E-02 0. -1.
</event>
<event>
 5   0  0.4344980E-06  0.3336255E+04  0.7818609E-02  0.8153731E-01
       -2   -1    0    0    0  501  0.00000000000E+00  0.00000000000E+00  0.13992590290E+04  0.13992590290E+04  0.25500000920E-02 0.  1.
        2   -1    0    0  501    0  0.00000000000E+00  0.00000000000E+00 -0.19886588064E+04  0.19886588064E+04  0.25500000920E-02 0. -1.
    10030    2    1    2    0    0  0.00000000000E+00  0.00000000000E+00 -0.58939977737E+03  0.33879178354E+04  0.33362546608E+04 0.  0.
        3    1    3    3  502    0  0.60261205166E+03 -0.71451930303E+03  0.11083502427E+04  0.14498687492E+04  0.10100000352E+00 0.  1.
       -3    1    3    3    0  502 -0.60261205166E+03  0.71451930303E+03 -0.16977500201E+04  0.19380490861E+04  0.10100000352E+00 0. -1.
</event>
<event>
 5   0  0.4344980E-06  0.3556451E+04  0.7818609E-02  0.8100540E-01
        2   -1    0    0  501    0  0.00000000000E+00  0.00000000000E+00  0.22705331332E+04  0.22705331332E+04  0.25500000920E-02 0. -1.
       -2   -1    0    0    0  501  0.00000000000E+00  0.00000000000E+00 -0.13926626626E+04  0.13926626626E+04  0.25500000920E-02 0.  1.
    10030    2    1    2    0    0  0.00000000000E+00  0.00000000000E+00  0.87787047060E+03  0.36631957957E+04  0.35564514442E+04 0.  0.
        3    1    3    3  502    0 -0.18414079915E+03  0.13563493918E+04 -0.73025357750E+03  0.15514063956E+04  0.10100000352E+00 0.  1.
       -3    1    3    3    0  502  0.18414079915E+03 -0.13563493918E+04  0.16081240481E+04  0.21117894002E+04  0.10100000352E+00 0. -1.
</event>
<event>
 5   0  0.1562618E-06  0.1787376E+04  0.7818609E-02  0.8713042E-01
        1   -1    0    0  501    0  0.00000000000E+00  0.00000000000E+00  0.14172102368E+04  0.14172102369E+04  0.50400001928E-02 0.  1.
       -1   -1    0    0    0  501  0.00000000000E+00  0.00000000000E+00 -0.56355682746E+03  0.56355682748E+03  0.50400001928E-02 0. -1.
    10030    2    1    2    0    0  0.00000000000E+00  0.00000000000E+00  0.85365340938E+03  0.19807670643E+04  0.17873762950E+04 0.  0.
        2    1    3    3  502    0 -0.83892684558E+03  0.15080052116E+03  0.12917810594E+03  0.86210558081E+03  0.25500000920E-02 0. -1.
       -2    1    3    3    0  502  0.83892684558E+03 -0.15080052116E+03  0.72447530344E+03  0.11186614835E+04  0.25500000920E-02 0.  1.
</event>
<event>
 5   0  0.1571391E-06  0.3232851E+04  0.7818609E-02  0.8180195E-01
        1   -1    0    0  501    0  0.00000000000E+00  0.00000000000E+00  0.14388643122E+04  0.14388643122E+04  0.50400001928E-02 0.  1.
       -1   -1    0    0    0  501  0.00000000000E+00  0.00000000000E+00 -0.18158980393E+04  0.18158980393E+04  0.50400001928E-02 0. -1.
    10030    2    1    2    0    0  0.00000000000E+00  0.00000000000E+00 -0.37703372715E+03  0.32547623515E+04  0.32328506822E+04 0.  0.
        1    1    3    3  502    0  0.14214038419E+04  0.43723027712E+03  0.44923670342E+03  0.15535033996E+04  0.50400001928E-02 0.  1.
       -1    1    3    3    0  502 -0.14214038419E+04 -0.43723027712E+03 -0.82627043056E+03  0.17012589519E+04  0.50400001928E-02 0. -1.
</event>
<event>
 5   0  0.1401125E-06  0.1764311E+04  0.7818609E-02  0.8725512E-01
       -3   -1    0    0    0  501  0.00000000000E+00  0.00000000000E+00  0.11243869872E+04  0.11243869918E+04  0.10100000352E+00 0.  1.
        3   -1    0    0  501    0  0.00000000000E+00  0.00000000000E+00 -0.69210895205E+03  0.69210895941E+03  0.10100000352E+00 0. -1.
    10030    2    1    2    0    0  0.00000000000E+00  0.00000000000E+00  0.43227803519E+03  0.18164959512E+04  0.17643109819E+04 0.  0.
        4    1    3    3  502    0  0.27395540853E+02 -0.46876844475E+03 -0.55274445385E+03  0.72527402726E+03  0.12699999809E+01 0. -1.
       -4    1    3    3    0  502 -0.27395540853E+02  0.46876844475E+03  0.98502248904E+03  0.10912219239E+04  0.12699999809E+01 0.  1.
</event>
<event>
 5   0  0.1401125E-06  0.2272522E+04  0.7818609E-02  0.8488835E-01
       -4   -1    0    0    0  501  0.00000000000E+00  0.00000000000E+00  0.18811625483E+04  0.18811629770E+04  0.12699999809E+01 0.  1.
        4   -1    0    0  501    0  0.00000000000E+00  0.00000000000E+00 -0.68632403908E+03  0.68632521411E+03  0.12699999809E+01 0. -1.
    10030    2    1    2    0    0  0.00000000000E+00  0.00000000000E+00  0.11948385092E+04  0.25674881911E+04  0.22725220677E+04 0.  0.
        1    1    3    3  502    0  0.10832045021E+04  0.20017230252E+03  0.28251548798E+03  0.11371965288E+04  0.50400001928E-02 0. -1.
       -1    1    3    3    0  502 -0.10832045021E+04 -0.20017230252E+03  0.91232302124E+03  0.14302916623E+04  0.50400001928E-02 0.  1.
</event>
<event>
 5   0  0.1571391E-06  0.3425723E+04  0.7818609E-02  0.8131622E-01
        1   -1    0    0  501    0  0.00000000000E+00  0.00000000000E+00  0.23874423802E+04  0.23874423803E+04  0.50400001928E-02 0. -1.
       -1   -1    0    0    0  501  0.00000000000E+00  0.00000000000E+00 -0.12288857129E+04  0.12288857129E+04  0.50400001928E-02 0.  1.
    10030    2    1    2    0    0  0.00000000000E+00  0.00000000000E+00  0.11585566674E+04  0.36163280931E+04  0.34257225991E+04 0.  0.
        1    1    3    3  502    0  0.16299383845E+04  0.62565429286E+02  0.27429963022E+02  0.16313693552E+04  0.50400001928E-02 0.  1.
       -1    1    3    3    0  502 -0.16299383845E+04 -0.62565429286E+02  0.11311267043E+04  0.19849587380E+04  0.50400001928E-02 0. -1.
</event>
<event>
 5   0  0.4173467E-06  0.2672840E+04  0.7818609E-02  0.8343872E-01
        2   -1    0    0  501    0  0.00000000000E+00  0.00000000000E+00  0.17163375281E+04  0.17163375281E+04  0.25500000920E-02 0.  1.
       -2   -1    0    0    0  501  0.00000000000E+00  0.00000000000E+00 -0.10405986878E+04  0.10405986878E+04  0.25500000920E-02 0. -1.
    10030    2    1    2    0    0  0.00000000000E+00  0.00000000000E+00  0.67573884029E+03  0.27569362158E+04  0.26728401220E+04 0.  0.
        4    1    3    3  502    0  0.36627494977E+03 -0.10110168587E+04 -0.48063710979E+03  0.11778480681E+04  0.12699999809E+01 0. -1.
       -4    1    3    3    0  502 -0.36627494977E+03  0.10110168587E+04  0.11563759501E+04  0.15790881477E+04  0.12699999809E+01 0.  1.
</event>
<event>
 5   0  0.1654257E-06  0.2620185E+04  0.7818609E-02  0.8361377E-01
       -1   -1    0    0    0  501  0.00000000000E+00  0.00000000000E+00  0.12523673073E+04  0.12523673073E+04  0.50400001928E-02 0.  1.
        1   -1    0    0  501    0  0.00000000000E+00  0.00000000000E+00 -0.13704781566E+04  0.13704781566E+04  0.50400001928E-02 0. -1.
    10030    2    1    2    0    0  0.00000000000E+00  0.00000000000E+00 -0.11811084928E+03  0.26228454639E+04  0.26201847559E+04 0.  0.
        3    1    3    3  502    0  0.50944663836E+03 -0.74295384805E+03  0.89313379137E+03  0.12685441566E+04  0.10100000352E+00 0.  1.
       -3    1    3    3    0  502 -0.50944663836E+03  0.74295384805E+03 -0.10112446407E+04  0.13543013074E+04  0.10100000352E+00 0. -1.
</event>
<event>
 5   0  0.2722449E-06  0.3297612E+04  0.7818609E-02  0.8163503E-01
       -2   -1    0    0    0  501  0.00000000000E+00  0.00000000000E+00  0.17732885808E+04  0.17732885808E+04  0.25500000920E-02 0. -1.
        2   -1    0    0  501    0  0.00000000000E+00  0.00000000000E+00 -0.15330617376E+04  0.15330617376E+04  0.25500000920E-02 0.  1.
    10030    2    1    2    0    0  0.00000000000E+00  0.00000000000E+00  0.24022684321E+03  0.33063503184E+04  0.32976117861E+04 0.  0.
        2    1    3    3  502    0 -0.41943558178E+03  0.63711940731E+03  0.15857371567E+04  0.17596618074E+04  0.25500000920E-02 0. -1.
       -2    1    3    3    0  502  0.41943558178E+03 -0.63711940731E+03 -0.13455103135E+04  0.15466885110E+04  0.25500000920E-02 0.  1.
</event>
<event>
 5   0  0.2101998E-06  0.3335291E+04  0.7818609E-02  0.8153973E-01
        1   -1    0    0  501    0  0.00000000000E+00  0.00000000000E+00  0.10514051108E+04  0.10514051108E+04  0.50400001928E-02 0. -1.
       -1   -1    0    0    0  501  0.00000000000E+00  0.00000000000E+00 -0.26450707558E+04  0.26450707558E+04  0.50400001928E-02 0.  1.
    10030    2    1    2    0    0  0.00000000000E+00  0.00000000000E+00 -0.15936656450E+04  0.36964758666E+04  0.33352906386E+04 0.  0.
        5    1    3    3  502    0  0.91837093327E+03 -0.13904252135E+04 -0.86977304996E+03  0.18796847326E+04  0.46999998093E+01 0.  1.
       -5    1    3    3    0  502 -0.91837093327E+03  0.13904252135E+04 -0.72389259504E+03  0.18167911340E+04  0.46999998093E+01 0. -1.
</event>
<event>
 5   0  0.2722449E-06  0.3407600E+04  0.7818609E-02  0.8136044E-01
        2   -1    0    0  501    0  0.00000000000E+00  0.00000000000E+00  0.26433339999E+04  0.26433339999E+04  0.25500000920E-02 0. -1.
       -2   -1    0    0    0  501  0.00000000000E+00  0.00000000000E+00 -0.10982093761E+04  0.10982093761E+04  0.25500000920E-02 0.  1.
    10030    2    1    2    0    0  0.00000000000E+00  0.00000000000E+00  0.15451246238E+04  0.37415433759E+04  0.34075998490E+04 0.  0.
        2    1    3    3  502    0 -0.62869401956E+03  0.33326548482E+03  0.24723750151E+04  0.25727340067E+04  0.25500000920E-02 0. -1.
       -2    1    3    3    0  502  0.62869401956E+03 -0.33326548482E+03 -0.92725039129E+03  0.11688093693E+04  0.25500000920E-02 0.  1.
</event>
<event>
 5   0  0.4173467E-06  0.3463380E+04  0.7818609E-02  0.8122524E-01
        2   -1    0    0  501    0  0.00000000000E+00  0.00000000000E+00  0.21353671805E+04  0.21353671805E+04  0.25500000920E-02 0. -1.
       -2   -1    0    0    0  501  0.00000000000E+00  0.00000000000E+00 -0.14043256757E+04  0.14043256757E+04  0.25500000920E-02 0.  1.
    10030    2    1    2    0    0  0.00000000000E+00  0.00000000000E+00  0.73104150478E+03  0.35396928561E+04  0.34633804056E+04 0.  0.
        4    1    3    3  502    0 -0.55203708533E+03  0.84006635360E+03 -0.10756172389E+04  0.14722127834E+04  0.12699999809E+01 0.  1.
       -4    1    3    3    0  502  0.55203708533E+03 -0.84006635360E+03  0.18066587437E+04  0.20674800727E+04  0.12699999809E+01 0. -1.
</event>
<event>
 5   0  0.4189587E-06  0.3390797E+04  0.7818609E-02  0.8140169E-01
        2   -1    0    0  501    0  0.00000000000E+00  0.00000000000E+00  0.11956826136E+04  0.11956826136E+04  0.25500000920E-02 0.  1.
       -2   -1    0    0    0  501  0.00000000000E+00  0.00000000000E+00 -0.24039630627E+04  0.24039630627E+04  0.25500000920E-02 0. -1.
    10030    2    1    2    0    0  0.00000000000E+00  0.00000000000E+00 -0.12082804491E+04  0.35996456763E+04  0.33907974507E+04 0.  0.
        1    1    3    3  502    0 -0.38972480094E+03 -0.33898888724E+02 -0.23553956381E+04  0.23876606055E+04  0.50400001928E-02 0. -1.
       -1    1    3    3    0  502  0.38972480094E+03  0.33898888724E+02  0.11471151890E+04  0.12119850709E+04  0.50400001928E-02 0.  1.
</event>
<event>
 5   0  0.1562618E-06  0.3357533E+04  0.7818609E-02  0.8148408E-01
        1   -1    0    0  501    0  0.00000000000E+00  0.00000000000E+00  0.16496459381E+04  0.16496459381E+04  0.50400001928E-02 0. -1.
       -1   -1    0    0    0  501  0.00000000000E+00  0.00000000000E+00 -0.17084015090E+04  0.17084015090E+04  0.50400001928E-02 0.  1.
    10030    2    1    2    0    0  0.00000000000E+00  0.00000000000E+00 -0.58755570960E+02  0.33580474471E+04  0.33575333863E+04 0.  0.
        2    1    3    3  502    0 -0.67274323631E+03  0.14835022770E+04  0.37675721553E+03  0.16719176019E+04  0.25500000920E-02 0. -1.
       -2    1    3    3    0  502  0.67274323631E+03 -0.14835022770E+04 -0.43551278649E+03  0.16861298453E+04  0.25500000920E-02 0.  1.
</event>
<event>
 5   0  0.4173467E-06  0.2841633E+04  0.7818609E-02  0.8290458E-01
       -2   -1    0    0    0  501  0.00000000000E+00  0.00000000000E+00  0.12189763135E+04  0.12189763135E+04  0.25500000920E-02 0.  1.
        2   -1    0    0  501    0  0.00000000000E+00  0.00000000000E+00 -0.16560779978E+04  0.16560779978E+04  0.25500000920E-02 0. -1.
    10030    2    1    2    0    0  0.00000000000E+00  0.00000000000E+00 -0.43710168429E+03  0.28750543113E+04  0.28416332294E+04 0.  0.
        4    1    3    3  502    0  0.58572528105E+02  0.10497801181E+04 -0.11854310745E+04  0.15845243711E+04  0.12699999809E+01 0. -1.
       -4    1    3    3    0  502 -0.58572528105E+02 -0.10497801181E+04  0.74832939021E+03  0.12905299402E+04  0.12699999809E+01 0.  1.
</event>
<event>
 5   0  0.2722449E-06  0.3447643E+04  0.7818609E-02  0.8126311E-01
       -2   -1    0    0    0  501  0.00000000000E+00  0.00000000000E+00  0.24312059325E+04  0.24312059325E+04  0.25500000920E-02 0.  1.
        2   -1    0    0  501    0  0.00000000000E+00  0.00000000000E+00 -0.12222578627E+04  0.12222578627E+04  0.25500000920E-02 0. -1.
    10030    2    1    2    0    0  0.00000000000E+00  0.00000000000E+00  0.12089480698E+04  0.36534637951E+04  0.34476430016E+04 0.  0.
        2    1    3    3  502    0 -0.12169570448E+04  0.10030354249E+04  0.13420854705E+04  0.20708109336E+04  0.25500000920E-02 0.  1.
       -2    1    3    3    0  502  0.12169570448E+04 -0.10030354249E+04 -0.13313740065E+03  0.15826528615E+04  0.25500000920E-02 0. -1.
</event>
<event>
 5   0  0.4400349E-06  0.3589787E+04  0.7818609E-02  0.8092835E-01
        2   -1    0    0  501    0  0.00000000000E+00  0.00000000000E+00  0.21874609136E+04  0.21874609136E+04  0.25500000920E-02 0.  1.
       -2   -1    0    0    0  501  0.00000000000E+00  0.00000000000E+00 -0.14727769139E+04  0.14727769139E+04  0.25500000920E-02 0. -1.
    10030    2    1    2    0    0  0.00000000000E+00  0.00000000000E+00  0.71468399976E+03  0.36602378275E+04  0.35897865862E+04 0.  0.
        5    1    3    3  502    0  0.12582761712E+04  0.12590852904E+04  0.59222164471E+03  0.18759806124E+04  0.46999998093E+01 0.  1.
       -5    1    3    3    0  502 -0.12582761712E+04 -0.12590852904E+04  0.12246235504E+03  0.17842572152E+04  0.46999998093E+01 0. -1.
</event>
<event>
 5   0  0.4173467E-06  0.2563313E+04  0.7818609E-02  0.8380771E-01
       -2   -1    0    0    0  501  0.00000000000E+00  0.00000000000E+00  0.60168551570E+03  0.60168551571E+03  0.25500000920E-02 0. -1.
        2   -1    0    0  501    0  0.00000000000E+00  0.00000000000E+00 -0.27300686712E+04  0.27300686712E+04  0.25500000920E-02 0.  1.
    10030    2    1    2    0    0  0.00000000000E+00  0.00000000000E+00 -0.21283831555E+04  0.33317541869E+04  0.25633125259E+04 0.  0.
        4    1    3    3  502    0  0.84755637917E+03 -0.51884351964E+02 -0.23119830229E+04  0.24629882080E+04  0.12699999809E+01 0.  1.
       -4    1    3    3    0  502 -0.84755637917E+03  0.51884351964E+02  0.18359986740E+03  0.86876597888E+03  0.12699999809E+01 0. -1.
</event>
<event>
 5   0  0.1654257E-06  0.3405183E+04  0.7818609E-02  0.8136635E-01
        1   -1    0    0  501    0  0.00000000000E+00  0.00000000000E+00  0.11663890932E+04  0.11663890932E+04  0.50400001928E-02 0.  1.
       -1   -1    0    0    0  501  0.00000000000E+00  0.00000000000E+00 -0.24852918467E+04  0.24852918467E+04  0.50400001928E-02 0. -1.
    10030    2    1    2    0    0  0.00000000000E+00  0.00000000000E+00 -0.13189027535E+04  0.36516809399E+04  0.34051826990E+04 0.  0.
        3    1    3    3  502    0  0.67773846026E+03  0.12517989424E+04 -0.16611381950E+04  0.21876265966E+04  0.10100000352E+00 0. -1.
       -3    1    3    3    0  502 -0.67773846026E+03 -0.12517989424E+04  0.34223544151E+03  0.14640543434E+04  0.10100000352E+00 0.  1.
</event>
<event>
 5   0  0.1654257E-06  0.2848855E+04  0.7818609E-02  0.8288259E-01
        1   -1    0    0  501    0  0.00000000000E+00  0.00000000000E+00  0.17539954926E+04  0.17539954926E+04  0.50400001928E-02 0.  1.
       -1   -1    0    0    0  501  0.00000000000E+00  0.00000000000E+00 -0.11567842613E+04  0.11567842613E+04  0.50400001928E-02 0. -1.
    10030    2    1    2    0    0  0.00000000000E+00  0.00000000000E+00  0.59721123131E+03  0.29107797540E+04  0.28488554757E+04 0.  0.
        3    1    3    3  502    0  0.14175244551E+04  0.13526985466E+03  0.33573917939E+03  0.14630086538E+04  0.10100000352E+00 0.  1.
       -3    1    3    3    0  502 -0.14175244551E+04 -0.13526985466E+03  0.26147205192E+03  0.14477711002E+04  0.10100000352E+00 0. -1.
</event>
<event>
 5   0  0.1654257E-06  0.2097448E+04  0.7818609E-02  0.8562368E-01
        1   -1    0    0  501    0  0.00000000000E+00  0.00000000000E+00  0.14958488374E+04  0.14958488374E+04  0.50400001928E-02 0.  1.
       -1   -1    0    0    0  501  0.00000000000E+00  0.00000000000E+00 -0.73524953887E+03  0.73524953889E+03  0.50400001928E-02 0. -1.
    10030    2    1    2    0    0  0.00000000000E+00  0.00000000000E+00  0.76059929849E+03  0.22310983763E+04  0.20974481333E+04 0.  0.
        3    1    3    3  502    0  0.43361827516E+03  0.91208494673E+03  0.79625196759E+02  0.10130468601E+04  0.10100000352E+00 0.  1.
       -3    1    3    3    0  502 -0.43361827516E+03 -0.91208494673E+03  0.68097410173E+03  0.12180515162E+04  0.10100000352E+00 0. -1.
</event>
<event>
 5   0  0.4400349E-06  0.3494671E+04  0.7818609E-02  0.8115054E-01
       -2   -1    0    0    0  501  0.00000000000E+00  0.00000000000E+00  0.12846575299E+04  0.12846575299E+04  0.25500000920E-02 0.  1.
        2   -1    0    0  501    0  0.00000000000E+00  0.00000000000E+00 -0.23766499807E+04  0.23766499807E+04  0.25500000920E-02 0. -1.
    10030    2    1    2    0    0  0.00000000000E+00  0.00000000000E+00 -0.10919924508E+04  0.36613075106E+04  0.34946709680E+04 0.  0.
        5    1    3    3  502    0  0.83956092374E+03 -0.14983481990E+04 -0.20935016023E+03  0.17302483781E+04  0.46999998093E+01 0. -1.
       -5    1    3    3    0  502 -0.83956092374E+03  0.14983481990E+04 -0.88264229058E+03  0.19310591325E+04  0.46999998093E+01 0.  1.
</event>
<event>
 5   0  0.4189587E-06  0.3327235E+04  0.7818609E-02  0.8156000E-01
       -2   -1    0    0    0  501  0.00000000000E+00  0.00000000000E+00  0.14799527329E+04  0.14799527329E+04  0.25500000920E-02 0. -1.
        2   -1    0    0  501    0  0.00000000000E+00  0.00000000000E+00 -0.18700749978E+04  0.18700749978E+04  0.25500000920E-02 0.  1.
    10030    2    1    2    0    0  0.00000000000E+00  0.00000000000E+00 -0.39012226486E+03  0.33500277307E+04  0.33272346498E+04 0.  0.
        1    1    3    3  502    0 -0.43458745322E+03 -0.26108171372E+03 -0.17904005715E+04  0.18607966365E+04  0.50400001928E-02 0.  1.
       -1    1    3    3    0  502  0.43458745322E+03  0.26108171372E+03  0.14002783067E+04  0.14892310942E+04  0.50400001928E-02 0. -1.
</event>
<event>
 5   0  0.4344980E-06  0.1948772E+04  0.7818609E-02  0.8630953E-01
        2   -1    0    0  501    0  0.00000000000E+00  0.00000000000E+00  0.15843290876E+04  0.15843290876E+04  0.25500000920E-02 0. -1.
       -2   -1    0    0    0  501  0.00000000000E+00  0.00000000000E+00 -0.59926203403E+03  0.59926203403E+03  0.25500000920E-02 0.  1.
    10030    2    1    2    0    0  0.00000000000E+00  0.00000000000E+00  0.98506705358E+03  0.21835911216E+04  0.19487721997E+04 0.  0.
        3    1    3    3  502    0  0.80926482323E+03  0.53526441080E+03  0.59282083201E+03  0.11370374192E+04  0.10100000352E+00 0. -1.
       -3    1    3    3    0  502 -0.80926482323E+03 -0.53526441080E+03  0.39224622157E+03  0.10465537025E+04  0.10100000352E+00 0.  1.
</event>
<event>
 5   0  0.2722449E-06  0.3392125E+04  0.7818609E-02  0.8139842E-01
        2   -1    0    0  501    0  0.00000000000E+00  0.00000000000E+00  0.18226437525E+04  0.18226437525E+04  0.25500000920E-02 0. -1.
       -2   -1    0    0    0  501  0.00000000000E+00  0.00000000000E+00 -0.15782718752E+04  0.15782718752E+04  0.25500000920E-02 0.  1.
    10030    2    1    2    0    0  0.00000000000E+00  0.00000000000E+00  0.24437187728E+03  0.34009156277E+04  0.33921246280E+04 0.  0.
        2    1    3    3  502    0 -0.12069945295E+04  0.31716263005E+03 -0.10293547492E+04  0.16177141676E+04  0.25500000920E-02 0.  1.
       -2    1    3    3    0  502  0.12069945295E+04 -0.31716263005E+03  0.12737266265E+04  0.17832014601E+04  0.25500000920E-02 0. -1.
</event>
<event>
 5   0  0.1562618E-06  0.1705473E+04  0.7818609E-02  0.8758249E-01
        1   -1    0    0  501    0  0.00000000000E+00  0.00000000000E+00  0.64985122281E+03  0.64985122283E+03  0.50400001928E-02 0. -1.
       -1   -1    0    0    0  501  0.00000000000E+00  0.00000000000E+00 -0.11189628483E+04  0.11189628483E+04  0.50400001928E-02 0.  1.
    10030    2    1    2    0    0  0.00000000000E+00  0.00000000000E+00 -0.46911162552E+03  0.17688140712E+04  0.17054728087E+04 0.  0.
        2    1    3    3  502    0  0.79986945637E+01 -0.37162248400E+03 -0.10305174362E+04  0.10955060183E+04  0.25500000920E-02 0.  1.
       -2    1    3    3    0  502 -0.79986945637E+01  0.37162248400E+03  0.56140581072E+03  0.67330805286E+03  0.25500000920E-02 0. -1.
</event>
<event>
 5   0  0.4173467E-06  0.1673759E+04  0.7818609E-02  0.8776474E-01
       -2   -1    0    0    0  501  0.00000000000E+00  0.00000000000E+00  0.70443222623E+03  0.70443222624E+03  0.25500000920E-02 0.  1.
        2   -1    0    0  501    0  0.00000000000E+00  0.00000000000E+00 -0.99422920677E+03  0.99422920678E+03  0.25500000920E-02 0. -1.
    10030    2    1    2    0    0  0.00000000000E+00  0.00000000000E+00 -0.28979698054E+03  0.16986614330E+04  0.16737587562E+04 0.  0.
        4    1    3    3  502    0  0.27877762336E+03 -0.10399113160E+03  0.64893770455E+03  0.71389976609E+03  0.12699999809E+01 0.  1.
       -4    1    3    3    0  502 -0.27877762336E+03  0.10399113160E+03 -0.93873468509E+03  0.98476166692E+03  0.12699999809E+01 0. -1.
</event>
<event>
 5   0  0.1401125E-06  0.3250069E+04  0.7818609E-02  0.8175718E-01
        3   -1    0    0  501    0  0.00000000000E+00  0.00000000000E+00  0.14079923754E+04  0.14079923790E+04  0.10100000352E+00 0.  1.
       -3   -1    0    0    0  501  0.00000000000E+00  0.00000000000E+00 -0.18755332974E+04  0.18755333001E+04  0.10100000352E+00 0. -1.
    10030    2    1    2    0    0  0.00000000000E+00  0.00000000000E+00 -0.46754092200E+03  0.32835256791E+04  0.32500686719E+04 0.  0.
        1    1    3    3  502    0  0.77039574822E+03 -0.26800808455E+03  0.11861867450E+04  0.14395752625E+04  0.50400001928E-02 0.  1.
       -1    1    3    3    0  502 -0.77039574822E+03  0.26800808455E+03 -0.16537276670E+04  0.18439504166E+04  0.50400001928E-02 0. -1.
</event>
<event>
 5   0  0.4400349E-06  0.3372953E+04  0.7818609E-02  0.8144576E-01
        2   -1    0    0  501    0  0.00000000000E+00  0.00000000000E+00  0.12888313702E+04  0.12888313702E+04  0.25500000920E-02 0.  1.
       -2   -1    0    0    0  501  0.00000000000E+00  0.00000000000E+00 -0.22068082996E+04  0.22068082996E+04  0.25500000920E-02 0. -1.
    10030    2    1    2    0    0  0.00000000000E+00  0.00000000000E+00 -0.91797692936E+03  0.34956396698E+04  0.33729534622E+04 0.  0.
        5    1    3    3  502    0 -0.19859413039E+02  0.42172743032E+03  0.12331696697E+04  0.13034484823E+04  0.46999998093E+01 0.  1.
       -5    1    3    3    0  502  0.19859413039E+02 -0.42172743032E+03 -0.21511465991E+04  0.21921911875E+04  0.46999998093E+01 0. -1.
</event>
<event>
 5   0  0.1571391E-06  0.3501848E+04  0.7818609E-02  0.8113352E-01
       -1   -1    0    0    0  501  0.00000000000E+00  0.00000000000E+00  0.18691761297E+04  0.18691761297E+04  0.50400001928E-02 0. -1.
        1   -1    0    0  501    0  0.00000000000E+00  0.00000000000E+00 -0.16401530765E+04  0.16401530765E+04  0.50400001928E-02 0.  1.
    10030    2    1    2    0    0  0.00000000000E+00  0.00000000000E+00  0.22902305314E+03  0.35093292062E+04  0.35018480719E+04 0.  0.
        1    1    3    3  502    0  0.85599229509E+03 -0.83134386408E+03  0.13986074209E+04  0.18384662487E+04  0.50400001928E-02 0. -1.
       -1    1    3    3    0  502 -0.85599229509E+03  0.83134386408E+03 -0.11695843678E+04  0.16708629576E+04  0.50400001928E-02 0.  1.
</event>
<event>
 5   0  0.1571391E-06  0.3450096E+04  0.7818609E-02  0.8125719E-01
        1   -1    0    0  501    0  0.00000000000E+00  0.00000000000E+00  0.20110145326E+04  0.20110145326E+04  0.50400001928E-02 0. -1.
       -1   -1    0    0    0  501  0.00000000000E+00  0.00000000000E+00 -0.14797462236E+04  0.14797462236E+04  0.50400001928E-02 0.  1.
    10030    2    1    2    0    0  0.00000000000E+00  0.00000000000E+00  0.53126830903E+03  0.34907607562E+04  0.34500963234E+04 0.  0.
        1    1    3    3  502    0 -0.89170069656E+03 -0.12488237160E+04 -0.53175395093E+03  0.16240237284E+04  0.50400001928E-02 0.  1.
       -1    1    3    3    0  502  0.89170069656E+03  0.12488237160E+04  0.10630222600E+04  0.18667370278E+04  0.50400001928E-02 0. -1.
</event>
<event>
 5   0  0.1562618E-06  0.3517611E+04  0.7818609E-02  0.8109629E-01
       -1   -1    0    0    0  501  0.00000000000E+00  0.00000000000E+00  0.21221150078E+04  0.21221150078E+04  0.50400001928E-02 0.  1.
        1   -1    0    0  501    0  0.00000000000E+00  0.00000000000E+00 -0.14576951785E+04  0.14576951785E+04  0.50400001928E-02 0. -1.
    10030    2    1    2    0    0  0.00000000000E+00  0.00000000000E+00  0.66441982926E+03  0.35798101863E+04  0.35176110161E+04 0.  0.
        2    1    3    3  502    0  0.13020594735E+03 -0.43617230529E+03 -0.13967111603E+04  0.14690139326E+04  0.25500000920E-02 0. -1.
       -2    1    3    3    0  502 -0.13020594735E+03  0.43617230529E+03  0.20611309896E+04  0.21107962538E+04  0.25500000920E-02 0.  1.
</event>
<event>
 5   0  0.1654257E-06  0.2540137E+04  0.7818609E-02  0.8388824E-01
       -1   -1    0    0    0  501  0.00000000000E+00  0.00000000000E+00  0.11487359551E+04  0.11487359551E+04  0.50400001928E-02 0.  1.
        1   -1    0    0  501    0  0.00000000000E+00  0.00000000000E+00 -0.14042165746E+04  0.14042165746E+04  0.50400001928E-02 0. -1.
    10030    2    1    2    0    0  0.00000000000E+00  0.00000000000E+00 -0.25548061954E+03  0.25529525297E+04  0.25401370577E+04 0.  0.
        3    1    3    3  502    0 -0.10642018753E+04  0.11436759085E+03  0.55942583710E+03  0.12077097559E+04  0.10100000352E+00 0.  1.
       -3    1    3    3    0  502  0.10642018753E+04 -0.11436759085E+03 -0.81490645664E+03  0.13452427738E+04  0.10100000352E+00 0. -1.
</event>
<event>
 5   0  0.1550164E-06  0.3341798E+04  0.7818609E-02  0.8152341E-01
       -1   -1    0    0    0  501  0.00000000000E+00  0.00000000000E+00  0.10425159532E+04  0.10425159532E+04  0.50400001928E-02 0. -1.
        1   -1    0    0  501    0  0.00000000000E+00  0.00000000000E+00 -0.26780438076E+04  0.26780438076E+04  0.50400001928E-02 0.  1.
    10030    2    1    2    0    0  0.00000000000E+00  0.00000000000E+00 -0.16355278544E+04  0.37205597608E+04  0.33417979549E+04 0.  0.
        4    1    3    3  502    0 -0.71841136075E+03  0.12772066363E+04 -0.17115831683E+04  0.22531955596E+04  0.12699999809E+01 0. -1.
       -4    1    3    3    0  502  0.71841136075E+03 -0.12772066363E+04  0.76055313915E+02  0.14673642011E+04  0.12699999809E+01 0.  1.
</event>
<event>
 5   0  0.4400349E-06  0.3405484E+04  0.7818609E-02  0.8136562E-01
       -2   -1    0    0    0  501  0.00000000000E+00  0.00000000000E+00  0.10890563109E+04  0.10890563109E+04  0.25500000920E-02 0.  1.
        2   -1    0    0  501    0  0.00000000000E+00  0.00000000000E+00 -0.26622406330E+04  0.26622406330E+04  0.25500000920E-02 0. -1.
    10030    2    1    2    0    0  0.00000000000E+00  0.00000000000E+00 -0.15731843221E+04  0.37512969439E+04  0.34054837909E+04 0.  0.
        5    1    3    3  502    0 -0.43935979214E+03  0.16066812003E+02 -0.25986311636E+04  0.26355646802E+04  0.46999998093E+01 0. -1.
       -5    1    3    3    0  502  0.43935979214E+03 -0.16066812003E+02  0.10254468415E+04  0.11157322637E+04  0.46999998093E+01 0.  1.
</event>
<event>
 5   0  0.2722449E-06  0.3414025E+04  0.7818609E-02  0.8134473E-01
        2   -1    0    0  501    0  0.00000000000E+00  0.00000000000E+00  0.19756638409E+04  0.19756638409E+04  0.25500000920E-02 0.  1.
       -2   -1    0    0    0  501  0.00000000000E+00  0.00000000000E+00 -0.14748927732E+04  0.14748927732E+04  0.25500000920E-02 0. -1.
    10030    2    1    2    0    0  0.00000000000E+00  0.00000000000E+00  0.50077106768E+03  0.34505566141E+04  0.34140253785E+04 0.  0.
        2    1    3    3  502    0 -0.43220375571E+03 -0.10540617310E+04  0.15352262335E+04  0.19117441793E+04  0.25500000920E-02 0.  1.
       -2    1    3    3    0  502  0.43220375571E+03  0.10540617310E+04 -0.10344551658E+04  0.15388124348E+04  0.25500000920E-02 0. -1.
</event>
<event>
 5   0  0.4400349E-06  0.3336904E+04  0.7818609E-02  0.8153568E-01
        2   -1    0    0  501    0  0.00000000000E+00  0.00000000000E+00  0.17860809203E+04  0.17860809203E+04  0.25500000920E-02 0.  1.
       -2   -1    0    0    0  501  0.00000000000E+00  0.00000000000E+00 -0.15585698794E+04  0.15585698794E+04  0.25500000920E-02 0. -1.
    10030    2    1    2    0    0  0.00000000000E+00  0.00000000000E+00  0.22751104086E+03  0.33446507997E+04  0.33369039091E+04 0.  0.
        5    1    3    3  502    0  0.94996729237E+03 -0.90393137875E+02  0.14855456879E+04  0.17656378045E+04  0.46999998093E+01 0.  1.
       -5    1    3    3    0  502 -0.94996729237E+03  0.90393137875E+02 -0.12580346470E+04  0.15790129952E+04  0.46999998093E+01 0. -1.
</event>
<event>
 5   0  0.1654257E-06  0.3442190E+04  0.7818609E-02  0.8127628E-01
        1   -1    0    0  501    0  0.00000000000E+00  0.00000000000E+00  0.17058560391E+04  0.17058560391E+04  0.50400001928E-02 0.  1.
       -1   -1    0    0    0  501  0.00000000000E+00  0.00000000000E+00 -0.17364700714E+04  0.17364700714E+04  0.50400001928E-02 0. -1.
    10030    2    1    2    0    0  0.00000000000E+00  0.00000000000E+00 -0.30614032264E+02  0.34423261105E+04  0.34421899761E+04 0.  0.
        3    1    3    3  502    0 -0.14984307432E+04 -0.55893818512E+03  0.62069090317E+03  0.17155068622E+04  0.10100000352E+00 0.  1.
       -3    1    3    3    0  502  0.14984307432E+04  0.55893818512E+03 -0.65130493544E+03  0.17268192482E+04  0.10100000352E+00 0. -1.
</event>
<event>
 5   0  0.1401125E-06  0.3443615E+04  0.7818609E-02  0.8127284E-01
        3   -1    0    0  501    0  0.00000000000E+00  0.00000000000E+00  0.12104083192E+04  0.12104083234E+04  0.10100000352E+00 0. -1.
       -3   -1    0    0    0  501  0.00000000000E+00  0.00000000000E+00 -0.24492742393E+04  0.24492742414E+04  0.10100000352E+00 0.  1.
    10030    2    1    2    0    0  0.00000000000E+00  0.00000000000E+00 -0.12388659201E+04  0.36596825649E+04  0.34436154994E+04 0.  0.
        2    1    3    3  502    0  0.90364442726E+03  0.98922523970E+03  0.52984625585E+03  0.14407903666E+04  0.25500000920E-02 0. -1.
       -2    1    3    3    0  502 -0.90364442726E+03 -0.98922523970E+03 -0.17687121760E+04  0.22188921982E+04  0.25500000920E-02 0.  1.
</event>
<event>
 5   0  0.4189587E-06  0.3440650E+04  0.7818609E-02  0.8128001E-01
        2   -1    0    0  501    0  0.00000000000E+00  0.00000000000E+00  0.18077574558E+04  0.18077574558E+04  0.25500000920E-02 0. -1.
       -2   -1    0    0    0  501  0.00000000000E+00  0.00000000000E+00 -0.16371215248E+04  0.16371215248E+04  0.25500000920E-02 0.  1.
    10030    2    1    2    0    0  0.00000000000E+00  0.00000000000E+00  0.17063593097E+03  0.34448789806E+04  0.34406503121E+04 0.  0.
        1    1    3    3  502    0 -0.62724558705E+03  0.15323200299E+04 -0.38224306615E+03  0.16992796892E+04  0.50400001928E-02 0.  1.
       -1    1    3    3    0  502  0.62724558705E+03 -0.15323200299E+04  0.55287899712E+03  0.17455992914E+04  0.50400001928E-02 0. -1.
</event>
<event>
 5   0  0.4189587E-06  0.3353204E+04  0.7818609E-02  0.8149488E-01
        2   -1    0    0  501    0  0.00000000000E+00  0.00000000000E+00  0.11759029761E+04  0.11759029761E+04  0.25500000920E-02 0.  1.
       -2   -1    0    0    0  501  0.00000000000E+00  0.00000000000E+00 -0.23904988345E+04  0.23904988345E+04  0.25500000920E-02 0. -1.
    10030    2    1    2    0    0  0.00000000000E+00  0.00000000000E+00 -0.12145958583E+04  0.35664018106E+04  0.33532042550E+04 0.  0.
        1    1    3    3  502    0 -0.19886700818E+03 -0.11274886180E+04 -0.19100061772E+04  0.22268592833E+04  0.50400001928E-02 0.  1.
       -1    1    3    3    0  502  0.19886700818E+03  0.11274886180E+04  0.69541031889E+03  0.13395425273E+04  0.50400001928E-02 0. -1.
</event>
<event>
 5   0  0.2722449E-06  0.3446450E+04  0.7818609E-02  0.8126599E-01
       -2   -1    0    0    0  501  0.00000000000E+00  0.00000000000E+00  0.14833105066E+04  0.14833105066E+04  0.25500000920E-02 0. -1.
        2   -1    0    0  501    0  0.00000000000E+00  0.00000000000E+00 -0.20019441868E+04  0.20019441868E+04  0.25500000920E-02 0.  1.
    10030    2    1    2    0    0  0.00000000000E+00  0.00000000000E+00 -0.51863368026E+03  0.34852546934E+04  0.34464502584E+04 0.  0.
        2    1    3    3  502    0 -0.65791286587E+03 -0.15821600282E+04 -0.44420078631E+03  0.17701395516E+04  0.25500000920E-02 0. -1.
       -2    1    3    3    0  502  0.65791286587E+03  0.15821600282E+04 -0.74432893957E+02  0.17151151417E+04  0.25500000920E-02 0.  1.
</event>
<event>
 5   0  0.4189587E-06  0.3428611E+04  0.7818609E-02  0.8130920E-01
       -2   -1    0    0    0  501  0.00000000000E+00  0.00000000000E+00  0.17890206779E+04  0.17890206779E+04  0.25500000920E-02 0.  1.
        2   -1    0    0  501    0  0.00000000000E+00  0.00000000000E+00 -0.16427109621E+04  0.16427109621E+04  0.25500000920E-02 0. -1.
    10030    2    1    2    0    0  0.00000000000E+00  0.00000000000E+00  0.14630971572E+03  0.34317316400E+04  0.34286113102E+04 0.  0.
        1    1    3    3  502    0 -0.11419393906E+04 -0.81706123497E+03  0.10575280439E+04  0.17578339504E+04  0.50400001928E-02 0.  1.
       -1    1    3    3    0  502  0.11419393906E+04  0.81706123497E+03 -0.91121832819E+03  0.16738976896E+04  0.50400001928E-02 0. -1.
</event>
<event>
 5   0  0.4173467E-06  0.3274446E+04  0.7818609E-02  0.8169428E-01
        2   -1    0    0  501    0  0.00000000000E+00  0.00000000000E+00  0.23380289784E+04  0.23380289784E+04  0.25500000920E-02 0.  1.
       -2   -1    0    0    0  501  0.00000000000E+00  0.00000000000E+00 -0.11464783607E+04  0.11464783607E+04  0.25500000920E-02 0. -1.
    10030    2    1    2    0    0  0.00000000000E+00  0.00000000000E+00  0.11915506177E+04  0.34845073391E+04  0.32744462924E+04 0.  0.
        4    1    3    3  502    0  0.84704281011E+03  0.12431753657E+04  0.12833947353E+04  0.19773897369E+04  0.12699999809E+01 0.  1.
       -4    1    3    3    0  502 -0.84704281011E+03 -0.12431753657E+04 -0.91844117563E+02  0.15071176022E+04  0.12699999809E+01 0. -1.
</event>
<event>
 5   0  0.4344980E-06  0.3404835E+04  0.7818609E-02  0.8136721E-01
        2   -1    0    0  501    0  0.00000000000E+00  0.00000000000E+00  0.27378168413E+04  0.27378168413E+04  0.25500000920E-02 0. -1.
       -2   -1    0    0    0  501  0.00000000000E+00  0.00000000000E+00 -0.10585900197E+04  0.10585900197E+04  0.25500000920E-02 0.  1.
    10030    2    1    2    0    0  0.00000000000E+00  0.00000000000E+00  0.16792268216E+04  0.37964068610E+04  0.34048351408E+04 0.  0.
        3    1    3    3  502    0  0.84930222934E+03  0.14567679342E+04  0.57874407078E+03  0.17828156945E+04  0.10100000352E+00 0. -1.
       -3    1    3    3    0  502 -0.84930222934E+03 -0.14567679342E+04  0.11004827508E+04  0.20135911665E+04  0.10100000352E+00 0.  1.
</event>
<event>
 5   0  0.4400349E-06  0.3422549E+04  0.7818609E-02  0.8132394E-01
        2   -1    0    0  501    0  0.00000000000E+00  0.00000000000E+00  0.18019514458E+04  0.18019514458E+04  0.25500000920E-02 0.  1.
       -2   -1    0    0    0  501  0.00000000000E+00  0.00000000000E+00 -0.16251605801E+04  0.16251605801E+04  0.25500000920E-02 0. -1.
    10030    2    1    2    0    0  0.00000000000E+00  0.00000000000E+00  0.17679086566E+03  0.34271120259E+04  0.34225490249E+04 0.  0.
        5    1    3    3  502    0 -0.54349792369E+03  0.11838975752E+04 -0.10227844061E+04  0.16562347336E+04  0.46999998093E+01 0. -1.
       -5    1    3    3    0  502  0.54349792369E+03 -0.11838975752E+04  0.11995752717E+04  0.17708772922E+04  0.46999998093E+01 0.  1.
</event>
<event>
 5   0  0.1654257E-06  0.3068992E+04  0.7818609E-02  0.8224300E-01
        1   -1    0    0  501    0  0.00000000000E+00  0.00000000000E+00  0.17556707479E+04  0.17556707479E+04  0.50400001928E-02 0.  1.
       -1   -1    0    0    0  501  0.00000000000E+00  0.00000000000E+00 -0.13411844732E+04  0.13411844732E+04  0.50400001928E-02 0. -1.
    10030    2    1    2    0    0  0.00000000000E+00  0.00000000000E+00  0.41448627470E+03  0.30968552211E+04  0.30689922432E+04 0.  0.
        3    1    3    3  502    0  0.14242865413E+04 -0.34587071518E+03  0.66574667188E+03  0.16097941932E+04  0.10100000352E+00 0. -1.
       -3    1    3    3    0  502 -0.14242865413E+04  0.34587071518E+03 -0.25126039718E+03  0.14870610279E+04  0.10100000352E+00 0.  1.
</event>
<event>
 5   0  0.1571391E-06  0.2405486E+04  0.7818609E-02  0.8437453E-01
        1   -1    0    0  501    0  0.00000000000E+00  0.00000000000E+00  0.12842803792E+04  0.12842803792E+04  0.50400001928E-02 0.  1.
       -1   -1    0    0    0  501  0.00000000000E+00  0.00000000000E+00 -0.11263821594E+04  0.11263821594E+04  0.50400001928E-02 0. -1.
    10030    2    1    2    0    0  0.00000000000E+00  0.00000000000E+00  0.15789821973E+03  0.24106625386E+04  0.24054858194E+04 0.  0.
        1    1    3    3  502    0 -0.71462148062E+03  0.81862871430E+03 -0.43767331910E+03  0.11714925381E+04  0.50400001928E-02 0. -1.
       -1    1    3    3    0  502  0.71462148062E+03 -0.81862871430E+03  0.59557153884E+03  0.12391700006E+04  0.50400001928E-02 0.  1.
</event>
<event>
 5   0  0.1571391E-06  0.3403586E+04  0.7818609E-02  0.8137027E-01
        1   -1    0    0  501    0  0.00000000000E+00  0.00000000000E+00  0.10512501971E+04  0.10512501971E+04  0.50400001928E-02 0.  1.
       -1   -1    0    0    0  501  0.00000000000E+00  0.00000000000E+00 -0.27549094045E+04  0.27549094045E+04  0.50400001928E-02 0. -1.
    10030    2    1    2    0    0  0.00000000000E+00  0.00000000000E+00 -0.17036592074E+04  0.38061596016E+04  0.34035857883E+04 0.  0.
        1    1    3    3  502    0 -0.16479365052E+03  0.16933718879E+04 -0.80948598463E+03  0.18841265503E+04  0.50400001928E-02 0.  1.
       -1    1    3    3    0  502  0.16479365052E+03 -0.16933718879E+04 -0.89417322276E+03  0.19220330513E+04  0.50400001928E-02 0. -1.
</event>
<event>
 5   0  0.1550164E-06  0.1852898E+04  0.7818609E-02  0.8678664E-01
        1   -1    0    0  501    0  0.00000000000E+00  0.00000000000E+00  0.80128064484E+03  0.80128064486E+03  0.50400001928E-02 0. -1.
       -1   -1    0    0    0  501  0.00000000000E+00  0.00000000000E+00 -0.10711695735E+04  0.10711695735E+04  0.50400001928E-02 0.  1.
    10030    2    1    2    0    0  0.00000000000E+00  0.00000000000E+00 -0.26988892865E+03  0.18724502184E+04  0.18528976729E+04 0.  0.
        4    1    3    3  502    0 -0.18456298951E+03 -0.89382333862E+03 -0.29575309558E+03  0.95940354606E+03  0.12699999809E+01 0.  1.
       -4    1    3    3    0  502  0.18456298951E+03  0.89382333862E+03  0.25864166935E+02  0.91304667229E+03  0.12699999809E+01 0. -1.
</event>
<event>
 5   0  0.1562618E-06  0.3399787E+04  0.7818609E-02  0.8137959E-01
        1   -1    0    0  501    0  0.00000000000E+00  0.00000000000E+00  0.25303034445E+04  0.25303034445E+04  0.50400001928E-02 0. -1.
       -1   -1    0    0    0  501  0.00000000000E+00  0.00000000000E+00 -0.11420121527E+04  0.11420121527E+04  0.50400001928E-02 0.  1.
    10030    2    1    2    0    0  0.00000000000E+00  0.00000000000E+00  0.13882912918E+04  0.36723155972E+04  0.33997866308E+04 0.  0.
        2    1    3    3  502    0  0.81822549970E+03 -0.14849144935E+04  0.82719960955E+03  0.18864578489E+04  0.25500000920E-02 0.  1.
       -2    1    3    3    0  502 -0.81822549970E+03  0.14849144935E+04  0.56109168230E+03  0.17858577484E+04  0.25500000920E-02 0. -1.
</event>
<event>
 5   0  0.4173467E-06  0.3081451E+04  0.7818609E-02  0.8220847E-01
       -2   -1    0    0    0  501  0.00000000000E+00  0.00000000000E+00  0.15103588246E+04  0.15103588246E+04  0.25500000920E-02 0.  1.
        2   -1    0    0  501    0  0.00000000000E+00  0.00000000000E+00 -0.15717025132E+04  0.15717025132E+04  0.25500000920E-02 0. -1.
    10030    2    1    2    0    0  0.00000000000E+00  0.00000000000E+00 -0.61343688616E+02  0.30820613378E+04  0.30814508015E+04 0.  0.
        4    1    3    3  502    0  0.52955988388E+03 -0.68157508710E+03  0.12458470159E+04  0.15156235251E+04  0.12699999809E+01 0.  1.
       -4    1    3    3    0  502 -0.52955988388E+03  0.68157508710E+03 -0.13071907045E+04  0.15664378127E+04  0.12699999809E+01 0. -1.
</event>
<event>
 5   0  0.4344980E-06  0.3380463E+04  0.7818609E-02  0.8142718E-01
       -2   -1    0    0    0  501  0.00000000000E+00  0.00000000000E+00  0.93829620528E+03  0.93829620528E+03  0.25500000920E-02 0.  1.
        2   -1    0    0  501    0  0.00000000000E+00  0.00000000000E+00 -0.30447555333E+04  0.30447555333E+04  0.25500000920E-02 0. -1.
    10030    2    1    2    0    0  0.00000000000E+00  0.00000000000E+00 -0.21064593280E+04  0.39830517386E+04  0.33804630232E+04 0.  0.
        3    1    3    3  502    0  0.15619336592E+04  0.52686850176E+03 -0.14935498456E+04  0.22243916754E+04  0.10100000352E+00 0.  1.
       -3    1    3    3    0  502 -0.15619336592E+04 -0.52686850176E+03 -0.61290948236E+03  0.17586600632E+04  0.10100000352E+00 0. -1.
</event>
<event>
 5   0  0.1550164E-06  0.3344640E+04  0.7818609E-02  0.8151629E-01
        1   -1    0    0  501    0  0.00000000000E+00  0.00000000000E+00  0.23806481235E+04  0.23806481235E+04  0.50400001928E-02 0.  1.
       -1   -1    0    0    0  501  0.00000000000E+00  0.00000000000E+00 -0.11747451459E+04  0.11747451459E+04  0.50400001928E-02 0. -1.
    10030    2    1    2    0    0  0.00000000000E+00  0.00000000000E+00  0.12059029776E+04  0.35553932694E+04  0.33446403855E+04 0.  0.
        4    1    3    3  502    0  0.21475674814E+03  0.11016597869E+04  0.19207772089E+04  0.22246710871E+04  0.12699999809E+01 0. -1.
       -4    1    3    3    0  502 -0.21475674814E+03 -0.11016597869E+04 -0.71487423130E+03  0.13307221822E+04  0.12699999809E+01 0.  1.
</event>
<event>
 5   0  0.4189587E-06  0.3462493E+04  0.7818609E-02  0.8122736E-01
       -2   -1    0    0    0  501  0.00000000000E+00  0.00000000000E+00  0.12730992509E+04  0.12730992509E+04  0.25500000920E-02 0.  1.
        2   -1    0    0  501    0  0.00000000000E+00  0.00000000000E+00 -0.23542665561E+04  0.23542665561E+04  0.25500000920E-02 0. -1.
    10030    2    1    2    0    0  0.00000000000E+00  0.00000000000E+00 -0.10811673052E+04  0.36273658070E+04  0.34624933149E+04 0.  0.
        1    1    3    3  502    0  0.60703817507E+03 -0.11921695983E+04  0.61058040558E+03  0.14705686413E+04  0.50400001928E-02 0.  1.
       -1    1    3    3    0  502 -0.60703817507E+03  0.11921695983E+04 -0.16917477108E+04  0.21567971657E+04  0.50400001928E-02 0. -1.
</event>
<event>
 5   0  0.4189587E-06  0.3315131E+04  0.7818609E-02  0.8159056E-01
        2   -1    0    0  501    0  0.00000000000E+00  0.00000000000E+00  0.11498871470E+04  0.11498871470E+04  0.25500000920E-02 0. -1.
       -2   -1    0    0    0  501  0.00000000000E+00  0.00000000000E+00 -0.23893854700E+04  0.23893854700E+04  0.25500000920E-02 0.  1.
    10030    2    1    2    0    0  0.00000000000E+00  0.00000000000E+00 -0.12394983230E+04  0.35392726170E+04  0.33151311535E+04 0.  0.
        1    1    3    3  502    0  0.10058989313E+03 -0.16250526004E+04 -0.95158470736E+03  0.18858493407E+04  0.50400001928E-02 0. -1.
       -1    1    3    3    0  502 -0.10058989313E+03  0.16250526004E+04 -0.28791361566E+03  0.16534232763E+04  0.50400001928E-02 0.  1.
</event>
<event>
 5   0  0.2722449E-06  0.3349485E+04  0.7818609E-02  0.8150417E-01
       -2   -1    0    0    0  501  0.00000000000E+00  0.00000000000E+00  0.14380796921E+04  0.14380796921E+04  0.25500000920E-02 0.  1.
        2   -1    0    0  501    0  0.00000000000E+00  0.00000000000E+00 -0.19503520982E+04  0.19503520982E+04  0.25500000920E-02 0. -1.
    10030    2    1    2    0    0  0.00000000000E+00  0.00000000000E+00 -0.51227240611E+03  0.33884317904E+04  0.33494845842E+04 0.  0.
        2    1    3    3  502    0 -0.95797741024E+02  0.16243471864E+04 -0.65707885195E+03  0.17548315039E+04  0.25500000920E-02 0. -1.
       -2    1    3    3    0  502  0.95797741024E+02 -0.16243471864E+04  0.14480644584E+03  0.16336002865E+04  0.25500000920E-02 0.  1.
</event>
<event>
 5   0  0.4400349E-06  0.1922223E+04  0.7818609E-02  0.8643873E-01
       -2   -1    0    0    0  501  0.00000000000E+00  0.00000000000E+00  0.14936411657E+04  0.14936411657E+04  0.25500000920E-02 0. -1.
        2   -1    0    0  501    0  0.00000000000E+00  0.00000000000E+00 -0.61844495907E+03  0.61844495907E+03  0.25500000920E-02 0.  1.
    10030    2    1    2    0    0  0.00000000000E+00  0.00000000000E+00  0.87519620666E+03  0.21120861248E+04  0.19222225153E+04 0.  0.
        5    1    3    3  502    0  0.40547243515E+03  0.39128565137E+03 -0.41789413561E+03  0.70154825579E+03  0.46999998093E+01 0.  1.
       -5    1    3    3    0  502 -0.40547243515E+03 -0.39128565137E+03  0.12930903423E+04  0.14105378690E+04  0.46999998093E+01 0. -1.
</event>
<event>
 5   0  0.1550164E-06  0.3423732E+04  0.7818609E-02  0.8132106E-01
        1   -1    0    0  501    0  0.00000000000E+00  0.00000000000E+00  0.25730097457E+04  0.25730097457E+04  0.50400001928E-02 0.  1.
       -1   -1    0    0    0  501  0.00000000000E+00  0.00000000000E+00 -0.11389329111E+04  0.11389329111E+04  0.50400001928E-02 0. -1.
    10030    2    1    2    0    0  0.00000000000E+00  0.00000000000E+00  0.14340768346E+04  0.37119426568E+04  0.34237321624E+04 0.  0.
        4    1    3    3  502    0 -0.83174084366E+00  0.79331239852E+03 -0.92760922170E+03  0.12205759847E+04  0.12699999809E+01 0. -1.
       -4    1    3    3    0  502  0.83174084366E+00 -0.79331239852E+03  0.23616860563E+04  0.24913666721E+04  0.12699999809E+01 0.  1.
</event>
<event>
 5   0  0.4344980E-06  0.3413396E+04  0.7818609E-02  0.8134626E-01
       -2   -1    0    0    0  501  0.00000000000E+00  0.00000000000E+00  0.19572457793E+04  0.19572457793E+04  0.25500000920E-02 0.  1.
        2   -1    0    0  501    0  0.00000000000E+00  0.00000000000E+00 -0.14882228632E+04  0.14882228632E+04  0.25500000920E-02 0. -1.
    10030    2    1    2    0    0  0.00000000000E+00  0.00000000000E+00  0.46902291608E+03  0.34454686425E+04  0.34133959147E+04 0.  0.
        3    1    3    3  502    0 -0.10028813198E+04 -0.10333496142E+04 -0.69019431946E+03  0.15968564668E+04  0.10100000352E+00 0. -1.
       -3    1    3    3    0  502  0.10028813198E+04  0.10333496142E+04  0.11592172355E+04  0.18486121757E+04  0.10100000352E+00 0.  1.
</event>
<event>
 5   0  0.4400349E-06  0.2844634E+04  0.7818609E-02  0.8289544E-01
        2   -1    0    0  501    0  0.00000000000E+00  0.00000000000E+00  0.11570926517E+04  0.11570926517E+04  0.25500000920E-02 0. -1.
       -2   -1    0    0    0  501  0.00000000000E+00  0.00000000000E+00 -0.17483349341E+04  0.17483349341E+04  0.25500000920E-02 0.  1.
    10030    2    1    2    0    0  0.00000000000E+00  0.00000000000E+00 -0.59124228237E+03  0.29054275858E+04  0.28446338991E+04 0.  0.
        5    1    3    3  502    0 -0.26541949924E+03  0.22520649758E+03 -0.17041503602E+04  0.17393435593E+04  0.46999998093E+01 0.  1.
       -5    1    3    3    0  502  0.26541949924E+03 -0.22520649758E+03  0.11129080778E+04  0.11660840265E+04  0.46999998093E+01 0. -1.
</event>
<event>
 5   0  0.2101998E-06  0.3913587E+04  0.7818609E-02  0.8022209E-01
        1   -1    0    0  501    0  0.00000000000E+00  0.00000000000E+00  0.25184832836E+04  0.25184832836E+04  0.50400001928E-02 0.  1.
       -1   -1    0    0    0  501  0.00000000000E+00  0.00000000000E+00 -0.15203758069E+04  0.15203758069E+04  0.50400001928E-02 0. -1.
    10030    2    1    2    0    0  0.00000000000E+00  0.00000000000E+00  0.99810747678E+03  0.40388590905E+04  0.39135871292E+04 0.  0.
        5    1    3    3  502    0 -0.99011922577E+03  0.33564210701E+03 -0.12079870741E+04  0.15975752146E+04  0.46999998093E+01 0. -1.
       -5    1    3    3    0  502  0.99011922577E+03 -0.33564210701E+03  0.22060945509E+04  0.24412838759E+04  0.46999998093E+01 0.  1.
</event>
<event>
 5   0  0.1550164E-06  0.3430663E+04  0.7818609E-02  0.8130421E-01
       -1   -1    0    0    0  501  0.00000000000E+00  0.00000000000E+00  0.20450399214E+04  0.20450399214E+04  0.50400001928E-02 0.  1.
        1   -1    0    0  501    0  0.00000000000E+00  0.00000000000E+00 -0.14387801000E+04  0.14387801001E+04  0.50400001928E-02 0. -1.
    10030    2    1    2    0    0  0.00000000000E+00  0.00000000000E+00  0.60625982136E+03  0.34838200215E+04  0.34306633427E+04 0.  0.
        4    1    3    3  502    0  0.28632278421E+03  0.11459422518E+04 -0.96000686825E+03  0.15220969684E+04  0.12699999809E+01 0. -1.
       -4    1    3    3    0  502 -0.28632278421E+03 -0.11459422518E+04  0.15662666896E+04  0.19617230531E+04  0.12699999809E+01 0.  1.
</event>
<event>
 5   0  0.1571391E-06  0.3309751E+04  0.7818609E-02  0.8160419E-01
       -1   -1    0    0    0  501  0.00000000000E+00  0.00000000000E+00  0.13110679363E+04  0.13110679363E+04  0.50400001928E-02 0.  1.
        1   -1    0    0  501    0  0.00000000000E+00  0.00000000000E+00 -0.20888415663E+04  0.20888415663E+04  0.50400001928E-02 0. -1.
    10030    2    1    2    0    0  0.00000000000E+00  0.00000000000E+00 -0.77777362996E+03  0.33999095026E+04  0.33097511698E+04 0.  0.
        1    1    3    3  502    0  0.71321849760E+03 -0.14918303538E+04 -0.45683059553E+03  0.17154977770E+04  0.50400001928E-02 0. -1.
       -1    1    3    3    0  502 -0.71321849760E+03  0.14918303538E+04 -0.32094303443E+03  0.16844117256E+04  0.50400001928E-02 0.  1.
</event>
<event>
 5   0  0.1654257E-06  0.3416406E+04  0.7818609E-02  0.8133891E-01
       -1   -1    0    0    0  501  0.00000000000E+00  0.00000000000E+00  0.21880452495E+04  0.21880452495E+04  0.50400001928E-02 0. -1.
        1   -1    0    0  501    0  0.00000000000E+00  0.00000000000E+00 -0.13335913146E+04  0.13335913146E+04  0.50400001928E-02 0.  1.
    10030    2    1    2    0    0  0.00000000000E+00  0.00000000000E+00  0.85445393488E+03  0.35216365641E+04  0.34164063814E+04 0.  0.
        3    1    3    3  502    0  0.35692664465E+03 -0.14419279806E+04 -0.44220084230E+03  0.15498691964E+04  0.10100000352E+00 0.  1.
       -3    1    3    3    0  502 -0.35692664465E+03  0.14419279806E+04  0.12966547772E+04  0.19717673677E+04  0.10100000352E+00 0. -1.
</event>
<event>
 5   0  0.1550164E-06  0.3662264E+04  0.7818609E-02  0.8076376E-01
       -1   -1    0    0    0  501  0.00000000000E+00  0.00000000000E+00  0.29035534347E+04  0.29035534347E+04  0.50400001928E-02 0. -1.
        1   -1    0    0  501    0  0.00000000000E+00  0.00000000000E+00 -0.11548071863E+04  0.11548071863E+04  0.50400001928E-02 0.  1.
    10030    2    1    2    0    0  0.00000000000E+00  0.00000000000E+00  0.17487462484E+04  0.40583606210E+04  0.36622639840E+04 0.  0.
        4    1    3    3  502    0  0.16906206059E+04 -0.29762118125E+03  0.16804512852E+03  0.17248238109E+04  0.12699999809E+01 0.  1.
       -4    1    3    3    0  502 -0.16906206059E+04  0.29762118125E+03  0.15807011199E+04  0.23335368101E+04  0.12699999809E+01 0. -1.
</event>
<event>
 5   0  0.1401125E-06  0.3611837E+04  0.7818609E-02  0.8087786E-01
       -3   -1    0    0    0  501  0.00000000000E+00  0.00000000000E+00  0.19523805051E+04  0.19523805078E+04  0.10100000352E+00 0.  1.
        3   -1    0    0  501    0  0.00000000000E+00  0.00000000000E+00 -0.16704439780E+04  0.16704439811E+04  0.10100000352E+00 0. -1.
    10030    2    1    2    0    0  0.00000000000E+00  0.00000000000E+00  0.28193652711E+03  0.36228244888E+04  0.36118373540E+04 0.  0.
        4    1    3    3  502    0 -0.14469502993E+04  0.44540351562E+03  0.11284890440E+04  0.18882633809E+04  0.12699999809E+01 0.  1.
       -4    1    3    3    0  502  0.14469502993E+04 -0.44540351562E+03 -0.84655251685E+03  0.17345611079E+04  0.12699999809E+01 0. -1.
</event>
<event>
 5   0  0.4173467E-06  0.3429164E+04  0.7818609E-02  0.8130785E-01
       -2   -1    0    0    0  501  0.00000000000E+00  0.00000000000E+00  0.13235432544E+04  0.13235432544E+04  0.25500000920E-02 0.  1.
        2   -1    0    0  501    0  0.00000000000E+00  0.00000000000E+00 -0.22211523266E+04  0.22211523266E+04  0.25500000920E-02 0. -1.
    10030    2    1    2    0    0  0.00000000000E+00  0.00000000000E+00 -0.89760907219E+03  0.35446955810E+04  0.34291638507E+04 0.  0.
        4    1    3    3  502    0  0.27013859587E+03  0.59999711522E+03 -0.20854406258E+04  0.21867865959E+04  0.12699999809E+01 0. -1.
       -4    1    3    3    0  502 -0.27013859587E+03 -0.59999711522E+03  0.11878315536E+04  0.13579089851E+04  0.12699999809E+01 0.  1.
</event>
<event>
 5   0  0.1571391E-06  0.3419077E+04  0.7818609E-02  0.8133240E-01
       -1   -1    0    0    0  501  0.00000000000E+00  0.00000000000E+00  0.11996830290E+04  0.11996830290E+04  0.50400001928E-02 0. -1.
        1   -1    0    0  501    0  0.00000000000E+00  0.00000000000E+00 -0.24360788713E+04  0.24360788713E+04  0.50400001928E-02 0.  1.
    10030    2    1    2    0    0  0.00000000000E+00  0.00000000000E+00 -0.12363958422E+04  0.36357619003E+04  0.34190773488E+04 0.  0.
        1    1    3    3  502    0  0.10676148583E+04  0.74527498274E+03  0.55984043987E+03  0.14172711821E+04  0.50400001928E-02 0. -1.
       -1    1    3    3    0  502 -0.10676148583E+04 -0.74527498274E+03 -0.17962362821E+04  0.22184907182E+04  0.50400001928E-02 0.  1.
</event>
<event>
 5   0  0.4173467E-06  0.2951809E+04  0.7818609E-02  0.8257628E-01
        2   -1    0    0  501    0  0.00000000000E+00  0.00000000000E+00  0.20937019722E+04  0.20937019722E+04  0.25500000920E-02 0. -1.
       -2   -1    0    0    0  501  0.00000000000E+00  0.00000000000E+00 -0.10404029827E+04  0.10404029827E+04  0.25500000920E-02 0.  1.
    10030    2    1    2    0    0  0.00000000000E+00  0.00000000000E+00  0.10532989895E+04  0.31341049549E+04  0.29518087856E+04 0.  0.
        4    1    3    3  502    0 -0.43436754664E+03  0.15449902298E+03 -0.96198860950E+03  0.10667562099E+04  0.12699999809E+01 0.  1.
       -4    1    3    3    0  502  0.43436754664E+03 -0.15449902298E+03  0.20152875990E+04  0.20673487450E+04  0.12699999809E+01 0. -1.
</event>
<event>
 5   0  0.4400349E-06  0.1960966E+04  0.7818609E-02  0.8625091E-01
       -2   -1    0    0    0  501  0.00000000000E+00  0.00000000000E+00  0.45910025259E+03  0.45910025260E+03  0.25500000920E-02 0. -1.
        2   -1    0    0  501    0  0.00000000000E+00  0.00000000000E+00 -0.20939808201E+04  0.20939808201E+04  0.25500000920E-02 0.  1.
    10030    2    1    2    0    0  0.00000000000E+00  0.00000000000E+00 -0.16348805675E+04  0.25530810727E+04  0.19609662143E+04 0.  0.
        5    1    3    3  502    0  0.92653999000E+03 -0.11649560228E+03 -0.12064544310E+04  0.15256480467E+04  0.46999998093E+01 0.  1.
       -5    1    3    3    0  502 -0.92653999000E+03  0.11649560228E+03 -0.42842613652E+03  0.10274330260E+04  0.46999998093E+01 0. -1.
</event>
<event>
 5   0  0.4400349E-06  0.3386273E+04  0.7818609E-02  0.8141283E-01
        2   -1    0    0  501    0  0.00000000000E+00  0.00000000000E+00  0.26526298132E+04  0.26526298132E+04  0.25500000920E-02 0.  1.
       -2   -1    0    0    0  501  0.00000000000E+00  0.00000000000E+00 -0.10807056409E+04  0.10807056409E+04  0.25500000920E-02 0. -1.
    10030    2    1    2    0    0  0.00000000000E+00  0.00000000000E+00  0.15719241722E+04  0.37333354541E+04  0.33862734694E+04 0.  0.
        5    1    3    3  502    0  0.49370387731E+03 -0.10270796225E+04  0.21665226777E+04  0.24479539768E+04  0.46999998093E+01 0.  1.
       -5    1    3    3    0  502 -0.49370387731E+03  0.10270796225E+04 -0.59459850553E+03  0.12853814773E+04  0.46999998093E+01 0. -1.
</event>
<event>
 5   0  0.1571391E-06  0.3343914E+04  0.7818609E-02  0.8151810E-01
       -1   -1    0    0    0  501  0.00000000000E+00  0.00000000000E+00  0.12021041500E+04  0.12021041501E+04  0.50400001928E-02 0.  1.
        1   -1    0    0  501    0  0.00000000000E+00  0.00000000000E+00 -0.23254561608E+04  0.23254561608E+04  0.50400001928E-02 0. -1.
    10030    2    1    2    0    0  0.00000000000E+00  0.00000000000E+00 -0.11233520108E+04  0.35275603109E+04  0.33439141745E+04 0.  0.
        1    1    3    3  502    0  0.58701692672E+03 -0.15256362976E+04 -0.93207973881E+03  0.18817352695E+04  0.50400001928E-02 0. -1.
       -1    1    3    3    0  502 -0.58701692672E+03  0.15256362976E+04 -0.19127227194E+03  0.16458250414E+04  0.50400001928E-02 0.  1.
</event>
<event>
 5   0  0.2722449E-06  0.3429733E+04  0.7818609E-02  0.8130647E-01
        2   -1    0    0  501    0  0.00000000000E+00  0.00000000000E+00  0.16525469010E+04  0.16525469010E+04  0.25500000920E-02 0. -1.
       -2   -1    0    0    0  501  0.00000000000E+00  0.00000000000E+00 -0.17795363947E+04  0.17795363947E+04  0.25500000920E-02 0.  1.
    10030    2    1    2    0    0  0.00000000000E+00  0.00000000000E+00 -0.12698949377E+03  0.34320832957E+04  0.34297331408E+04 0.  0.
        2    1    3    3  502    0  0.43547420066E+03  0.16581809779E+04 -0.10308723955E+03  0.17175065979E+04  0.25500000920E-02 0.  1.
       -2    1    3    3    0  502 -0.43547420066E+03 -0.16581809779E+04 -0.23902254217E+02  0.17145766978E+04  0.25500000920E-02 0. -1.
</event>
<event>
 5   0  0.1571391E-06  0.1960395E+04  0.7818609E-02  0.8625365E-01
        1   -1    0    0  501    0  0.00000000000E+00  0.00000000000E+00  0.18275767683E+04  0.18275767683E+04  0.50400001928E-02 0. -1.
       -1   -1    0    0    0  501  0.00000000000E+00  0.00000000000E+00 -0.52571635328E+03  0.52571635331E+03  0.50400001928E-02 0.  1.
    10030    2    1    2    0    0  0.00000000000E+00  0.00000000000E+00  0.13018604150E+04  0.23532931216E+04  0.19603948521E+04 0.  0.
        1    1    3    3  502    0 -0.47041545638E+03  0.80024111717E+03  0.27301689660E+03  0.96758192059E+03  0.50400001928E-02 0. -1.
       -1    1    3    3    0  502  0.47041545638E+03 -0.80024111717E+03  0.10288435184E+04  0.13857112010E+04  0.50400001928E-02 0.  1.
</event>
<event>
 5   0  0.1654257E-06  0.2970217E+04  0.7818609E-02  0.8252287E-01
        1   -1    0    0  501    0  0.00000000000E+00  0.00000000000E+00  0.16804757001E+04  0.16804757001E+04  0.50400001928E-02 0.  1.
       -1   -1    0    0    0  501  0.00000000000E+00  0.00000000000E+00 -0.13124545009E+04  0.13124545009E+04  0.50400001928E-02 0. -1.
    10030    2    1    2    0    0  0.00000000000E+00  0.00000000000E+00  0.36802119917E+03  0.29929302010E+04  0.29702174306E+04 0.  0.
        3    1    3    3  502    0  0.76859426422E+03 -0.12631568995E+04  0.32379918436E+03  0.15136539954E+04  0.10100000352E+00 0. -1.
       -3    1    3    3    0  502 -0.76859426422E+03  0.12631568995E+04  0.44222014806E+02  0.14792762056E+04  0.10100000352E+00 0.  1.
</event>
<event>
 5   0  0.2722449E-06  0.3498005E+04  0.7818609E-02  0.8114263E-01
       -2   -1    0    0    0  501  0.00000000000E+00  0.00000000000E+00  0.22400823384E+04  0.22400823384E+04  0.25500000920E-02 0. -1.
        2   -1    0    0  501    0  0.00000000000E+00  0.00000000000E+00 -0.13655795272E+04  0.13655795272E+04  0.25500000920E-02 0.  1.
    10030    2    1    2    0    0  0.00000000000E+00  0.00000000000E+00  0.87450281120E+03  0.36056618656E+04  0.34980054778E+04 0.  0.
        2    1    3    3  502    0 -0.92176385552E+03 -0.14699737601E+04  0.66434791543E+03  0.18579100122E+04  0.25500000920E-02 0. -1.
       -2    1    3    3    0  502  0.92176385552E+03  0.14699737601E+04  0.21015489577E+03  0.17477518534E+04  0.25500000920E-02 0.  1.
</event>
<event>
 5   0  0.1654257E-06  0.2900879E+04  0.7818609E-02  0.8272616E-01
       -1   -1    0    0    0  501  0.00000000000E+00  0.00000000000E+00  0.11001808953E+04  0.11001808954E+04  0.50400001928E-02 0. -1.
        1   -1    0    0  501    0  0.00000000000E+00  0.00000000000E+00 -0.19122075321E+04  0.19122075321E+04  0.50400001928E-02 0.  1.
    10030    2    1    2    0    0  0.00000000000E+00  0.00000000000E+00 -0.81202663674E+03  0.30123884274E+04  0.29008786219E+04 0.  0.
        3    1    3    3  502    0 -0.84607197634E+03 -0.61327899739E+03 -0.14505751992E+04  0.17877688152E+04  0.10100000352E+00 0.  1.
       -3    1    3    3    0  502  0.84607197634E+03  0.61327899739E+03  0.63854856250E+03  0.12246196122E+04  0.10100000352E+00 0. -1.
</event>
<event>
 5   0  0.4189587E-06  0.3360064E+04  0.7818609E-02  0.8147778E-01
        2   -1    0    0  501    0  0.00000000000E+00  0.00000000000E+00  0.27683577507E+04  0.27683577507E+04  0.25500000920E-02 0. -1.
       -2   -1    0    0    0  501  0.00000000000E+00  0.00000000000E+00 -0.10195604313E+04  0.10195604313E+04  0.25500000920E-02 0.  1.
    10030    2    1    2    0    0  0.00000000000E+00  0.00000000000E+00  0.17487973195E+04  0.37879181820E+04  0.33600642983E+04 0.  0.
        1    1    3    3  502    0 -0.38967268643E+03  0.17793651656E+03  0.27057549570E+04  0.27394554375E+04  0.50400001928E-02 0. -1.
       -1    1    3    3    0  502  0.38967268643E+03 -0.17793651656E+03 -0.95695763757E+03  0.10484627445E+04  0.50400001928E-02 0.  1.
</event>
<event>
 5   0  0.4189587E-06  0.3401387E+04  0.7818609E-02  0.8137566E-01
       -2   -1    0    0    0  501  0.00000000000E+00  0.00000000000E+00  0.10443101724E+04  0.10443101724E+04  0.25500000920E-02 0.  1.
        2   -1    0    0  501    0  0.00000000000E+00  0.00000000000E+00 -0.27696361080E+04  0.27696361080E+04  0.25500000920E-02 0. -1.
    10030    2    1    2    0    0  0.00000000000E+00  0.00000000000E+00 -0.17253259355E+04  0.38139462804E+04  0.34013874590E+04 0.  0.
        1    1    3    3  502    0  0.66529353441E+03 -0.50995899128E+03 -0.25219034572E+04  0.26575685706E+04  0.50400001928E-02 0. -1.
       -1    1    3    3    0  502 -0.66529353441E+03  0.50995899128E+03  0.79657752170E+03  0.11563777098E+04  0.50400001928E-02 0.  1.
</event>
<event>
 5   0  0.2722449E-06  0.1751145E+04  0.7818609E-02  0.8732720E-01
       -2   -1    0    0    0  501  0.00000000000E+00  0.00000000000E+00  0.79322499627E+03  0.79322499628E+03  0.25500000920E-02 0. -1.
        2   -1    0    0  501    0  0.00000000000E+00  0.00000000000E+00 -0.96646876376E+03  0.96646876376E+03  0.25500000920E-02 0.  1.
    10030    2    1    2    0    0  0.00000000000E+00  0.00000000000E+00 -0.17324376748E+03  0.17596937600E+04  0.17511449758E+04 0.  0.
        2    1    3    3  502    0 -0.53524465046E+03  0.27144477461E+03  0.55403112818E+03  0.81677389314E+03  0.25500000920E-02 0. -1.
       -2    1    3    3    0  502  0.53524465046E+03 -0.27144477461E+03 -0.72727489567E+03  0.94291986690E+03  0.25500000920E-02 0.  1.
</event>
<event>
 5   0  0.1550164E-06  0.2823873E+04  0.7818609E-02  0.8295895E-01
       -1   -1    0    0    0  501  0.00000000000E+00  0.00000000000E+00  0.26007263771E+04  0.26007263771E+04  0.50400001928E-02 0. -1.
        1   -1    0    0  501    0  0.00000000000E+00  0.00000000000E+00 -0.76654149646E+03  0.76654149648E+03  0.50400001928E-02 0.  1.
    10030    2    1    2    0    0  0.00000000000E+00  0.00000000000E+00  0.18341848806E+04  0.33672678736E+04  0.28238730064E+04 0.  0.
        4    1    3    3  502    0  0.13136013674E+04 -0.42092552038E+03  0.55770569520E+03  0.14878723405E+04  0.12699999809E+01 0.  1.
       -4    1    3    3    0  502 -0.13136013674E+04  0.42092552038E+03  0.12764791854E+04  0.18793955331E+04  0.12699999809E+01 0. -1.
</event>
<event>
 5   0  0.4173467E-06  0.3091976E+04  0.7818609E-02  0.8217944E-01
        2   -1    0    0  501    0  0.00000000000E+00  0.00000000000E+00  0.28423982819E+04  0.28423982819E+04  0.25500000920E-02 0. -1.
       -2   -1    0    0    0  501  0.00000000000E+00  0.00000000000E+00 -0.84086677387E+03  0.84086677387E+03  0.25500000920E-02 0.  1.
    10030    2    1    2    0    0  0.00000000000E+00  0.00000000000E+00  0.20015315081E+04  0.36832650558E+04  0.30919755972E+04 0.  0.
        4    1    3    3  502    0 -0.11838557592E+03 -0.80814669786E+03 -0.56286630760E+03  0.99193564458E+03  0.12699999809E+01 0.  1.
       -4    1    3    3    0  502  0.11838557592E+03  0.80814669786E+03  0.25643978157E+04  0.26913294112E+04  0.12699999809E+01 0. -1.
</event>
<event>
 5   0  0.2722449E-06  0.3350492E+04  0.7818609E-02  0.8150165E-01
        2   -1    0    0  501    0  0.00000000000E+00  0.00000000000E+00  0.31389110862E+04  0.31389110862E+04  0.25500000920E-02 0.  1.
       -2   -1    0    0    0  501  0.00000000000E+00  0.00000000000E+00 -0.89408387694E+03  0.89408387695E+03  0.25500000920E-02 0. -1.
    10030    2    1    2    0    0  0.00000000000E+00  0.00000000000E+00  0.22448272093E+04  0.40329949632E+04  0.33504923778E+04 0.  0.
        2    1    3    3  502    0  0.10766636130E+04 -0.11993604876E+04  0.16724141976E+04  0.23226362959E+04  0.25500000920E-02 0. -1.
       -2    1    3    3    0  502 -0.10766636130E+04  0.11993604876E+04  0.57241301167E+03  0.17103586673E+04  0.25500000920E-02 0.  1.
</event>
<event>
 5   0  0.4173467E-06  0.3231554E+04  0.7818609E-02  0.8180533E-01
       -2   -1    0    0    0  501  0.00000000000E+00  0.00000000000E+00  0.10277282381E+04  0.10277282381E+04  0.25500000920E-02 0. -1.
        2   -1    0    0  501    0  0.00000000000E+00  0.00000000000E+00 -0.25402978044E+04  0.25402978044E+04  0.25500000920E-02 0.  1.
    10030    2    1    2    0    0  0.00000000000E+00  0.00000000000E+00 -0.15125695662E+04  0.35680260425E+04  0.32315542928E+04 0.  0.
        4    1    3    3  502    0  0.15462882782E+03  0.91092766520E+03  0.70726247789E+03  0.11635811580E+04  0.12699999809E+01 0. -1.
       -4    1    3    3    0  502 -0.15462882782E+03 -0.91092766520E+03 -0.22198320441E+04  0.24044448845E+04  0.12699999809E+01 0.  1.
</event>
<event>
 5   0  0.4344980E-06  0.3161264E+04  0.7818609E-02  0.8199123E-01
        2   -1    0    0  501    0  0.00000000000E+00  0.00000000000E+00  0.73824738477E+03  0.73824738478E+03  0.25500000920E-02 0. -1.
       -2   -1    0    0    0  501  0.00000000000E+00  0.00000000000E+00 -0.33842277149E+04  0.33842277149E+04  0.25500000920E-02 0.  1.
    10030    2    1    2    0    0  0.00000000000E+00  0.00000000000E+00 -0.26459803301E+04  0.41224750997E+04  0.31612638359E+04 0.  0.
        3    1    3    3  502    0 -0.42651051057E+02 -0.50756800753E+02 -0.33824137719E+04  0.33830634489E+04  0.10100000352E+00 0.  1.
       -3    1    3    3    0  502  0.42651051057E+02  0.50756800753E+02  0.73643344174E+03  0.73941165077E+03  0.10100000352E+00 0. -1.
</event>
<event>
 5   0  0.4400349E-06  0.3388866E+04  0.7818609E-02  0.8140644E-01
        2   -1    0    0  501    0  0.00000000000E+00  0.00000000000E+00  0.22058750534E+04  0.22058750534E+04  0.25500000920E-02 0. -1.
       -2   -1    0    0    0  501  0.00000000000E+00  0.00000000000E+00 -0.13015711754E+04  0.13015711754E+04  0.25500000920E-02 0.  1.
    10030    2    1    2    0    0  0.00000000000E+00  0.00000000000E+00  0.90430387805E+03  0.35074462288E+04  0.33888661149E+04 0.  0.
        5    1    3    3  502    0  0.33273662749E+02 -0.13592341887E+04 -0.59439580884E+03  0.14838979695E+04  0.46999998093E+01 0.  1.
       -5    1    3    3    0  502 -0.33273662749E+02  0.13592341887E+04  0.14986996869E+04  0.20235482593E+04  0.46999998093E+01 0. -1.
</event>
<event>
 5   0  0.4189587E-06  0.3384719E+04  0.7818609E-02  0.8141667E-01
        2   -1    0    0  501    0  0.00000000000E+00  0.00000000000E+00  0.17942914306E+04  0.17942914306E+04  0.25500000920E-02 0. -1.
       -2   -1    0    0    0  501  0.00000000000E+00  0.00000000000E+00 -0.15962183978E+04  0.15962183978E+04  0.25500000920E-02 0.  1.
    10030    2    1    2    0    0  0.00000000000E+00  0.00000000000E+00  0.19807303280E+03  0.33905098284E+04  0.33847191863E+04 0.  0.
        1    1    3    3  502    0  0.87808128635E+03 -0.40374114900E+03  0.14906747252E+04  0.17765541921E+04  0.50400001928E-02 0. -1.
       -1    1    3    3    0  502 -0.87808128635E+03  0.40374114900E+03 -0.12926016924E+04  0.16139556364E+04  0.50400001928E-02 0.  1.
</event>
<event>
 5   0  0.2722449E-06  0.3455440E+04  0.7818609E-02  0.8124432E-01
        2   -1    0    0  501    0  0.00000000000E+00  0.00000000000E+00  0.21440208431E+04  0.21440208431E+04  0.25500000920E-02 0. -1.
       -2   -1    0    0    0  501  0.00000000000E+00  0.00000000000E+00 -0.13922512921E+04  0.13922512921E+04  0.25500000920E-02 0.  1.
    10030    2    1    2    0    0  0.00000000000E+00  0.00000000000E+00  0.75176955096E+03  0.35362721352E+04  0.34554396473E+04 0.  0.
        2    1    3    3  502    0  0.22300122814E+03  0.13047279560E+04  0.15122523515E+04  0.20097143483E+04  0.25500000920E-02 0. -1.
       -2    1    3    3    0  502 -0.22300122814E+03 -0.13047279560E+04 -0.76048280055E+03  0.15265577869E+04  0.25500000920E-02 0.  1.
</event>
<event>
 5   0  0.2309875E-06  0.1868865E+04  0.7818609E-02  0.8670511E-01
        1   -1    0    0  501    0  0.00000000000E+00  0.00000000000E+00  0.95857125762E+03  0.95857125763E+03  0.50400001928E-02 0.  1.
       -1   -1    0    0    0  501  0.00000000000E+00  0.00000000000E+00 -0.91090152307E+03  0.91090152309E+03  0.50400001928E-02 0. -1.
    10030    2    1    2    0    0  0.00000000000E+00  0.00000000000E+00  0.47669734546E+02  0.18694727807E+04  0.18688649160E+04 0.  0.
        4    1    3    3  502    0 -0.75513908479E+02  0.48011992685E+01  0.95550078301E+03  0.95849296352E+03  0.12699999809E+01 0.  1.
       -4    1    3    3    0  502  0.75513908479E+02 -0.48011992685E+01 -0.90783104846E+03  0.91097981720E+03  0.12699999809E+01 0. -1.
</event>
<event>
 5   0  0.4400349E-06  0.3334741E+04  0.7818609E-02  0.8154111E-01
       -2   -1    0    0    0  501  0.00000000000E+00  0.00000000000E+00  0.15680990989E+04  0.15680990989E+04  0.25500000920E-02 0.  1.
        2   -1    0    0  501    0  0.00000000000E+00  0.00000000000E+00 -0.17729269793E+04  0.17729269793E+04  0.25500000920E-02 0. -1.
    10030    2    1    2    0    0  0.00000000000E+00  0.00000000000E+00 -0.20482788042E+03  0.33410260782E+04  0.33347414884E+04 0.  0.
        5    1    3    3  502    0  0.13012793766E+04  0.35066368126E+02  0.94144471603E+03  0.16065173231E+04  0.46999998093E+01 0.  1.
       -5    1    3    3    0  502 -0.13012793766E+04 -0.35066368126E+02 -0.11462725965E+04  0.17345087551E+04  0.46999998093E+01 0. -1.
</event>
<event>
 5   0  0.1654257E-06  0.3354990E+04  0.7818609E-02  0.8149043E-01
       -1   -1    0    0    0  501  0.00000000000E+00  0.00000000000E+00  0.11868562512E+04  0.11868562512E+04  0.50400001928E-02 0.  1.
        1   -1    0    0  501    0  0.00000000000E+00  0.00000000000E+00 -0.23709600407E+04  0.23709600407E+04  0.50400001928E-02 0. -1.
    10030    2    1    2    0    0  0.00000000000E+00  0.00000000000E+00 -0.11841037896E+04  0.35578162919E+04  0.33549895652E+04 0.  0.
        3    1    3    3  502    0 -0.11774513617E+04  0.61717779006E+03 -0.16769803331E+04  0.21399913975E+04  0.10100000352E+00 0. -1.
       -3    1    3    3    0  502  0.11774513617E+04 -0.61717779006E+03  0.49287654356E+03  0.14178248943E+04  0.10100000352E+00 0.  1.
</event>
<event>
 5   0  0.1401125E-06  0.1755588E+04  0.7818609E-02  0.8730281E-01
       -3   -1    0    0    0  501  0.00000000000E+00  0.00000000000E+00  0.12971137811E+04  0.12971137850E+04  0.10100000352E+00 0.  1.
        3   -1    0    0  501    0  0.00000000000E+00  0.00000000000E+00 -0.59402820129E+03  0.59402820988E+03  0.10100000352E+00 0. -1.
    10030    2    1    2    0    0  0.00000000000E+00  0.00000000000E+00  0.70308557979E+03  0.18911419949E+04  0.17555878538E+04 0.  0.
        2    1    3    3  502    0  0.75767966299E+03  0.37063331186E+03  0.61336239676E+03  0.10429098491E+04  0.25500000920E-02 0. -1.
       -2    1    3    3    0  502 -0.75767966299E+03 -0.37063331186E+03  0.89723183030E+02  0.84823214579E+03  0.25500000920E-02 0.  1.
</event>
<event>
 5   0  0.1571391E-06  0.3481442E+04  0.7818609E-02  0.8118202E-01
        1   -1    0    0  501    0  0.00000000000E+00  0.00000000000E+00  0.14887194037E+04  0.14887194037E+04  0.50400001928E-02 0.  1.
       -1   -1    0    0    0  501  0.00000000000E+00  0.00000000000E+00 -0.20353801446E+04  0.20353801446E+04  0.50400001928E-02 0. -1.
    10030    2    1    2    0    0  0.00000000000E+00  0.00000000000E+00 -0.54666074088E+03  0.35240995483E+04  0.34814421812E+04 0.  0.
        1    1    3    3  502    0 -0.15801436099E+04  0.46593677612E+03  0.29583931481E+03  0.16737597819E+04  0.50400001928E-02 0. -1.
       -1    1    3    3    0  502  0.15801436099E+04 -0.46593677612E+03 -0.84250005569E+03  0.18503397664E+04  0.50400001928E-02 0.  1.
</event>
<event>
 5   0  0.2722449E-06  0.3394338E+04  0.7818609E-02  0.8139297E-01
       -2   -1    0    0    0  501  0.00000000000E+00  0.00000000000E+00  0.10852682922E+04  0.10852682922E+04  0.25500000920E-02 0.  1.
        2   -1    0    0  501    0  0.00000000000E+00  0.00000000000E+00 -0.26540741964E+04  0.26540741964E+04  0.25500000920E-02 0. -1.
    10030    2    1    2    0    0  0.00000000000E+00  0.00000000000E+00 -0.15688059042E+04  0.37393424885E+04  0.33943379740E+04 0.  0.
        2    1    3    3  502    0 -0.15943949426E+04  0.45662881096E+03 -0.11812652174E+04  0.20361710680E+04  0.25500000920E-02 0. -1.
       -2    1    3    3    0  502  0.15943949426E+04 -0.45662881096E+03 -0.38754068673E+03  0.17031714206E+04  0.25500000920E-02 0.  1.
</event>
<event>
 5   0  0.1571391E-06  0.3404929E+04  0.7818609E-02  0.8136698E-01
        1   -1    0    0  501    0  0.00000000000E+00  0.00000000000E+00  0.24634263228E+04  0.24634263228E+04  0.50400001928E-02 0.  1.
       -1   -1    0    0    0  501  0.00000000000E+00  0.00000000000E+00 -0.11765665209E+04  0.11765665209E+04  0.50400001928E-02 0. -1.
    10030    2    1    2    0    0  0.00000000000E+00  0.00000000000E+00  0.12868598019E+04  0.36399928437E+04  0.34049287441E+04 0.  0.
        1    1    3    3  502    0 -0.27174818833E+03 -0.77522808024E+03 -0.95067485893E+03  0.12564268151E+04  0.50400001928E-02 0. -1.
       -1    1    3    3    0  502  0.27174818833E+03  0.77522808024E+03  0.22375346609E+04  0.23835660286E+04  0.50400001928E-02 0.  1.
</event>
<event>
 5   0  0.4344980E-06  0.1894661E+04  0.7818609E-02  0.8657518E-01
       -2   -1    0    0    0  501  0.00000000000E+00  0.00000000000E+00  0.78626150805E+03  0.78626150805E+03  0.25500000920E-02 0.  1.
        2   -1    0    0  501    0  0.00000000000E+00  0.00000000000E+00 -0.11413952863E+04  0.11413952863E+04  0.25500000920E-02 0. -1.
    10030    2    1    2    0    0  0.00000000000E+00  0.00000000000E+00 -0.35513377827E+03  0.19276567944E+04  0.18946611086E+04 0.  0.
        3    1    3    3  502    0 -0.97708619615E+02  0.43449289294E+03 -0.10282525332E+04  0.11205509049E+04  0.10100000352E+00 0. -1.
       -3    1    3    3    0  502  0.97708619615E+02 -0.43449289294E+03  0.67311875490E+03  0.80710588944E+03  0.10100000352E+00 0.  1.
</event>
<event>
 5   0  0.4400349E-06  0.3140796E+04  0.7818609E-02  0.8204630E-01
       -2   -1    0    0    0  501  0.00000000000E+00  0.00000000000E+00  0.12915236984E+04  0.12915236984E+04  0.25500000920E-02 0.  1.
        2   -1    0    0  501    0  0.00000000000E+00  0.00000000000E+00 -0.19094891667E+04  0.19094891667E+04  0.25500000920E-02 0. -1.
    10030    2    1    2    0    0  0.00000000000E+00  0.00000000000E+00 -0.61796546835E+03  0.32010128651E+04  0.31407964026E+04 0.  0.
        5    1    3    3  502    0  0.28404690588E+03  0.84243759464E+03 -0.16283070257E+04  0.18552060817E+04  0.46999998093E+01 0. -1.
       -5    1    3    3    0  502 -0.28404690588E+03 -0.84243759464E+03  0.10103415574E+04  0.13458067834E+04  0.46999998093E+01 0.  1.
</event>
<event>
 5   0  0.4400349E-06  0.2723279E+04  0.7818609E-02  0.8327491E-01
        2   -1    0    0  501    0  0.00000000000E+00  0.00000000000E+00  0.14826188033E+04  0.14826188033E+04  0.25500000920E-02 0.  1.
       -2   -1    0    0    0  501  0.00000000000E+00  0.00000000000E+00 -0.12505323451E+04  0.12505323451E+04  0.25500000920E-02 0. -1.
    10030    2    1    2    0    0  0.00000000000E+00  0.00000000000E+00  0.23208645824E+03  0.27331511484E+04  0.27232794708E+04 0.  0.
        5    1    3    3  502    0  0.42103749726E+03  0.37775492273E+03 -0.11270220332E+04  0.12610202652E+04  0.46999998093E+01 0. -1.
       -5    1    3    3    0  502 -0.42103749726E+03 -0.37775492273E+03  0.13591084915E+04  0.14721308832E+04  0.46999998093E+01 0.  1.
</event>
<event>
 5   0  0.2722449E-06  0.3596207E+04  0.7818609E-02  0.8091361E-01
       -2   -1    0    0    0  501  0.00000000000E+00  0.00000000000E+00  0.14725898786E+04  0.14725898786E+04  0.25500000920E-02 0. -1.
        2   -1    0    0  501    0  0.00000000000E+00  0.00000000000E+00 -0.21955717111E+04  0.21955717111E+04  0.25500000920E-02 0.  1.
    10030    2    1    2    0    0  0.00000000000E+00  0.00000000000E+00 -0.72298183254E+03  0.36681615897E+04  0.35962072685E+04 0.  0.
        2    1    3    3  502    0 -0.72096999730E+02  0.99966445663E+03  0.11612451977E+04  0.15339548274E+04  0.25500000920E-02 0. -1.
       -2    1    3    3    0  502  0.72096999730E+02 -0.99966445663E+03 -0.18842270302E+04  0.21342067624E+04  0.25500000920E-02 0.  1.
</event>
<event>
 5   0  0.1550164E-06  0.3342116E+04  0.7818609E-02  0.8152261E-01
        1   -1    0    0  501    0  0.00000000000E+00  0.00000000000E+00  0.10319486913E+04  0.10319486913E+04  0.50400001928E-02 0.  1.
       -1   -1    0    0    0  501  0.00000000000E+00  0.00000000000E+00 -0.27059823548E+04  0.27059823548E+04  0.50400001928E-02 0. -1.
    10030    2    1    2    0    0  0.00000000000E+00  0.00000000000E+00 -0.16740336635E+04  0.37379310461E+04  0.33421160660E+04 0.  0.
        4    1    3    3  502    0 -0.68764092892E+03 -0.33768482673E+03  0.82397857952E+03  0.11250881751E+04  0.12699999809E+01 0.  1.
       -4    1    3    3    0  502  0.68764092892E+03  0.33768482673E+03 -0.24980122430E+04  0.26128428710E+04  0.12699999809E+01 0. -1.
</event>
<event>
 5   0  0.4173467E-06  0.3360090E+04  0.7818609E-02  0.8147772E-01
        2   -1    0    0  501    0  0.00000000000E+00  0.00000000000E+00  0.10077279072E+04  0.10077279072E+04  0.25500000920E-02 0.  1.
       -2   -1    0    0    0  501  0.00000000000E+00  0.00000000000E+00 -0.28009063057E+04  0.28009063057E+04  0.25500000920E-02 0. -1.
    10030    2    1    2    0    0  0.00000000000E+00  0.00000000000E+00 -0.17931783986E+04  0.38086342129E+04  0.33600901474E+04 0.  0.
        4    1    3    3  502    0  0.17819883805E+03 -0.12342961562E+04  0.37943651129E+03  0.13035396066E+04  0.12699999809E+01 0.  1.
       -4    1    3    3    0  502 -0.17819883805E+03  0.12342961562E+04 -0.21726149099E+04  0.25050946063E+04  0.12699999809E+01 0. -1.
</event>
<event>
 5   0  0.4344980E-06  0.3354095E+04  0.7818609E-02  0.8149266E-01
       -2   -1    0    0    0  501  0.00000000000E+00  0.00000000000E+00  0.18560919452E+04  0.18560919452E+04  0.25500000920E-02 0.  1.
        2   -1    0    0  501    0  0.00000000000E+00  0.00000000000E+00 -0.15152740737E+04  0.15152740737E+04  0.25500000920E-02 0. -1.
    10030    2    1    2    0    0  0.00000000000E+00  0.00000000000E+00  0.34081787151E+03  0.33713660189E+04  0.33540948126E+04 0.  0.
        3    1    3    3  502    0  0.47111588593E+03 -0.36517900425E+03 -0.14052029289E+04  0.15264013773E+04  0.10100000352E+00 0. -1.
       -3    1    3    3    0  502 -0.47111588593E+03  0.36517900425E+03  0.17460208004E+04  0.18449646416E+04  0.10100000352E+00 0.  1.
</event>
<event>
 5   0  0.4173467E-06  0.3497273E+04  0.7818609E-02  0.8114436E-01
       -2   -1    0    0    0  501  0.00000000000E+00  0.00000000000E+00  0.22285838852E+04  0.22285838852E+04  0.25500000920E-02 0. -1.
        2   -1    0    0  501    0  0.00000000000E+00  0.00000000000E+00 -0.13720505406E+04  0.13720505406E+04  0.25500000920E-02 0.  1.
    10030    2    1    2    0    0  0.00000000000E+00  0.00000000000E+00  0.85653334462E+03  0.36006344257E+04  0.34972730659E+04 0.  0.
        4    1    3    3  502    0  0.82796018079E+02 -0.16462488166E+04  0.10292461215E+04  0.19432806123E+04  0.12699999809E+01 0. -1.
       -4    1    3    3    0  502 -0.82796018079E+02  0.16462488166E+04 -0.17271277686E+03  0.16573538134E+04  0.12699999809E+01 0.  1.
</event>
<event>
 5   0  0.4344980E-06  0.3364850E+04  0.7818609E-02  0.8146588E-01
        2   -1    0    0  501    0  0.00000000000E+00  0.00000000000E+00  0.16219512886E+04  0.16219512886E+04  0.25500000920E-02 0. -1.
       -2   -1    0    0    0  501  0.00000000000E+00  0.00000000000E+00 -0.17451535313E+04  0.17451535313E+04  0.25500000920E-02 0.  1.
    10030    2    1    2    0    0  0.00000000000E+00  0.00000000000E+00 -0.12320224271E+03  0.33671048199E+04  0.33648500821E+04 0.  0.
        3    1    3    3  502    0 -0.75609547785E+03 -0.13323782958E+03  0.14364395358E+04  0.16287391569E+04  0.10100000352E+00 0. -1.
       -3    1    3    3    0  502  0.75609547785E+03  0.13323782958E+03 -0.15596417785E+04  0.17383656630E+04  0.10100000352E+00 0.  1.
</event>
<event>
 5   0  0.4344980E-06  0.3340585E+04  0.7818609E-02  0.8152645E-01
       -2   -1    0    0    0  501  0.00000000000E+00  0.00000000000E+00  0.16024030385E+04  0.16024030386E+04  0.25500000920E-02 0. -1.
        2   -1    0    0  501    0  0.00000000000E+00  0.00000000000E+00 -0.17410586785E+04  0.17410586785E+04  0.25500000920E-02 0.  1.
    10030    2    1    2    0    0  0.00000000000E+00  0.00000000000E+00 -0.13865563993E+03  0.33434617170E+04  0.33405854078E+04 0.  0.
        3    1    3    3  502    0 -0.10546289448E+04  0.19274753275E+03  0.12125887442E+04  0.16185689035E+04  0.10100000352E+00 0. -1.
       -3    1    3    3    0  502  0.10546289448E+04 -0.19274753275E+03 -0.13512443841E+04  0.17248928136E+04  0.10100000352E+00 0.  1.
</event>
<event>
 5   0  0.1550164E-06  0.3433587E+04  0.7818609E-02  0.8129712E-01
        1   -1    0    0  501    0  0.00000000000E+00  0.00000000000E+00  0.21929130697E+04  0.21929130697E+04  0.50400001928E-02 0. -1.
       -1   -1    0    0    0  501  0.00000000000E+00  0.00000000000E+00 -0.13440475140E+04  0.13440475140E+04  0.50400001928E-02 0.  1.
    10030    2    1    2    0    0  0.00000000000E+00  0.00000000000E+00  0.84886555570E+03  0.35369605837E+04  0.34335866727E+04 0.  0.
        4    1    3    3  502    0 -0.23928683720E+03 -0.66701106653E+02  0.21743019360E+04  0.21884464238E+04  0.12699999809E+01 0. -1.
       -4    1    3    3    0  502  0.23928683720E+03  0.66701106653E+02 -0.13254363803E+04  0.13485141598E+04  0.12699999809E+01 0.  1.
</event>
<event>
 5   0  0.1654257E-06  0.2154349E+04  0.7818609E-02  0.8537673E-01
        1   -1    0    0  501    0  0.00000000000E+00  0.00000000000E+00  0.10782456032E+04  0.10782456033E+04  0.50400001928E-02 0. -1.
       -1   -1    0    0    0  501  0.00000000000E+00  0.00000000000E+00 -0.10761040681E+04  0.10761040681E+04  0.50400001928E-02 0.  1.
    10030    2    1    2    0    0  0.00000000000E+00  0.00000000000E+00  0.21415351957E+01  0.21543496713E+04  0.21543486069E+04 0.  0.
        3    1    3    3  502    0 -0.48470238373E+03  0.82980854504E+03  0.48767746874E+03  0.10776585479E+04  0.10100000352E+00 0. -1.
       -3    1    3    3    0  502  0.48470238373E+03 -0.82980854504E+03 -0.48553593354E+03  0.10766911234E+04  0.10100000352E+00 0.  1.
</event>
<event>
 5   0  0.2101998E-06  0.3423881E+04  0.7818609E-02  0.8132070E-01
        1   -1    0    0  501    0  0.00000000000E+00  0.00000000000E+00  0.18128741172E+04  0.18128741172E+04  0.50400001928E-02 0. -1.
       -1   -1    0    0    0  501  0.00000000000E+00  0.00000000000E+00 -0.16166267813E+04  0.16166267813E+04  0.50400001928E-02 0.  1.
    10030    2    1    2    0    0  0.00000000000E+00  0.00000000000E+00  0.19624733590E+03  0.34295008985E+04  0.34238813350E+04 0.  0.
        5    1    3    3  502    0  0.10338106063E+02  0.31532383560E+03 -0.15872498637E+04  0.16183078253E+04  0.46999998093E+01 0.  1.
       -5    1    3    3    0  502 -0.10338106063E+02 -0.31532383560E+03  0.17834971996E+04  0.18111930732E+04  0.46999998093E+01 0. -1.
</event>
<event>
 5   0  0.4189587E-06  0.3403284E+04  0.7818609E-02  0.8137101E-01
       -2   -1    0    0    0  501  0.00000000000E+00  0.00000000000E+00  0.19029096408E+04  0.19029096408E+04  0.25500000920E-02 0. -1.
        2   -1    0    0  501    0  0.00000000000E+00  0.00000000000E+00 -0.15216623775E+04  0.15216623775E+04  0.25500000920E-02 0.  1.
    10030    2    1    2    0    0  0.00000000000E+00  0.00000000000E+00  0.38124726329E+03  0.34245720182E+04  0.34032843008E+04 0.  0.
        1    1    3    3  502    0 -0.16001176371E+03 -0.41559948182E+03 -0.14619827450E+04  0.15283063308E+04  0.50400001928E-02 0.  1.
       -1    1    3    3    0  502  0.16001176371E+03  0.41559948182E+03  0.18432300083E+04  0.18962656875E+04  0.50400001928E-02 0. -1.
</event>
<event>
 5   0  0.4400349E-06  0.3678610E+04  0.7818609E-02  0.8072719E-01
        2   -1    0    0  501    0  0.00000000000E+00  0.00000000000E+00  0.21217398763E+04  0.21217398763E+04  0.25500000920E-02 0. -1.
       -2   -1    0    0    0  501  0.00000000000E+00  0.00000000000E+00 -0.15944663829E+04  0.15944663829E+04  0.25500000920E-02 0.  1.
    10030    2    1    2    0    0  0.00000000000E+00  0.00000000000E+00  0.52727349335E+03  0.37162062592E+04  0.36786100125E+04 0.  0.
        5    1    3    3  502    0  0.23694833761E+03  0.15678076146E+04  0.12052875048E+04  0.19917091380E+04  0.46999998093E+01 0. -1.
       -5    1    3    3    0  502 -0.23694833761E+03 -0.15678076146E+04 -0.67801401145E+03  0.17244971212E+04  0.46999998093E+01 0.  1.
</event>
<event>
 5   0  0.2101998E-06  0.2123655E+04  0.7818609E-02  0.8550894E-01
       -1   -1    0    0    0  501  0.00000000000E+00  0.00000000000E+00  0.67412355888E+03  0.67412355890E+03  0.50400001928E-02 0.  1.
        1   -1    0    0  501    0  0.00000000000E+00  0.00000000000E+00 -0.16725091033E+04  0.16725091033E+04  0.50400001928E-02 0. -1.
    10030    2    1    2    0    0  0.00000000000E+00  0.00000000000E+00 -0.99838554442E+03  0.23466326622E+04  0.21236551406E+04 0.  0.
        5    1    3    3  502    0  0.71958746182E+01 -0.41825594372E+03 -0.15776075547E+04  0.16321328076E+04  0.46999998093E+01 0. -1.
       -5    1    3    3    0  502 -0.71958746182E+01  0.41825594372E+03  0.57922201026E+03  0.71449985461E+03  0.46999998093E+01 0.  1.
</event>
<event>
 5   0  0.1571391E-06  0.3430918E+04  0.7818609E-02  0.8130359E-01
       -1   -1    0    0    0  501  0.00000000000E+00  0.00000000000E+00  0.10969661272E+04  0.10969661272E+04  0.50400001928E-02 0. -1.
        1   -1    0    0  501    0  0.00000000000E+00  0.00000000000E+00 -0.26826712971E+04  0.26826712971E+04  0.50400001928E-02 0.  1.
    10030    2    1    2    0    0  0.00000000000E+00  0.00000000000E+00 -0.15857051699E+04  0.37796374243E+04  0.34309179782E+04 0.  0.
        1    1    3    3  502    0  0.93283966281E+03 -0.16713594062E+03 -0.23681116175E+04  0.25507012550E+04  0.50400001928E-02 0.  1.
       -1    1    3    3    0  502 -0.93283966281E+03  0.16713594062E+03  0.78240644756E+03  0.12289361694E+04  0.50400001928E-02 0. -1.
</event>
<event>
 5   0  0.2722449E-06  0.2265851E+04  0.7818609E-02  0.8491508E-01
       -2   -1    0    0    0  501  0.00000000000E+00  0.00000000000E+00  0.11022418038E+04  0.11022418038E+04  0.25500000920E-02 0.  1.
        2   -1    0    0  501    0  0.00000000000E+00  0.00000000000E+00 -0.11644636492E+04  0.11644636492E+04  0.25500000920E-02 0. -1.
    10030    2    1    2    0    0  0.00000000000E+00  0.00000000000E+00 -0.62221845405E+02  0.22667054529E+04  0.22658512864E+04 0.  0.
        2    1    3    3  502    0 -0.28686683444E+03  0.11790603664E+03 -0.11211666319E+04  0.11632751311E+04  0.25500000920E-02 0. -1.
       -2    1    3    3    0  502  0.28686683444E+03 -0.11790603664E+03  0.10589447865E+04  0.11034303218E+04  0.25500000920E-02 0.  1.
</event>
<event>
 5   0  0.1550164E-06  0.2513147E+04  0.7818609E-02  0.8398317E-01
        1   -1    0    0  501    0  0.00000000000E+00  0.00000000000E+00  0.14363074673E+04  0.14363074673E+04  0.50400001928E-02 0. -1.
       -1   -1    0    0    0  501  0.00000000000E+00  0.00000000000E+00 -0.10993311699E+04  0.10993311699E+04  0.50400001928E-02 0.  1.
    10030    2    1    2    0    0  0.00000000000E+00  0.00000000000E+00  0.33697629743E+03  0.25356386372E+04  0.25131474834E+04 0.  0.
        4    1    3    3  502    0  0.54443708104E+03  0.63124604548E+02  0.13093505149E+04  0.14194353929E+04  0.12699999809E+01 0. -1.
       -4    1    3    3    0  502 -0.54443708104E+03 -0.63124604548E+02 -0.97237421744E+03  0.11162032443E+04  0.12699999809E+01 0.  1.
</event>
<event>
 5   0  0.2722449E-06  0.3254764E+04  0.7818609E-02  0.8174502E-01
       -2   -1    0    0    0  501  0.00000000000E+00  0.00000000000E+00  0.15260520789E+04  0.15260520789E+04  0.25500000920E-02 0. -1.
        2   -1    0    0  501    0  0.00000000000E+00  0.00000000000E+00 -0.17354406764E+04  0.17354406764E+04  0.25500000920E-02 0.  1.
    10030    2    1    2    0    0  0.00000000000E+00  0.00000000000E+00 -0.20938859745E+03  0.32614927553E+04  0.32547644167E+04 0.  0.
        2    1    3    3  502    0 -0.85346131167E+03 -0.99634814734E+03  0.86024337655E+03  0.15687971533E+04  0.25500000920E-02 0. -1.
       -2    1    3    3    0  502  0.85346131167E+03  0.99634814734E+03 -0.10696319740E+04  0.16926956020E+04  0.25500000920E-02 0.  1.
</event>
<event>
 5   0  0.4189587E-06  0.3408208E+04  0.7818609E-02  0.8135895E-01
       -2   -1    0    0    0  501  0.00000000000E+00  0.00000000000E+00  0.22248811246E+04  0.22248811246E+04  0.25500000920E-02 0.  1.
        2   -1    0    0  501    0  0.00000000000E+00  0.00000000000E+00 -0.13052250428E+04  0.13052250428E+04  0.25500000920E-02 0. -1.
    10030    2    1    2    0    0  0.00000000000E+00  0.00000000000E+00  0.91965608180E+03  0.35301061674E+04  0.34082080694E+04 0.  0.
        1    1    3    3  502    0 -0.37555213754E+03 -0.55190636921E+03 -0.11641561694E+04  0.13419760189E+04  0.50400001928E-02 0. -1.
       -1    1    3    3    0  502  0.37555213754E+03  0.55190636921E+03  0.20838122512E+04  0.21881301485E+04  0.50400001928E-02 0.  1.
</event>
<event>
 5   0  0.4400349E-06  0.3292798E+04  0.7818609E-02  0.8164730E-01
        2   -1    0    0  501    0  0.00000000000E+00  0.00000000000E+00  0.15906237138E+04  0.15906237138E+04  0.25500000920E-02 0.  1.
       -2   -1    0    0    0  501  0.00000000000E+00  0.00000000000E+00 -0.17041296673E+04  0.17041296673E+04  0.25500000920E-02 0. -1.
    10030    2    1    2    0    0  0.00000000000E+00  0.00000000000E+00 -0.11350595343E+03  0.32947533811E+04  0.32927976313E+04 0.  0.
        5    1    3    3  502    0  0.15313586613E+04 -0.49210028736E+03  0.29471756238E+03  0.16352683492E+04  0.46999998093E+01 0. -1.
       -5    1    3    3    0  502 -0.15313586613E+04  0.49210028736E+03 -0.40822351581E+03  0.16594850319E+04  0.46999998093E+01 0.  1.
</event>
<event>
 5   0  0.1571391E-06  0.3442258E+04  0.7818609E-02  0.8127612E-01
        1   -1    0    0  501    0  0.00000000000E+00  0.00000000000E+00  0.17371637697E+04  0.17371637697E+04  0.50400001928E-02 0. -1.
       -1   -1    0    0    0  501  0.00000000000E+00  0.00000000000E+00 -0.17052425521E+04  0.17052425521E+04  0.50400001928E-02 0.  1.
    10030    2    1    2    0    0  0.00000000000E+00  0.00000000000E+00  0.31921217605E+02  0.34424063218E+04  0.34422583168E+04 0.  0.
        1    1    3    3  502    0 -0.35402106021E+03  0.16840535160E+04  0.46267427000E+02  0.17214841941E+04  0.50400001928E-02 0. -1.
       -1    1    3    3    0  502  0.35402106021E+03 -0.16840535160E+04 -0.14346209396E+02  0.17209221277E+04  0.50400001928E-02 0.  1.
</event>
<event>
 5   0  0.2101998E-06  0.3093235E+04  0.7818609E-02  0.8217597E-01
       -1   -1    0    0    0  501  0.00000000000E+00  0.00000000000E+00  0.13144042699E+04  0.13144042699E+04  0.50400001928E-02 0. -1.
        1   -1    0    0  501    0  0.00000000000E+00  0.00000000000E+00 -0.18198557259E+04  0.18198557259E+04  0.50400001928E-02 0.  1.
    10030    2    1    2    0    0  0.00000000000E+00  0.00000000000E+00 -0.50545145600E+03  0.31342599959E+04  0.30932352881E+04 0.  0.
        5    1    3    3  502    0 -0.14592151450E+03  0.11293106833E+04  0.80775347367E+03  0.13961101217E+04  0.46999998093E+01 0. -1.
       -5    1    3    3    0  502  0.14592151450E+03 -0.11293106833E+04 -0.13132049297E+04  0.17381498742E+04  0.46999998093E+01 0.  1.
</event>
<event>
 5   0  0.4173467E-06  0.1897739E+04  0.7818609E-02  0.8655982E-01
        2   -1    0    0  501    0  0.00000000000E+00  0.00000000000E+00  0.85338973846E+03  0.85338973846E+03  0.25500000920E-02 0.  1.
       -2   -1    0    0    0  501  0.00000000000E+00  0.00000000000E+00 -0.10550322106E+04  0.10550322106E+04  0.25500000920E-02 0. -1.
    10030    2    1    2    0    0  0.00000000000E+00  0.00000000000E+00 -0.20164247211E+03  0.19084219490E+04  0.18977393522E+04 0.  0.
        4    1    3    3  502    0  0.10076362991E+03  0.88759400329E+03 -0.42258425176E+03  0.98820822023E+03  0.12699999809E+01 0. -1.
       -4    1    3    3    0  502 -0.10076362991E+03 -0.88759400329E+03  0.22094177965E+03  0.92021372881E+03  0.12699999809E+01 0.  1.
</event>
<event>
 5   0  0.1562618E-06  0.3287914E+04  0.7818609E-02  0.8165978E-01
       -1   -1    0    0    0  501  0.00000000000E+00  0.00000000000E+00  0.13222945329E+04  0.13222945329E+04  0.50400001928E-02 0. -1.
        1   -1    0    0  501    0  0.00000000000E+00  0.00000000000E+00 -0.20438667482E+04  0.20438667482E+04  0.50400001928E-02 0.  1.
    10030    2    1    2    0    0  0.00000000000E+00  0.00000000000E+00 -0.72157221530E+03  0.33661612811E+04  0.32879135190E+04 0.  0.
        2    1    3    3  502    0 -0.11037055159E+04 -0.62556183563E+03  0.70961007418E+03  0.14536299162E+04  0.25500000920E-02 0. -1.
       -2    1    3    3    0  502  0.11037055159E+04  0.62556183563E+03 -0.14311822895E+04  0.19125313649E+04  0.25500000920E-02 0.  1.
</event>
<event>
 5   0  0.2722449E-06  0.3629220E+04  0.7818609E-02  0.8083831E-01
        2   -1    0    0  501    0  0.00000000000E+00  0.00000000000E+00  0.19416433446E+04  0.19416433446E+04  0.25500000920E-02 0.  1.
       -2   -1    0    0    0  501  0.00000000000E+00  0.00000000000E+00 -0.16958877020E+04  0.16958877020E+04  0.25500000920E-02 0. -1.
    10030    2    1    2    0    0  0.00000000000E+00  0.00000000000E+00  0.24575564259E+03  0.36375310466E+04  0.36292197893E+04 0.  0.
        2    1    3    3  502    0  0.27474691494E+03  0.14844644923E+04  0.11320044610E+04  0.18869432413E+04  0.25500000920E-02 0.  1.
       -2    1    3    3    0  502 -0.27474691494E+03 -0.14844644923E+04 -0.88624881840E+03  0.17505878053E+04  0.25500000920E-02 0. -1.
</event>
<event>
 5   0  0.4400349E-06  0.3372396E+04  0.7818609E-02  0.8144715E-01
        2   -1    0    0  501    0  0.00000000000E+00  0.00000000000E+00  0.26574416231E+04  0.26574416231E+04  0.25500000920E-02 0. -1.
       -2   -1    0    0    0  501  0.00000000000E+00  0.00000000000E+00 -0.10699253948E+04  0.10699253948E+04  0.25500000920E-02 0.  1.
    10030    2    1    2    0    0  0.00000000000E+00  0.00000000000E+00  0.15875162283E+04  0.37273670179E+04  0.33723963455E+04 0.  0.
        5    1    3    3  502    0  0.14080105296E+04  0.92647204771E+03  0.84788281208E+03  0.18867356624E+04  0.46999998093E+01 0. -1.
       -5    1    3    3    0  502 -0.14080105296E+04 -0.92647204771E+03  0.73963341617E+03  0.18406313555E+04  0.46999998093E+01 0.  1.
</event>
<event>
 5   0  0.4173467E-06  0.3387288E+04  0.7818609E-02  0.8141033E-01
       -2   -1    0    0    0  501  0.00000000000E+00  0.00000000000E+00  0.16574400186E+04  0.16574400186E+04  0.25500000920E-02 0. -1.
        2   -1    0    0  501    0  0.00000000000E+00  0.00000000000E+00 -0.17306392958E+04  0.17306392958E+04  0.25500000920E-02 0.  1.
    10030    2    1    2    0    0  0.00000000000E+00  0.00000000000E+00 -0.73199277176E+02  0.33880793143E+04  0.33872884888E+04 0.  0.
        4    1    3    3  502    0  0.30391856283E+03 -0.12543567953E+04  0.10603111961E+04  0.16703409557E+04  0.12699999809E+01 0.  1.
       -4    1    3    3    0  502 -0.30391856283E+03  0.12543567953E+04 -0.11335104733E+04  0.17177383586E+04  0.12699999809E+01 0. -1.
</event>
<event>
 5   0  0.1571391E-06  0.1934211E+04  0.7818609E-02  0.8638012E-01
        1   -1    0    0  501    0  0.00000000000E+00  0.00000000000E+00  0.16497716105E+04  0.16497716105E+04  0.50400001928E-02 0. -1.
       -1   -1    0    0    0  501  0.00000000000E+00  0.00000000000E+00 -0.56692296128E+03  0.56692296131E+03  0.50400001928E-02 0.  1.
    10030    2    1    2    0    0  0.00000000000E+00  0.00000000000E+00  0.10828486492E+04  0.22166945718E+04  0.19342113710E+04 0.  0.
        1    1    3    3  502    0 -0.41305093583E+03 -0.12156669543E+03 -0.45101673340E+03  0.62354280596E+03  0.50400001928E-02 0.  1.
       -1    1    3    3    0  502  0.41305093583E+03  0.12156669543E+03  0.15338653826E+04  0.15931517659E+04  0.50400001928E-02 0. -1.
</event>
<event>
 5   0  0.1550164E-06  0.2718147E+04  0.7818609E-02  0.8329141E-01
        1   -1    0    0  501    0  0.00000000000E+00  0.00000000000E+00  0.18427387600E+04  0.18427387600E+04  0.50400001928E-02 0. -1.
       -1   -1    0    0    0  501  0.00000000000E+00  0.00000000000E+00 -0.10023564855E+04  0.10023564855E+04  0.50400001928E-02 0.  1.
    10030    2    1    2    0    0  0.00000000000E+00  0.00000000000E+00  0.84038227444E+03  0.28450952455E+04  0.27181472713E+04 0.  0.
        4    1    3    3  502    0 -0.11566243854E+04  0.69369601855E+03  0.24477718758E+03  0.13707339711E+04  0.12699999809E+01 0.  1.
       -4    1    3    3    0  502  0.11566243854E+04 -0.69369601855E+03  0.59560508686E+03  0.14743612744E+04  0.12699999809E+01 0. -1.
</event>
<event>
 5   0  0.1571391E-06  0.2569765E+04  0.7818609E-02  0.8378544E-01
        1   -1    0    0  501    0  0.00000000000E+00  0.00000000000E+00  0.13024681752E+04  0.13024681752E+04  0.50400001928E-02 0. -1.
       -1   -1    0    0    0  501  0.00000000000E+00  0.00000000000E+00 -0.12675345600E+04  0.12675345600E+04  0.50400001928E-02 0.  1.
    10030    2    1    2    0    0  0.00000000000E+00  0.00000000000E+00  0.34933615146E+02  0.25700027352E+04  0.25697653009E+04 0.  0.
        1    1    3    3  502    0  0.10020934626E+04  0.39804279988E+01 -0.78679421131E+03  0.12740691828E+04  0.50400001928E-02 0.  1.
       -1    1    3    3    0  502 -0.10020934626E+04 -0.39804279988E+01  0.82172782646E+03  0.12959335524E+04  0.50400001928E-02 0. -1.
</event>
<event>
 5   0  0.4189587E-06  0.3382151E+04  0.7818609E-02  0.8142301E-01
       -2   -1    0    0    0  501  0.00000000000E+00  0.00000000000E+00  0.18547792754E+04  0.18547792754E+04  0.25500000920E-02 0.  1.
        2   -1    0    0  501    0  0.00000000000E+00  0.00000000000E+00 -0.15418202697E+04  0.15418202697E+04  0.25500000920E-02 0. -1.
    10030    2    1    2    0    0  0.00000000000E+00  0.00000000000E+00  0.31295900567E+03  0.33965995451E+04  0.33821509621E+04 0.  0.
        1    1    3    3  502    0  0.10040804698E+04 -0.65557870968E+03 -0.10409965396E+04  0.15879656261E+04  0.50400001928E-02 0. -1.
       -1    1    3    3    0  502 -0.10040804698E+04  0.65557870968E+03  0.13539555452E+04  0.18086339190E+04  0.50400001928E-02 0.  1.
</event>
<event>
 5   0  0.2722449E-06  0.3313669E+04  0.7818609E-02  0.8159426E-01
       -2   -1    0    0    0  501  0.00000000000E+00  0.00000000000E+00  0.21541313347E+04  0.21541313347E+04  0.25500000920E-02 0.  1.
        2   -1    0    0  501    0  0.00000000000E+00  0.00000000000E+00 -0.12743425920E+04  0.12743425920E+04  0.25500000920E-02 0. -1.
    10030    2    1    2    0    0  0.00000000000E+00  0.00000000000E+00  0.87978874270E+03  0.34284739267E+04  0.33136694516E+04 0.  0.
        2    1    3    3  502    0  0.11460401759E+03 -0.78609354333E+03  0.19442365799E+04  0.21002697489E+04  0.25500000920E-02 0.  1.
       -2    1    3    3    0  502 -0.11460401759E+03  0.78609354333E+03 -0.10644478372E+04  0.13282041778E+04  0.25500000920E-02 0. -1.
</event>
<event>
 5   0  0.1562618E-06  0.3423026E+04  0.7818609E-02  0.8132278E-01
       -1   -1    0    0    0  501  0.00000000000E+00  0.00000000000E+00  0.13304294574E+04  0.13304294574E+04  0.50400001928E-02 0. -1.
        1   -1    0    0  501    0  0.00000000000E+00  0.00000000000E+00 -0.22017532799E+04  0.22017532799E+04  0.50400001928E-02 0.  1.
    10030    2    1    2    0    0  0.00000000000E+00  0.00000000000E+00 -0.87132382253E+03  0.35321827373E+04  0.34230263929E+04 0.  0.
        2    1    3    3  502    0  0.47246857500E+03 -0.12358102019E+03  0.12570065348E+04  0.13485415276E+04  0.25500000920E-02 0. -1.
       -2    1    3    3    0  502 -0.47246857500E+03  0.12358102019E+03 -0.21283303574E+04  0.21836412098E+04  0.25500000920E-02 0.  1.
</event>
<event>
 5   0  0.4173467E-06  0.3181538E+04  0.7818609E-02  0.8193710E-01
        2   -1    0    0  501    0  0.00000000000E+00  0.00000000000E+00  0.18819547183E+04  0.18819547183E+04  0.25500000920E-02 0. -1.
       -2   -1    0    0    0  501  0.00000000000E+00  0.00000000000E+00 -0.13446371781E+04  0.13446371781E+04  0.25500000920E-02 0.  1.
    10030    2    1    2    0    0  0.00000000000E+00  0.00000000000E+00  0.53731754020E+03  0.32265918964E+04  0.31815381700E+04 0.  0.
        4    1    3    3  502    0 -0.11050438776E+04  0.11069892816E+03  0.14237202171E+04  0.18056458937E+04  0.12699999809E+01 0. -1.
       -4    1    3    3    0  502  0.11050438776E+04 -0.11069892816E+03 -0.88640267689E+03  0.14209460027E+04  0.12699999809E+01 0.  1.
</event>
<event>
 5   0  0.4400349E-06  0.1701257E+04  0.7818609E-02  0.8760648E-01
       -2   -1    0    0    0  501  0.00000000000E+00  0.00000000000E+00  0.57564591468E+03  0.57564591468E+03  0.25500000920E-02 0.  1.
        2   -1    0    0  501    0  0.00000000000E+00  0.00000000000E+00 -0.12569689331E+04  0.12569689331E+04  0.25500000920E-02 0. -1.
    10030    2    1    2    0    0  0.00000000000E+00  0.00000000000E+00 -0.68132301843E+03  0.18326148478E+04  0.17012572189E+04 0.  0.
        5    1    3    3  502    0 -0.30276108908E+03 -0.52100325499E+03 -0.98738207172E+03  0.11567428903E+04  0.46999998093E+01 0. -1.
       -5    1    3    3    0  502  0.30276108908E+03  0.52100325499E+03  0.30605905330E+03  0.67587195746E+03  0.46999998093E+01 0.  1.
</event>
<event>
 5   0  0.1562618E-06  0.3568978E+04  0.7818609E-02  0.8097635E-01
       -1   -1    0    0    0  501  0.00000000000E+00  0.00000000000E+00  0.16240382656E+04  0.16240382656E+04  0.50400001928E-02 0.  1.
        1   -1    0    0  501    0  0.00000000000E+00  0.00000000000E+00 -0.19607920966E+04  0.19607920966E+04  0.50400001928E-02 0. -1.
    10030    2    1    2    0    0  0.00000000000E+00  0.00000000000E+00 -0.33675383094E+03  0.35848303622E+04  0.35689782267E+04 0.  0.
        2    1    3    3  502    0  0.58004731957E+03  0.15658619186E+04 -0.80047560592E+03  0.18517936269E+04  0.25500000920E-02 0.  1.
       -2    1    3    3    0  502 -0.58004731957E+03 -0.15658619186E+04  0.46372177498E+03  0.17330367352E+04  0.25500000920E-02 0. -1.
</event>
<event>
 5   0  0.4173467E-06  0.2603760E+04  0.7818609E-02  0.8366925E-01
       -2   -1    0    0    0  501  0.00000000000E+00  0.00000000000E+00  0.13695567058E+04  0.13695567058E+04  0.25500000920E-02 0. -1.
        2   -1    0    0  501    0  0.00000000000E+00  0.00000000000E+00 -0.12375477280E+04  0.12375477280E+04  0.25500000920E-02 0.  1.
    10030    2    1    2    0    0  0.00000000000E+00  0.00000000000E+00  0.13200897779E+03  0.26071044339E+04  0.26037601961E+04 0.  0.
        4    1    3    3  502    0 -0.74572215691E+03 -0.81769794682E+03 -0.62055739258E+03  0.12687886183E+04  0.12699999809E+01 0.  1.
       -4    1    3    3    0  502  0.74572215691E+03  0.81769794682E+03  0.75256637036E+03  0.13383158156E+04  0.12699999809E+01 0. -1.
</event>
<event>
 5   0  0.1550164E-06  0.2001704E+04  0.7818609E-02  0.8605825E-01
        1   -1    0    0  501    0  0.00000000000E+00  0.00000000000E+00  0.78139339669E+03  0.78139339670E+03  0.50400001928E-02 0.  1.
       -1   -1    0    0    0  501  0.00000000000E+00  0.00000000000E+00 -0.12819464822E+04  0.12819464822E+04  0.50400001928E-02 0. -1.
    10030    2    1    2    0    0  0.00000000000E+00  0.00000000000E+00 -0.50055308549E+03  0.20633398789E+04  0.20017037904E+04 0.  0.
        4    1    3    3  502    0  0.70005544043E+03  0.60746725465E+03  0.13898737628E+03  0.93723699714E+03  0.12699999809E+01 0.  1.
       -4    1    3    3    0  502 -0.70005544043E+03 -0.60746725465E+03 -0.63954046177E+03  0.11261028817E+04  0.12699999809E+01 0. -1.
</event>
<event>
 5   0  0.4189587E-06  0.3336983E+04  0.7818609E-02  0.8153548E-01
       -2   -1    0    0    0  501  0.00000000000E+00  0.00000000000E+00  0.15839397004E+04  0.15839397004E+04  0.25500000920E-02 0. -1.
        2   -1    0    0  501    0  0.00000000000E+00  0.00000000000E+00 -0.17575563399E+04  0.17575563399E+04  0.25500000920E-02 0.  1.
    10030    2    1    2    0    0  0.00000000000E+00  0.00000000000E+00 -0.17361663949E+03  0.33414960403E+04  0.33369826266E+04 0.  0.
        1    1    3    3  502    0  0.42958155325E+03 -0.15778699233E+04  0.24477314631E+03  0.16535197909E+04  0.50400001928E-02 0. -1.
       -1    1    3    3    0  502 -0.42958155325E+03  0.15778699233E+04 -0.41838978580E+03  0.16879762494E+04  0.50400001928E-02 0.  1.
</event>
<event>
 5   0  0.1562618E-06  0.3535566E+04  0.7818609E-02  0.8105413E-01
       -1   -1    0    0    0  501  0.00000000000E+00  0.00000000000E+00  0.17162415443E+04  0.17162415443E+04  0.50400001928E-02 0.  1.
        1   -1    0    0  501    0  0.00000000000E+00  0.00000000000E+00 -0.18208719373E+04  0.18208719374E+04  0.50400001928E-02 0. -1.
    10030    2    1    2    0    0  0.00000000000E+00  0.00000000000E+00 -0.10463039308E+03  0.35371134816E+04  0.35355656213E+04 0.  0.
        2    1    3    3  502    0 -0.11891751917E+04  0.12810227721E+04  0.21218490356E+03  0.17607326352E+04  0.25500000920E-02 0. -1.
       -2    1    3    3    0  502  0.11891751917E+04 -0.12810227721E+04 -0.31681529664E+03  0.17763808464E+04  0.25500000920E-02 0.  1.
</event>
<event>
 5   0  0.2722449E-06  0.3086636E+04  0.7818609E-02  0.8219415E-01
        2   -1    0    0  501    0  0.00000000000E+00  0.00000000000E+00  0.22396088329E+04  0.22396088329E+04  0.25500000920E-02 0.  1.
       -2   -1    0    0    0  501  0.00000000000E+00  0.00000000000E+00 -0.10635028692E+04  0.10635028692E+04  0.25500000920E-02 0. -1.
    10030    2    1    2    0    0  0.00000000000E+00  0.00000000000E+00  0.11761059637E+04  0.33031117020E+04  0.30866359809E+04 0.  0.
        2    1    3    3  502    0  0.39901027766E+03  0.10678098569E+04  0.17014047558E+04  0.20479758874E+04  0.25500000920E-02 0.  1.
       -2    1    3    3    0  502 -0.39901027766E+03 -0.10678098569E+04 -0.52529879216E+03  0.12551358146E+04  0.25500000920E-02 0. -1.
</event>
<event>
 5   0  0.2722449E-06  0.3413770E+04  0.7818609E-02  0.8134535E-01
        2   -1    0    0  501    0  0.00000000000E+00  0.00000000000E+00  0.16371061685E+04  0.16371061685E+04  0.25500000920E-02 0. -1.
       -2   -1    0    0    0  501  0.00000000000E+00  0.00000000000E+00 -0.17796377643E+04  0.17796377643E+04  0.25500000920E-02 0.  1.
    10030    2    1    2    0    0  0.00000000000E+00  0.00000000000E+00 -0.14253159572E+03  0.34167439328E+04  0.34137697413E+04 0.  0.
        2    1    3    3  502    0 -0.98898448639E+03 -0.35112944638E+02 -0.14632084547E+04  0.17664377190E+04  0.25500000920E-02 0.  1.
       -2    1    3    3    0  502  0.98898448639E+03  0.35112944638E+02  0.13206768590E+04  0.16503062138E+04  0.25500000920E-02 0. -1.
</event>
<event>
 5   0  0.1550164E-06  0.3424130E+04  0.7818609E-02  0.8132009E-01
        1   -1    0    0  501    0  0.00000000000E+00  0.00000000000E+00  0.19414850957E+04  0.19414850957E+04  0.50400001928E-02 0. -1.
       -1   -1    0    0    0  501  0.00000000000E+00  0.00000000000E+00 -0.15097548862E+04  0.15097548862E+04  0.50400001928E-02 0.  1.
    10030    2    1    2    0    0  0.00000000000E+00  0.00000000000E+00  0.43173020954E+03  0.34512399819E+04  0.34241300266E+04 0.  0.
        4    1    3    3  502    0 -0.12478745802E+03  0.37082707159E+03 -0.14640886000E+04  0.15154674751E+04  0.12699999809E+01 0.  1.
       -4    1    3    3    0  502  0.12478745802E+03 -0.37082707159E+03  0.18958188095E+04  0.19357725068E+04  0.12699999809E+01 0. -1.
</event>
<event>
 5   0  0.2101998E-06  0.1873684E+04  0.7818609E-02  0.8668068E-01
        1   -1    0    0  501    0  0.00000000000E+00  0.00000000000E+00  0.18175124402E+04  0.18175124402E+04  0.50400001928E-02 0.  1.
       -1   -1    0    0    0  501  0.00000000000E+00  0.00000000000E+00 -0.48289787784E+03  0.48289787787E+03  0.50400001928E-02 0. -1.
    10030    2    1    2    0    0  0.00000000000E+00  0.00000000000E+00  0.13346145624E+04  0.23004103181E+04  0.18736839652E+04 0.  0.
        5    1    3    3  502    0 -0.59820357443E+03  0.71946921525E+03  0.61014984852E+03  0.11170444914E+04  0.46999998093E+01 0.  1.
       -5    1    3    3    0  502  0.59820357443E+03 -0.71946921525E+03  0.72446471388E+03  0.11833658267E+04  0.46999998093E+01 0. -1.
</event>
<event>
 5   0  0.4400349E-06  0.3234372E+04  0.7818609E-02  0.8179798E-01
       -2   -1    0    0    0  501  0.00000000000E+00  0.00000000000E+00  0.21653546187E+04  0.21653546187E+04  0.25500000920E-02 0.  1.
        2   -1    0    0  501    0  0.00000000000E+00  0.00000000000E+00 -0.12077885717E+04  0.12077885717E+04  0.25500000920E-02 0. -1.
    10030    2    1    2    0    0  0.00000000000E+00  0.00000000000E+00  0.95756604699E+03  0.33731431904E+04  0.32343720022E+04 0.  0.
        5    1    3    3  502    0  0.47993400787E+03  0.13803219798E+04  0.12010601932E+04  0.18916112438E+04  0.46999998093E+01 0.  1.
       -5    1    3    3    0  502 -0.47993400787E+03 -0.13803219798E+04 -0.24349414622E+03  0.14815319467E+04  0.46999998093E+01 0. -1.
</event>
<event>
 5   0  0.4344980E-06  0.3111476E+04  0.7818609E-02  0.8212595E-01
       -2   -1    0    0    0  501  0.00000000000E+00  0.00000000000E+00  0.12954048244E+04  0.12954048244E+04  0.25500000920E-02 0. -1.
        2   -1    0    0  501    0  0.00000000000E+00  0.00000000000E+00 -0.18683897388E+04  0.18683897388E+04  0.25500000920E-02 0.  1.
    10030    2    1    2    0    0  0.00000000000E+00  0.00000000000E+00 -0.57298491436E+03  0.31637945632E+04  0.31114762294E+04 0.  0.
        3    1    3    3  502    0 -0.15000463391E+04 -0.37477318333E+03 -0.11117782956E+03  0.15501465990E+04  0.10100000352E+00 0.  1.
       -3    1    3    3    0  502  0.15000463391E+04  0.37477318333E+03 -0.46180708480E+03  0.16136479642E+04  0.10100000352E+00 0. -1.
</event>
<event>
 5   0  0.4400349E-06  0.2233793E+04  0.7818609E-02  0.8504493E-01
       -2   -1    0    0    0  501  0.00000000000E+00  0.00000000000E+00  0.12380221235E+04  0.12380221235E+04  0.25500000920E-02 0. -1.
        2   -1    0    0  501    0  0.00000000000E+00  0.00000000000E+00 -0.10076213696E+04  0.10076213696E+04  0.25500000920E-02 0.  1.
    10030    2    1    2    0    0  0.00000000000E+00  0.00000000000E+00  0.23040075391E+03  0.22456434931E+04  0.22337927815E+04 0.  0.
        5    1    3    3  502    0  0.66028217327E+03  0.35058099251E+03 -0.71899450808E+03  0.10372341940E+04  0.46999998093E+01 0.  1.
       -5    1    3    3    0  502 -0.66028217327E+03 -0.35058099251E+03  0.94939526199E+03  0.12084092991E+04  0.46999998093E+01 0. -1.
</event>
<event>
 5   0  0.1571391E-06  0.2318099E+04  0.7818609E-02  0.8470819E-01
        1   -1    0    0  501    0  0.00000000000E+00  0.00000000000E+00  0.16600642178E+04  0.16600642178E+04  0.50400001928E-02 0. -1.
       -1   -1    0    0    0  501  0.00000000000E+00  0.00000000000E+00 -0.80924310413E+03  0.80924310415E+03  0.50400001928E-02 0.  1.
    10030    2    1    2    0    0  0.00000000000E+00  0.00000000000E+00  0.85082111362E+03  0.24693073219E+04  0.23180988078E+04 0.  0.
        1    1    3    3  502    0  0.18470256398E+03 -0.62240343939E+02 -0.79166098167E+03  0.81530117593E+03  0.50400001928E-02 0.  1.
       -1    1    3    3    0  502 -0.18470256398E+03  0.62240343939E+02  0.16424820953E+04  0.16540061460E+04  0.50400001928E-02 0. -1.
</event>
<event>
 5   0  0.4189587E-06  0.3475760E+04  0.7818609E-02  0.8119559E-01
       -2   -1    0    0    0  501  0.00000000000E+00  0.00000000000E+00  0.16057378269E+04  0.16057378269E+04  0.25500000920E-02 0. -1.
        2   -1    0    0  501    0  0.00000000000E+00  0.00000000000E+00 -0.18808965592E+04  0.18808965592E+04  0.25500000920E-02 0.  1.
    10030    2    1    2    0    0  0.00000000000E+00  0.00000000000E+00 -0.27515873225E+03  0.34866343861E+04  0.34757599190E+04 0.  0.
        1    1    3    3  502    0  0.14598433728E+04  0.37432271066E+03 -0.10057155548E+04  0.18118288942E+04  0.50400001928E-02 0.  1.
       -1    1    3    3    0  502 -0.14598433728E+04 -0.37432271066E+03  0.73055682254E+03  0.16748054919E+04  0.50400001928E-02 0. -1.
</event>
<event>
 5   0  0.2101998E-06  0.1901917E+04  0.7818609E-02  0.8653903E-01
       -1   -1    0    0    0  501  0.00000000000E+00  0.00000000000E+00  0.10716683436E+04  0.10716683436E+04  0.50400001928E-02 0.  1.
        1   -1    0    0  501    0  0.00000000000E+00  0.00000000000E+00 -0.84384493973E+03  0.84384493975E+03  0.50400001928E-02 0. -1.
    10030    2    1    2    0    0  0.00000000000E+00  0.00000000000E+00  0.22782340384E+03  0.19155132833E+04  0.19019168318E+04 0.  0.
        5    1    3    3  502    0  0.40346607687E+03  0.41059337652E+03  0.87624287367E+03  0.10484252285E+04  0.46999998093E+01 0.  1.
       -5    1    3    3    0  502 -0.40346607687E+03 -0.41059337652E+03 -0.64841946983E+03  0.86708805486E+03  0.46999998093E+01 0. -1.
</event>
<event>
 5   0  0.2101998E-06  0.3336391E+04  0.7818609E-02  0.8153697E-01
        1   -1    0    0  501    0  0.00000000000E+00  0.00000000000E+00  0.31218162689E+04  0.31218162689E+04  0.50400001928E-02 0. -1.
       -1   -1    0    0    0  501  0.00000000000E+00  0.00000000000E+00 -0.89142878911E+03  0.89142878912E+03  0.50400001928E-02 0.  1.
    10030    2    1    2    0    0  0.00000000000E+00  0.00000000000E+00  0.22303874798E+04  0.40132450581E+04  0.33363914018E+04 0.  0.
        5    1    3    3  502    0  0.16380236436E+04  0.84869838922E+02  0.74929488792E+03  0.18032718224E+04  0.46999998093E+01 0. -1.
       -5    1    3    3    0  502 -0.16380236436E+04 -0.84869838922E+02  0.14810925919E+04  0.22099732357E+04  0.46999998093E+01 0.  1.
</event>
<event>
 5   0  0.2722449E-06  0.3514985E+04  0.7818609E-02  0.8110248E-01
       -2   -1    0    0    0  501  0.00000000000E+00  0.00000000000E+00  0.12495786194E+04  0.12495786194E+04  0.25500000920E-02 0.  1.
        2   -1    0    0  501    0  0.00000000000E+00  0.00000000000E+00 -0.24718565626E+04  0.24718565626E+04  0.25500000920E-02 0. -1.
    10030    2    1    2    0    0  0.00000000000E+00  0.00000000000E+00 -0.12222779432E+04  0.37214351821E+04  0.35149845581E+04 0.  0.
        2    1    3    3  502    0  0.10604549909E+04  0.13358887277E+04 -0.16243583938E+03  0.17133443561E+04  0.25500000920E-02 0.  1.
       -2    1    3    3    0  502 -0.10604549909E+04 -0.13358887277E+04 -0.10598421038E+04  0.20080908260E+04  0.25500000920E-02 0. -1.
</event>
<event>
 5   0  0.2722449E-06  0.3322131E+04  0.7818609E-02  0.8157287E-01
       -2   -1    0    0    0  501  0.00000000000E+00  0.00000000000E+00  0.12919081527E+04  0.12919081527E+04  0.25500000920E-02 0.  1.
        2   -1    0    0  501    0  0.00000000000E+00  0.00000000000E+00 -0.21357075429E+04  0.21357075429E+04  0.25500000920E-02 0. -1.
    10030    2    1    2    0    0  0.00000000000E+00  0.00000000000E+00 -0.84379939019E+03  0.34276156957E+04  0.33221306335E+04 0.  0.
        2    1    3    3  502    0  0.53770075750E+03  0.14038889673E+04 -0.11508103025E+04  0.18932487130E+04  0.25500000920E-02 0. -1.
       -2    1    3    3    0  502 -0.53770075750E+03 -0.14038889673E+04  0.30701091231E+03  0.15343669826E+04  0.25500000920E-02 0.  1.
</event>
<event>
 5   0  0.1571391E-06  0.3416097E+04  0.7818609E-02  0.8133967E-01
        1   -1    0    0  501    0  0.00000000000E+00  0.00000000000E+00  0.12993277862E+04  0.12993277862E+04  0.50400001928E-02 0. -1.
       -1   -1    0    0    0  501  0.00000000000E+00  0.00000000000E+00 -0.22453371107E+04  0.22453371107E+04  0.50400001928E-02 0.  1.
    10030    2    1    2    0    0  0.00000000000E+00  0.00000000000E+00 -0.94600932444E+03  0.35446648969E+04  0.34160965428E+04 0.  0.
        1    1    3    3  502    0 -0.15886760775E+04  0.60093352564E+03 -0.28618372886E+03  0.17224731952E+04  0.50400001928E-02 0. -1.
       -1    1    3    3    0  502  0.15886760775E+04 -0.60093352564E+03 -0.65982559557E+03  0.18221917018E+04  0.50400001928E-02 0.  1.
</event>
<event>
 5   0  0.4400349E-06  0.3396414E+04  0.7818609E-02  0.8138787E-01
       -2   -1    0    0    0  501  0.00000000000E+00  0.00000000000E+00  0.16103461241E+04  0.16103461241E+04  0.25500000920E-02 0.  1.
        2   -1    0    0  501    0  0.00000000000E+00  0.00000000000E+00 -0.17908619244E+04  0.17908619244E+04  0.25500000920E-02 0. -1.
    10030    2    1    2    0    0  0.00000000000E+00  0.00000000000E+00 -0.18051580030E+03  0.34012080485E+04  0.33964143203E+04 0.  0.
        5    1    3    3  502    0 -0.14132907233E+03  0.78095427681E+03 -0.15937169656E+04  0.17803986480E+04  0.46999998093E+01 0. -1.
       -5    1    3    3    0  502  0.14132907233E+03 -0.78095427681E+03  0.14132011653E+04  0.16208094005E+04  0.46999998093E+01 0.  1.
</event>
<event>
 5   0  0.1562618E-06  0.3308275E+04  0.7818609E-02  0.8160793E-01
       -1   -1    0    0    0  501  0.00000000000E+00  0.00000000000E+00  0.10623924182E+04  0.10623924182E+04  0.50400001928E-02 0.  1.
        1   -1    0    0  501    0  0.00000000000E+00  0.00000000000E+00 -0.25754809844E+04  0.25754809844E+04  0.50400001928E-02 0. -1.
    10030    2    1    2    0    0  0.00000000000E+00  0.00000000000E+00 -0.15130885662E+04  0.36378734025E+04  0.33082753640E+04 0.  0.
        2    1    3    3  502    0  0.80644040936E+03 -0.13708924686E+04 -0.12562151867E+04  0.20267631558E+04  0.25500000920E-02 0. -1.
       -2    1    3    3    0  502 -0.80644040936E+03  0.13708924686E+04 -0.25687337947E+03  0.16111102468E+04  0.25500000920E-02 0.  1.
</event>
<event>
 5   0  0.2722449E-06  0.3354849E+04  0.7818609E-02  0.8149078E-01
        2   -1    0    0  501    0  0.00000000000E+00  0.00000000000E+00  0.15540085652E+04  0.15540085652E+04  0.25500000920E-02 0.  1.
       -2   -1    0    0    0  501  0.00000000000E+00  0.00000000000E+00 -0.18106413680E+04  0.18106413680E+04  0.25500000920E-02 0. -1.
    10030    2    1    2    0    0  0.00000000000E+00  0.00000000000E+00 -0.25663280287E+03  0.33646499332E+04  0.33548485476E+04 0.  0.
        2    1    3    3  502    0 -0.15167121578E+04 -0.59154368990E+03 -0.53374052585E+03  0.17132479843E+04  0.25500000920E-02 0. -1.
       -2    1    3    3    0  502  0.15167121578E+04  0.59154368990E+03  0.27710772297E+03  0.16514019489E+04  0.25500000920E-02 0.  1.
</event>
<event>
 5   0  0.1654257E-06  0.3373940E+04  0.7818609E-02  0.8144332E-01
        1   -1    0    0  501    0  0.00000000000E+00  0.00000000000E+00  0.21719836972E+04  0.21719836972E+04  0.50400001928E-02 0. -1.
       -1   -1    0    0    0  501  0.00000000000E+00  0.00000000000E+00 -0.13102621153E+04  0.13102621153E+04  0.50400001928E-02 0.  1.
    10030    2    1    2    0    0  0.00000000000E+00  0.00000000000E+00  0.86172158192E+03  0.34822458125E+04  0.33739401023E+04 0.  0.
        3    1    3    3  502    0  0.34466710560E+03 -0.15268872443E+04  0.10800905620E+04  0.19017822438E+04  0.10100000352E+00 0. -1.
       -3    1    3    3    0  502 -0.34466710560E+03  0.15268872443E+04 -0.21836898012E+03  0.15804635687E+04  0.10100000352E+00 0.  1.
</event>
<event>
 5   0  0.2101998E-06  0.3399544E+04  0.7818609E-02  0.8138018E-01
        1   -1    0    0  501    0  0.00000000000E+00  0.00000000000E+00  0.15780657027E+04  0.15780657027E+04  0.50400001928E-02 0.  1.
       -1   -1    0    0    0  501  0.00000000000E+00  0.00000000000E+00 -0.18308649606E+04  0.18308649606E+04  0.50400001928E-02 0. -1.
    10030    2    1    2    0    0  0.00000000000E+00  0.00000000000E+00 -0.25279925796E+03  0.34089306633E+04  0.33995442051E+04 0.  0.
        5    1    3    3  502    0 -0.11638566589E+04  0.28830637036E+03 -0.13345166994E+04  0.17940567986E+04  0.46999998093E+01 0. -1.
       -5    1    3    3    0  502  0.11638566589E+04 -0.28830637036E+03  0.10817174415E+04  0.16148738647E+04  0.46999998093E+01 0.  1.
</event>
<event>
 5   0  0.4400349E-06  0.1731379E+04  0.7818609E-02  0.8743667E-01
        2   -1    0    0  501    0  0.00000000000E+00  0.00000000000E+00  0.54730387127E+03  0.54730387127E+03  0.25500000920E-02 0.  1.
       -2   -1    0    0    0  501  0.00000000000E+00  0.00000000000E+00 -0.13692914959E+04  0.13692914959E+04  0.25500000920E-02 0. -1.
    10030    2    1    2    0    0  0.00000000000E+00  0.00000000000E+00 -0.82198762463E+03  0.19165953672E+04  0.17313792613E+04 0.  0.
        5    1    3    3  502    0  0.23739914474E+03 -0.26633164657E+03 -0.12841064204E+04  0.13327574006E+04  0.46999998093E+01 0. -1.
       -5    1    3    3    0  502 -0.23739914474E+03  0.26633164657E+03  0.46211879574E+03  0.58383796662E+03  0.46999998093E+01 0.  1.
</event>
<event>
 5   0  0.1654257E-06  0.3228437E+04  0.7818609E-02  0.8181347E-01
       -1   -1    0    0    0  501  0.00000000000E+00  0.00000000000E+00  0.25931103242E+04  0.25931103242E+04  0.50400001928E-02 0. -1.
        1   -1    0    0  501    0  0.00000000000E+00  0.00000000000E+00 -0.10048555876E+04  0.10048555877E+04  0.50400001928E-02 0.  1.
    10030    2    1    2    0    0  0.00000000000E+00  0.00000000000E+00  0.15882547365E+04  0.35979659118E+04  0.32284370204E+04 0.  0.
        3    1    3    3  502    0  0.22479407329E+03  0.14898070010E+04  0.14397879049E+04  0.20839977200E+04  0.10100000352E+00 0. -1.
       -3    1    3    3    0  502 -0.22479407329E+03 -0.14898070010E+04  0.14846683157E+03  0.15139681918E+04  0.10100000352E+00 0.  1.
</event>
<event>
 5   0  0.2722449E-06  0.2057436E+04  0.7818609E-02  0.8580228E-01
       -2   -1    0    0    0  501  0.00000000000E+00  0.00000000000E+00  0.56592034306E+03  0.56592034306E+03  0.25500000920E-02 0. -1.
        2   -1    0    0  501    0  0.00000000000E+00  0.00000000000E+00 -0.18699824362E+04  0.18699824362E+04  0.25500000920E-02 0.  1.
    10030    2    1    2    0    0  0.00000000000E+00  0.00000000000E+00 -0.13040620931E+04  0.24359027792E+04  0.20574363677E+04 0.  0.
        2    1    3    3  502    0 -0.10277174146E+04 -0.12882909673E+02 -0.70353014521E+03  0.12455214646E+04  0.25500000920E-02 0. -1.
       -2    1    3    3    0  502  0.10277174146E+04  0.12882909673E+02 -0.60053194791E+03  0.11903813146E+04  0.25500000920E-02 0.  1.
</event>
<event>
 5   0  0.2722449E-06  0.2526715E+04  0.7818609E-02  0.8393530E-01
        2   -1    0    0  501    0  0.00000000000E+00  0.00000000000E+00  0.24131617767E+04  0.24131617767E+04  0.25500000920E-02 0. -1.
       -2   -1    0    0    0  501  0.00000000000E+00  0.00000000000E+00 -0.66140273037E+03  0.66140273037E+03  0.25500000920E-02 0.  1.
    10030    2    1    2    0    0  0.00000000000E+00  0.00000000000E+00  0.17517590463E+04  0.30745645071E+04  0.25267146954E+04 0.  0.
        2    1    3    3  502    0 -0.95240193346E+03  0.36609941412E+03  0.17823706372E+04  0.20537632074E+04  0.25500000920E-02 0. -1.
       -2    1    3    3    0  502  0.95240193346E+03 -0.36609941412E+03 -0.30611590847E+02  0.10208012997E+04  0.25500000920E-02 0.  1.
</event>
<event>
 5   0  0.1562618E-06  0.1816517E+04  0.7818609E-02  0.8697565E-01
       -1   -1    0    0    0  501  0.00000000000E+00  0.00000000000E+00  0.52392028584E+03  0.52392028586E+03  0.50400001928E-02 0.  1.
        1   -1    0    0  501    0  0.00000000000E+00  0.00000000000E+00 -0.15745392768E+04  0.15745392768E+04  0.50400001928E-02 0. -1.
    10030    2    1    2    0    0  0.00000000000E+00  0.00000000000E+00 -0.10506189910E+04  0.20984595627E+04  0.18165165213E+04 0.  0.
        2    1    3    3  502    0  0.28320509278E+03 -0.25406679326E+03  0.42742643835E+03  0.57223108988E+03  0.25500000920E-02 0.  1.
       -2    1    3    3    0  502 -0.28320509278E+03  0.25406679326E+03 -0.14780454294E+04  0.15262284728E+04  0.25500000920E-02 0. -1.
</event>
<event>
 5   0  0.2722449E-06  0.3178113E+04  0.7818609E-02  0.8194622E-01
        2   -1    0    0  501    0  0.00000000000E+00  0.00000000000E+00  0.16579059035E+04  0.16579059035E+04  0.25500000920E-02 0. -1.
       -2   -1    0    0    0  501  0.00000000000E+00  0.00000000000E+00 -0.15230661857E+04  0.15230661857E+04  0.25500000920E-02 0.  1.
    10030    2    1    2    0    0  0.00000000000E+00  0.00000000000E+00  0.13483971776E+03  0.31809720892E+04  0.31781129122E+04 0.  0.
        2    1    3    3  502    0 -0.72149746648E+03 -0.98492814591E+03  0.10854181419E+04  0.16336384513E+04  0.25500000920E-02 0. -1.
       -2    1    3    3    0  502  0.72149746648E+03  0.98492814591E+03 -0.95057842410E+03  0.15473336379E+04  0.25500000920E-02 0.  1.
</event>
<event>
 5   0  0.2101998E-06  0.3401597E+04  0.7818609E-02  0.8137514E-01
       -1   -1    0    0    0  501  0.00000000000E+00  0.00000000000E+00  0.21666126272E+04  0.21666126272E+04  0.50400001928E-02 0.  1.
        1   -1    0    0  501    0  0.00000000000E+00  0.00000000000E+00 -0.13351328055E+04  0.13351328055E+04  0.50400001928E-02 0. -1.
    10030    2    1    2    0    0  0.00000000000E+00  0.00000000000E+00  0.83147982175E+03  0.35017454327E+04  0.34015970340E+04 0.  0.
        5    1    3    3  502    0  0.98307619572E+03 -0.83576559071E+03  0.15564014022E+04  0.20217196502E+04  0.46999998093E+01 0.  1.
       -5    1    3    3    0  502 -0.98307619572E+03  0.83576559071E+03 -0.72492158045E+03  0.14800257825E+04  0.46999998093E+01 0. -1.
</event>
<event>
 5   0  0.2101998E-06  0.1990332E+04  0.7818609E-02  0.8611154E-01
       -1   -1    0    0    0  501  0.00000000000E+00  0.00000000000E+00  0.17299737338E+04  0.17299737338E+04  0.50400001928E-02 0.  1.
        1   -1    0    0  501    0  0.00000000000E+00  0.00000000000E+00 -0.57246865098E+03  0.57246865101E+03  0.50400001928E-02 0. -1.
    10030    2    1    2    0    0  0.00000000000E+00  0.00000000000E+00  0.11575050828E+04  0.23024423848E+04  0.19903323639E+04 0.  0.
        5    1    3    3  502    0 -0.49552931814E+03 -0.41628727449E+02  0.15759303156E+04  0.16525316051E+04  0.46999998093E+01 0.  1.
       -5    1    3    3    0  502  0.49552931814E+03  0.41628727449E+02 -0.41842523285E+03  0.64991077970E+03  0.46999998093E+01 0. -1.
</event>
<event>
 5   0  0.1654257E-06  0.3262369E+04  0.7818609E-02  0.8172537E-01
       -1   -1    0    0    0  501  0.00000000000E+00  0.00000000000E+00  0.14807694074E+04  0.14807694074E+04  0.50400001928E-02 0. -1.
        1   -1    0    0  501    0  0.00000000000E+00  0.00000000000E+00 -0.17968784931E+04  0.17968784931E+04  0.50400001928E-02 0.  1.
    10030    2    1    2    0    0  0.00000000000E+00  0.00000000000E+00 -0.31610908573E+03  0.32776479005E+04  0.32623688948E+04 0.  0.
        3    1    3    3  502    0 -0.72246932682E+03 -0.77646952058E+03  0.10870623153E+04  0.15187400475E+04  0.10100000352E+00 0. -1.
       -3    1    3    3    0  502  0.72246932682E+03  0.77646952058E+03 -0.14031714010E+04  0.17589078530E+04  0.10100000352E+00 0.  1.
</event>
<event>
 5   0  0.2722449E-06  0.3416149E+04  0.7818609E-02  0.8133954E-01
        2   -1    0    0  501    0  0.00000000000E+00  0.00000000000E+00  0.10138474329E+04  0.10138474329E+04  0.25500000920E-02 0. -1.
       -2   -1    0    0    0  501  0.00000000000E+00  0.00000000000E+00 -0.28776699940E+04  0.28776699940E+04  0.25500000920E-02 0.  1.
    10030    2    1    2    0    0  0.00000000000E+00  0.00000000000E+00 -0.18638225612E+04  0.38915174269E+04  0.34161489055E+04 0.  0.
        2    1    3    3  502    0  0.11403627511E+04  0.39046012235E+03 -0.23105372333E+04  0.26060446308E+04  0.25500000920E-02 0.  1.
       -2    1    3    3    0  502 -0.11403627511E+04 -0.39046012235E+03  0.44671467218E+03  0.12854727961E+04  0.25500000920E-02 0. -1.
</event>
<event>
 5   0  0.1550164E-06  0.3403520E+04  0.7818609E-02  0.8137043E-01
        1   -1    0    0  501    0  0.00000000000E+00  0.00000000000E+00  0.87236659234E+03  0.87236659236E+03  0.50400001928E-02 0. -1.
       -1   -1    0    0    0  501  0.00000000000E+00  0.00000000000E+00 -0.33196905505E+04  0.33196905505E+04  0.50400001928E-02 0.  1.
    10030    2    1    2    0    0  0.00000000000E+00  0.00000000000E+00 -0.24473239582E+04  0.41920571429E+04  0.34035200209E+04 0.  0.
        4    1    3    3  502    0 -0.18786810178E+03 -0.15308977251E+04 -0.33801158238E+03  0.15789856590E+04  0.12699999809E+01 0. -1.
       -4    1    3    3    0  502  0.18786810178E+03  0.15308977251E+04 -0.21093123758E+04  0.26130714839E+04  0.12699999809E+01 0.  1.
</event>
<event>
 5   0  0.2722449E-06  0.3376076E+04  0.7818609E-02  0.8143803E-01
       -2   -1    0    0    0  501  0.00000000000E+00  0.00000000000E+00  0.14402161996E+04  0.14402161996E+04  0.25500000920E-02 0. -1.
        2   -1    0    0  501    0  0.00000000000E+00  0.00000000000E+00 -0.19785034069E+04  0.19785034069E+04  0.25500000920E-02 0.  1.
    10030    2    1    2    0    0  0.00000000000E+00  0.00000000000E+00 -0.53828720729E+03  0.34187196065E+04  0.33760762181E+04 0.  0.
        2    1    3    3  502    0  0.71997184165E+03  0.66630836012E+03  0.11219425681E+04  0.14903292957E+04  0.25500000920E-02 0. -1.
       -2    1    3    3    0  502 -0.71997184165E+03 -0.66630836012E+03 -0.16602297754E+04  0.19283903108E+04  0.25500000920E-02 0.  1.
</event>
<event>
 5   0  0.2722449E-06  0.1920225E+04  0.7818609E-02  0.8644854E-01
        2   -1    0    0  501    0  0.00000000000E+00  0.00000000000E+00  0.10176544382E+04  0.10176544382E+04  0.25500000920E-02 0.  1.
       -2   -1    0    0    0  501  0.00000000000E+00  0.00000000000E+00 -0.90582383145E+03  0.90582383146E+03  0.25500000920E-02 0. -1.
    10030    2    1    2    0    0  0.00000000000E+00  0.00000000000E+00  0.11183060672E+03  0.19234782696E+04  0.19202246142E+04 0.  0.
        2    1    3    3  502    0  0.62882307660E+02 -0.73359504075E+03  0.67315723418E+03  0.99762544593E+03  0.25500000920E-02 0.  1.
       -2    1    3    3    0  502 -0.62882307660E+02  0.73359504075E+03 -0.56132662746E+03  0.92585282370E+03  0.25500000920E-02 0. -1.
</event>
<event>
 5   0  0.1654257E-06  0.3326573E+04  0.7818609E-02  0.8156167E-01
       -1   -1    0    0    0  501  0.00000000000E+00  0.00000000000E+00  0.25872079381E+04  0.25872079381E+04  0.50400001928E-02 0. -1.
        1   -1    0    0  501    0  0.00000000000E+00  0.00000000000E+00 -0.10693081754E+04  0.10693081754E+04  0.50400001928E-02 0.  1.
    10030    2    1    2    0    0  0.00000000000E+00  0.00000000000E+00  0.15178997627E+04  0.36565161136E+04  0.33265733720E+04 0.  0.
        3    1    3    3  502    0 -0.47374373138E+03 -0.15859320658E+04  0.93925944212E+03  0.19031084967E+04  0.10100000352E+00 0. -1.
       -3    1    3    3    0  502  0.47374373138E+03  0.15859320658E+04  0.57864032056E+03  0.17534076169E+04  0.10100000352E+00 0.  1.
</event>
<event>
 5   0  0.1550164E-06  0.3183443E+04  0.7818609E-02  0.8193203E-01
        1   -1    0    0  501    0  0.00000000000E+00  0.00000000000E+00  0.21579814729E+04  0.21579814729E+04  0.50400001928E-02 0. -1.
       -1   -1    0    0    0  501  0.00000000000E+00  0.00000000000E+00 -0.11740499433E+04  0.11740499434E+04  0.50400001928E-02 0.  1.
    10030    2    1    2    0    0  0.00000000000E+00  0.00000000000E+00  0.98393152956E+03  0.33320314163E+04  0.31834434350E+04 0.  0.
        4    1    3    3  502    0 -0.71288514284E+03  0.73655401372E+03  0.17665306023E+04  0.20423880688E+04  0.12699999809E+01 0. -1.
       -4    1    3    3    0  502  0.71288514284E+03 -0.73655401372E+03 -0.78259907273E+03  0.12896433474E+04  0.12699999809E+01 0.  1.
</event>
<event>
 5   0  0.1654257E-06  0.3343803E+04  0.7818609E-02  0.8151838E-01
        1   -1    0    0  501    0  0.00000000000E+00  0.00000000000E+00  0.18068865551E+04  0.18068865551E+04  0.50400001928E-02 0.  1.
       -1   -1    0    0    0  501  0.00000000000E+00  0.00000000000E+00 -0.15470007475E+04  0.15470007475E+04  0.50400001928E-02 0. -1.
    10030    2    1    2    0    0  0.00000000000E+00  0.00000000000E+00  0.25988580762E+03  0.33538873026E+04  0.33438031349E+04 0.  0.
        3    1    3    3  502    0 -0.14149464977E+04  0.67824799931E+03 -0.44899872517E+03  0.16320826589E+04  0.10100000352E+00 0. -1.
       -3    1    3    3    0  502  0.14149464977E+04 -0.67824799931E+03  0.70888453279E+03  0.17218046437E+04  0.10100000352E+00 0.  1.
</event>
<event>
 5   0  0.2101998E-06  0.3150508E+04  0.7818609E-02  0.8202012E-01
        1   -1    0    0  501    0  0.00000000000E+00  0.00000000000E+00  0.13109388139E+04  0.13109388139E+04  0.50400001928E-02 0. -1.
       -1   -1    0    0    0  501  0.00000000000E+00  0.00000000000E+00 -0.18928611496E+04  0.18928611496E+04  0.50400001928E-02 0.  1.
    10030    2    1    2    0    0  0.00000000000E+00  0.00000000000E+00 -0.58192233578E+03  0.32037999635E+04  0.31505079910E+04 0.  0.
        5    1    3    3  502    0  0.32399577611E+03  0.12672039040E+04  0.60173997255E+03  0.14397541740E+04  0.46999998093E+01 0. -1.
       -5    1    3    3    0  502 -0.32399577611E+03 -0.12672039040E+04 -0.11836623083E+04  0.17640457895E+04  0.46999998093E+01 0.  1.
</event>
<event>
 5   0  0.1562618E-06  0.3443589E+04  0.7818609E-02  0.8127290E-01
       -1   -1    0    0    0  501  0.00000000000E+00  0.00000000000E+00  0.15924508456E+04  0.15924508456E+04  0.50400001928E-02 0. -1.
        1   -1    0    0  501    0  0.00000000000E+00  0.00000000000E+00 -0.18616439025E+04  0.18616439025E+04  0.50400001928E-02 0.  1.
    10030    2    1    2    0    0  0.00000000000E+00  0.00000000000E+00 -0.26919305691E+03  0.34540947480E+04  0.34435890618E+04 0.  0.
        2    1    3    3  502    0 -0.11336010009E+04 -0.91583419506E+03 -0.10543306110E+04  0.17987263658E+04  0.25500000920E-02 0.  1.
       -2    1    3    3    0  502  0.11336010009E+04  0.91583419506E+03  0.78513755405E+03  0.16553683822E+04  0.25500000920E-02 0. -1.
</event>
<event>
 5   0  0.1562618E-06  0.3329106E+04  0.7818609E-02  0.8155529E-01
       -1   -1    0    0    0  501  0.00000000000E+00  0.00000000000E+00  0.10223069718E+04  0.10223069718E+04  0.50400001928E-02 0. -1.
        1   -1    0    0  501    0  0.00000000000E+00  0.00000000000E+00 -0.27102779168E+04  0.27102779168E+04  0.50400001928E-02 0.  1.
    10030    2    1    2    0    0  0.00000000000E+00  0.00000000000E+00 -0.16879709450E+04  0.37325848887E+04  0.33291055916E+04 0.  0.
        2    1    3    3  502    0 -0.83759350086E+03  0.14615896359E+03 -0.24484385724E+04  0.25918674268E+04  0.25500000920E-02 0.  1.
       -2    1    3    3    0  502  0.83759350086E+03 -0.14615896359E+03  0.76046762741E+03  0.11407174618E+04  0.25500000920E-02 0. -1.
</event>
<event>
 5   0  0.4173467E-06  0.2846028E+04  0.7818609E-02  0.8289119E-01
        2   -1    0    0  501    0  0.00000000000E+00  0.00000000000E+00  0.16639869205E+04  0.16639869205E+04  0.25500000920E-02 0.  1.
       -2   -1    0    0    0  501  0.00000000000E+00  0.00000000000E+00 -0.12169379174E+04  0.12169379174E+04  0.25500000920E-02 0. -1.
    10030    2    1    2    0    0  0.00000000000E+00  0.00000000000E+00  0.44704900317E+03  0.28809248379E+04  0.28460279532E+04 0.  0.
        4    1    3    3  502    0 -0.28197526085E+03 -0.11490512128E+04 -0.57682718497E+03  0.13162674316E+04  0.12699999809E+01 0. -1.
       -4    1    3    3    0  502  0.28197526085E+03  0.11490512128E+04  0.10238761881E+04  0.15646574062E+04  0.12699999809E+01 0.  1.
</event>
<event>
 5   0  0.4189587E-06  0.1714222E+04  0.7818609E-02  0.8753294E-01
        2   -1    0    0  501    0  0.00000000000E+00  0.00000000000E+00  0.11078098154E+04  0.11078098154E+04  0.25500000920E-02 0.  1.
       -2   -1    0    0    0  501  0.00000000000E+00  0.00000000000E+00 -0.66314587965E+03  0.66314587966E+03  0.25500000920E-02 0. -1.
    10030    2    1    2    0    0  0.00000000000E+00  0.00000000000E+00  0.44466393573E+03  0.17709556950E+04  0.17142222896E+04 0.  0.
        1    1    3    3  502    0  0.45827987743E+03 -0.20235447486E+02 -0.52565329540E+03  0.69766847885E+03  0.50400001928E-02 0. -1.
       -1    1    3    3    0  502 -0.45827987743E+03  0.20235447486E+02  0.97031723113E+03  0.10732872162E+04  0.50400001928E-02 0.  1.
</event>
<event>
 5   0  0.2101998E-06  0.3388859E+04  0.7818609E-02  0.8140646E-01
        1   -1    0    0  501    0  0.00000000000E+00  0.00000000000E+00  0.11540148421E+04  0.11540148421E+04  0.50400001928E-02 0. -1.
       -1   -1    0    0    0  501  0.00000000000E+00  0.00000000000E+00 -0.24879155839E+04  0.24879155839E+04  0.50400001928E-02 0.  1.
    10030    2    1    2    0    0  0.00000000000E+00  0.00000000000E+00 -0.13339007418E+04  0.36419304259E+04  0.33888591057E+04 0.  0.
        5    1    3    3  502    0 -0.11349640544E+04  0.11620512921E+04 -0.14868968639E+03  0.16311460153E+04  0.46999998093E+01 0. -1.
       -5    1    3    3    0  502  0.11349640544E+04 -0.11620512921E+04 -0.11852110554E+04  0.20107844107E+04  0.46999998093E+01 0.  1.
</event>
<event>
 5   0  0.2722449E-06  0.3463406E+04  0.7818609E-02  0.8122517E-01
       -2   -1    0    0    0  501  0.00000000000E+00  0.00000000000E+00  0.13700876402E+04  0.13700876402E+04  0.25500000920E-02 0. -1.
        2   -1    0    0  501    0  0.00000000000E+00  0.00000000000E+00 -0.21887614390E+04  0.21887614390E+04  0.25500000920E-02 0.  1.
    10030    2    1    2    0    0  0.00000000000E+00  0.00000000000E+00 -0.81867379879E+03  0.35588490793E+04  0.34634058353E+04 0.  0.
        2    1    3    3  502    0 -0.53470136185E+03 -0.14880236123E+03 -0.20948907960E+04  0.21671675377E+04  0.25500000920E-02 0.  1.
       -2    1    3    3    0  502  0.53470136185E+03  0.14880236123E+03  0.12762169973E+04  0.13916815416E+04  0.25500000920E-02 0. -1.
</event>
<event>
 5   0  0.4173467E-06  0.3164071E+04  0.7818609E-02  0.8198371E-01
        2   -1    0    0  501    0  0.00000000000E+00  0.00000000000E+00  0.15003024569E+04  0.15003024569E+04  0.25500000920E-02 0. -1.
       -2   -1    0    0    0  501  0.00000000000E+00  0.00000000000E+00 -0.16682212009E+04  0.16682212009E+04  0.25500000920E-02 0.  1.
    10030    2    1    2    0    0  0.00000000000E+00  0.00000000000E+00 -0.16791874396E+03  0.31685236578E+04  0.31640710272E+04 0.  0.
        4    1    3    3  502    0  0.94972040597E+03  0.58469968317E+02 -0.13496395594E+04  0.16513376820E+04  0.12699999809E+01 0.  1.
       -4    1    3    3    0  502 -0.94972040597E+03 -0.58469968317E+02  0.11817208154E+04  0.15171859758E+04  0.12699999809E+01 0. -1.
</event>
<event>
 5   0  0.1562618E-06  0.3117146E+04  0.7818609E-02  0.8211048E-01
       -1   -1    0    0    0  501  0.00000000000E+00  0.00000000000E+00  0.11845870903E+04  0.11845870903E+04  0.50400001928E-02 0. -1.
        1   -1    0    0  501    0  0.00000000000E+00  0.00000000000E+00 -0.20506297667E+04  0.20506297667E+04  0.50400001928E-02 0.  1.
    10030    2    1    2    0    0  0.00000000000E+00  0.00000000000E+00 -0.86604267642E+03  0.32352168570E+04  0.31171458410E+04 0.  0.
        2    1    3    3  502    0 -0.14356847408E+04 -0.46767079426E+03 -0.32068661652E+02  0.15102764800E+04  0.25500000920E-02 0.  1.
       -2    1    3    3    0  502  0.14356847408E+04  0.46767079426E+03 -0.83397401477E+03  0.17249403770E+04  0.25500000920E-02 0. -1.
</event>
<event>
 5   0  0.4344980E-06  0.3431626E+04  0.7818609E-02  0.8130188E-01
        2   -1    0    0  501    0  0.00000000000E+00  0.00000000000E+00  0.21499516283E+04  0.21499516283E+04  0.25500000920E-02 0. -1.
       -2   -1    0    0    0  501  0.00000000000E+00  0.00000000000E+00 -0.13693399371E+04  0.13693399371E+04  0.25500000920E-02 0.  1.
    10030    2    1    2    0    0  0.00000000000E+00  0.00000000000E+00  0.78061169119E+03  0.35192915655E+04  0.34316262195E+04 0.  0.
        3    1    3    3  502    0  0.84001868798E+03  0.79408905753E+03 -0.91007949616E+03  0.14712081861E+04  0.10100000352E+00 0.  1.
       -3    1    3    3    0  502 -0.84001868798E+03 -0.79408905753E+03  0.16906911873E+04  0.20480833793E+04  0.10100000352E+00 0. -1.
</event>
<event>
 5   0  0.4189587E-06  0.3414429E+04  0.7818609E-02  0.8134374E-01
        2   -1    0    0  501    0  0.00000000000E+00  0.00000000000E+00  0.11642036417E+04  0.11642036417E+04  0.25500000920E-02 0.  1.
       -2   -1    0    0    0  501  0.00000000000E+00  0.00000000000E+00 -0.25034985837E+04  0.25034985837E+04  0.25500000920E-02 0. -1.
    10030    2    1    2    0    0  0.00000000000E+00  0.00000000000E+00 -0.13392949420E+04  0.36677022253E+04  0.34144294797E+04 0.  0.
        1    1    3    3  502    0 -0.24476740575E+01 -0.59473135627E+03  0.10493282974E+04  0.12061514221E+04  0.50400001928E-02 0.  1.
       -1    1    3    3    0  502  0.24476740575E+01  0.59473135627E+03 -0.23886232394E+04  0.24615508033E+04  0.50400001928E-02 0. -1.
</event>
<event>
 5   0  0.1550164E-06  0.3175397E+04  0.7818609E-02  0.8195345E-01
       -1   -1    0    0    0  501  0.00000000000E+00  0.00000000000E+00  0.13656239025E+04  0.13656239025E+04  0.50400001928E-02 0. -1.
        1   -1    0    0  501    0  0.00000000000E+00  0.00000000000E+00 -0.18458858438E+04  0.18458858438E+04  0.50400001928E-02 0.  1.
    10030    2    1    2    0    0  0.00000000000E+00  0.00000000000E+00 -0.48026194123E+03  0.32115097463E+04  0.31753965608E+04 0.  0.
        4    1    3    3  502    0  0.75916924965E+03 -0.13875089424E+04 -0.99753291859E+02  0.15847622367E+04  0.12699999809E+01 0. -1.
       -4    1    3    3    0  502 -0.75916924965E+03  0.13875089424E+04 -0.38050864937E+03  0.16267475096E+04  0.12699999809E+01 0.  1.
</event>
<event>
 5   0  0.1571391E-06  0.2137246E+04  0.7818609E-02  0.8545011E-01
       -1   -1    0    0    0  501  0.00000000000E+00  0.00000000000E+00  0.74624256395E+03  0.74624256397E+03  0.50400001928E-02 0.  1.
        1   -1    0    0  501    0  0.00000000000E+00  0.00000000000E+00 -0.15302731752E+04  0.15302731752E+04  0.50400001928E-02 0. -1.
    10030    2    1    2    0    0  0.00000000000E+00  0.00000000000E+00 -0.78403061124E+03  0.22765157392E+04  0.21372458706E+04 0.  0.
        1    1    3    3  502    0  0.69190464946E+03  0.28227999406E+03 -0.12056919223E+04  0.14184875926E+04  0.50400001928E-02 0. -1.
       -1    1    3    3    0  502 -0.69190464946E+03 -0.28227999406E+03  0.42166131104E+03  0.85802814653E+03  0.50400001928E-02 0.  1.
</event>
<event>
 5   0  0.4173467E-06  0.3274635E+04  0.7818609E-02  0.8169380E-01
        2   -1    0    0  501    0  0.00000000000E+00  0.00000000000E+00  0.13705728352E+04  0.13705728352E+04  0.25500000920E-02 0.  1.
       -2   -1    0    0    0  501  0.00000000000E+00  0.00000000000E+00 -0.19559770234E+04  0.19559770234E+04  0.25500000920E-02 0. -1.
    10030    2    1    2    0    0  0.00000000000E+00  0.00000000000E+00 -0.58540418814E+03  0.33265498586E+04  0.32746352313E+04 0.  0.
        4    1    3    3  502    0  0.12254218530E+03 -0.55806097377E+03 -0.18514196419E+04  0.19375770800E+04  0.12699999809E+01 0. -1.
       -4    1    3    3    0  502 -0.12254218530E+03  0.55806097377E+03  0.12660154538E+04  0.13889727786E+04  0.12699999809E+01 0.  1.
</event>
<event>
 5   0  0.4344980E-06  0.3443257E+04  0.7818609E-02  0.8127371E-01
       -2   -1    0    0    0  501  0.00000000000E+00  0.00000000000E+00  0.16579913470E+04  0.16579913471E+04  0.25500000920E-02 0.  1.
        2   -1    0    0  501    0  0.00000000000E+00  0.00000000000E+00 -0.17877079158E+04  0.17877079158E+04  0.25500000920E-02 0. -1.
    10030    2    1    2    0    0  0.00000000000E+00  0.00000000000E+00 -0.12971656878E+03  0.34456992629E+04  0.34432567465E+04 0.  0.
        3    1    3    3  502    0  0.61243785951E+03 -0.61856762608E+03  0.14215566796E+04  0.16668921511E+04  0.10100000352E+00 0.  1.
       -3    1    3    3    0  502 -0.61243785951E+03  0.61856762608E+03 -0.15512732484E+04  0.17788071118E+04  0.10100000352E+00 0. -1.
</event>
<event>
 5   0  0.2722449E-06  0.3600249E+04  0.7818609E-02  0.8090435E-01
       -2   -1    0    0    0  501  0.00000000000E+00  0.00000000000E+00  0.13689011537E+04  0.13689011537E+04  0.25500000920E-02 0.  1.
        2   -1    0    0  501    0  0.00000000000E+00  0.00000000000E+00 -0.23671893739E+04  0.23671893739E+04  0.25500000920E-02 0. -1.
    10030    2    1    2    0    0  0.00000000000E+00  0.00000000000E+00 -0.99828822014E+03  0.37360905276E+04  0.36002490275E+04 0.  0.
        2    1    3    3  502    0 -0.17076097137E+04  0.37674776069E+03 -0.55729893033E+02  0.17495644116E+04  0.25500000920E-02 0.  1.
       -2    1    3    3    0  502  0.17076097137E+04 -0.37674776069E+03 -0.94255832711E+03  0.19865261160E+04  0.25500000920E-02 0. -1.
</event>
<event>
 5   0  0.2722449E-06  0.2765645E+04  0.7818609E-02  0.8314014E-01
       -2   -1    0    0    0  501  0.00000000000E+00  0.00000000000E+00  0.69905638368E+03  0.69905638368E+03  0.25500000920E-02 0.  1.
        2   -1    0    0  501    0  0.00000000000E+00  0.00000000000E+00 -0.27353989007E+04  0.27353989007E+04  0.25500000920E-02 0. -1.
    10030    2    1    2    0    0  0.00000000000E+00  0.00000000000E+00 -0.20363425171E+04  0.34344552844E+04  0.27656449978E+04 0.  0.
        2    1    3    3  502    0 -0.16021732437E+03  0.10842831780E+04  0.28843979997E+02  0.10964358515E+04  0.25500000920E-02 0.  1.
       -2    1    3    3    0  502  0.16021732437E+03 -0.10842831780E+04 -0.20651864971E+04  0.23380194329E+04  0.25500000920E-02 0. -1.
</event>
<event>
 5   0  0.4173467E-06  0.3237941E+04  0.7818609E-02  0.8178868E-01
       -2   -1    0    0    0  501  0.00000000000E+00  0.00000000000E+00  0.13547486499E+04  0.13547486499E+04  0.25500000920E-02 0. -1.
        2   -1    0    0  501    0  0.00000000000E+00  0.00000000000E+00 -0.19347243961E+04  0.19347243961E+04  0.25500000920E-02 0.  1.
    10030    2    1    2    0    0  0.00000000000E+00  0.00000000000E+00 -0.57997574616E+03  0.32894730460E+04  0.32379408664E+04 0.  0.
        4    1    3    3  502    0 -0.75305294109E+03  0.11238602409E+04 -0.11934746427E+04  0.18040326796E+04  0.12699999809E+01 0.  1.
       -4    1    3    3    0  502  0.75305294109E+03 -0.11238602409E+04  0.61349889659E+03  0.14854403664E+04  0.12699999809E+01 0. -1.
</event>
<event>
 5   0  0.4400349E-06  0.3390461E+04  0.7818609E-02  0.8140251E-01
        2   -1    0    0  501    0  0.00000000000E+00  0.00000000000E+00  0.16118029348E+04  0.16118029348E+04  0.25500000920E-02 0.  1.
       -2   -1    0    0    0  501  0.00000000000E+00  0.00000000000E+00 -0.17829764205E+04  0.17829764205E+04  0.25500000920E-02 0. -1.
    10030    2    1    2    0    0  0.00000000000E+00  0.00000000000E+00 -0.17117348572E+03  0.33947793553E+04  0.33904611057E+04 0.  0.
        5    1    3    3  502    0  0.55333906807E+03 -0.20766096420E+03  0.15052972933E+04  0.16171732225E+04  0.46999998093E+01 0.  1.
       -5    1    3    3    0  502 -0.55333906807E+03  0.20766096420E+03 -0.16764707791E+04  0.17776061328E+04  0.46999998093E+01 0. -1.
</event>
<event>
 5   0  0.4400349E-06  0.2872058E+04  0.7818609E-02  0.8281240E-01
        2   -1    0    0  501    0  0.00000000000E+00  0.00000000000E+00  0.19005757683E+04  0.19005757683E+04  0.25500000920E-02 0. -1.
       -2   -1    0    0    0  501  0.00000000000E+00  0.00000000000E+00 -0.10850285133E+04  0.10850285133E+04  0.25500000920E-02 0.  1.
    10030    2    1    2    0    0  0.00000000000E+00  0.00000000000E+00  0.81554725495E+03  0.29856042816E+04  0.28720577295E+04 0.  0.
        5    1    3    3  502    0  0.67487170033E+03 -0.89854249989E+03 -0.52162312638E+03  0.12389282514E+04  0.46999998093E+01 0.  1.
       -5    1    3    3    0  502 -0.67487170033E+03  0.89854249989E+03  0.13371703813E+04  0.17466760303E+04  0.46999998093E+01 0. -1.
</event>
<event>
 5   0  0.4344980E-06  0.3390315E+04  0.7818609E-02  0.8140287E-01
        2   -1    0    0  501    0  0.00000000000E+00  0.00000000000E+00  0.26107033818E+04  0.26107033818E+04  0.25500000920E-02 0.  1.
       -2   -1    0    0    0  501  0.00000000000E+00  0.00000000000E+00 -0.11006838780E+04  0.11006838780E+04  0.25500000920E-02 0. -1.
    10030    2    1    2    0    0  0.00000000000E+00  0.00000000000E+00  0.15100195038E+04  0.37113872598E+04  0.33903151019E+04 0.  0.
        3    1    3    3  502    0 -0.10454497413E+02 -0.13785920286E+04 -0.32477666924E+03  0.14163704223E+04  0.10100000352E+00 0. -1.
       -3    1    3    3    0  502  0.10454497413E+02  0.13785920286E+04  0.18347961730E+04  0.22950168375E+04  0.10100000352E+00 0.  1.
</event>
<event>
 5   0  0.1550164E-06  0.3346607E+04  0.7818609E-02  0.8151136E-01
       -1   -1    0    0    0  501  0.00000000000E+00  0.00000000000E+00  0.16107543933E+04  0.16107543933E+04  0.50400001928E-02 0.  1.
        1   -1    0    0  501    0  0.00000000000E+00  0.00000000000E+00 -0.17382818795E+04  0.17382818795E+04  0.50400001928E-02 0. -1.
    10030    2    1    2    0    0  0.00000000000E+00  0.00000000000E+00 -0.12752748621E+03  0.33490362727E+04  0.33466073412E+04 0.  0.
        4    1    3    3  502    0  0.43657435738E+03 -0.13037641569E+04  0.89062934705E+03  0.16381759347E+04  0.12699999809E+01 0.  1.
       -4    1    3    3    0  502 -0.43657435738E+03  0.13037641569E+04 -0.10181568333E+04  0.17108603380E+04  0.12699999809E+01 0. -1.
</event>
<event>
 5   0  0.1571391E-06  0.3386955E+04  0.7818609E-02  0.8141115E-01
       -1   -1    0    0    0  501  0.00000000000E+00  0.00000000000E+00  0.13341435062E+04  0.13341435062E+04  0.50400001928E-02 0. -1.
        1   -1    0    0  501    0  0.00000000000E+00  0.00000000000E+00 -0.21495931603E+04  0.21495931603E+04  0.50400001928E-02 0.  1.
    10030    2    1    2    0    0  0.00000000000E+00  0.00000000000E+00 -0.81544965413E+03  0.34837366665E+04  0.33869548304E+04 0.  0.
        1    1    3    3  502    0  0.90407250779E+02 -0.15153030189E+04  0.36442534770E+03  0.15611286123E+04  0.50400001928E-02 0. -1.
       -1    1    3    3    0  502 -0.90407250779E+02  0.15153030189E+04 -0.11798750018E+04  0.19226080542E+04  0.50400001928E-02 0.  1.
</event>
<event>
 5   0  0.2722449E-06  0.3294590E+04  0.7818609E-02  0.8164273E-01
       -2   -1    0    0    0  501  0.00000000000E+00  0.00000000000E+00  0.10339650500E+04  0.10339650500E+04  0.25500000920E-02 0. -1.
        2   -1    0    0  501    0  0.00000000000E+00  0.00000000000E+00 -0.26244420347E+04  0.26244420347E+04  0.25500000920E-02 0.  1.
    10030    2    1    2    0    0  0.00000000000E+00  0.00000000000E+00 -0.15904769847E+04  0.36584070847E+04  0.32945903172E+04 0.  0.
        2    1    3    3  502    0  0.67878317721E+03 -0.13258423327E+04 -0.14001041932E+02  0.14895638697E+04  0.25500000920E-02 0. -1.
       -2    1    3    3    0  502 -0.67878317721E+03  0.13258423327E+04 -0.15764759428E+04  0.21688432150E+04  0.25500000920E-02 0.  1.
</event>
<event>
 5   0  0.2722449E-06  0.3291878E+04  0.7818609E-02  0.8164965E-01
       -2   -1    0    0    0  501  0.00000000000E+00  0.00000000000E+00  0.21748292531E+04  0.21748292531E+04  0.25500000920E-02 0. -1.
        2   -1    0    0  501    0  0.00000000000E+00  0.00000000000E+00 -0.12456681465E+04  0.12456681465E+04  0.25500000920E-02 0.  1.
    10030    2    1    2    0    0  0.00000000000E+00  0.00000000000E+00  0.92916110654E+03  0.34204973996E+04  0.32918782023E+04 0.  0.
        2    1    3    3  502    0 -0.26033587418E+02 -0.58520940789E+03  0.20628496950E+04  0.21444105630E+04  0.25500000920E-02 0. -1.
       -2    1    3    3    0  502  0.26033587418E+02  0.58520940789E+03 -0.11336885885E+04  0.12760868365E+04  0.25500000920E-02 0.  1.
</event>
<event>
 5   0  0.2101998E-06  0.2290872E+04  0.7818609E-02  0.8481529E-01
        1   -1    0    0  501    0  0.00000000000E+00  0.00000000000E+00  0.28320637041E+04  0.28320637042E+04  0.50400001928E-02 0. -1.
       -1   -1    0    0    0  501  0.00000000000E+00  0.00000000000E+00 -0.46327488180E+03  0.46327488183E+03  0.50400001928E-02 0.  1.
    10030    2    1    2    0    0  0.00000000000E+00  0.00000000000E+00  0.23687888223E+04  0.32953385860E+04  0.22908723036E+04 0.  0.
        5    1    3    3  502    0 -0.42407077212E+03  0.98480875361E+03  0.17639324553E+04  0.20642587284E+04  0.46999998093E+01 0. -1.
       -5    1    3    3    0  502  0.42407077212E+03 -0.98480875361E+03  0.60485636705E+03  0.12310798576E+04  0.46999998093E+01 0.  1.
</event>
<event>
 5   0  0.1401125E-06  0.2105232E+04  0.7818609E-02  0.8558942E-01
        3   -1    0    0  501    0  0.00000000000E+00  0.00000000000E+00  0.59426795778E+03  0.59426796636E+03  0.10100000352E+00 0.  1.
       -3   -1    0    0    0  501  0.00000000000E+00  0.00000000000E+00 -0.18644796453E+04  0.18644796480E+04  0.10100000352E+00 0. -1.
    10030    2    1    2    0    0  0.00000000000E+00  0.00000000000E+00 -0.12702116875E+04  0.24587476144E+04  0.21052320775E+04 0.  0.
        3    1    3    3  502    0  0.56631124939E+03 -0.18738371092E+03 -0.16480247996E+04  0.17526570790E+04  0.10100000352E+00 0. -1.
       -3    1    3    3    0  502 -0.56631124939E+03  0.18738371092E+03  0.37781311207E+03  0.70609053539E+03  0.10100000352E+00 0.  1.
</event>
<event>
 5   0  0.4173467E-06  0.3375681E+04  0.7818609E-02  0.8143901E-01
       -2   -1    0    0    0  501  0.00000000000E+00  0.00000000000E+00  0.14166892732E+04  0.14166892732E+04  0.25500000920E-02 0.  1.
        2   -1    0    0  501    0  0.00000000000E+00  0.00000000000E+00 -0.20108894501E+04  0.20108894501E+04  0.25500000920E-02 0. -1.
    10030    2    1    2    0    0  0.00000000000E+00  0.00000000000E+00 -0.59420017689E+03  0.34275787233E+04  0.33756809764E+04 0.  0.
        4    1    3    3  502    0  0.10413520264E+03  0.23806389088E+03  0.13962580356E+04  0.14202312035E+04  0.12699999809E+01 0.  1.
       -4    1    3    3    0  502 -0.10413520264E+03 -0.23806389088E+03 -0.19904582125E+04  0.20073475198E+04  0.12699999809E+01 0. -1.
</event>
<event>
 5   0  0.2136364E-06  0.1763666E+04  0.7818609E-02  0.8725864E-01
        1   -1    0    0  501    0  0.00000000000E+00  0.00000000000E+00  0.66016637706E+03  0.66016637707E+03  0.50400001928E-02 0. -1.
       -1   -1    0    0    0  501  0.00000000000E+00  0.00000000000E+00 -0.11779294605E+04  0.11779294605E+04  0.50400001928E-02 0.  1.
    10030    2    1    2    0    0  0.00000000000E+00  0.00000000000E+00 -0.51776308340E+03  0.18380958375E+04  0.17636659824E+04 0.  0.
        5    1    3    3  502    0 -0.18483168176E+03 -0.57016006352E+02  0.63777169949E+03  0.66647461034E+03  0.46999998093E+01 0. -1.
       -5    1    3    3    0  502  0.18483168176E+03  0.57016006352E+02 -0.11555347829E+04  0.11716212272E+04  0.46999998093E+01 0.  1.
</event>
<event>
 5   0  0.1562618E-06  0.3488056E+04  0.7818609E-02  0.8116626E-01
       -1   -1    0    0    0  501  0.00000000000E+00  0.00000000000E+00  0.13906592202E+04  0.13906592202E+04  0.50400001928E-02 0. -1.
        1   -1    0    0  501    0  0.00000000000E+00  0.00000000000E+00 -0.21871881885E+04  0.21871881885E+04  0.50400001928E-02 0.  1.
    10030    2    1    2    0    0  0.00000000000E+00  0.00000000000E+00 -0.79652896828E+03  0.35778474087E+04  0.34880558601E+04 0.  0.
        2    1    3    3  502    0  0.76740330071E+03 -0.54244379740E+03 -0.19052616302E+04  0.21244234462E+04  0.25500000920E-02 0.  1.
       -2    1    3    3    0  502 -0.76740330071E+03  0.54244379740E+03  0.11087326619E+04  0.14534239625E+04  0.25500000920E-02 0. -1.
</event>
<event>
 5   0  0.1550164E-06  0.3386565E+04  0.7818609E-02  0.8141212E-01
        1   -1    0    0  501    0  0.00000000000E+00  0.00000000000E+00  0.11545550438E+04  0.11545550438E+04  0.50400001928E-02 0.  1.
       -1   -1    0    0    0  501  0.00000000000E+00  0.00000000000E+00 -0.24833857345E+04  0.24833857345E+04  0.50400001928E-02 0. -1.
    10030    2    1    2    0    0  0.00000000000E+00  0.00000000000E+00 -0.13288306907E+04  0.36379407783E+04  0.33865649413E+04 0.  0.
        4    1    3    3  502    0  0.18546585216E+03  0.11779692067E+04 -0.19558113062E+04  0.22906786140E+04  0.12699999809E+01 0. -1.
       -4    1    3    3    0  502 -0.18546585216E+03 -0.11779692067E+04  0.62698061554E+03  0.13472621643E+04  0.12699999809E+01 0.  1.
</event>
<event>
 5   0  0.1550164E-06  0.3707662E+04  0.7818609E-02  0.8066266E-01
       -1   -1    0    0    0  501  0.00000000000E+00  0.00000000000E+00  0.15493350577E+04  0.15493350577E+04  0.50400001928E-02 0. -1.
        1   -1    0    0  501    0  0.00000000000E+00  0.00000000000E+00 -0.22181707200E+04  0.22181707200E+04  0.50400001928E-02 0.  1.
    10030    2    1    2    0    0  0.00000000000E+00  0.00000000000E+00 -0.66883566232E+03  0.37675057777E+04  0.37076621531E+04 0.  0.
        4    1    3    3  502    0 -0.98034118635E+03 -0.19731209997E+03 -0.19206021749E+04  0.21653441375E+04  0.12699999809E+01 0.  1.
       -4    1    3    3    0  502  0.98034118635E+03  0.19731209997E+03  0.12517665126E+04  0.16021616402E+04  0.12699999809E+01 0. -1.
</event>
<event>
 5   0  0.1571391E-06  0.3322248E+04  0.7818609E-02  0.8157257E-01
       -1   -1    0    0    0  501  0.00000000000E+00  0.00000000000E+00  0.22149142402E+04  0.22149142403E+04  0.50400001928E-02 0.  1.
        1   -1    0    0  501    0  0.00000000000E+00  0.00000000000E+00 -0.12457964318E+04  0.12457964319E+04  0.50400001928E-02 0. -1.
    10030    2    1    2    0    0  0.00000000000E+00  0.00000000000E+00  0.96911780840E+03  0.34607106721E+04  0.33222475870E+04 0.  0.
        1    1    3    3  502    0  0.14978653568E+03  0.39238462422E+03 -0.11895729607E+04  0.12615409341E+04  0.50400001928E-02 0. -1.
       -1    1    3    3    0  502 -0.14978653568E+03 -0.39238462422E+03  0.21586907691E+04  0.21991697380E+04  0.50400001928E-02 0.  1.
</event>
<event>
 5   0  0.4400349E-06  0.3428009E+04  0.7818609E-02  0.8131066E-01
       -2   -1    0    0    0  501  0.00000000000E+00  0.00000000000E+00  0.15263952386E+04  0.15263952386E+04  0.25500000920E-02 0. -1.
        2   -1    0    0  501    0  0.00000000000E+00  0.00000000000E+00 -0.19246725656E+04  0.19246725656E+04  0.25500000920E-02 0.  1.
    10030    2    1    2    0    0  0.00000000000E+00  0.00000000000E+00 -0.39827732693E+03  0.34510678042E+04  0.34280087748E+04 0.  0.
        5    1    3    3  502    0  0.13081888383E+04 -0.23500810297E+01 -0.13140289552E+04  0.18542000282E+04  0.46999998093E+01 0.  1.
       -5    1    3    3    0  502 -0.13081888383E+04  0.23500810297E+01  0.91575162823E+03  0.15968677760E+04  0.46999998093E+01 0. -1.
</event>
<event>
 5   0  0.2101998E-06  0.3456488E+04  0.7818609E-02  0.8124180E-01
       -1   -1    0    0    0  501  0.00000000000E+00  0.00000000000E+00  0.18053103434E+04  0.18053103434E+04  0.50400001928E-02 0. -1.
        1   -1    0    0  501    0  0.00000000000E+00  0.00000000000E+00 -0.16544670611E+04  0.16544670611E+04  0.50400001928E-02 0.  1.
    10030    2    1    2    0    0  0.00000000000E+00  0.00000000000E+00  0.15084328230E+03  0.34597774044E+04  0.34564875224E+04 0.  0.
        5    1    3    3  502    0  0.71579111502E+03  0.13061714503E+04 -0.80197620591E+03  0.16916349201E+04  0.46999998093E+01 0.  1.
       -5    1    3    3    0  502 -0.71579111502E+03 -0.13061714503E+04  0.95281948821E+03  0.17681424844E+04  0.46999998093E+01 0. -1.
</event>
<event>
 5   0  0.4189587E-06  0.1737728E+04  0.7818609E-02  0.8740135E-01
        2   -1    0    0  501    0  0.00000000000E+00  0.00000000000E+00  0.11549481357E+04  0.11549481357E+04  0.25500000920E-02 0. -1.
       -2   -1    0    0    0  501  0.00000000000E+00  0.00000000000E+00 -0.65364340605E+03  0.65364340605E+03  0.25500000920E-02 0.  1.
    10030    2    1    2    0    0  0.00000000000E+00  0.00000000000E+00  0.50130472965E+03  0.18085915417E+04  0.17377275198E+04 0.  0.
        1    1    3    3  502    0 -0.77132039486E+03  0.39996669666E+03  0.25477931992E+03  0.90543967875E+03  0.50400001928E-02 0. -1.
       -1    1    3    3    0  502  0.77132039486E+03 -0.39996669666E+03  0.24652540973E+03  0.90315186300E+03  0.50400001928E-02 0.  1.
</event>
<event>
 5   0  0.1654257E-06  0.3444929E+04  0.7818609E-02  0.8126966E-01
        1   -1    0    0  501    0  0.00000000000E+00  0.00000000000E+00  0.24606162734E+04  0.24606162734E+04  0.50400001928E-02 0.  1.
       -1   -1    0    0    0  501  0.00000000000E+00  0.00000000000E+00 -0.12057483487E+04  0.12057483487E+04  0.50400001928E-02 0. -1.
    10030    2    1    2    0    0  0.00000000000E+00  0.00000000000E+00  0.12548679247E+04  0.36663646221E+04  0.34449290317E+04 0.  0.
        3    1    3    3  502    0 -0.74912792533E+03 -0.14641997526E+04  0.82870060193E+02  0.16467972009E+04  0.10100000352E+00 0. -1.
       -3    1    3    3    0  502  0.74912792533E+03  0.14641997526E+04  0.11719978645E+04  0.20195674211E+04  0.10100000352E+00 0.  1.
</event>
<event>
 5   0  0.4400349E-06  0.3371700E+04  0.7818609E-02  0.8144887E-01
        2   -1    0    0  501    0  0.00000000000E+00  0.00000000000E+00  0.99673929936E+03  0.99673929936E+03  0.25500000920E-02 0.  1.
       -2   -1    0    0    0  501  0.00000000000E+00  0.00000000000E+00 -0.28513871613E+04  0.28513871613E+04  0.25500000920E-02 0. -1.
    10030    2    1    2    0    0  0.00000000000E+00  0.00000000000E+00 -0.18546478619E+04  0.38481264606E+04  0.33716996553E+04 0.  0.
        5    1    3    3  502    0  0.16667280742E+04 -0.23677708964E+03 -0.82510452953E+03  0.18747974392E+04  0.46999998093E+01 0.  1.
       -5    1    3    3    0  502 -0.16667280742E+04  0.23677708964E+03 -0.10295433324E+04  0.19733290214E+04  0.46999998093E+01 0. -1.
</event>
<event>
 5   0  0.4344980E-06  0.3356679E+04  0.7818609E-02  0.8148621E-01
       -2   -1    0    0    0  501  0.00000000000E+00  0.00000000000E+00  0.13393055817E+04  0.13393055817E+04  0.25500000920E-02 0. -1.
        2   -1    0    0  501    0  0.00000000000E+00  0.00000000000E+00 -0.21031965561E+04  0.21031965561E+04  0.25500000920E-02 0.  1.
    10030    2    1    2    0    0  0.00000000000E+00  0.00000000000E+00 -0.76389097437E+03  0.34425021378E+04  0.33566786483E+04 0.  0.
        3    1    3    3  502    0 -0.14326255967E+04 -0.39925081698E+03 -0.11796538336E+04  0.18982624930E+04  0.10100000352E+00 0.  1.
       -3    1    3    3    0  502  0.14326255967E+04  0.39925081698E+03  0.41576285922E+03  0.15442396448E+04  0.10100000352E+00 0. -1.
</event>
<event>
 5   0  0.4189587E-06  0.1672479E+04  0.7818609E-02  0.8777218E-01
        2   -1    0    0  501    0  0.00000000000E+00  0.00000000000E+00  0.12466761148E+04  0.12466761148E+04  0.25500000920E-02 0. -1.
       -2   -1    0    0    0  501  0.00000000000E+00  0.00000000000E+00 -0.56092854413E+03  0.56092854413E+03  0.25500000920E-02 0.  1.
    10030    2    1    2    0    0  0.00000000000E+00  0.00000000000E+00  0.68574757064E+03  0.18076046589E+04  0.16724786612E+04 0.  0.
        1    1    3    3  502    0 -0.16751229396E+03  0.48690616140E+03  0.10550162615E+04  0.11739664777E+04  0.50400001928E-02 0. -1.
       -1    1    3    3    0  502  0.16751229396E+03 -0.48690616140E+03 -0.36926869086E+03  0.63363818123E+03  0.50400001928E-02 0.  1.
</event>
<event>
 5   0  0.1571391E-06  0.3250248E+04  0.7818609E-02  0.8175672E-01
        1   -1    0    0  501    0  0.00000000000E+00  0.00000000000E+00  0.95613957853E+03  0.95613957855E+03  0.50400001928E-02 0.  1.
       -1   -1    0    0    0  501  0.00000000000E+00  0.00000000000E+00 -0.27621776611E+04  0.27621776611E+04  0.50400001928E-02 0. -1.
    10030    2    1    2    0    0  0.00000000000E+00  0.00000000000E+00 -0.18060380825E+04  0.37183172396E+04  0.32502476119E+04 0.  0.
        1    1    3    3  502    0 -0.12176952262E+04 -0.10031810621E+04 -0.45718732463E+03  0.16426119922E+04  0.50400001928E-02 0.  1.
       -1    1    3    3    0  502  0.12176952262E+04  0.10031810621E+04 -0.13488507579E+04  0.20757052474E+04  0.50400001928E-02 0. -1.
</event>
<event>
 5   0  0.2722449E-06  0.2275042E+04  0.7818609E-02  0.8487827E-01
        2   -1    0    0  501    0  0.00000000000E+00  0.00000000000E+00  0.18918629885E+04  0.18918629885E+04  0.25500000920E-02 0.  1.
       -2   -1    0    0    0  501  0.00000000000E+00  0.00000000000E+00 -0.68395745759E+03  0.68395745760E+03  0.25500000920E-02 0. -1.
    10030    2    1    2    0    0  0.00000000000E+00  0.00000000000E+00  0.12079055309E+04  0.25758204461E+04  0.22750418016E+04 0.  0.
        2    1    3    3  502    0 -0.22039507958E+03  0.36080285625E+03 -0.59169374705E+03  0.72722361244E+03  0.25500000920E-02 0. -1.
       -2    1    3    3    0  502  0.22039507958E+03 -0.36080285625E+03  0.17995992780E+04  0.18485968337E+04  0.25500000920E-02 0.  1.
</event>
<event>
 5   0  0.4173467E-06  0.3394100E+04  0.7818609E-02  0.8139356E-01
        2   -1    0    0  501    0  0.00000000000E+00  0.00000000000E+00  0.18673733664E+04  0.18673733664E+04  0.25500000920E-02 0.  1.
       -2   -1    0    0    0  501  0.00000000000E+00  0.00000000000E+00 -0.15422616528E+04  0.15422616528E+04  0.25500000920E-02 0. -1.
    10030    2    1    2    0    0  0.00000000000E+00  0.00000000000E+00  0.32511171365E+03  0.34096350192E+04  0.33940997831E+04 0.  0.
        4    1    3    3  502    0 -0.13719770237E+04  0.94841077414E+03  0.47731533203E+03  0.17348301038E+04  0.12699999809E+01 0.  1.
       -4    1    3    3    0  502  0.13719770237E+04 -0.94841077414E+03 -0.15220361838E+03  0.16748049153E+04  0.12699999809E+01 0. -1.
</event>
<event>
 5   0  0.4344980E-06  0.2948846E+04  0.7818609E-02  0.8258491E-01
       -2   -1    0    0    0  501  0.00000000000E+00  0.00000000000E+00  0.78678292184E+03  0.78678292184E+03  0.25500000920E-02 0. -1.
        2   -1    0    0  501    0  0.00000000000E+00  0.00000000000E+00 -0.27630533083E+04  0.27630533083E+04  0.25500000920E-02 0.  1.
    10030    2    1    2    0    0  0.00000000000E+00  0.00000000000E+00 -0.19762703864E+04  0.35498362301E+04  0.29488459811E+04 0.  0.
        3    1    3    3  502    0  0.12210028882E+04 -0.17924250465E+03 -0.19593809062E+04  0.23156315497E+04  0.10100000352E+00 0.  1.
       -3    1    3    3    0  502 -0.12210028882E+04  0.17924250465E+03 -0.16889480266E+02  0.12342046804E+04  0.10100000352E+00 0. -1.
</event>
<event>
 5   0  0.2101998E-06  0.3181874E+04  0.7818609E-02  0.8193621E-01
        1   -1    0    0  501    0  0.00000000000E+00  0.00000000000E+00  0.16274267647E+04  0.16274267647E+04  0.50400001928E-02 0.  1.
       -1   -1    0    0    0  501  0.00000000000E+00  0.00000000000E+00 -0.15552654727E+04  0.15552654727E+04  0.50400001928E-02 0. -1.
    10030    2    1    2    0    0  0.00000000000E+00  0.00000000000E+00  0.72161292019E+02  0.31826922374E+04  0.31818740745E+04 0.  0.
        5    1    3    3  502    0 -0.12441070676E+04  0.30867459830E+03  0.97864781965E+03  0.16127169771E+04  0.46999998093E+01 0.  1.
       -5    1    3    3    0  502  0.12441070676E+04 -0.30867459830E+03 -0.90648652764E+03  0.15699752603E+04  0.46999998093E+01 0. -1.
</event>
<event>
 5   0  0.4400349E-06  0.3390307E+04  0.7818609E-02  0.8140289E-01
       -2   -1    0    0    0  501  0.00000000000E+00  0.00000000000E+00  0.20002619489E+04  0.20002619489E+04  0.25500000920E-02 0. -1.
        2   -1    0    0  501    0  0.00000000000E+00  0.00000000000E+00 -0.14365845155E+04  0.14365845155E+04  0.25500000920E-02 0.  1.
    10030    2    1    2    0    0  0.00000000000E+00  0.00000000000E+00  0.56367743346E+03  0.34368464644E+04  0.33903069729E+04 0.  0.
        5    1    3    3  502    0 -0.12799884136E+04  0.91094375724E+03 -0.36355960497E+03  0.16125714075E+04  0.46999998093E+01 0.  1.
       -5    1    3    3    0  502  0.12799884136E+04 -0.91094375724E+03  0.92723703843E+03  0.18242750569E+04  0.46999998093E+01 0. -1.
</event>
<event>
 5   0  0.1571391E-06  0.3158092E+04  0.7818609E-02  0.8199974E-01
        1   -1    0    0  501    0  0.00000000000E+00  0.00000000000E+00  0.19645791642E+04  0.19645791642E+04  0.50400001928E-02 0.  1.
       -1   -1    0    0    0  501  0.00000000000E+00  0.00000000000E+00 -0.12691704812E+04  0.12691704812E+04  0.50400001928E-02 0. -1.
    10030    2    1    2    0    0  0.00000000000E+00  0.00000000000E+00  0.69540868300E+03  0.32337496454E+04  0.31580917550E+04 0.  0.
        1    1    3    3  502    0 -0.12986993212E+03  0.12028468984E+04  0.13867450974E+04  0.18403175882E+04  0.50400001928E-02 0.  1.
       -1    1    3    3    0  502  0.12986993212E+03 -0.12028468984E+04 -0.69133641444E+03  0.13934320572E+04  0.50400001928E-02 0. -1.
</event>
<event>
 5   0  0.2722449E-06  0.3183113E+04  0.7818609E-02  0.8193291E-01
       -2   -1    0    0    0  501  0.00000000000E+00  0.00000000000E+00  0.15415772892E+04  0.15415772892E+04  0.25500000920E-02 0. -1.
        2   -1    0    0  501    0  0.00000000000E+00  0.00000000000E+00 -0.16431561919E+04  0.16431561919E+04  0.25500000920E-02 0.  1.
    10030    2    1    2    0    0  0.00000000000E+00  0.00000000000E+00 -0.10157890271E+03  0.31847334810E+04  0.31831131101E+04 0.  0.
        2    1    3    3  502    0 -0.36832418986E+03 -0.18483635440E+03  0.14872715694E+04  0.15433094013E+04  0.25500000920E-02 0. -1.
       -2    1    3    3    0  502  0.36832418986E+03  0.18483635440E+03 -0.15888504722E+04  0.16414240798E+04  0.25500000920E-02 0.  1.
</event>
<event>
 5   0  0.4173467E-06  0.3326887E+04  0.7818609E-02  0.8156087E-01
        2   -1    0    0  501    0  0.00000000000E+00  0.00000000000E+00  0.20519377652E+04  0.20519377652E+04  0.25500000920E-02 0.  1.
       -2   -1    0    0    0  501  0.00000000000E+00  0.00000000000E+00 -0.13485030338E+04  0.13485030338E+04  0.25500000920E-02 0. -1.
    10030    2    1    2    0    0  0.00000000000E+00  0.00000000000E+00  0.70343473138E+03  0.34004407990E+04  0.33268870143E+04 0.  0.
        4    1    3    3  502    0 -0.85462380218E+02  0.13064825929E+04  0.14004838226E+04  0.19171742577E+04  0.12699999809E+01 0.  1.
       -4    1    3    3    0  502  0.85462380218E+02 -0.13064825929E+04 -0.69704909121E+03  0.14832665413E+04  0.12699999809E+01 0. -1.
</event>
<event>
 5   0  0.1814878E-06  0.1830290E+04  0.7818609E-02  0.8690355E-01
       -1   -1    0    0    0  501  0.00000000000E+00  0.00000000000E+00  0.78470989733E+03  0.78470989735E+03  0.50400001928E-02 0.  1.
        1   -1    0    0  501    0  0.00000000000E+00  0.00000000000E+00 -0.10672617000E+04  0.10672617000E+04  0.50400001928E-02 0. -1.
    10030    2    1    2    0    0  0.00000000000E+00  0.00000000000E+00 -0.28255180264E+03  0.18519715973E+04  0.18302904896E+04 0.  0.
        2    1    3    3  502    0  0.49357412371E+02 -0.40186185955E+03  0.68915403060E+03  0.79928867514E+03  0.25500000920E-02 0.  1.
       -2    1    3    3    0  502 -0.49357412371E+02  0.40186185955E+03 -0.97170583324E+03  0.10526829222E+04  0.25500000920E-02 0. -1.
</event>
<event>
 5   0  0.1654257E-06  0.2393507E+04  0.7818609E-02  0.8441939E-01
       -1   -1    0    0    0  501  0.00000000000E+00  0.00000000000E+00  0.17632697971E+04  0.17632697971E+04  0.50400001928E-02 0. -1.
        1   -1    0    0  501    0  0.00000000000E+00  0.00000000000E+00 -0.81225144827E+03  0.81225144828E+03  0.50400001928E-02 0.  1.
    10030    2    1    2    0    0  0.00000000000E+00  0.00000000000E+00  0.95101834886E+03  0.25755212454E+04  0.23935065878E+04 0.  0.
        3    1    3    3  502    0 -0.52318623134E+03 -0.89426414526E+02  0.16296886656E+04  0.17139445946E+04  0.10100000352E+00 0. -1.
       -3    1    3    3    0  502  0.52318623134E+03  0.89426414526E+02 -0.67867031673E+03  0.86157665085E+03  0.10100000352E+00 0.  1.
</event>
<event>
 5   0  0.4400349E-06  0.2120888E+04  0.7818609E-02  0.8552097E-01
       -2   -1    0    0    0  501  0.00000000000E+00  0.00000000000E+00  0.51291499535E+03  0.51291499535E+03  0.25500000920E-02 0.  1.
        2   -1    0    0  501    0  0.00000000000E+00  0.00000000000E+00 -0.21924518513E+04  0.21924518513E+04  0.25500000920E-02 0. -1.
    10030    2    1    2    0    0  0.00000000000E+00  0.00000000000E+00 -0.16795368559E+04  0.27053668467E+04  0.21208879566E+04 0.  0.
        5    1    3    3  502    0 -0.36247213902E+03 -0.19635129779E+03  0.40650828349E+03  0.57897405663E+03  0.46999998093E+01 0.  1.
       -5    1    3    3    0  502  0.36247213902E+03  0.19635129779E+03 -0.20860451394E+04  0.21263927900E+04  0.46999998093E+01 0. -1.
</event>
<event>
 5   0  0.1401125E-06  0.3329495E+04  0.7818609E-02  0.8155431E-01
        3   -1    0    0  501    0  0.00000000000E+00  0.00000000000E+00  0.13860588780E+04  0.13860588817E+04  0.10100000352E+00 0.  1.
       -3   -1    0    0    0  501  0.00000000000E+00  0.00000000000E+00 -0.19994707858E+04  0.19994707884E+04  0.10100000352E+00 0. -1.
    10030    2    1    2    0    0  0.00000000000E+00  0.00000000000E+00 -0.61341190782E+03  0.33855296700E+04  0.33294950035E+04 0.  0.
        1    1    3    3  502    0 -0.22612474206E+03  0.11976122846E+04 -0.14598001870E+04  0.19016898194E+04  0.50400001928E-02 0. -1.
       -1    1    3    3    0  502  0.22612474206E+03 -0.11976122846E+04  0.84638827922E+03  0.14838398506E+04  0.50400001928E-02 0.  1.
</event>
<event>
 5   0  0.2722449E-06  0.3035126E+04  0.7818609E-02  0.8233771E-01
       -2   -1    0    0    0  501  0.00000000000E+00  0.00000000000E+00  0.72695555684E+03  0.72695555684E+03  0.25500000920E-02 0. -1.
        2   -1    0    0  501    0  0.00000000000E+00  0.00000000000E+00 -0.31680027737E+04  0.31680027737E+04  0.25500000920E-02 0.  1.
    10030    2    1    2    0    0  0.00000000000E+00  0.00000000000E+00 -0.24410472169E+04  0.38949583306E+04  0.30351258428E+04 0.  0.
        2    1    3    3  502    0 -0.98527489261E+03  0.68498000924E+03 -0.28349151116E+02  0.12003199163E+04  0.25500000920E-02 0. -1.
       -2    1    3    3    0  502  0.98527489261E+03 -0.68498000924E+03 -0.24126980658E+04  0.26946384143E+04  0.25500000920E-02 0.  1.
</event>
<event>
 5   0  0.4344980E-06  0.3338836E+04  0.7818609E-02  0.8153083E-01
        2   -1    0    0  501    0  0.00000000000E+00  0.00000000000E+00  0.15990143278E+04  0.15990143278E+04  0.25500000920E-02 0.  1.
       -2   -1    0    0    0  501  0.00000000000E+00  0.00000000000E+00 -0.17429218650E+04  0.17429218650E+04  0.25500000920E-02 0. -1.
    10030    2    1    2    0    0  0.00000000000E+00  0.00000000000E+00 -0.14390753714E+03  0.33419361928E+04  0.33388363449E+04 0.  0.
        3    1    3    3  502    0  0.15815720933E+04  0.15072954919E+03 -0.58513567675E+03  0.16930662875E+04  0.10100000352E+00 0. -1.
       -3    1    3    3    0  502 -0.15815720933E+04 -0.15072954919E+03  0.44122813961E+03  0.16488699054E+04  0.10100000352E+00 0.  1.
</event>
<event>
 5   0  0.2722449E-06  0.1728090E+04  0.7818609E-02  0.8745504E-01
       -2   -1    0    0    0  501  0.00000000000E+00  0.00000000000E+00  0.33037324379E+03  0.33037324380E+03  0.25500000920E-02 0.  1.
        2   -1    0    0  501    0  0.00000000000E+00  0.00000000000E+00 -0.22597897611E+04  0.22597897611E+04  0.25500000920E-02 0. -1.
    10030    2    1    2    0    0  0.00000000000E+00  0.00000000000E+00 -0.19294165173E+04  0.25901630049E+04  0.17280903607E+04 0.  0.
        2    1    3    3  502    0 -0.43807230679E+02  0.51126777340E+03  0.77252088659E+02  0.51892359244E+03  0.25500000920E-02 0.  1.
       -2    1    3    3    0  502  0.43807230679E+02 -0.51126777340E+03 -0.20066686060E+04  0.20712394125E+04  0.25500000920E-02 0. -1.
</event>
<event>
 5   0  0.1571391E-06  0.3429357E+04  0.7818609E-02  0.8130738E-01
        1   -1    0    0  501    0  0.00000000000E+00  0.00000000000E+00  0.18820793031E+04  0.18820793032E+04  0.50400001928E-02 0. -1.
       -1   -1    0    0    0  501  0.00000000000E+00  0.00000000000E+00 -0.15621672089E+04  0.15621672089E+04  0.50400001928E-02 0.  1.
    10030    2    1    2    0    0  0.00000000000E+00  0.00000000000E+00  0.31991209425E+03  0.34442465121E+04  0.34293571246E+04 0.  0.
        1    1    3    3  502    0  0.56632227542E+03 -0.42288312869E+02  0.17848845699E+04  0.18730515606E+04  0.50400001928E-02 0. -1.
       -1    1    3    3    0  502 -0.56632227542E+03  0.42288312869E+02 -0.14649724756E+04  0.15711949514E+04  0.50400001928E-02 0.  1.
</event>
<event>
 5   0  0.1654257E-06  0.3390014E+04  0.7818609E-02  0.8140361E-01
        1   -1    0    0  501    0  0.00000000000E+00  0.00000000000E+00  0.12355114853E+04  0.12355114853E+04  0.50400001928E-02 0. -1.
       -1   -1    0    0    0  501  0.00000000000E+00  0.00000000000E+00 -0.23253928420E+04  0.23253928420E+04  0.50400001928E-02 0.  1.
    10030    2    1    2    0    0  0.00000000000E+00  0.00000000000E+00 -0.10898813567E+04  0.35609043274E+04  0.33900144922E+04 0.  0.
        3    1    3    3  502    0 -0.16602037125E+04 -0.27790075963E+03 -0.33605868731E+03  0.17165199243E+04  0.10100000352E+00 0. -1.
       -3    1    3    3    0  502  0.16602037125E+04  0.27790075963E+03 -0.75382266937E+03  0.18443844030E+04  0.10100000352E+00 0.  1.
</event>
<event>
 5   0  0.4344980E-06  0.3513161E+04  0.7818609E-02  0.8110678E-01
        2   -1    0    0  501    0  0.00000000000E+00  0.00000000000E+00  0.17790301057E+04  0.17790301057E+04  0.25500000920E-02 0.  1.
       -2   -1    0    0    0  501  0.00000000000E+00  0.00000000000E+00 -0.17344138417E+04  0.17344138417E+04  0.25500000920E-02 0. -1.
    10030    2    1    2    0    0  0.00000000000E+00  0.00000000000E+00  0.44616263916E+02  0.35134439474E+04  0.35131606511E+04 0.  0.
        3    1    3    3  502    0  0.13670882687E+04 -0.73415665919E+03  0.84557442576E+03  0.17671764072E+04  0.10100000352E+00 0.  1.
       -3    1    3    3    0  502 -0.13670882687E+04  0.73415665919E+03 -0.80095816184E+03  0.17462675402E+04  0.10100000352E+00 0. -1.
</event>
<event>
 5   0  0.1654257E-06  0.3441589E+04  0.7818609E-02  0.8127774E-01
       -1   -1    0    0    0  501  0.00000000000E+00  0.00000000000E+00  0.13618307757E+04  0.13618307757E+04  0.50400001928E-02 0.  1.
        1   -1    0    0  501    0  0.00000000000E+00  0.00000000000E+00 -0.21743765423E+04  0.21743765423E+04  0.50400001928E-02 0. -1.
    10030    2    1    2    0    0  0.00000000000E+00  0.00000000000E+00 -0.81254576662E+03  0.35362073181E+04  0.34415885247E+04 0.  0.
        3    1    3    3  502    0  0.16677916750E+04  0.11426560304E+03  0.13048896584E+02  0.16717523690E+04  0.10100000352E+00 0.  1.
       -3    1    3    3    0  502 -0.16677916750E+04 -0.11426560304E+03 -0.82559466321E+03  0.18644549491E+04  0.10100000352E+00 0. -1.
</event>
<event>
 5   0  0.1562618E-06  0.3372712E+04  0.7818609E-02  0.8144636E-01
       -1   -1    0    0    0  501  0.00000000000E+00  0.00000000000E+00  0.23530533810E+04  0.23530533810E+04  0.50400001928E-02 0.  1.
        1   -1    0    0  501    0  0.00000000000E+00  0.00000000000E+00 -0.12085555723E+04  0.12085555724E+04  0.50400001928E-02 0. -1.
    10030    2    1    2    0    0  0.00000000000E+00  0.00000000000E+00  0.11444978086E+04  0.35616089533E+04  0.33727115356E+04 0.  0.
        2    1    3    3  502    0 -0.64275962251E+03  0.10818160841E+04 -0.61327179040E+03  0.13998457990E+04  0.25500000920E-02 0. -1.
       -2    1    3    3    0  502  0.64275962251E+03 -0.10818160841E+04  0.17577695990E+04  0.21617631543E+04  0.25500000920E-02 0.  1.
</event>
<event>
 5   0  0.4400349E-06  0.3335050E+04  0.7818609E-02  0.8154034E-01
       -2   -1    0    0    0  501  0.00000000000E+00  0.00000000000E+00  0.21918972093E+04  0.21918972093E+04  0.25500000920E-02 0. -1.
        2   -1    0    0  501    0  0.00000000000E+00  0.00000000000E+00 -0.12685995916E+04  0.12685995916E+04  0.25500000920E-02 0.  1.
    10030    2    1    2    0    0  0.00000000000E+00  0.00000000000E+00  0.92329761772E+03  0.34604968009E+04  0.33350501672E+04 0.  0.
        5    1    3    3  502    0 -0.11191897489E+04 -0.35349233769E+03 -0.76742105090E+03  0.14023193952E+04  0.46999998093E+01 0.  1.
       -5    1    3    3    0  502  0.11191897489E+04  0.35349233769E+03  0.16907186686E+04  0.20581774057E+04  0.46999998093E+01 0. -1.
</event>
<event>
 5   0  0.1571391E-06  0.2814735E+04  0.7818609E-02  0.8298708E-01
        1   -1    0    0  501    0  0.00000000000E+00  0.00000000000E+00  0.18191810737E+04  0.18191810737E+04  0.50400001928E-02 0. -1.
       -1   -1    0    0    0  501  0.00000000000E+00  0.00000000000E+00 -0.10887775364E+04  0.10887775364E+04  0.50400001928E-02 0.  1.
    10030    2    1    2    0    0  0.00000000000E+00  0.00000000000E+00  0.73040353733E+03  0.29079586101E+04  0.28147351475E+04 0.  0.
        1    1    3    3  502    0  0.77985677118E+03  0.49508396888E+03 -0.73175487436E+03  0.11784523393E+04  0.50400001928E-02 0.  1.
       -1    1    3    3    0  502 -0.77985677118E+03 -0.49508396888E+03  0.14621584117E+04  0.17295062708E+04  0.50400001928E-02 0. -1.
</event>
<event>
 5   0  0.4344980E-06  0.3287540E+04  0.7818609E-02  0.8166073E-01
        2   -1    0    0  501    0  0.00000000000E+00  0.00000000000E+00  0.21318206104E+04  0.21318206104E+04  0.25500000920E-02 0. -1.
       -2   -1    0    0    0  501  0.00000000000E+00  0.00000000000E+00 -0.12674520370E+04  0.12674520370E+04  0.25500000920E-02 0.  1.
    10030    2    1    2    0    0  0.00000000000E+00  0.00000000000E+00  0.86436857342E+03  0.33992726474E+04  0.32875403421E+04 0.  0.
        3    1    3    3  502    0 -0.48187000660E+03  0.15592502954E+04  0.22924830752E+03  0.16480336719E+04  0.10100000352E+00 0.  1.
       -3    1    3    3    0  502  0.48187000660E+03 -0.15592502954E+04  0.63512026590E+03  0.17512389755E+04  0.10100000352E+00 0. -1.
</event>
<event>
 5   0  0.4173467E-06  0.1682588E+04  0.7818609E-02  0.8771358E-01
       -2   -1    0    0    0  501  0.00000000000E+00  0.00000000000E+00  0.69235185115E+03  0.69235185116E+03  0.25500000920E-02 0.  1.
        2   -1    0    0  501    0  0.00000000000E+00  0.00000000000E+00 -0.10222769036E+04  0.10222769036E+04  0.25500000920E-02 0. -1.
    10030    2    1    2    0    0  0.00000000000E+00  0.00000000000E+00 -0.32992505240E+03  0.17146287547E+04  0.16825876578E+04 0.  0.
        4    1    3    3  502    0 -0.16455127252E+03 -0.80273255315E+03 -0.35916175876E+03  0.89468176187E+03  0.12699999809E+01 0.  1.
       -4    1    3    3    0  502  0.16455127252E+03  0.80273255315E+03  0.29236706359E+02  0.81994699284E+03  0.12699999809E+01 0. -1.
</event>
<event>
 5   0  0.4344980E-06  0.3361969E+04  0.7818609E-02  0.8147304E-01
        2   -1    0    0  501    0  0.00000000000E+00  0.00000000000E+00  0.24178195173E+04  0.24178195173E+04  0.25500000920E-02 0.  1.
       -2   -1    0    0    0  501  0.00000000000E+00  0.00000000000E+00 -0.11687013313E+04  0.11687013313E+04  0.25500000920E-02 0. -1.
    10030    2    1    2    0    0  0.00000000000E+00  0.00000000000E+00  0.12491181859E+04  0.35865208486E+04  0.33619689997E+04 0.  0.
        3    1    3    3  502    0  0.86215919583E+03  0.61575908127E+03 -0.76768842155E+03  0.13083666336E+04  0.10100000352E+00 0. -1.
       -3    1    3    3    0  502 -0.86215919583E+03 -0.61575908127E+03  0.20168066075E+04  0.22781542150E+04  0.10100000352E+00 0.  1.
</event>
<event>
 5   0  0.4400349E-06  0.3371762E+04  0.7818609E-02  0.8144872E-01
        2   -1    0    0  501    0  0.00000000000E+00  0.00000000000E+00  0.27796429603E+04  0.27796429603E+04  0.25500000920E-02 0. -1.
       -2   -1    0    0    0  501  0.00000000000E+00  0.00000000000E+00 -0.10225032435E+04  0.10225032436E+04  0.25500000920E-02 0.  1.
    10030    2    1    2    0    0  0.00000000000E+00  0.00000000000E+00  0.17571397167E+04  0.38021462038E+04  0.33717615235E+04 0.  0.
        5    1    3    3  502    0  0.94480812565E+02  0.48879487884E+03 -0.93771572404E+03  0.10616873017E+04  0.46999998093E+01 0.  1.
       -5    1    3    3    0  502 -0.94480812565E+02 -0.48879487884E+03  0.26948554407E+04  0.27404589021E+04  0.46999998093E+01 0. -1.
</event>
<event>
 5   0  0.4173467E-06  0.3410480E+04  0.7818609E-02  0.8135339E-01
       -2   -1    0    0    0  501  0.00000000000E+00  0.00000000000E+00  0.19254690218E+04  0.19254690218E+04  0.25500000920E-02 0.  1.
        2   -1    0    0  501    0  0.00000000000E+00  0.00000000000E+00 -0.15102003516E+04  0.15102003516E+04  0.25500000920E-02 0. -1.
    10030    2    1    2    0    0  0.00000000000E+00  0.00000000000E+00  0.41526867017E+03  0.34356693734E+04  0.34104803144E+04 0.  0.
        4    1    3    3  502    0  0.17985792047E+03 -0.35460580460E+03 -0.14628495183E+04  0.15159236374E+04  0.12699999809E+01 0. -1.
       -4    1    3    3    0  502 -0.17985792047E+03  0.35460580460E+03  0.18781181885E+04  0.19197457360E+04  0.12699999809E+01 0.  1.
</event>
<event>
 5   0  0.1654257E-06  0.3022709E+04  0.7818609E-02  0.8237276E-01
       -1   -1    0    0    0  501  0.00000000000E+00  0.00000000000E+00  0.14174356042E+04  0.14174356042E+04  0.50400001928E-02 0.  1.
        1   -1    0    0  501    0  0.00000000000E+00  0.00000000000E+00 -0.16114960340E+04  0.16114960340E+04  0.50400001928E-02 0. -1.
    10030    2    1    2    0    0  0.00000000000E+00  0.00000000000E+00 -0.19406042982E+03  0.30289316383E+04  0.30227086229E+04 0.  0.
        3    1    3    3  502    0 -0.11029664461E+04  0.28064900478E+03  0.89944806730E+03  0.14506225150E+04  0.10100000352E+00 0.  1.
       -3    1    3    3    0  502  0.11029664461E+04 -0.28064900478E+03 -0.10935084971E+04  0.15783091233E+04  0.10100000352E+00 0. -1.
</event>
<event>
 5   0  0.4400349E-06  0.3443937E+04  0.7818609E-02  0.8127206E-01
       -2   -1    0    0    0  501  0.00000000000E+00  0.00000000000E+00  0.12012634822E+04  0.12012634822E+04  0.25500000920E-02 0.  1.
        2   -1    0    0  501    0  0.00000000000E+00  0.00000000000E+00 -0.24683803962E+04  0.24683803962E+04  0.25500000920E-02 0. -1.
    10030    2    1    2    0    0  0.00000000000E+00  0.00000000000E+00 -0.12671169140E+04  0.36696438783E+04  0.34439368345E+04 0.  0.
        5    1    3    3  502    0  0.93206637763E+03  0.14353675134E+04 -0.83608209980E+03  0.19047527395E+04  0.46999998093E+01 0.  1.
       -5    1    3    3    0  502 -0.93206637763E+03 -0.14353675134E+04 -0.43103481422E+03  0.17648911389E+04  0.46999998093E+01 0. -1.
</event>
<event>
 5   0  0.1401125E-06  0.2313080E+04  0.7818609E-02  0.8472782E-01
       -3   -1    0    0    0  501  0.00000000000E+00  0.00000000000E+00  0.13898595705E+04  0.13898595741E+04  0.10100000352E+00 0. -1.
        3   -1    0    0  501    0  0.00000000000E+00  0.00000000000E+00 -0.96238838802E+03  0.96238839332E+03  0.10100000352E+00 0.  1.
    10030    2    1    2    0    0  0.00000000000E+00  0.00000000000E+00  0.42747118243E+03  0.23522479674E+04  0.23130799572E+04 0.  0.
        4    1    3    3  502    0 -0.77353030265E+03  0.38024141381E+03  0.99792925953E+03  0.13186345520E+04  0.12699999809E+01 0. -1.
       -4    1    3    3    0  502  0.77353030265E+03 -0.38024141381E+03 -0.57045807710E+03  0.10336134154E+04  0.12699999809E+01 0.  1.
</event>
<event>
 5   0  0.4400349E-06  0.3586250E+04  0.7818609E-02  0.8093649E-01
        2   -1    0    0  501    0  0.00000000000E+00  0.00000000000E+00  0.20441611968E+04  0.20441611968E+04  0.25500000920E-02 0.  1.
       -2   -1    0    0    0  501  0.00000000000E+00  0.00000000000E+00 -0.15729174494E+04  0.15729174494E+04  0.25500000920E-02 0. -1.
    10030    2    1    2    0    0  0.00000000000E+00  0.00000000000E+00  0.47124374735E+03  0.36170786462E+04  0.35862497492E+04 0.  0.
        5    1    3    3  502    0 -0.15338139396E+04  0.36558781962E+03 -0.62555355775E+03  0.16963428306E+04  0.46999998093E+01 0. -1.
       -5    1    3    3    0  502  0.15338139396E+04 -0.36558781962E+03  0.10967973051E+04  0.19207358157E+04  0.46999998093E+01 0.  1.
</event>
<event>
 5   0  0.1654257E-06  0.2247222E+04  0.7818609E-02  0.8499026E-01
       -1   -1    0    0    0  501  0.00000000000E+00  0.00000000000E+00  0.10718252815E+04  0.10718252815E+04  0.50400001928E-02 0.  1.
        1   -1    0    0  501    0  0.00000000000E+00  0.00000000000E+00 -0.11778986991E+04  0.11778986991E+04  0.50400001928E-02 0. -1.
    10030    2    1    2    0    0  0.00000000000E+00  0.00000000000E+00 -0.10607341757E+03  0.22497239806E+04  0.22472219336E+04 0.  0.
        3    1    3    3  502    0  0.69258718057E+03  0.84933742138E+03 -0.30120489807E+03  0.11365630026E+04  0.10100000352E+00 0. -1.
       -3    1    3    3    0  502 -0.69258718057E+03 -0.84933742138E+03  0.19513148051E+03  0.11131609780E+04  0.10100000352E+00 0.  1.
</event>
<event>
 5   0  0.1654257E-06  0.1980255E+04  0.7818609E-02  0.8615908E-01
       -1   -1    0    0    0  501  0.00000000000E+00  0.00000000000E+00  0.48599165282E+03  0.48599165284E+03  0.50400001928E-02 0. -1.
        1   -1    0    0  501    0  0.00000000000E+00  0.00000000000E+00 -0.20172213431E+04  0.20172213431E+04  0.50400001928E-02 0.  1.
    10030    2    1    2    0    0  0.00000000000E+00  0.00000000000E+00 -0.15312296902E+04  0.25032129959E+04  0.19802552711E+04 0.  0.
        3    1    3    3  502    0  0.70217264323E+03  0.62565746342E+03 -0.37423976536E+03  0.10122001258E+04  0.10100000352E+00 0. -1.
       -3    1    3    3    0  502 -0.70217264323E+03 -0.62565746342E+03 -0.11569899249E+04  0.14910128701E+04  0.10100000352E+00 0.  1.
</event>
<event>
 5   0  0.4400349E-06  0.3288578E+04  0.7818609E-02  0.8165808E-01
        2   -1    0    0  501    0  0.00000000000E+00  0.00000000000E+00  0.21262027822E+04  0.21262027822E+04  0.25500000920E-02 0. -1.
       -2   -1    0    0    0  501  0.00000000000E+00  0.00000000000E+00 -0.12716028660E+04  0.12716028660E+04  0.25500000920E-02 0.  1.
    10030    2    1    2    0    0  0.00000000000E+00  0.00000000000E+00  0.85459991613E+03  0.33978056482E+04  0.32885775354E+04 0.  0.
        5    1    3    3  502    0 -0.15519326693E+04 -0.50475878205E+02 -0.13161138549E+03  0.15583281012E+04  0.46999998093E+01 0.  1.
       -5    1    3    3    0  502  0.15519326693E+04  0.50475878205E+02  0.98621130162E+03  0.18394775470E+04  0.46999998093E+01 0. -1.
</event>
<event>
 5   0  0.1571391E-06  0.1711479E+04  0.7818609E-02  0.8754844E-01
        1   -1    0    0  501    0  0.00000000000E+00  0.00000000000E+00  0.55345023050E+03  0.55345023052E+03  0.50400001928E-02 0.  1.
       -1   -1    0    0    0  501  0.00000000000E+00  0.00000000000E+00 -0.13231366050E+04  0.13231366050E+04  0.50400001928E-02 0. -1.
    10030    2    1    2    0    0  0.00000000000E+00  0.00000000000E+00 -0.76968637446E+03  0.18765868355E+04  0.17114791953E+04 0.  0.
        1    1    3    3  502    0  0.35705850833E+03 -0.31863751184E+03 -0.11626959474E+04  0.12573315030E+04  0.50400001928E-02 0. -1.
       -1    1    3    3    0  502 -0.35705850833E+03  0.31863751184E+03  0.39300957296E+03  0.61925533247E+03  0.50400001928E-02 0.  1.
</event>
<event>
 5   0  0.2101998E-06  0.3424892E+04  0.7818609E-02  0.8131824E-01
        1   -1    0    0  501    0  0.00000000000E+00  0.00000000000E+00  0.16053752022E+04  0.16053752022E+04  0.50400001928E-02 0. -1.
       -1   -1    0    0    0  501  0.00000000000E+00  0.00000000000E+00 -0.18266575970E+04  0.18266575970E+04  0.50400001928E-02 0.  1.
    10030    2    1    2    0    0  0.00000000000E+00  0.00000000000E+00 -0.22128239476E+03  0.34320327992E+04  0.34248917116E+04 0.  0.
        5    1    3    3  502    0 -0.11312722671E+04 -0.11850054774E+04 -0.61011178879E+03  0.17482200687E+04  0.46999998093E+01 0.  1.
       -5    1    3    3    0  502  0.11312722671E+04  0.11850054774E+04  0.38882939403E+03  0.16838127305E+04  0.46999998093E+01 0. -1.
</event>
<event>
 5   0  0.1550164E-06  0.1889732E+04  0.7818609E-02  0.8659985E-01
        1   -1    0    0  501    0  0.00000000000E+00  0.00000000000E+00  0.91045027927E+03  0.91045027929E+03  0.50400001928E-02 0.  1.
       -1   -1    0    0    0  501  0.00000000000E+00  0.00000000000E+00 -0.98058228981E+03  0.98058228982E+03  0.50400001928E-02 0. -1.
    10030    2    1    2    0    0  0.00000000000E+00  0.00000000000E+00 -0.70132010531E+02  0.18910325691E+04  0.18897316419E+04 0.  0.
        4    1    3    3  502    0  0.51458805219E+03  0.78867351929E+03 -0.11233977954E+03  0.94838210783E+03  0.12699999809E+01 0. -1.
       -4    1    3    3    0  502 -0.51458805219E+03 -0.78867351929E+03  0.42207769008E+02  0.94265046128E+03  0.12699999809E+01 0.  1.
</event>
<event>
 5   0  0.1562618E-06  0.3066781E+04  0.7818609E-02  0.8224914E-01
        1   -1    0    0  501    0  0.00000000000E+00  0.00000000000E+00  0.10797114180E+04  0.10797114180E+04  0.50400001928E-02 0.  1.
       -1   -1    0    0    0  501  0.00000000000E+00  0.00000000000E+00 -0.21776988858E+04  0.21776988858E+04  0.50400001928E-02 0. -1.
    10030    2    1    2    0    0  0.00000000000E+00  0.00000000000E+00 -0.10979874677E+04  0.32574103038E+04  0.30667809521E+04 0.  0.
        2    1    3    3  502    0  0.73383623240E+03 -0.13274640849E+04 -0.78794381782E+03  0.17092489499E+04  0.25500000920E-02 0. -1.
       -2    1    3    3    0  502 -0.73383623240E+03  0.13274640849E+04 -0.31004364993E+03  0.15481613539E+04  0.25500000920E-02 0.  1.
</event>
<event>
 5   0  0.2722449E-06  0.3458325E+04  0.7818609E-02  0.8123738E-01
        2   -1    0    0  501    0  0.00000000000E+00  0.00000000000E+00  0.31562932867E+04  0.31562932867E+04  0.25500000920E-02 0.  1.
       -2   -1    0    0    0  501  0.00000000000E+00  0.00000000000E+00 -0.94731485760E+03  0.94731485760E+03  0.25500000920E-02 0. -1.
    10030    2    1    2    0    0  0.00000000000E+00  0.00000000000E+00  0.22089784291E+04  0.41036081443E+04  0.34583253320E+04 0.  0.
        2    1    3    3  502    0 -0.61718858970E+03 -0.13993133527E+04  0.20618857160E+04  0.25671720473E+04  0.25500000920E-02 0.  1.
       -2    1    3    3    0  502  0.61718858970E+03  0.13993133527E+04  0.14709271310E+03  0.15364360971E+04  0.25500000920E-02 0. -1.
</event>
<event>
 5   0  0.4189587E-06  0.2721106E+04  0.7818609E-02  0.8328189E-01
       -2   -1    0    0    0  501  0.00000000000E+00  0.00000000000E+00  0.10660015527E+04  0.10660015527E+04  0.25500000920E-02 0. -1.
        2   -1    0    0  501    0  0.00000000000E+00  0.00000000000E+00 -0.17364928560E+04  0.17364928560E+04  0.25500000920E-02 0.  1.
    10030    2    1    2    0    0  0.00000000000E+00  0.00000000000E+00 -0.67049130333E+03  0.28024944087E+04  0.27211057170E+04 0.  0.
        1    1    3    3  502    0 -0.11627656199E+04  0.66098540041E+03 -0.59206009248E+03  0.14626895568E+04  0.50400001928E-02 0. -1.
       -1    1    3    3    0  502  0.11627656199E+04 -0.66098540041E+03 -0.78431210844E+02  0.13398048519E+04  0.50400001928E-02 0.  1.
</event>
<event>
 5   0  0.2722449E-06  0.1904272E+04  0.7818609E-02  0.8652733E-01
        2   -1    0    0  501    0  0.00000000000E+00  0.00000000000E+00  0.69344094644E+03  0.69344094645E+03  0.25500000920E-02 0. -1.
       -2   -1    0    0    0  501  0.00000000000E+00  0.00000000000E+00 -0.13073397933E+04  0.13073397933E+04  0.25500000920E-02 0.  1.
    10030    2    1    2    0    0  0.00000000000E+00  0.00000000000E+00 -0.61389884689E+03  0.20007807398E+04  0.19042719802E+04 0.  0.
        2    1    3    3  502    0  0.89837107251E+03  0.89190319911E+02 -0.62483433724E+03  0.10979268856E+04  0.25500000920E-02 0. -1.
       -2    1    3    3    0  502 -0.89837107251E+03 -0.89190319911E+02  0.10935490351E+02  0.90285385420E+03  0.25500000920E-02 0.  1.
</event>
<event>
 5   0  0.1654257E-06  0.3416723E+04  0.7818609E-02  0.8133814E-01
        1   -1    0    0  501    0  0.00000000000E+00  0.00000000000E+00  0.15019376231E+04  0.15019376231E+04  0.50400001928E-02 0.  1.
       -1   -1    0    0    0  501  0.00000000000E+00  0.00000000000E+00 -0.19431554363E+04  0.19431554363E+04  0.50400001928E-02 0. -1.
    10030    2    1    2    0    0  0.00000000000E+00  0.00000000000E+00 -0.44121781322E+03  0.34450930594E+04  0.34167225566E+04 0.  0.
        3    1    3    3  502    0  0.12651541300E+04 -0.10536681314E+04  0.23887966998E+03  0.16636991948E+04  0.10100000352E+00 0.  1.
       -3    1    3    3    0  502 -0.12651541300E+04  0.10536681314E+04 -0.68009748319E+03  0.17813938646E+04  0.10100000352E+00 0. -1.
</event>
<event>
 5   0  0.4173467E-06  0.3435513E+04  0.7818609E-02  0.8129245E-01
        2   -1    0    0  501    0  0.00000000000E+00  0.00000000000E+00  0.12482016305E+04  0.12482016305E+04  0.25500000920E-02 0.  1.
       -2   -1    0    0    0  501  0.00000000000E+00  0.00000000000E+00 -0.23639513640E+04  0.23639513641E+04  0.25500000920E-02 0. -1.
    10030    2    1    2    0    0  0.00000000000E+00  0.00000000000E+00 -0.11157497335E+04  0.36121529946E+04  0.34355133224E+04 0.  0.
        4    1    3    3  502    0  0.16425559396E+04  0.42789695042E+03 -0.83525844073E+03  0.18917568794E+04  0.12699999809E+01 0.  1.
       -4    1    3    3    0  502 -0.16425559396E+04 -0.42789695042E+03 -0.28049129279E+03  0.17203961152E+04  0.12699999809E+01 0. -1.
</event>
<event>
 5   0  0.4344980E-06  0.3445201E+04  0.7818609E-02  0.8126901E-01
       -2   -1    0    0    0  501  0.00000000000E+00  0.00000000000E+00  0.18570417247E+04  0.18570417247E+04  0.25500000920E-02 0.  1.
        2   -1    0    0  501    0  0.00000000000E+00  0.00000000000E+00 -0.15978920170E+04  0.15978920170E+04  0.25500000920E-02 0. -1.
    10030    2    1    2    0    0  0.00000000000E+00  0.00000000000E+00  0.25914970770E+03  0.34549337417E+04  0.34452008053E+04 0.  0.
        3    1    3    3  502    0 -0.68553543261E+03  0.16466723847E+03  0.17057268593E+04  0.18456918100E+04  0.10100000352E+00 0.  1.
       -3    1    3    3    0  502  0.68553543261E+03 -0.16466723847E+03 -0.14465771516E+04  0.16092419317E+04  0.10100000352E+00 0. -1.
</event>
<event>
 5   0  0.1550164E-06  0.1983484E+04  0.7818609E-02  0.8614382E-01
        1   -1    0    0  501    0  0.00000000000E+00  0.00000000000E+00  0.19732365505E+04  0.19732365505E+04  0.50400001928E-02 0. -1.
       -1   -1    0    0    0  501  0.00000000000E+00  0.00000000000E+00 -0.49844592537E+03  0.49844592540E+03  0.50400001928E-02 0.  1.
    10030    2    1    2    0    0  0.00000000000E+00  0.00000000000E+00  0.14747906251E+04  0.24716824759E+04  0.19834835199E+04 0.  0.
        4    1    3    3  502    0  0.51468339681E+03 -0.29838149025E+03 -0.25139271472E+03  0.64585634827E+03  0.12699999809E+01 0.  1.
       -4    1    3    3    0  502 -0.51468339681E+03  0.29838149025E+03  0.17261833398E+04  0.18258261276E+04  0.12699999809E+01 0. -1.
</event>
<event>
 5   0  0.1562618E-06  0.3492331E+04  0.7818609E-02  0.8115610E-01
       -1   -1    0    0    0  501  0.00000000000E+00  0.00000000000E+00  0.18812100951E+04  0.18812100951E+04  0.50400001928E-02 0.  1.
        1   -1    0    0  501    0  0.00000000000E+00  0.00000000000E+00 -0.16208153914E+04  0.16208153914E+04  0.50400001928E-02 0. -1.
    10030    2    1    2    0    0  0.00000000000E+00  0.00000000000E+00  0.26039470365E+03  0.35020254865E+04  0.34923311851E+04 0.  0.
        2    1    3    3  502    0  0.83350408508E+03  0.91708784589E+03 -0.11033861803E+04  0.16592890766E+04  0.25500000920E-02 0. -1.
       -2    1    3    3    0  502 -0.83350408508E+03 -0.91708784589E+03  0.13637808840E+04  0.18427364099E+04  0.25500000920E-02 0.  1.
</event>
<event>
 5   0  0.4400349E-06  0.3195862E+04  0.7818609E-02  0.8189911E-01
       -2   -1    0    0    0  501  0.00000000000E+00  0.00000000000E+00  0.16395880781E+04  0.16395880781E+04  0.25500000920E-02 0.  1.
        2   -1    0    0  501    0  0.00000000000E+00  0.00000000000E+00 -0.15573322827E+04  0.15573322827E+04  0.25500000920E-02 0. -1.
    10030    2    1    2    0    0  0.00000000000E+00  0.00000000000E+00  0.82255795385E+02  0.31969203607E+04  0.31958619771E+04 0.  0.
        5    1    3    3  502    0 -0.15340396535E+04  0.35845260025E+03 -0.22653393729E+03  0.15915733222E+04  0.46999998093E+01 0. -1.
       -5    1    3    3    0  502  0.15340396535E+04 -0.35845260025E+03  0.30878973267E+03  0.16053470385E+04  0.46999998093E+01 0.  1.
</event>
<event>
 5   0  0.1654257E-06  0.1879063E+04  0.7818609E-02  0.8665349E-01
        1   -1    0    0  501    0  0.00000000000E+00  0.00000000000E+00  0.17502767516E+04  0.17502767516E+04  0.50400001928E-02 0. -1.
       -1   -1    0    0    0  501  0.00000000000E+00  0.00000000000E+00 -0.50433117391E+03  0.50433117394E+03  0.50400001928E-02 0.  1.
    10030    2    1    2    0    0  0.00000000000E+00  0.00000000000E+00  0.12459455776E+04  0.22546079255E+04  0.18790626693E+04 0.  0.
        3    1    3    3  502    0 -0.43013555687E+03 -0.11728485467E+02 -0.37915266761E+03  0.57350755027E+03  0.10100000352E+00 0.  1.
       -3    1    3    3    0  502  0.43013555687E+03  0.11728485467E+02  0.16250982453E+04  0.16811003752E+04  0.10100000352E+00 0. -1.
</event>
<event>
 5   0  0.1562618E-06  0.3266574E+04  0.7818609E-02  0.8171453E-01
       -1   -1    0    0    0  501  0.00000000000E+00  0.00000000000E+00  0.14847885619E+04  0.14847885619E+04  0.50400001928E-02 0. -1.
        1   -1    0    0  501    0  0.00000000000E+00  0.00000000000E+00 -0.17966377818E+04  0.17966377818E+04  0.50400001928E-02 0.  1.
    10030    2    1    2    0    0  0.00000000000E+00  0.00000000000E+00 -0.31184921995E+03  0.32814263437E+04  0.32665744922E+04 0.  0.
        2    1    3    3  502    0 -0.59555859577E+03 -0.14198660421E+04  0.39145431438E+03  0.15886932047E+04  0.25500000920E-02 0. -1.
       -2    1    3    3    0  502  0.59555859577E+03  0.14198660421E+04 -0.70330353433E+03  0.16927331390E+04  0.25500000920E-02 0.  1.
</event>
<event>
 5   0  0.2722449E-06  0.2052673E+04  0.7818609E-02  0.8582382E-01
        2   -1    0    0  501    0  0.00000000000E+00  0.00000000000E+00  0.92869586055E+03  0.92869586056E+03  0.25500000920E-02 0.  1.
       -2   -1    0    0    0  501  0.00000000000E+00  0.00000000000E+00 -0.11342433596E+04  0.11342433596E+04  0.25500000920E-02 0. -1.
    10030    2    1    2    0    0  0.00000000000E+00  0.00000000000E+00 -0.20554749904E+03  0.20629392202E+04  0.20526734888E+04 0.  0.
        2    1    3    3  502    0  0.97326888904E+03  0.25255602410E+03  0.10399833722E+03  0.10108672167E+04  0.25500000920E-02 0.  1.
       -2    1    3    3    0  502 -0.97326888904E+03 -0.25255602410E+03 -0.30954583627E+03  0.10520720034E+04  0.25500000920E-02 0. -1.
</event>
<event>
 5   0  0.2722449E-06  0.3406543E+04  0.7818609E-02  0.8136302E-01
        2   -1    0    0  501    0  0.00000000000E+00  0.00000000000E+00  0.15666757826E+04  0.15666757826E+04  0.25500000920E-02 0.  1.
       -2   -1    0    0    0  501  0.00000000000E+00  0.00000000000E+00 -0.18517770871E+04  0.18517770871E+04  0.25500000920E-02 0. -1.
    10030    2    1    2    0    0  0.00000000000E+00  0.00000000000E+00 -0.28510130449E+03  0.34184528696E+04  0.34065433020E+04 0.  0.
        2    1    3    3  502    0 -0.62837919821E+03 -0.57565232330E+03 -0.16224601590E+04  0.18326518986E+04  0.25500000920E-02 0. -1.
       -2    1    3    3    0  502  0.62837919821E+03  0.57565232330E+03  0.13373588545E+04  0.15858009710E+04  0.25500000920E-02 0.  1.
</event>
<event>
 5   0  0.4344980E-06  0.2113385E+04  0.7818609E-02  0.8555370E-01
        2   -1    0    0  501    0  0.00000000000E+00  0.00000000000E+00  0.16362461481E+04  0.16362461481E+04  0.25500000920E-02 0.  1.
       -2   -1    0    0    0  501  0.00000000000E+00  0.00000000000E+00 -0.68241492940E+03  0.68241492941E+03  0.25500000920E-02 0. -1.
    10030    2    1    2    0    0  0.00000000000E+00  0.00000000000E+00  0.95383121870E+03  0.23186610775E+04  0.21133847730E+04 0.  0.
        3    1    3    3  502    0 -0.32305242358E+03 -0.32872139551E+02  0.15801496112E+04  0.16131696283E+04  0.10100000352E+00 0.  1.
       -3    1    3    3    0  502  0.32305242358E+03  0.32872139551E+02 -0.62631839245E+03  0.70549144918E+03  0.10100000352E+00 0. -1.
</event>
<event>
 5   0  0.1550164E-06  0.2382432E+04  0.7818609E-02  0.8446110E-01
        1   -1    0    0  501    0  0.00000000000E+00  0.00000000000E+00  0.19060158067E+04  0.19060158068E+04  0.50400001928E-02 0.  1.
       -1   -1    0    0    0  501  0.00000000000E+00  0.00000000000E+00 -0.74448245262E+03  0.74448245264E+03  0.50400001928E-02 0. -1.
    10030    2    1    2    0    0  0.00000000000E+00  0.00000000000E+00  0.11615333541E+04  0.26504982594E+04  0.23824318018E+04 0.  0.
        4    1    3    3  502    0 -0.58965765008E+03  0.26802825420E+03  0.16929833761E+04  0.18126581624E+04  0.12699999809E+01 0.  1.
       -4    1    3    3    0  502  0.58965765008E+03 -0.26802825420E+03 -0.53145002194E+03  0.83784009695E+03  0.12699999809E+01 0. -1.
</event>
<event>
 5   0  0.1562618E-06  0.3537239E+04  0.7818609E-02  0.8105021E-01
        1   -1    0    0  501    0  0.00000000000E+00  0.00000000000E+00  0.25092296730E+04  0.25092296731E+04  0.50400001928E-02 0.  1.
       -1   -1    0    0    0  501  0.00000000000E+00  0.00000000000E+00 -0.12466035340E+04  0.12466035340E+04  0.50400001928E-02 0. -1.
    10030    2    1    2    0    0  0.00000000000E+00  0.00000000000E+00  0.12626261391E+04  0.37558332070E+04  0.35372387977E+04 0.  0.
        2    1    3    3  502    0 -0.15400541280E+04  0.86957726316E+03  0.62162540343E+03  0.18746598294E+04  0.25500000920E-02 0.  1.
       -2    1    3    3    0  502  0.15400541280E+04 -0.86957726316E+03  0.64100073567E+03  0.18811733777E+04  0.25500000920E-02 0. -1.
</event>
<event>
 5   0  0.1562618E-06  0.3411585E+04  0.7818609E-02  0.8135069E-01
       -1   -1    0    0    0  501  0.00000000000E+00  0.00000000000E+00  0.13519510741E+04  0.13519510741E+04  0.50400001928E-02 0. -1.
        1   -1    0    0  501    0  0.00000000000E+00  0.00000000000E+00 -0.21522437972E+04  0.21522437972E+04  0.50400001928E-02 0.  1.
    10030    2    1    2    0    0  0.00000000000E+00  0.00000000000E+00 -0.80029272312E+03  0.35041948713E+04  0.34115851526E+04 0.  0.
        2    1    3    3  502    0  0.12370140619E+03  0.31052318479E+03 -0.21182763390E+04  0.21444862636E+04  0.25500000920E-02 0.  1.
       -2    1    3    3    0  502 -0.12370140619E+03 -0.31052318479E+03  0.13179836159E+04  0.13597086077E+04  0.25500000920E-02 0. -1.
</event>
<event>
 5   0  0.4189587E-06  0.3373431E+04  0.7818609E-02  0.8144458E-01
       -2   -1    0    0    0  501  0.00000000000E+00  0.00000000000E+00  0.15722597116E+04  0.15722597116E+04  0.25500000920E-02 0.  1.
        2   -1    0    0  501    0  0.00000000000E+00  0.00000000000E+00 -0.18095032939E+04  0.18095032939E+04  0.25500000920E-02 0. -1.
    10030    2    1    2    0    0  0.00000000000E+00  0.00000000000E+00 -0.23724358231E+03  0.33817630054E+04  0.33734309698E+04 0.  0.
        1    1    3    3  502    0  0.51497867465E+03 -0.16012675640E+04  0.71803125110E+01  0.16820560050E+04  0.50400001928E-02 0.  1.
       -1    1    3    3    0  502 -0.51497867465E+03  0.16012675640E+04 -0.24442389482E+03  0.16997070005E+04  0.50400001928E-02 0. -1.
</event>
<event>
 5   0  0.2722449E-06  0.3441350E+04  0.7818609E-02  0.8127832E-01
       -2   -1    0    0    0  501  0.00000000000E+00  0.00000000000E+00  0.10972473106E+04  0.10972473106E+04  0.25500000920E-02 0. -1.
        2   -1    0    0  501    0  0.00000000000E+00  0.00000000000E+00 -0.26983186523E+04  0.26983186523E+04  0.25500000920E-02 0.  1.
    10030    2    1    2    0    0  0.00000000000E+00  0.00000000000E+00 -0.16010713417E+04  0.37955659628E+04  0.34413502491E+04 0.  0.
        2    1    3    3  502    0 -0.10334901947E+04 -0.13717312523E+04 -0.68499482228E+03  0.18490447581E+04  0.25500000920E-02 0.  1.
       -2    1    3    3    0  502  0.10334901947E+04  0.13717312523E+04 -0.91607651941E+03  0.19465212047E+04  0.25500000920E-02 0. -1.
</event>
<event>
 5   0  0.2722449E-06  0.3046821E+04  0.7818609E-02  0.8230486E-01
       -2   -1    0    0    0  501  0.00000000000E+00  0.00000000000E+00  0.12531945230E+04  0.12531945230E+04  0.25500000920E-02 0. -1.
        2   -1    0    0  501    0  0.00000000000E+00  0.00000000000E+00 -0.18518906083E+04  0.18518906083E+04  0.25500000920E-02 0.  1.
    10030    2    1    2    0    0  0.00000000000E+00  0.00000000000E+00 -0.59869608530E+03  0.31050851313E+04  0.30468207479E+04 0.  0.
        2    1    3    3  502    0 -0.42860889603E+03 -0.83755129141E+03 -0.15204179294E+04  0.17879788678E+04  0.25500000920E-02 0.  1.
       -2    1    3    3    0  502  0.42860889603E+03  0.83755129141E+03  0.92172184410E+03  0.13171062635E+04  0.25500000920E-02 0. -1.
</event>
<event>
 5   0  0.1562618E-06  0.3083107E+04  0.7818609E-02  0.8220389E-01
        1   -1    0    0  501    0  0.00000000000E+00  0.00000000000E+00  0.15106433519E+04  0.15106433519E+04  0.50400001928E-02 0.  1.
       -1   -1    0    0    0  501  0.00000000000E+00  0.00000000000E+00 -0.15730966080E+04  0.15730966080E+04  0.50400001928E-02 0. -1.
    10030    2    1    2    0    0  0.00000000000E+00  0.00000000000E+00 -0.62453256131E+02  0.30837399599E+04  0.30831074797E+04 0.  0.
        2    1    3    3  502    0 -0.13042907268E+04 -0.31300312602E+03 -0.79114737108E+03  0.15572602286E+04  0.25500000920E-02 0. -1.
       -2    1    3    3    0  502  0.13042907268E+04  0.31300312602E+03  0.72869411495E+03  0.15264797313E+04  0.25500000920E-02 0.  1.
</event>
<event>
 5   0  0.2101998E-06  0.3320441E+04  0.7818609E-02  0.8157714E-01
       -1   -1    0    0    0  501  0.00000000000E+00  0.00000000000E+00  0.14571530768E+04  0.14571530768E+04  0.50400001928E-02 0.  1.
        1   -1    0    0  501    0  0.00000000000E+00  0.00000000000E+00 -0.18915867769E+04  0.18915867769E+04  0.50400001928E-02 0. -1.
    10030    2    1    2    0    0  0.00000000000E+00  0.00000000000E+00 -0.43443370006E+03  0.33487398537E+04  0.33204406286E+04 0.  0.
        5    1    3    3  502    0  0.10073541396E+04 -0.30705170496E+03  0.10771804461E+04  0.15064471167E+04  0.46999998093E+01 0.  1.
       -5    1    3    3    0  502 -0.10073541396E+04  0.30705170496E+03 -0.15116141461E+04  0.18422927370E+04  0.46999998093E+01 0. -1.
</event>
<event>
 5   0  0.4173467E-06  0.3420205E+04  0.7818609E-02  0.8132965E-01
        2   -1    0    0  501    0  0.00000000000E+00  0.00000000000E+00  0.12549155153E+04  0.12549155153E+04  0.25500000920E-02 0. -1.
       -2   -1    0    0    0  501  0.00000000000E+00  0.00000000000E+00 -0.23303968490E+04  0.23303968490E+04  0.25500000920E-02 0.  1.
    10030    2    1    2    0    0  0.00000000000E+00  0.00000000000E+00 -0.10754813337E+04  0.35853123643E+04  0.34202053521E+04 0.  0.
        4    1    3    3  502    0 -0.36166326840E+03  0.79427625060E+03  0.10038903288E+04  0.13302152033E+04  0.12699999809E+01 0. -1.
       -4    1    3    3    0  502  0.36166326840E+03 -0.79427625060E+03 -0.20793716625E+04  0.22550971610E+04  0.12699999809E+01 0.  1.
</event>
<event>
 5   0  0.4344980E-06  0.1768598E+04  0.7818609E-02  0.8723179E-01
        2   -1    0    0  501    0  0.00000000000E+00  0.00000000000E+00  0.11491755179E+04  0.11491755180E+04  0.25500000920E-02 0.  1.
       -2   -1    0    0    0  501  0.00000000000E+00  0.00000000000E+00 -0.68047435399E+03  0.68047435399E+03  0.25500000920E-02 0. -1.
    10030    2    1    2    0    0  0.00000000000E+00  0.00000000000E+00  0.46870116396E+03  0.18296498719E+04  0.17685977137E+04 0.  0.
        3    1    3    3  502    0  0.16831671728E+03  0.79514758623E+03  0.59479474801E+03  0.10071598700E+04  0.10100000352E+00 0.  1.
       -3    1    3    3    0  502 -0.16831671728E+03 -0.79514758623E+03 -0.12609358405E+03  0.82249000198E+03  0.10100000352E+00 0. -1.
</event>
<event>
 5   0  0.4400349E-06  0.3459658E+04  0.7818609E-02  0.8123417E-01
       -2   -1    0    0    0  501  0.00000000000E+00  0.00000000000E+00  0.14345684499E+04  0.14345684499E+04  0.25500000920E-02 0. -1.
        2   -1    0    0  501    0  0.00000000000E+00  0.00000000000E+00 -0.20858599550E+04  0.20858599550E+04  0.25500000920E-02 0.  1.
    10030    2    1    2    0    0  0.00000000000E+00  0.00000000000E+00 -0.65129150515E+03  0.35204284049E+04  0.34596582966E+04 0.  0.
        5    1    3    3  502    0 -0.43587947443E+03  0.92360271886E+03 -0.17463265657E+04  0.20230450965E+04  0.46999998093E+01 0.  1.
       -5    1    3    3    0  502  0.43587947443E+03 -0.92360271886E+03  0.10950350605E+04  0.14973833084E+04  0.46999998093E+01 0. -1.
</event>
<event>
 5   0  0.4344980E-06  0.3429584E+04  0.7818609E-02  0.8130683E-01
       -2   -1    0    0    0  501  0.00000000000E+00  0.00000000000E+00  0.16325541203E+04  0.16325541203E+04  0.25500000920E-02 0. -1.
        2   -1    0    0  501    0  0.00000000000E+00  0.00000000000E+00 -0.18011720787E+04  0.18011720787E+04  0.25500000920E-02 0.  1.
    10030    2    1    2    0    0  0.00000000000E+00  0.00000000000E+00 -0.16861795838E+03  0.34337261991E+04  0.34295835891E+04 0.  0.
        3    1    3    3  502    0  0.37453925518E+02  0.85890975909E+03  0.14011887317E+04  0.16439156434E+04  0.10100000352E+00 0. -1.
       -3    1    3    3    0  502 -0.37453925518E+02 -0.85890975909E+03 -0.15698066900E+04  0.17898105556E+04  0.10100000352E+00 0.  1.
</event>
<event>
 5   0  0.2722449E-06  0.3357911E+04  0.7818609E-02  0.8148314E-01
       -2   -1    0    0    0  501  0.00000000000E+00  0.00000000000E+00  0.14633677058E+04  0.14633677058E+04  0.25500000920E-02 0.  1.
        2   -1    0    0  501    0  0.00000000000E+00  0.00000000000E+00 -0.19263045345E+04  0.19263045345E+04  0.25500000920E-02 0. -1.
    10030    2    1    2    0    0  0.00000000000E+00  0.00000000000E+00 -0.46293682868E+03  0.33896722403E+04  0.33579111646E+04 0.  0.
        2    1    3    3  502    0  0.70427738357E+02 -0.16290309224E+04 -0.63549156615E+03  0.17500146694E+04  0.25500000920E-02 0. -1.
       -2    1    3    3    0  502 -0.70427738357E+02  0.16290309224E+04  0.17255473747E+03  0.16396575709E+04  0.25500000920E-02 0.  1.
</event>
<event>
 5   0  0.4344980E-06  0.3362898E+04  0.7818609E-02  0.8147073E-01
       -2   -1    0    0    0  501  0.00000000000E+00  0.00000000000E+00  0.14039778344E+04  0.14039778344E+04  0.25500000920E-02 0.  1.
        2   -1    0    0  501    0  0.00000000000E+00  0.00000000000E+00 -0.20137576758E+04  0.20137576758E+04  0.25500000920E-02 0. -1.
    10030    2    1    2    0    0  0.00000000000E+00  0.00000000000E+00 -0.60977984133E+03  0.34177355102E+04  0.33628982385E+04 0.  0.
        3    1    3    3  502    0 -0.16234652360E+04 -0.30360070789E+02 -0.74871463821E+03  0.17880533343E+04  0.10100000352E+00 0. -1.
       -3    1    3    3    0  502  0.16234652360E+04  0.30360070789E+02  0.13893479687E+03  0.16296821759E+04  0.10100000352E+00 0.  1.
</event>
<event>
 5   0  0.1654257E-06  0.3352828E+04  0.7818609E-02  0.8149582E-01
        1   -1    0    0  501    0  0.00000000000E+00  0.00000000000E+00  0.25856835067E+04  0.25856835067E+04  0.50400001928E-02 0. -1.
       -1   -1    0    0    0  501  0.00000000000E+00  0.00000000000E+00 -0.10868940515E+04  0.10868940515E+04  0.50400001928E-02 0.  1.
    10030    2    1    2    0    0  0.00000000000E+00  0.00000000000E+00  0.14987894552E+04  0.36725775582E+04  0.33528280734E+04 0.  0.
        3    1    3    3  502    0  0.15414267766E+04 -0.63851506246E+03  0.57052419965E+03  0.17632912026E+04  0.10100000352E+00 0.  1.
       -3    1    3    3    0  502 -0.15414267766E+04  0.63851506246E+03  0.92826525551E+03  0.19092863555E+04  0.10100000352E+00 0. -1.
</event>
<event>
 5   0  0.2101998E-06  0.3354159E+04  0.7818609E-02  0.8149250E-01
       -1   -1    0    0    0  501  0.00000000000E+00  0.00000000000E+00  0.14997896210E+04  0.14997896210E+04  0.50400001928E-02 0.  1.
        1   -1    0    0  501    0  0.00000000000E+00  0.00000000000E+00 -0.18753267565E+04  0.18753267566E+04  0.50400001928E-02 0. -1.
    10030    2    1    2    0    0  0.00000000000E+00  0.00000000000E+00 -0.37553713553E+03  0.33751163776E+04  0.33541589739E+04 0.  0.
        5    1    3    3  502    0 -0.12124132320E+04 -0.16813434157E+03 -0.13413865871E+04  0.18159171424E+04  0.46999998093E+01 0. -1.
       -5    1    3    3    0  502  0.12124132320E+04  0.16813434157E+03  0.96584945154E+03  0.15591992352E+04  0.46999998093E+01 0.  1.
</event>
<event>
 5   0  0.4173467E-06  0.1869877E+04  0.7818609E-02  0.8669997E-01
        2   -1    0    0  501    0  0.00000000000E+00  0.00000000000E+00  0.11595730757E+04  0.11595730757E+04  0.25500000920E-02 0. -1.
       -2   -1    0    0    0  501  0.00000000000E+00  0.00000000000E+00 -0.75382090759E+03  0.75382090759E+03  0.25500000920E-02 0.  1.
    10030    2    1    2    0    0  0.00000000000E+00  0.00000000000E+00  0.40575216807E+03  0.19133939833E+04  0.18698774594E+04 0.  0.
        4    1    3    3  502    0 -0.76313920352E+03 -0.50711340235E+03  0.39311496783E+03  0.99703883456E+03  0.12699999809E+01 0. -1.
       -4    1    3    3    0  502  0.76313920352E+03  0.50711340235E+03  0.12637200235E+02  0.91635514869E+03  0.12699999809E+01 0.  1.
</event>
<event>
 5   0  0.1562618E-06  0.3377089E+04  0.7818609E-02  0.8143552E-01
       -1   -1    0    0    0  501  0.00000000000E+00  0.00000000000E+00  0.15608531639E+04  0.15608531639E+04  0.50400001928E-02 0. -1.
        1   -1    0    0  501    0  0.00000000000E+00  0.00000000000E+00 -0.18266823036E+04  0.18266823036E+04  0.50400001928E-02 0.  1.
    10030    2    1    2    0    0  0.00000000000E+00  0.00000000000E+00 -0.26582913970E+03  0.33875354674E+04  0.33770891921E+04 0.  0.
        2    1    3    3  502    0  0.73294661558E+03 -0.27134854733E+03 -0.16343217482E+04  0.18115872466E+04  0.25500000920E-02 0.  1.
       -2    1    3    3    0  502 -0.73294661558E+03  0.27134854733E+03  0.13684926085E+04  0.15759482209E+04  0.25500000920E-02 0. -1.
</event>
<event>
 5   0  0.2722449E-06  0.3416330E+04  0.7818609E-02  0.8133910E-01
        2   -1    0    0  501    0  0.00000000000E+00  0.00000000000E+00  0.20130724415E+04  0.20130724415E+04  0.25500000920E-02 0. -1.
       -2   -1    0    0    0  501  0.00000000000E+00  0.00000000000E+00 -0.14494395556E+04  0.14494395556E+04  0.25500000920E-02 0.  1.
    10030    2    1    2    0    0  0.00000000000E+00  0.00000000000E+00  0.56363288595E+03  0.34625119971E+04  0.34163295069E+04 0.  0.
        2    1    3    3  502    0 -0.42186531254E+03 -0.10909072699E+04  0.15435459341E+04  0.19366422138E+04  0.25500000920E-02 0. -1.
       -2    1    3    3    0  502  0.42186531254E+03  0.10909072699E+04 -0.97991304818E+03  0.15258697833E+04  0.25500000920E-02 0.  1.
</event>
<event>
 5   0  0.1824592E-06  0.1819532E+04  0.7818609E-02  0.8695981E-01
       -1   -1    0    0    0  501  0.00000000000E+00  0.00000000000E+00  0.99836132424E+03  0.99836132425E+03  0.50400001928E-02 0. -1.
        1   -1    0    0  501    0  0.00000000000E+00  0.00000000000E+00 -0.82903258592E+03  0.82903258594E+03  0.50400001928E-02 0.  1.
    10030    2    1    2    0    0  0.00000000000E+00  0.00000000000E+00  0.16932873832E+03  0.18273939102E+04  0.18195318852E+04 0.  0.
        1    1    3    3  502    0 -0.12842265436E+03  0.87414177630E+02  0.98494182661E+03  0.99711785584E+03  0.50400001928E-02 0. -1.
       -1    1    3    3    0  502  0.12842265436E+03 -0.87414177630E+02 -0.81561308829E+03  0.83027605435E+03  0.50400001928E-02 0.  1.
</event>
<event>
 5   0  0.4173467E-06  0.1961620E+04  0.7818609E-02  0.8624778E-01
        2   -1    0    0  501    0  0.00000000000E+00  0.00000000000E+00  0.14450418821E+04  0.14450418821E+04  0.25500000920E-02 0. -1.
       -2   -1    0    0    0  501  0.00000000000E+00  0.00000000000E+00 -0.66571620903E+03  0.66571620904E+03  0.25500000920E-02 0.  1.
    10030    2    1    2    0    0  0.00000000000E+00  0.00000000000E+00  0.77932567311E+03  0.21107580912E+04  0.19616195387E+04 0.  0.
        4    1    3    3  502    0  0.91806528553E+03  0.39578405022E+02  0.20699860593E+02  0.91915200906E+03  0.12699999809E+01 0.  1.
       -4    1    3    3    0  502 -0.91806528553E+03 -0.39578405022E+02  0.75862581251E+03  0.11916060821E+04  0.12699999809E+01 0. -1.
</event>
<event>
 5   0  0.1562618E-06  0.3401311E+04  0.7818609E-02  0.8137585E-01
        1   -1    0    0  501    0  0.00000000000E+00  0.00000000000E+00  0.13995927755E+04  0.13995927755E+04  0.50400001928E-02 0.  1.
       -1   -1    0    0    0  501  0.00000000000E+00  0.00000000000E+00 -0.20664789998E+04  0.20664789998E+04  0.50400001928E-02 0. -1.
    10030    2    1    2    0    0  0.00000000000E+00  0.00000000000E+00 -0.66688622429E+03  0.34660717754E+04  0.34013109702E+04 0.  0.
        2    1    3    3  502    0 -0.16352778542E+04 -0.10999008822E+03 -0.79595435182E+03  0.18220249203E+04  0.25500000920E-02 0. -1.
       -2    1    3    3    0  502  0.16352778542E+04  0.10999008822E+03  0.12906812753E+03  0.16440468551E+04  0.25500000920E-02 0.  1.
</event>
<event>
 5   0  0.4400349E-06  0.3356308E+04  0.7818609E-02  0.8148714E-01
        2   -1    0    0  501    0  0.00000000000E+00  0.00000000000E+00  0.94904309296E+03  0.94904309296E+03  0.25500000920E-02 0. -1.
       -2   -1    0    0    0  501  0.00000000000E+00  0.00000000000E+00 -0.29674118085E+04  0.29674118085E+04  0.25500000920E-02 0.  1.
    10030    2    1    2    0    0  0.00000000000E+00  0.00000000000E+00 -0.20183687156E+04  0.39164549015E+04  0.33563084965E+04 0.  0.
        5    1    3    3  502    0  0.13919391133E+04 -0.28238134760E+03 -0.20521978724E+04  0.24957507724E+04  0.46999998093E+01 0.  1.
       -5    1    3    3    0  502 -0.13919391133E+04  0.28238134760E+03  0.33829156782E+02  0.14207041291E+04  0.46999998093E+01 0. -1.
</event>
<event>
 5   0  0.1562618E-06  0.3354528E+04  0.7818609E-02  0.8149158E-01
       -1   -1    0    0    0  501  0.00000000000E+00  0.00000000000E+00  0.10715901695E+04  0.10715901695E+04  0.50400001928E-02 0. -1.
        1   -1    0    0  501    0  0.00000000000E+00  0.00000000000E+00 -0.26252715358E+04  0.26252715358E+04  0.50400001928E-02 0.  1.
    10030    2    1    2    0    0  0.00000000000E+00  0.00000000000E+00 -0.15536813663E+04  0.36968617053E+04  0.33545283842E+04 0.  0.
        2    1    3    3  502    0  0.84953926202E+03  0.14457014320E+04 -0.81874155839E+03  0.18660405482E+04  0.25500000920E-02 0.  1.
       -2    1    3    3    0  502 -0.84953926202E+03 -0.14457014320E+04 -0.73493980790E+03  0.18308211571E+04  0.25500000920E-02 0. -1.
</event>
<event>
 5   0  0.1654257E-06  0.3371590E+04  0.7818609E-02  0.8144914E-01
       -1   -1    0    0    0  501  0.00000000000E+00  0.00000000000E+00  0.13699765633E+04  0.13699765633E+04  0.50400001928E-02 0.  1.
        1   -1    0    0  501    0  0.00000000000E+00  0.00000000000E+00 -0.20744188723E+04  0.20744188723E+04  0.50400001928E-02 0. -1.
    10030    2    1    2    0    0  0.00000000000E+00  0.00000000000E+00 -0.70444230906E+03  0.34443954356E+04  0.33715902702E+04 0.  0.
        3    1    3    3  502    0 -0.51150771976E+03  0.15969318822E+04 -0.52938342538E+03  0.17584306654E+04  0.10100000352E+00 0. -1.
       -3    1    3    3    0  502  0.51150771976E+03 -0.15969318822E+04 -0.17505888368E+03  0.16859647703E+04  0.10100000352E+00 0.  1.
</event>
<event>
 5   0  0.4173467E-06  0.3344892E+04  0.7818609E-02  0.8151566E-01
        2   -1    0    0  501    0  0.00000000000E+00  0.00000000000E+00  0.16157453776E+04  0.16157453776E+04  0.25500000920E-02 0.  1.
       -2   -1    0    0    0  501  0.00000000000E+00  0.00000000000E+00 -0.17311362365E+04  0.17311362365E+04  0.25500000920E-02 0. -1.
    10030    2    1    2    0    0  0.00000000000E+00  0.00000000000E+00 -0.11539085888E+03  0.33468816141E+04  0.33448918501E+04 0.  0.
        4    1    3    3  502    0 -0.26516951874E+03 -0.15870865224E+04 -0.51394392878E+03  0.16891709440E+04  0.12699999809E+01 0. -1.
       -4    1    3    3    0  502  0.26516951874E+03  0.15870865224E+04  0.39855306991E+03  0.16577106701E+04  0.12699999809E+01 0.  1.
</event>
<event>
 5   0  0.1654257E-06  0.3219442E+04  0.7818609E-02  0.8183701E-01
        1   -1    0    0  501    0  0.00000000000E+00  0.00000000000E+00  0.16547773284E+04  0.16547773284E+04  0.50400001928E-02 0.  1.
       -1   -1    0    0    0  501  0.00000000000E+00  0.00000000000E+00 -0.15658915483E+04  0.15658915483E+04  0.50400001928E-02 0. -1.
    10030    2    1    2    0    0  0.00000000000E+00  0.00000000000E+00  0.88885780146E+02  0.32206688767E+04  0.32194420839E+04 0.  0.
        3    1    3    3  502    0  0.46574444843E+03  0.93199705089E+03 -0.11830802819E+04  0.15764565829E+04  0.10100000352E+00 0. -1.
       -3    1    3    3    0  502 -0.46574444843E+03 -0.93199705089E+03  0.12719660620E+04  0.16442122939E+04  0.10100000352E+00 0.  1.
</event>
<event>
 5   0  0.4189587E-06  0.3534837E+04  0.7818609E-02  0.8105583E-01
       -2   -1    0    0    0  501  0.00000000000E+00  0.00000000000E+00  0.24837129633E+04  0.24837129633E+04  0.25500000920E-02 0.  1.
        2   -1    0    0  501    0  0.00000000000E+00  0.00000000000E+00 -0.12577006458E+04  0.12577006458E+04  0.25500000920E-02 0. -1.
    10030    2    1    2    0    0  0.00000000000E+00  0.00000000000E+00  0.12260123175E+04  0.37414136092E+04  0.35348365722E+04 0.  0.
        1    1    3    3  502    0  0.74287430173E+03  0.26036481505E+03 -0.10619118252E+04  0.13218580822E+04  0.50400001928E-02 0. -1.
       -1    1    3    3    0  502 -0.74287430173E+03 -0.26036481505E+03  0.22879241427E+04  0.24195555269E+04  0.50400001928E-02 0.  1.
</event>
<event>
 5   0  0.1571391E-06  0.3006075E+04  0.7818609E-02  0.8241998E-01
        1   -1    0    0  501    0  0.00000000000E+00  0.00000000000E+00  0.16013951596E+04  0.16013951596E+04  0.50400001928E-02 0. -1.
       -1   -1    0    0    0  501  0.00000000000E+00  0.00000000000E+00 -0.14107209430E+04  0.14107209430E+04  0.50400001928E-02 0.  1.
    10030    2    1    2    0    0  0.00000000000E+00  0.00000000000E+00  0.19067421653E+03  0.30121161026E+04  0.30060749756E+04 0.  0.
        1    1    3    3  502    0 -0.33903245196E+03 -0.51472450061E+03 -0.12782706027E+04  0.14191053691E+04  0.50400001928E-02 0.  1.
       -1    1    3    3    0  502  0.33903245196E+03  0.51472450061E+03  0.14689448192E+04  0.15930107335E+04  0.50400001928E-02 0. -1.
</event>
<event>
 5   0  0.1654257E-06  0.2357530E+04  0.7818609E-02  0.8455577E-01
       -1   -1    0    0    0  501  0.00000000000E+00  0.00000000000E+00  0.99036578050E+03  0.99036578051E+03  0.50400001928E-02 0. -1.
        1   -1    0    0  501    0  0.00000000000E+00  0.00000000000E+00 -0.14030038479E+04  0.14030038479E+04  0.50400001928E-02 0.  1.
    10030    2    1    2    0    0  0.00000000000E+00  0.00000000000E+00 -0.41263806740E+03  0.23933696284E+04  0.23575300642E+04 0.  0.
        3    1    3    3  502    0  0.49476498933E+03  0.84949305918E+03  0.45399653387E+03  0.10828405770E+04  0.10100000352E+00 0. -1.
       -3    1    3    3    0  502 -0.49476498933E+03 -0.84949305918E+03 -0.86663460127E+03  0.13105290514E+04  0.10100000352E+00 0.  1.
</event>
<event>
 5   0  0.2722449E-06  0.3379968E+04  0.7818609E-02  0.8142840E-01
       -2   -1    0    0    0  501  0.00000000000E+00  0.00000000000E+00  0.11981713795E+04  0.11981713795E+04  0.25500000920E-02 0.  1.
        2   -1    0    0  501    0  0.00000000000E+00  0.00000000000E+00 -0.23836707280E+04  0.23836707280E+04  0.25500000920E-02 0. -1.
    10030    2    1    2    0    0  0.00000000000E+00  0.00000000000E+00 -0.11854993485E+04  0.35818421075E+04  0.33799680735E+04 0.  0.
        2    1    3    3  502    0  0.72210683239E+03  0.19580433648E+03  0.10131010318E+04  0.12594249943E+04  0.25500000920E-02 0.  1.
       -2    1    3    3    0  502 -0.72210683239E+03 -0.19580433648E+03 -0.21986003803E+04  0.23224171132E+04  0.25500000920E-02 0. -1.
</event>
<event>
 5   0  0.2722449E-06  0.2989207E+04  0.7818609E-02  0.8246820E-01
        2   -1    0    0  501    0  0.00000000000E+00  0.00000000000E+00  0.18258557758E+04  0.18258557758E+04  0.25500000920E-02 0. -1.
       -2   -1    0    0    0  501  0.00000000000E+00  0.00000000000E+00 -0.12234477511E+04  0.12234477511E+04  0.25500000920E-02 0.  1.
    10030    2    1    2    0    0  0.00000000000E+00  0.00000000000E+00  0.60240802467E+03  0.30493035268E+04  0.29892066791E+04 0.  0.
        2    1    3    3  502    0  0.14445525666E+04  0.38293280000E+03  0.32330748349E+03  0.15290184354E+04  0.25500000920E-02 0. -1.
       -2    1    3    3    0  502 -0.14445525666E+04 -0.38293280000E+03  0.27910054118E+03  0.15202850914E+04  0.25500000920E-02 0.  1.
</event>
<event>
 5   0  0.1550164E-06  0.2258892E+04  0.7818609E-02  0.8494308E-01
       -1   -1    0    0    0  501  0.00000000000E+00  0.00000000000E+00  0.10071447831E+04  0.10071447831E+04  0.50400001928E-02 0. -1.
        1   -1    0    0  501    0  0.00000000000E+00  0.00000000000E+00 -0.12665982708E+04  0.12665982709E+04  0.50400001928E-02 0.  1.
    10030    2    1    2    0    0  0.00000000000E+00  0.00000000000E+00 -0.25945348777E+03  0.22737430539E+04  0.22588916227E+04 0.  0.
        4    1    3    3  502    0  0.13294132084E+03 -0.21105252738E+03  0.97907345290E+03  0.10103479614E+04  0.12699999809E+01 0. -1.
       -4    1    3    3    0  502 -0.13294132084E+03  0.21105252738E+03 -0.12385269407E+04  0.12633950925E+04  0.12699999809E+01 0.  1.
</event>
<event>
 5   0  0.4344980E-06  0.2396335E+04  0.7818609E-02  0.8440877E-01
       -2   -1    0    0    0  501  0.00000000000E+00  0.00000000000E+00  0.12216757895E+04  0.12216757895E+04  0.25500000920E-02 0. -1.
        2   -1    0    0  501    0  0.00000000000E+00  0.00000000000E+00 -0.11751115036E+04  0.11751115036E+04  0.25500000920E-02 0.  1.
    10030    2    1    2    0    0  0.00000000000E+00  0.00000000000E+00  0.46564285947E+02  0.23967872932E+04  0.23963349298E+04 0.  0.
        3    1    3    3  502    0 -0.48410759577E+03  0.10956120194E+04  0.52942459831E+02  0.11989698811E+04  0.10100000352E+00 0.  1.
       -3    1    3    3    0  502  0.48410759577E+03 -0.10956120194E+04 -0.63781738840E+01  0.11978174121E+04  0.10100000352E+00 0. -1.
</event>
<event>
 5   0  0.1550164E-06  0.3403673E+04  0.7818609E-02  0.8137005E-01
        1   -1    0    0  501    0  0.00000000000E+00  0.00000000000E+00  0.13144573522E+04  0.13144573522E+04  0.50400001928E-02 0. -1.
       -1   -1    0    0    0  501  0.00000000000E+00  0.00000000000E+00 -0.22033793304E+04  0.22033793304E+04  0.50400001928E-02 0.  1.
    10030    2    1    2    0    0  0.00000000000E+00  0.00000000000E+00 -0.88892197828E+03  0.35178366826E+04  0.34036734041E+04 0.  0.
        4    1    3    3  502    0  0.96245260422E+03  0.88254356474E+03  0.68349588425E+03  0.14738949745E+04  0.12699999809E+01 0. -1.
       -4    1    3    3    0  502 -0.96245260422E+03 -0.88254356474E+03 -0.15724178625E+04  0.20439417082E+04  0.12699999809E+01 0.  1.
</event>
<event>
 5   0  0.2722449E-06  0.3355676E+04  0.7818609E-02  0.8148871E-01
        2   -1    0    0  501    0  0.00000000000E+00  0.00000000000E+00  0.13914057606E+04  0.13914057606E+04  0.25500000920E-02 0.  1.
       -2   -1    0    0    0  501  0.00000000000E+00  0.00000000000E+00 -0.20232346262E+04  0.20232346262E+04  0.25500000920E-02 0. -1.
    10030    2    1    2    0    0  0.00000000000E+00  0.00000000000E+00 -0.63182886562E+03  0.34146403868E+04  0.33556759760E+04 0.  0.
        2    1    3    3  502    0  0.93783695204E+03  0.53381304138E+03 -0.16232645189E+04  0.19492260541E+04  0.25500000920E-02 0. -1.
       -2    1    3    3    0  502 -0.93783695204E+03 -0.53381304138E+03  0.99143565328E+03  0.14654143327E+04  0.25500000920E-02 0.  1.
</event>
<event>
 5   0  0.1562618E-06  0.3369771E+04  0.7818609E-02  0.8145366E-01
       -1   -1    0    0    0  501  0.00000000000E+00  0.00000000000E+00  0.11695698637E+04  0.11695698637E+04  0.50400001928E-02 0.  1.
        1   -1    0    0  501    0  0.00000000000E+00  0.00000000000E+00 -0.24272500646E+04  0.24272500646E+04  0.50400001928E-02 0. -1.
    10030    2    1    2    0    0  0.00000000000E+00  0.00000000000E+00 -0.12576802009E+04  0.35968199284E+04  0.33697706315E+04 0.  0.
        2    1    3    3  502    0 -0.13874178593E+04  0.57734872750E+03 -0.14421365724E+04  0.20827908591E+04  0.25500000920E-02 0. -1.
       -2    1    3    3    0  502  0.13874178593E+04 -0.57734872750E+03  0.18445637145E+03  0.15140290692E+04  0.25500000920E-02 0.  1.
</event>
<event>
 5   0  0.1562618E-06  0.1901748E+04  0.7818609E-02  0.8653987E-01
        1   -1    0    0  501    0  0.00000000000E+00  0.00000000000E+00  0.23119940887E+04  0.23119940887E+04  0.50400001928E-02 0. -1.
       -1   -1    0    0    0  501  0.00000000000E+00  0.00000000000E+00 -0.39107422561E+03  0.39107422564E+03  0.50400001928E-02 0.  1.
    10030    2    1    2    0    0  0.00000000000E+00  0.00000000000E+00  0.19209198631E+04  0.27030683143E+04  0.19017479306E+04 0.  0.
        2    1    3    3  502    0  0.85124133677E+03  0.38027960523E+03  0.69478762156E+03  0.11627356667E+04  0.25500000920E-02 0.  1.
       -2    1    3    3    0  502 -0.85124133677E+03 -0.38027960523E+03  0.12261322415E+04  0.15403326476E+04  0.25500000920E-02 0. -1.
</event>
<event>
 5   0  0.2722449E-06  0.3310135E+04  0.7818609E-02  0.8160321E-01
        2   -1    0    0  501    0  0.00000000000E+00  0.00000000000E+00  0.13968029095E+04  0.13968029095E+04  0.25500000920E-02 0. -1.
       -2   -1    0    0    0  501  0.00000000000E+00  0.00000000000E+00 -0.19610848327E+04  0.19610848327E+04  0.25500000920E-02 0.  1.
    10030    2    1    2    0    0  0.00000000000E+00  0.00000000000E+00 -0.56428192322E+03  0.33578877422E+04  0.33101353447E+04 0.  0.
        2    1    3    3  502    0 -0.45883094390E+03 -0.53098937339E+03  0.12384067894E+04  0.14234208533E+04  0.25500000920E-02 0. -1.
       -2    1    3    3    0  502  0.45883094390E+03  0.53098937339E+03 -0.18026887126E+04  0.19344668889E+04  0.25500000920E-02 0.  1.
</event>
<event>
 5   0  0.2101998E-06  0.3322672E+04  0.7818609E-02  0.8157150E-01
        1   -1    0    0  501    0  0.00000000000E+00  0.00000000000E+00  0.17655339593E+04  0.17655339593E+04  0.50400001928E-02 0. -1.
       -1   -1    0    0    0  501  0.00000000000E+00  0.00000000000E+00 -0.15632874514E+04  0.15632874514E+04  0.50400001928E-02 0.  1.
    10030    2    1    2    0    0  0.00000000000E+00  0.00000000000E+00  0.20224650791E+03  0.33288214107E+04  0.33226718668E+04 0.  0.
        5    1    3    3  502    0 -0.16371795659E+04  0.13301732055E+03  0.35051056908E+03  0.16795625286E+04  0.46999998093E+01 0.  1.
       -5    1    3    3    0  502  0.16371795659E+04 -0.13301732055E+03 -0.14826406117E+03  0.16492588821E+04  0.46999998093E+01 0. -1.
</event>
<event>
 5   0  0.1550164E-06  0.3294984E+04  0.7818609E-02  0.8164173E-01
        1   -1    0    0  501    0  0.00000000000E+00  0.00000000000E+00  0.13370874124E+04  0.13370874124E+04  0.50400001928E-02 0.  1.
       -1   -1    0    0    0  501  0.00000000000E+00  0.00000000000E+00 -0.20299571152E+04  0.20299571152E+04  0.50400001928E-02 0. -1.
    10030    2    1    2    0    0  0.00000000000E+00  0.00000000000E+00 -0.69286970281E+03  0.33670445277E+04  0.32949841314E+04 0.  0.
        4    1    3    3  502    0  0.12315229810E+03 -0.30923824522E+02 -0.20249490291E+04  0.20289265523E+04  0.12699999809E+01 0. -1.
       -4    1    3    3    0  502 -0.12315229810E+03  0.30923824522E+02  0.13320793263E+04  0.13381179753E+04  0.12699999809E+01 0.  1.
</event>
<event>
 5   0  0.2558299E-06  0.1848962E+04  0.7818609E-02  0.8680687E-01
        1   -1    0    0  501    0  0.00000000000E+00  0.00000000000E+00  0.10611524317E+04  0.10611524317E+04  0.50400001928E-02 0. -1.
       -1   -1    0    0    0  501  0.00000000000E+00  0.00000000000E+00 -0.80541238607E+03  0.80541238608E+03  0.50400001928E-02 0.  1.
    10030    2    1    2    0    0  0.00000000000E+00  0.00000000000E+00  0.25574004558E+03  0.18665648177E+04  0.18489622084E+04 0.  0.
        5    1    3    3  502    0 -0.15440949401E+03 -0.62178665185E+03 -0.54494496976E+03  0.84109930587E+03  0.46999998093E+01 0.  1.
       -5    1    3    3    0  502  0.15440949401E+03  0.62178665185E+03  0.80068501535E+03  0.10254655119E+04  0.46999998093E+01 0. -1.
</event>
<event>
 5   0  0.2921590E-06  0.1847566E+04  0.7818609E-02  0.8681405E-01
       -2   -1    0    0    0  501  0.00000000000E+00  0.00000000000E+00  0.61259016853E+03  0.61259016853E+03  0.25500000920E-02 0.  1.
        2   -1    0    0  501    0  0.00000000000E+00  0.00000000000E+00 -0.13930609793E+04  0.13930609793E+04  0.25500000920E-02 0. -1.
    10030    2    1    2    0    0  0.00000000000E+00  0.00000000000E+00 -0.78047081079E+03  0.20056511479E+04  0.18475664644E+04 0.  0.
        2    1    3    3  502    0  0.58700532645E+03 -0.71270434779E+03 -0.35853546766E+03  0.99048999098E+03  0.25500000920E-02 0. -1.
       -2    1    3    3    0  502 -0.58700532645E+03  0.71270434779E+03 -0.42193534313E+03  0.10151611569E+04  0.25500000920E-02 0.  1.
</event>
<event>
 5   0  0.2722449E-06  0.1972643E+04  0.7818609E-02  0.8619519E-01
       -2   -1    0    0    0  501  0.00000000000E+00  0.00000000000E+00  0.76856062744E+03  0.76856062744E+03  0.25500000920E-02 0.  1.
        2   -1    0    0  501    0  0.00000000000E+00  0.00000000000E+00 -0.12657813843E+04  0.12657813843E+04  0.25500000920E-02 0. -1.
    10030    2    1    2    0    0  0.00000000000E+00  0.00000000000E+00 -0.49722075689E+03  0.20343420118E+04  0.19726426285E+04 0.  0.
        2    1    3    3  502    0  0.88609463213E+03 -0.97697172486E+02 -0.68385506951E+03  0.11235507068E+04  0.25500000920E-02 0. -1.
       -2    1    3    3    0  502 -0.88609463213E+03  0.97697172486E+02  0.18663431262E+03  0.91079130500E+03  0.25500000920E-02 0.  1.
</event>
<event>
 5   0  0.1550164E-06  0.3319162E+04  0.7818609E-02  0.8158037E-01
       -1   -1    0    0    0  501  0.00000000000E+00  0.00000000000E+00  0.16897644180E+04  0.16897644180E+04  0.50400001928E-02 0.  1.
        1   -1    0    0  501    0  0.00000000000E+00  0.00000000000E+00 -0.16299364574E+04  0.16299364575E+04  0.50400001928E-02 0. -1.
    10030    2    1    2    0    0  0.00000000000E+00  0.00000000000E+00  0.59827960544E+02  0.33197008754E+04  0.33191617191E+04 0.  0.
        4    1    3    3  502    0 -0.11773123400E+04  0.11654725727E+04  0.12900758261E+03  0.16616363119E+04  0.12699999809E+01 0.  1.
       -4    1    3    3    0  502  0.11773123400E+04 -0.11654725727E+04 -0.69179622061E+02  0.16580645635E+04  0.12699999809E+01 0. -1.
</event>
<event>
 5   0  0.4189587E-06  0.3874190E+04  0.7818609E-02  0.8030419E-01
        2   -1    0    0  501    0  0.00000000000E+00  0.00000000000E+00  0.15456459506E+04  0.15456459506E+04  0.25500000920E-02 0.  1.
       -2   -1    0    0    0  501  0.00000000000E+00  0.00000000000E+00 -0.24276823547E+04  0.24276823547E+04  0.25500000920E-02 0. -1.
    10030    2    1    2    0    0  0.00000000000E+00  0.00000000000E+00 -0.88203640414E+03  0.39733283053E+04  0.38741901868E+04 0.  0.
        1    1    3    3  502    0  0.78650453050E+03 -0.61874485254E+03  0.12600085333E+04  0.16090544034E+04  0.50400001928E-02 0.  1.
       -1    1    3    3    0  502 -0.78650453050E+03  0.61874485254E+03 -0.21420449375E+04  0.23642739019E+04  0.50400001928E-02 0. -1.
</event>
<event>
 5   0  0.4189587E-06  0.1843400E+04  0.7818609E-02  0.8683554E-01
        2   -1    0    0  501    0  0.00000000000E+00  0.00000000000E+00  0.15731271214E+04  0.15731271214E+04  0.25500000920E-02 0. -1.
       -2   -1    0    0    0  501  0.00000000000E+00  0.00000000000E+00 -0.54002691069E+03  0.54002691069E+03  0.25500000920E-02 0.  1.
    10030    2    1    2    0    0  0.00000000000E+00  0.00000000000E+00  0.10331002107E+04  0.21131540321E+04  0.18434000971E+04 0.  0.
        1    1    3    3  502    0  0.16718670081E+03 -0.84486756092E+03  0.89288751970E+03  0.12405646744E+04  0.50400001928E-02 0. -1.
       -1    1    3    3    0  502 -0.16718670081E+03  0.84486756092E+03  0.14021269098E+03  0.87258935770E+03  0.50400001928E-02 0.  1.
</event>
<event>
 5   0  0.4173467E-06  0.3308184E+04  0.7818609E-02  0.8160816E-01
        2   -1    0    0  501    0  0.00000000000E+00  0.00000000000E+00  0.20574360760E+04  0.20574360760E+04  0.25500000920E-02 0.  1.
       -2   -1    0    0    0  501  0.00000000000E+00  0.00000000000E+00 -0.13298205126E+04  0.13298205126E+04  0.25500000920E-02 0. -1.
    10030    2    1    2    0    0  0.00000000000E+00  0.00000000000E+00  0.72761556342E+03  0.33872565886E+04  0.33081842133E+04 0.  0.
        4    1    3    3  502    0  0.10455109448E+04 -0.12519829420E+04  0.64508219399E+03  0.17540487657E+04  0.12699999809E+01 0. -1.
       -4    1    3    3    0  502 -0.10455109448E+04  0.12519829420E+04  0.82533369430E+02  0.16332078229E+04  0.12699999809E+01 0.  1.
</event>
<event>
 5   0  0.1562618E-06  0.2025721E+04  0.7818609E-02  0.8594689E-01
        1   -1    0    0  501    0  0.00000000000E+00  0.00000000000E+00  0.94864844280E+03  0.94864844281E+03  0.50400001928E-02 0. -1.
       -1   -1    0    0    0  501  0.00000000000E+00  0.00000000000E+00 -0.10814184078E+04  0.10814184079E+04  0.50400001928E-02 0.  1.
    10030    2    1    2    0    0  0.00000000000E+00  0.00000000000E+00 -0.13276996505E+03  0.20300668507E+04  0.20257205026E+04 0.  0.
        2    1    3    3  502    0  0.60770549323E+03  0.38300571272E+03 -0.78198046849E+03  0.10618346366E+04  0.25500000920E-02 0.  1.
       -2    1    3    3    0  502 -0.60770549323E+03 -0.38300571272E+03  0.64921050344E+03  0.96823221402E+03  0.25500000920E-02 0. -1.
</event>
<event>
 5   0  0.1550164E-06  0.3321777E+04  0.7818609E-02  0.8157376E-01
        1   -1    0    0  501    0  0.00000000000E+00  0.00000000000E+00  0.21438012991E+04  0.21438012991E+04  0.50400001928E-02 0.  1.
       -1   -1    0    0    0  501  0.00000000000E+00  0.00000000000E+00 -0.12867566659E+04  0.12867566659E+04  0.50400001928E-02 0. -1.
    10030    2    1    2    0    0  0.00000000000E+00  0.00000000000E+00  0.85704463322E+03  0.34305579650E+04  0.33217770015E+04 0.  0.
        4    1    3    3  502    0 -0.14164432880E+04  0.86556567884E+03  0.48540288084E+03  0.17294892605E+04  0.12699999809E+01 0.  1.
       -4    1    3    3    0  502  0.14164432880E+04 -0.86556567884E+03  0.37164175238E+03  0.17010687045E+04  0.12699999809E+01 0. -1.
</event>
<event>
 5   0  0.4344980E-06  0.2003385E+04  0.7818609E-02  0.8605040E-01
        2   -1    0    0  501    0  0.00000000000E+00  0.00000000000E+00  0.12867251666E+04  0.12867251667E+04  0.25500000920E-02 0.  1.
       -2   -1    0    0    0  501  0.00000000000E+00  0.00000000000E+00 -0.77979938582E+03  0.77979938582E+03  0.25500000920E-02 0. -1.
    10030    2    1    2    0    0  0.00000000000E+00  0.00000000000E+00  0.50692578083E+03  0.20665245525E+04  0.20033846307E+04 0.  0.
        3    1    3    3  502    0  0.59246343791E+03  0.52414360872E+03 -0.38043578958E+03  0.87776468830E+03  0.10100000352E+00 0. -1.
       -3    1    3    3    0  502 -0.59246343791E+03 -0.52414360872E+03  0.88736157041E+03  0.11887598642E+04  0.10100000352E+00 0.  1.
</event>
<event>
 5   0  0.1550164E-06  0.3040333E+04  0.7818609E-02  0.8232306E-01
        1   -1    0    0  501    0  0.00000000000E+00  0.00000000000E+00  0.13000386994E+04  0.13000386994E+04  0.50400001928E-02 0. -1.
       -1   -1    0    0    0  501  0.00000000000E+00  0.00000000000E+00 -0.17775677513E+04  0.17775677513E+04  0.50400001928E-02 0.  1.
    10030    2    1    2    0    0  0.00000000000E+00  0.00000000000E+00 -0.47752905196E+03  0.30776064507E+04  0.30403334472E+04 0.  0.
        4    1    3    3  502    0  0.12402954125E+03  0.10362545364E+04 -0.13576197143E+04  0.17124075721E+04  0.12699999809E+01 0.  1.
       -4    1    3    3    0  502 -0.12402954125E+03 -0.10362545364E+04  0.88009066236E+03  0.13651988786E+04  0.12699999809E+01 0. -1.
</event>
<event>
 5   0  0.4189587E-06  0.3339055E+04  0.7818609E-02  0.8153028E-01
       -2   -1    0    0    0  501  0.00000000000E+00  0.00000000000E+00  0.16846492813E+04  0.16846492813E+04  0.25500000920E-02 0. -1.
        2   -1    0    0  501    0  0.00000000000E+00  0.00000000000E+00 -0.16545416793E+04  0.16545416793E+04  0.25500000920E-02 0.  1.
    10030    2    1    2    0    0  0.00000000000E+00  0.00000000000E+00  0.30107601944E+02  0.33391909606E+04  0.33390552262E+04 0.  0.
        1    1    3    3  502    0  0.22084464703E+03 -0.15221965906E+04 -0.63417797489E+03  0.16637417235E+04  0.50400001928E-02 0.  1.
       -1    1    3    3    0  502 -0.22084464703E+03  0.15221965906E+04  0.66428557683E+03  0.16754492371E+04  0.50400001928E-02 0. -1.
</event>
<event>
 5   0  0.4344980E-06  0.3194592E+04  0.7818609E-02  0.8190247E-01
       -2   -1    0    0    0  501  0.00000000000E+00  0.00000000000E+00  0.12270555271E+04  0.12270555271E+04  0.25500000920E-02 0. -1.
        2   -1    0    0  501    0  0.00000000000E+00  0.00000000000E+00 -0.20792491275E+04  0.20792491275E+04  0.25500000920E-02 0.  1.
    10030    2    1    2    0    0  0.00000000000E+00  0.00000000000E+00 -0.85219360048E+03  0.33063046546E+04  0.31945917637E+04 0.  0.
        3    1    3    3  502    0 -0.10033556890E+04  0.35501193054E+03  0.80660257174E+03  0.13354264593E+04  0.10100000352E+00 0. -1.
       -3    1    3    3    0  502  0.10033556890E+04 -0.35501193054E+03 -0.16587961722E+04  0.19708781953E+04  0.10100000352E+00 0.  1.
</event>
<event>
 5   0  0.1562618E-06  0.3350427E+04  0.7818609E-02  0.8150182E-01
        1   -1    0    0  501    0  0.00000000000E+00  0.00000000000E+00  0.28802585808E+04  0.28802585808E+04  0.50400001928E-02 0.  1.
       -1   -1    0    0    0  501  0.00000000000E+00  0.00000000000E+00 -0.97433613286E+03  0.97433613287E+03  0.50400001928E-02 0. -1.
    10030    2    1    2    0    0  0.00000000000E+00  0.00000000000E+00  0.19059224479E+04  0.38545947137E+04  0.33504268428E+04 0.  0.
        2    1    3    3  502    0  0.11848345574E+04  0.11743795879E+04  0.11287235807E+04  0.20142038791E+04  0.25500000920E-02 0.  1.
       -2    1    3    3    0  502 -0.11848345574E+04 -0.11743795879E+04  0.77719886723E+03  0.18403908346E+04  0.25500000920E-02 0. -1.
</event>
<event>
 5   0  0.1654257E-06  0.2533494E+04  0.7818609E-02  0.8391149E-01
        1   -1    0    0  501    0  0.00000000000E+00  0.00000000000E+00  0.25627162889E+04  0.25627162889E+04  0.50400001928E-02 0.  1.
       -1   -1    0    0    0  501  0.00000000000E+00  0.00000000000E+00 -0.62615117646E+03  0.62615117648E+03  0.50400001928E-02 0. -1.
    10030    2    1    2    0    0  0.00000000000E+00  0.00000000000E+00  0.19365651124E+04  0.31888674654E+04  0.25334938873E+04 0.  0.
        3    1    3    3  502    0  0.44067741525E+03 -0.11197210857E+03 -0.51990186512E+03  0.69067524711E+03  0.10100000352E+00 0. -1.
       -3    1    3    3    0  502 -0.44067741525E+03  0.11197210857E+03  0.24564669776E+04  0.24981922183E+04  0.10100000352E+00 0.  1.
</event>
<event>
 5   0  0.1562618E-06  0.2268884E+04  0.7818609E-02  0.8490292E-01
        1   -1    0    0  501    0  0.00000000000E+00  0.00000000000E+00  0.15466631773E+04  0.15466631773E+04  0.50400001928E-02 0. -1.
       -1   -1    0    0    0  501  0.00000000000E+00  0.00000000000E+00 -0.83208724639E+03  0.83208724640E+03  0.50400001928E-02 0.  1.
    10030    2    1    2    0    0  0.00000000000E+00  0.00000000000E+00  0.71457593093E+03  0.23787504237E+04  0.22688840467E+04 0.  0.
        2    1    3    3  502    0  0.38973258746E+02 -0.69200529483E+03 -0.58429196977E+03  0.90652487496E+03  0.25500000920E-02 0.  1.
       -2    1    3    3    0  502 -0.38973258746E+02  0.69200529483E+03  0.12988679007E+04  0.14722255488E+04  0.25500000920E-02 0. -1.
</event>
<event>
 5   0  0.4400349E-06  0.3339147E+04  0.7818609E-02  0.8153005E-01
        2   -1    0    0  501    0  0.00000000000E+00  0.00000000000E+00  0.26742939660E+04  0.26742939660E+04  0.25500000920E-02 0.  1.
       -2   -1    0    0    0  501  0.00000000000E+00  0.00000000000E+00 -0.10423219472E+04  0.10423219472E+04  0.25500000920E-02 0. -1.
    10030    2    1    2    0    0  0.00000000000E+00  0.00000000000E+00  0.16319720187E+04  0.37166159132E+04  0.33391467737E+04 0.  0.
        5    1    3    3  502    0 -0.12724428369E+04 -0.44786775879E+03 -0.27896657142E+03  0.13775125192E+04  0.46999998093E+01 0. -1.
       -5    1    3    3    0  502  0.12724428369E+04  0.44786775879E+03  0.19109385901E+04  0.23391033940E+04  0.46999998093E+01 0.  1.
</event>
<event>
 5   0  0.1562618E-06  0.3336420E+04  0.7818609E-02  0.8153690E-01
        1   -1    0    0  501    0  0.00000000000E+00  0.00000000000E+00  0.25142849907E+04  0.25142849907E+04  0.50400001928E-02 0. -1.
       -1   -1    0    0    0  501  0.00000000000E+00  0.00000000000E+00 -0.11068456509E+04  0.11068456509E+04  0.50400001928E-02 0.  1.
    10030    2    1    2    0    0  0.00000000000E+00  0.00000000000E+00  0.14074393398E+04  0.36211306415E+04  0.33364204813E+04 0.  0.
        2    1    3    3  502    0  0.14454727026E+04 -0.76435663142E+03  0.34491373818E+03  0.16711067832E+04  0.25500000920E-02 0.  1.
       -2    1    3    3    0  502 -0.14454727026E+04  0.76435663142E+03  0.10625256016E+04  0.19500238583E+04  0.25500000920E-02 0. -1.
</event>
<event>
 5   0  0.1401125E-06  0.3281915E+04  0.7818609E-02  0.8167513E-01
        3   -1    0    0  501    0  0.00000000000E+00  0.00000000000E+00  0.11854389197E+04  0.11854389240E+04  0.10100000352E+00 0.  1.
       -3   -1    0    0    0  501  0.00000000000E+00  0.00000000000E+00 -0.22715136814E+04  0.22715136837E+04  0.10100000352E+00 0. -1.
    10030    2    1    2    0    0  0.00000000000E+00  0.00000000000E+00 -0.10860747617E+04  0.34569526077E+04  0.32819145242E+04 0.  0.
        3    1    3    3  502    0 -0.99373854700E+03 -0.28801822970E+03 -0.18846518034E+04  0.21499728442E+04  0.10100000352E+00 0. -1.
       -3    1    3    3    0  502  0.99373854700E+03  0.28801822970E+03  0.79857704174E+03  0.13069797635E+04  0.10100000352E+00 0.  1.
</event>
<event>
 5   0  0.1562618E-06  0.3335126E+04  0.7818609E-02  0.8154015E-01
       -1   -1    0    0    0  501  0.00000000000E+00  0.00000000000E+00  0.10365192709E+04  0.10365192709E+04  0.50400001928E-02 0.  1.
        1   -1    0    0  501    0  0.00000000000E+00  0.00000000000E+00 -0.26827920278E+04  0.26827920278E+04  0.50400001928E-02 0. -1.
    10030    2    1    2    0    0  0.00000000000E+00  0.00000000000E+00 -0.16462727569E+04  0.37193112988E+04  0.33351255669E+04 0.  0.
        2    1    3    3  502    0  0.57066707870E+03  0.22268921450E+03  0.90649798676E+03  0.10940703821E+04  0.25500000920E-02 0.  1.
       -2    1    3    3    0  502 -0.57066707870E+03 -0.22268921450E+03 -0.25527707436E+04  0.26252409167E+04  0.25500000920E-02 0. -1.
</event>
<event>
 5   0  0.2101998E-06  0.2497591E+04  0.7818609E-02  0.8403844E-01
       -1   -1    0    0    0  501  0.00000000000E+00  0.00000000000E+00  0.82343316658E+03  0.82343316660E+03  0.50400001928E-02 0. -1.
        1   -1    0    0  501    0  0.00000000000E+00  0.00000000000E+00 -0.18938883103E+04  0.18938883103E+04  0.50400001928E-02 0.  1.
    10030    2    1    2    0    0  0.00000000000E+00  0.00000000000E+00 -0.10704551437E+04  0.27173214769E+04  0.24975911984E+04 0.  0.
        5    1    3    3  502    0 -0.97994888235E+03 -0.16781134447E+03  0.28690285982E+03  0.10347926364E+04  0.46999998093E+01 0. -1.
       -5    1    3    3    0  502  0.97994888235E+03  0.16781134447E+03 -0.13573580035E+04  0.16825288405E+04  0.46999998093E+01 0.  1.
</event>
<event>
 5   0  0.2722449E-06  0.3398793E+04  0.7818609E-02  0.8138203E-01
        2   -1    0    0  501    0  0.00000000000E+00  0.00000000000E+00  0.16198290607E+04  0.16198290607E+04  0.25500000920E-02 0. -1.
       -2   -1    0    0    0  501  0.00000000000E+00  0.00000000000E+00 -0.17828719990E+04  0.17828719990E+04  0.25500000920E-02 0.  1.
    10030    2    1    2    0    0  0.00000000000E+00  0.00000000000E+00 -0.16304293837E+03  0.34027010597E+04  0.33987926536E+04 0.  0.
        2    1    3    3  502    0  0.11487480772E+04 -0.20996247557E+03  0.11545000016E+04  0.16421256467E+04  0.25500000920E-02 0. -1.
       -2    1    3    3    0  502 -0.11487480772E+04  0.20996247557E+03 -0.13175429400E+04  0.17605754129E+04  0.25500000920E-02 0.  1.
</event>
<event>
 5   0  0.4173467E-06  0.3335389E+04  0.7818609E-02  0.8153949E-01
        2   -1    0    0  501    0  0.00000000000E+00  0.00000000000E+00  0.19462809221E+04  0.19462809221E+04  0.25500000920E-02 0. -1.
       -2   -1    0    0    0  501  0.00000000000E+00  0.00000000000E+00 -0.14289843849E+04  0.14289843849E+04  0.25500000920E-02 0.  1.
    10030    2    1    2    0    0  0.00000000000E+00  0.00000000000E+00  0.51729653722E+03  0.33752653070E+04  0.33353890605E+04 0.  0.
        4    1    3    3  502    0  0.31714729434E+03 -0.86593370807E+03 -0.11474892403E+04  0.14721266123E+04  0.12699999809E+01 0.  1.
       -4    1    3    3    0  502 -0.31714729434E+03  0.86593370807E+03  0.16647857776E+04  0.19031386947E+04  0.12699999809E+01 0. -1.
</event>
<event>
 5   0  0.4189587E-06  0.3222790E+04  0.7818609E-02  0.8182824E-01
       -2   -1    0    0    0  501  0.00000000000E+00  0.00000000000E+00  0.91560932170E+03  0.91560932170E+03  0.25500000920E-02 0.  1.
        2   -1    0    0  501    0  0.00000000000E+00  0.00000000000E+00 -0.28359183455E+04  0.28359183455E+04  0.25500000920E-02 0. -1.
    10030    2    1    2    0    0  0.00000000000E+00  0.00000000000E+00 -0.19203090238E+04  0.37515276672E+04  0.32227896442E+04 0.  0.
        1    1    3    3  502    0 -0.29980584285E+03  0.13519123790E+04 -0.19193888572E+04  0.23667708400E+04  0.50400001928E-02 0. -1.
       -1    1    3    3    0  502  0.29980584285E+03 -0.13519123790E+04 -0.92016662300E+00  0.13847568272E+04  0.50400001928E-02 0.  1.
</event>
<event>
 5   0  0.1550164E-06  0.2225672E+04  0.7818609E-02  0.8507818E-01
       -1   -1    0    0    0  501  0.00000000000E+00  0.00000000000E+00  0.96753782837E+03  0.96753782838E+03  0.50400001928E-02 0.  1.
        1   -1    0    0  501    0  0.00000000000E+00  0.00000000000E+00 -0.12799544677E+04  0.12799544677E+04  0.50400001928E-02 0. -1.
    10030    2    1    2    0    0  0.00000000000E+00  0.00000000000E+00 -0.31241663932E+03  0.22474922961E+04  0.22256723623E+04 0.  0.
        4    1    3    3  502    0  0.41245896059E+03 -0.10112848283E+04 -0.37180403327E+03  0.11537154113E+04  0.12699999809E+01 0. -1.
       -4    1    3    3    0  502 -0.41245896059E+03  0.10112848283E+04  0.59387393948E+02  0.10937768848E+04  0.12699999809E+01 0.  1.
</event>
<event>
 5   0  0.1571391E-06  0.3344407E+04  0.7818609E-02  0.8151687E-01
        1   -1    0    0  501    0  0.00000000000E+00  0.00000000000E+00  0.20689255366E+04  0.20689255367E+04  0.50400001928E-02 0. -1.
       -1   -1    0    0    0  501  0.00000000000E+00  0.00000000000E+00 -0.13515540604E+04  0.13515540604E+04  0.50400001928E-02 0.  1.
    10030    2    1    2    0    0  0.00000000000E+00  0.00000000000E+00  0.71737147626E+03  0.34204795971E+04  0.33444070983E+04 0.  0.
        1    1    3    3  502    0  0.80460600121E+03 -0.10096245241E+04 -0.72828331159E+03  0.14822715941E+04  0.50400001928E-02 0. -1.
       -1    1    3    3    0  502 -0.80460600121E+03  0.10096245241E+04  0.14456547879E+04  0.19382080029E+04  0.50400001928E-02 0.  1.
</event>
<event>
 5   0  0.2101998E-06  0.1728015E+04  0.7818609E-02  0.8745546E-01
        1   -1    0    0  501    0  0.00000000000E+00  0.00000000000E+00  0.17216481912E+04  0.17216481912E+04  0.50400001928E-02 0. -1.
       -1   -1    0    0    0  501  0.00000000000E+00  0.00000000000E+00 -0.43360121526E+03  0.43360121529E+03  0.50400001928E-02 0.  1.
    10030    2    1    2    0    0  0.00000000000E+00  0.00000000000E+00  0.12880469760E+04  0.21552494065E+04  0.17280147546E+04 0.  0.
        5    1    3    3  502    0  0.33724359386E+03 -0.75908527919E+03  0.34744520961E+03  0.90037990114E+03  0.46999998093E+01 0.  1.
       -5    1    3    3    0  502 -0.33724359386E+03  0.75908527919E+03  0.94060176637E+03  0.12548695054E+04  0.46999998093E+01 0. -1.
</event>
<event>
 5   0  0.2101998E-06  0.1736482E+04  0.7818609E-02  0.8740827E-01
        1   -1    0    0  501    0  0.00000000000E+00  0.00000000000E+00  0.43354485801E+03  0.43354485804E+03  0.50400001928E-02 0.  1.
       -1   -1    0    0    0  501  0.00000000000E+00  0.00000000000E+00 -0.17387871815E+04  0.17387871815E+04  0.50400001928E-02 0. -1.
    10030    2    1    2    0    0  0.00000000000E+00  0.00000000000E+00 -0.13052423235E+04  0.21723320395E+04  0.17364817785E+04 0.  0.
        5    1    3    3  502    0  0.10036444439E+03  0.17135929513E+03  0.40473565582E+03  0.45085482232E+03  0.46999998093E+01 0.  1.
       -5    1    3    3    0  502 -0.10036444439E+03 -0.17135929513E+03 -0.17099779793E+04  0.17214772172E+04  0.46999998093E+01 0. -1.
</event>
<event>
 5   0  0.2722449E-06  0.3258729E+04  0.7818609E-02  0.8173477E-01
       -2   -1    0    0    0  501  0.00000000000E+00  0.00000000000E+00  0.93125941388E+03  0.93125941388E+03  0.25500000920E-02 0. -1.
        2   -1    0    0  501    0  0.00000000000E+00  0.00000000000E+00 -0.28507946703E+04  0.28507946703E+04  0.25500000920E-02 0.  1.
    10030    2    1    2    0    0  0.00000000000E+00  0.00000000000E+00 -0.19195352564E+04  0.37820540842E+04  0.32587294295E+04 0.  0.
        2    1    3    3  502    0 -0.14849687265E+04 -0.10401172788E+03 -0.17286355490E+04  0.22812565440E+04  0.25500000920E-02 0. -1.
       -2    1    3    3    0  502  0.14849687265E+04  0.10401172788E+03 -0.19089970743E+03  0.15007975402E+04  0.25500000920E-02 0.  1.
</event>
<event>
 5   0  0.2722449E-06  0.3356909E+04  0.7818609E-02  0.8148564E-01
        2   -1    0    0  501    0  0.00000000000E+00  0.00000000000E+00  0.19816297856E+04  0.19816297856E+04  0.25500000920E-02 0.  1.
       -2   -1    0    0    0  501  0.00000000000E+00  0.00000000000E+00 -0.14216632305E+04  0.14216632305E+04  0.25500000920E-02 0. -1.
    10030    2    1    2    0    0  0.00000000000E+00  0.00000000000E+00  0.55996655512E+03  0.34032930161E+04  0.33569094136E+04 0.  0.
        2    1    3    3  502    0  0.82021410144E+03  0.78784984834E+03 -0.97147626612E+03  0.14957355018E+04  0.25500000920E-02 0. -1.
       -2    1    3    3    0  502 -0.82021410144E+03 -0.78784984834E+03  0.15314428212E+04  0.19075575143E+04  0.25500000920E-02 0.  1.
</event>
<event>
 5   0  0.1571391E-06  0.3424028E+04  0.7818609E-02  0.8132034E-01
        1   -1    0    0  501    0  0.00000000000E+00  0.00000000000E+00  0.24757139995E+04  0.24757139995E+04  0.50400001928E-02 0.  1.
       -1   -1    0    0    0  501  0.00000000000E+00  0.00000000000E+00 -0.11838976839E+04  0.11838976839E+04  0.50400001928E-02 0. -1.
    10030    2    1    2    0    0  0.00000000000E+00  0.00000000000E+00  0.12918163156E+04  0.36596116834E+04  0.34240280782E+04 0.  0.
        1    1    3    3  502    0 -0.70359910182E+03 -0.40166364913E+03 -0.96603915955E+03  0.12608001590E+04  0.50400001928E-02 0. -1.
       -1    1    3    3    0  502  0.70359910182E+03  0.40166364913E+03  0.22578554752E+04  0.23988115245E+04  0.50400001928E-02 0.  1.
</event>
<event>
 5   0  0.1550164E-06  0.1910002E+04  0.7818609E-02  0.8649894E-01
        1   -1    0    0  501    0  0.00000000000E+00  0.00000000000E+00  0.24182656096E+04  0.24182656096E+04  0.50400001928E-02 0. -1.
       -1   -1    0    0    0  501  0.00000000000E+00  0.00000000000E+00 -0.37714089893E+03  0.37714089896E+03  0.50400001928E-02 0.  1.
    10030    2    1    2    0    0  0.00000000000E+00  0.00000000000E+00  0.20411247107E+04  0.27954065086E+04  0.19100019538E+04 0.  0.
        4    1    3    3  502    0 -0.11157015790E+03  0.76666707243E+03  0.18378002319E+04  0.19944266358E+04  0.12699999809E+01 0. -1.
       -4    1    3    3    0  502  0.11157015790E+03 -0.76666707243E+03  0.20332447875E+03  0.80097987281E+03  0.12699999809E+01 0.  1.
</event>
<event>
 5   0  0.4189587E-06  0.3382797E+04  0.7818609E-02  0.8142141E-01
       -2   -1    0    0    0  501  0.00000000000E+00  0.00000000000E+00  0.13902818980E+04  0.13902818980E+04  0.25500000920E-02 0. -1.
        2   -1    0    0  501    0  0.00000000000E+00  0.00000000000E+00 -0.20577333576E+04  0.20577333576E+04  0.25500000920E-02 0.  1.
    10030    2    1    2    0    0  0.00000000000E+00  0.00000000000E+00 -0.66745145955E+03  0.34480152556E+04  0.33827973265E+04 0.  0.
        1    1    3    3  502    0  0.13030687989E+04  0.78591062270E+03 -0.10863277897E+04  0.18696929877E+04  0.50400001928E-02 0.  1.
       -1    1    3    3    0  502 -0.13030687989E+04 -0.78591062270E+03  0.41887633014E+03  0.15783222679E+04  0.50400001928E-02 0. -1.
</event>
<event>
 5   0  0.4400349E-06  0.3323547E+04  0.7818609E-02  0.8156930E-01
       -2   -1    0    0    0  501  0.00000000000E+00  0.00000000000E+00  0.11523818113E+04  0.11523818113E+04  0.25500000920E-02 0. -1.
        2   -1    0    0  501    0  0.00000000000E+00  0.00000000000E+00 -0.23963328389E+04  0.23963328389E+04  0.25500000920E-02 0.  1.
    10030    2    1    2    0    0  0.00000000000E+00  0.00000000000E+00 -0.12439510277E+04  0.35487146502E+04  0.33235465258E+04 0.  0.
        5    1    3    3  502    0 -0.29489301254E+02 -0.14679154869E+04 -0.14530541542E+04  0.20656800238E+04  0.46999998093E+01 0.  1.
       -5    1    3    3    0  502  0.29489301254E+02  0.14679154869E+04  0.20910312653E+03  0.14830346264E+04  0.46999998093E+01 0. -1.
</event>
<event>
 5   0  0.1401125E-06  0.3348933E+04  0.7818609E-02  0.8150555E-01
       -4   -1    0    0    0  501  0.00000000000E+00  0.00000000000E+00  0.14287249932E+04  0.14287255576E+04  0.12699999809E+01 0. -1.
        4   -1    0    0  501    0  0.00000000000E+00  0.00000000000E+00 -0.19624746392E+04  0.19624750501E+04  0.12699999809E+01 0.  1.
    10030    2    1    2    0    0  0.00000000000E+00  0.00000000000E+00 -0.53374964601E+03  0.33912006078E+04  0.33489330954E+04 0.  0.
        5    1    3    3  502    0  0.26733496335E+03  0.16161009192E+03 -0.19326998716E+04  0.19577887241E+04  0.46999998093E+01 0.  1.
       -5    1    3    3    0  502 -0.26733496335E+03 -0.16161009192E+03  0.13989502256E+04  0.14334118837E+04  0.46999998093E+01 0. -1.
</event>
<event>
 5   0  0.1562618E-06  0.3374767E+04  0.7818609E-02  0.8144127E-01
       -1   -1    0    0    0  501  0.00000000000E+00  0.00000000000E+00  0.12483465569E+04  0.12483465569E+04  0.50400001928E-02 0. -1.
        1   -1    0    0  501    0  0.00000000000E+00  0.00000000000E+00 -0.22808277706E+04  0.22808277706E+04  0.50400001928E-02 0.  1.
    10030    2    1    2    0    0  0.00000000000E+00  0.00000000000E+00 -0.10324812137E+04  0.35291743275E+04  0.33747672479E+04 0.  0.
        2    1    3    3  502    0  0.10135932481E+04  0.12974117333E+04 -0.12971479174E+03  0.16515067077E+04  0.25500000920E-02 0. -1.
       -2    1    3    3    0  502 -0.10135932481E+04 -0.12974117333E+04 -0.90276642193E+03  0.18776676199E+04  0.25500000920E-02 0.  1.
</event>
<event>
 5   0  0.1654257E-06  0.3310529E+04  0.7818609E-02  0.8160221E-01
       -1   -1    0    0    0  501  0.00000000000E+00  0.00000000000E+00  0.11260916992E+04  0.11260916992E+04  0.50400001928E-02 0. -1.
        1   -1    0    0  501    0  0.00000000000E+00  0.00000000000E+00 -0.24331067197E+04  0.24331067197E+04  0.50400001928E-02 0.  1.
    10030    2    1    2    0    0  0.00000000000E+00  0.00000000000E+00 -0.13070150205E+04  0.35591984189E+04  0.33105294321E+04 0.  0.
        3    1    3    3  502    0 -0.21011693869E+03  0.64953611418E+03 -0.22747057665E+04  0.23749384468E+04  0.10100000352E+00 0.  1.
       -3    1    3    3    0  502  0.21011693869E+03 -0.64953611418E+03  0.96769074595E+03  0.11842599721E+04  0.10100000352E+00 0. -1.
</event>
<event>
 5   0  0.4344980E-06  0.3609998E+04  0.7818609E-02  0.8088205E-01
        2   -1    0    0  501    0  0.00000000000E+00  0.00000000000E+00  0.16025709687E+04  0.16025709687E+04  0.25500000920E-02 0. -1.
       -2   -1    0    0    0  501  0.00000000000E+00  0.00000000000E+00 -0.20329969538E+04  0.20329969538E+04  0.25500000920E-02 0.  1.
    10030    2    1    2    0    0  0.00000000000E+00  0.00000000000E+00 -0.43042598504E+03  0.36355679225E+04  0.36099982812E+04 0.  0.
        3    1    3    3  502    0  0.15906443232E+04  0.75404017367E+03 -0.61715891062E+03  0.18653715655E+04  0.10100000352E+00 0. -1.
       -3    1    3    3    0  502 -0.15906443232E+04 -0.75404017367E+03  0.18673292558E+03  0.17701963569E+04  0.10100000352E+00 0.  1.
</event>
<event>
 5   0  0.1654257E-06  0.3403288E+04  0.7818609E-02  0.8137100E-01
        1   -1    0    0  501    0  0.00000000000E+00  0.00000000000E+00  0.11084388849E+04  0.11084388849E+04  0.50400001928E-02 0.  1.
       -1   -1    0    0    0  501  0.00000000000E+00  0.00000000000E+00 -0.26123154105E+04  0.26123154105E+04  0.50400001928E-02 0. -1.
    10030    2    1    2    0    0  0.00000000000E+00  0.00000000000E+00 -0.15038765256E+04  0.37207542954E+04  0.34032878107E+04 0.  0.
        3    1    3    3  502    0  0.11904990528E+04  0.49876137384E+03 -0.19642207550E+04  0.23503646711E+04  0.10100000352E+00 0. -1.
       -3    1    3    3    0  502 -0.11904990528E+04 -0.49876137384E+03  0.46034422933E+03  0.13703896243E+04  0.10100000352E+00 0.  1.
</event>
<event>
 5   0  0.1562618E-06  0.3244211E+04  0.7818609E-02  0.8177238E-01
       -1   -1    0    0    0  501  0.00000000000E+00  0.00000000000E+00  0.89925096281E+03  0.89925096282E+03  0.50400001928E-02 0.  1.
        1   -1    0    0  501    0  0.00000000000E+00  0.00000000000E+00 -0.29260190851E+04  0.29260190851E+04  0.50400001928E-02 0. -1.
    10030    2    1    2    0    0  0.00000000000E+00  0.00000000000E+00 -0.20267681222E+04  0.38252700479E+04  0.32442105230E+04 0.  0.
        2    1    3    3  502    0  0.13420558640E+04  0.83963827864E+03 -0.14304597487E+04  0.21336169932E+04  0.25500000920E-02 0.  1.
       -2    1    3    3    0  502 -0.13420558640E+04 -0.83963827864E+03 -0.59630837355E+03  0.16916530547E+04  0.25500000920E-02 0. -1.
</event>
<event>
 5   0  0.4189587E-06  0.2494341E+04  0.7818609E-02  0.8405004E-01
        2   -1    0    0  501    0  0.00000000000E+00  0.00000000000E+00  0.51792555054E+03  0.51792555054E+03  0.25500000920E-02 0.  1.
       -2   -1    0    0    0  501  0.00000000000E+00  0.00000000000E+00 -0.30031997956E+04  0.30031997956E+04  0.25500000920E-02 0. -1.
    10030    2    1    2    0    0  0.00000000000E+00  0.00000000000E+00 -0.24852742451E+04  0.35211253461E+04  0.24943407205E+04 0.  0.
        1    1    3    3  502    0 -0.16054990593E+03 -0.69502013069E+03  0.20152862220E+03  0.74124425121E+03  0.50400001928E-02 0.  1.
       -1    1    3    3    0  502  0.16054990593E+03  0.69502013069E+03 -0.26868028673E+04  0.27798810949E+04  0.50400001928E-02 0. -1.
</event>
<event>
 5   0  0.4344980E-06  0.3570211E+04  0.7818609E-02  0.8097349E-01
       -2   -1    0    0    0  501  0.00000000000E+00  0.00000000000E+00  0.16828484399E+04  0.16828484399E+04  0.25500000920E-02 0. -1.
        2   -1    0    0  501    0  0.00000000000E+00  0.00000000000E+00 -0.18935766269E+04  0.18935766269E+04  0.25500000920E-02 0.  1.
    10030    2    1    2    0    0  0.00000000000E+00  0.00000000000E+00 -0.21072818697E+03  0.35764250668E+04  0.35702114628E+04 0.  0.
        3    1    3    3  502    0 -0.12943669519E+04  0.57743693011E+03  0.98178191715E+03  0.17241563031E+04  0.10100000352E+00 0. -1.
       -3    1    3    3    0  502  0.12943669519E+04 -0.57743693011E+03 -0.11925101041E+04  0.18522687637E+04  0.10100000352E+00 0.  1.
</event>
<event>
 5   0  0.4344980E-06  0.3392228E+04  0.7818609E-02  0.8139816E-01
       -2   -1    0    0    0  501  0.00000000000E+00  0.00000000000E+00  0.22698403295E+04  0.22698403296E+04  0.25500000920E-02 0.  1.
        2   -1    0    0  501    0  0.00000000000E+00  0.00000000000E+00 -0.12674031012E+04  0.12674031012E+04  0.25500000920E-02 0. -1.
    10030    2    1    2    0    0  0.00000000000E+00  0.00000000000E+00  0.10024372284E+04  0.35372434307E+04  0.33922279834E+04 0.  0.
        3    1    3    3  502    0  0.72102988643E+01  0.80780340456E+03  0.20563506128E+04  0.22093384037E+04  0.10100000352E+00 0.  1.
       -3    1    3    3    0  502 -0.72102988643E+01 -0.80780340456E+03 -0.10539133844E+04  0.13279050271E+04  0.10100000352E+00 0. -1.
</event>
<event>
 5   0  0.4344980E-06  0.3278928E+04  0.7818609E-02  0.8168278E-01
        2   -1    0    0  501    0  0.00000000000E+00  0.00000000000E+00  0.26126468027E+04  0.26126468027E+04  0.25500000920E-02 0. -1.
       -2   -1    0    0    0  501  0.00000000000E+00  0.00000000000E+00 -0.10287814963E+04  0.10287814963E+04  0.25500000920E-02 0.  1.
    10030    2    1    2    0    0  0.00000000000E+00  0.00000000000E+00  0.15838653064E+04  0.36414282990E+04  0.32789282926E+04 0.  0.
        3    1    3    3  502    0 -0.82319074345E+03 -0.96883457303E+03  0.19415357844E+04  0.23207422610E+04  0.10100000352E+00 0. -1.
       -3    1    3    3    0  502  0.82319074345E+03  0.96883457303E+03 -0.35767047793E+03  0.13206860380E+04  0.10100000352E+00 0.  1.
</event>
<event>
 5   0  0.2722449E-06  0.3497593E+04  0.7818609E-02  0.8114361E-01
       -2   -1    0    0    0  501  0.00000000000E+00  0.00000000000E+00  0.14151325517E+04  0.14151325517E+04  0.25500000920E-02 0. -1.
        2   -1    0    0  501    0  0.00000000000E+00  0.00000000000E+00 -0.21611328690E+04  0.21611328690E+04  0.25500000920E-02 0.  1.
    10030    2    1    2    0    0  0.00000000000E+00  0.00000000000E+00 -0.74600031728E+03  0.35762654208E+04  0.34975931562E+04 0.  0.
        2    1    3    3  502    0 -0.77994339100E+03 -0.57749070721E+03 -0.18605371333E+04  0.20984293256E+04  0.25500000920E-02 0.  1.
       -2    1    3    3    0  502  0.77994339100E+03  0.57749070721E+03  0.11145368160E+04  0.14778360952E+04  0.25500000920E-02 0. -1.
</event>
<event>
 5   0  0.2722449E-06  0.3387192E+04  0.7818609E-02  0.8141057E-01
        2   -1    0    0  501    0  0.00000000000E+00  0.00000000000E+00  0.11554743503E+04  0.11554743503E+04  0.25500000920E-02 0.  1.
       -2   -1    0    0    0  501  0.00000000000E+00  0.00000000000E+00 -0.24823282663E+04  0.24823282663E+04  0.25500000920E-02 0. -1.
    10030    2    1    2    0    0  0.00000000000E+00  0.00000000000E+00 -0.13268539160E+04  0.36378026166E+04  0.33871915450E+04 0.  0.
        2    1    3    3  502    0 -0.20891414515E+03 -0.90621621192E+02 -0.24658106732E+04  0.24763036313E+04  0.25500000920E-02 0. -1.
       -2    1    3    3    0  502  0.20891414515E+03  0.90621621192E+02  0.11389567571E+04  0.11614989853E+04  0.25500000920E-02 0.  1.
</event>
<event>
 5   0  0.4344980E-06  0.3360162E+04  0.7818609E-02  0.8147754E-01
        2   -1    0    0  501    0  0.00000000000E+00  0.00000000000E+00  0.18664405006E+04  0.18664405006E+04  0.25500000920E-02 0.  1.
       -2   -1    0    0    0  501  0.00000000000E+00  0.00000000000E+00 -0.15123286444E+04  0.15123286444E+04  0.25500000920E-02 0. -1.
    10030    2    1    2    0    0  0.00000000000E+00  0.00000000000E+00  0.35411185628E+03  0.33787691450E+04  0.33601615628E+04 0.  0.
        3    1    3    3  502    0  0.12902715993E+03 -0.10866676632E+04 -0.11048278965E+04  0.15550367549E+04  0.10100000352E+00 0. -1.
       -3    1    3    3    0  502 -0.12902715993E+03  0.10866676632E+04  0.14589397527E+04  0.18237323901E+04  0.10100000352E+00 0.  1.
</event>
<event>
 5   0  0.4344980E-06  0.3422920E+04  0.7818609E-02  0.8132304E-01
       -2   -1    0    0    0  501  0.00000000000E+00  0.00000000000E+00  0.11610183034E+04  0.11610183034E+04  0.25500000920E-02 0.  1.
        2   -1    0    0  501    0  0.00000000000E+00  0.00000000000E+00 -0.25228672146E+04  0.25228672146E+04  0.25500000920E-02 0. -1.
    10030    2    1    2    0    0  0.00000000000E+00  0.00000000000E+00 -0.13618489112E+04  0.36838855180E+04  0.34229198139E+04 0.  0.
        3    1    3    3  502    0 -0.62208842436E+03  0.99111173672E+03 -0.20250618146E+04  0.23388398504E+04  0.10100000352E+00 0.  1.
       -3    1    3    3    0  502  0.62208842436E+03 -0.99111173672E+03  0.66321290345E+03  0.13450456676E+04  0.10100000352E+00 0. -1.
</event>
<event>
 5   0  0.4173467E-06  0.2006531E+04  0.7818609E-02  0.8603573E-01
       -2   -1    0    0    0  501  0.00000000000E+00  0.00000000000E+00  0.14148498044E+04  0.14148498044E+04  0.25500000920E-02 0.  1.
        2   -1    0    0  501    0  0.00000000000E+00  0.00000000000E+00 -0.71141216176E+03  0.71141216176E+03  0.25500000920E-02 0. -1.
    10030    2    1    2    0    0  0.00000000000E+00  0.00000000000E+00  0.70343764263E+03  0.21262619662E+04  0.20065306954E+04 0.  0.
        4    1    3    3  502    0  0.27571089637E+03 -0.39951382460E+03  0.12821266413E+04  0.13709406011E+04  0.12699999809E+01 0.  1.
       -4    1    3    3    0  502 -0.27571089637E+03  0.39951382460E+03 -0.57868899869E+03  0.75532136507E+03  0.12699999809E+01 0. -1.
</event>
<event>
 5   0  0.1401125E-06  0.3422001E+04  0.7818609E-02  0.8132528E-01
        3   -1    0    0  501    0  0.00000000000E+00  0.00000000000E+00  0.30875744460E+04  0.30875744476E+04  0.10100000352E+00 0. -1.
       -3   -1    0    0    0  501  0.00000000000E+00  0.00000000000E+00 -0.94816268036E+03  0.94816268574E+03  0.10100000352E+00 0.  1.
    10030    2    1    2    0    0  0.00000000000E+00  0.00000000000E+00  0.21394117656E+04  0.40357371334E+04  0.34220010968E+04 0.  0.
        2    1    3    3  502    0  0.97140802945E+03  0.13246762775E+04  0.16342218041E+04  0.23171279000E+04  0.25500000920E-02 0. -1.
       -2    1    3    3    0  502 -0.97140802945E+03 -0.13246762775E+04  0.50518996149E+03  0.17186092334E+04  0.25500000920E-02 0.  1.
</event>
<event>
 5   0  0.4189587E-06  0.3438570E+04  0.7818609E-02  0.8128504E-01
        2   -1    0    0  501    0  0.00000000000E+00  0.00000000000E+00  0.15944743663E+04  0.15944743663E+04  0.25500000920E-02 0.  1.
       -2   -1    0    0    0  501  0.00000000000E+00  0.00000000000E+00 -0.18538658995E+04  0.18538658995E+04  0.25500000920E-02 0. -1.
    10030    2    1    2    0    0  0.00000000000E+00  0.00000000000E+00 -0.25939153315E+03  0.34483402658E+04  0.34385704328E+04 0.  0.
        1    1    3    3  502    0 -0.13741848248E+04  0.19529654073E+03 -0.11471803870E+04  0.18007075032E+04  0.50400001928E-02 0. -1.
       -1    1    3    3    0  502  0.13741848248E+04 -0.19529654073E+03  0.88778885390E+03  0.16476327627E+04  0.50400001928E-02 0.  1.
</event>
<event>
 5   0  0.4400349E-06  0.1997128E+04  0.7818609E-02  0.8607965E-01
        2   -1    0    0  501    0  0.00000000000E+00  0.00000000000E+00  0.11949173796E+04  0.11949173796E+04  0.25500000920E-02 0. -1.
       -2   -1    0    0    0  501  0.00000000000E+00  0.00000000000E+00 -0.83447574769E+03  0.83447574769E+03  0.25500000920E-02 0.  1.
    10030    2    1    2    0    0  0.00000000000E+00  0.00000000000E+00  0.36044163189E+03  0.20293931273E+04  0.19971275110E+04 0.  0.
        5    1    3    3  502    0 -0.30822109515E+03  0.75257641900E+03  0.76900933101E+03  0.11192716163E+04  0.46999998093E+01 0. -1.
       -5    1    3    3    0  502  0.30822109515E+03 -0.75257641900E+03 -0.40856769912E+03  0.91012151095E+03  0.46999998093E+01 0.  1.
</event>
<event>
 5   0  0.4344980E-06  0.3439277E+04  0.7818609E-02  0.8128333E-01
       -2   -1    0    0    0  501  0.00000000000E+00  0.00000000000E+00  0.30075714681E+04  0.30075714681E+04  0.25500000920E-02 0.  1.
        2   -1    0    0  501    0  0.00000000000E+00  0.00000000000E+00 -0.98323756267E+03  0.98323756267E+03  0.25500000920E-02 0. -1.
    10030    2    1    2    0    0  0.00000000000E+00  0.00000000000E+00  0.20243339055E+04  0.39908090308E+04  0.34392773891E+04 0.  0.
        3    1    3    3  502    0  0.68165283030E+03  0.48410552335E+03 -0.73152591109E+03  0.11109180472E+04  0.10100000352E+00 0. -1.
       -3    1    3    3    0  502 -0.68165283030E+03 -0.48410552335E+03  0.27558598165E+04  0.28798909836E+04  0.10100000352E+00 0.  1.
</event>
<event>
 5   0  0.1550164E-06  0.3411097E+04  0.7818609E-02  0.8135188E-01
        1   -1    0    0  501    0  0.00000000000E+00  0.00000000000E+00  0.13686409163E+04  0.13686409163E+04  0.50400001928E-02 0. -1.
       -1   -1    0    0    0  501  0.00000000000E+00  0.00000000000E+00 -0.21253893641E+04  0.21253893641E+04  0.50400001928E-02 0.  1.
    10030    2    1    2    0    0  0.00000000000E+00  0.00000000000E+00 -0.75674844780E+03  0.34940302804E+04  0.34110965081E+04 0.  0.
        4    1    3    3  502    0  0.25858741156E+03  0.80653931805E+03 -0.18947449372E+04  0.20754356436E+04  0.12699999809E+01 0.  1.
       -4    1    3    3    0  502 -0.25858741156E+03 -0.80653931805E+03  0.11379964894E+04  0.14185946368E+04  0.12699999809E+01 0. -1.
</event>
<event>
 5   0  0.1571391E-06  0.3341053E+04  0.7818609E-02  0.8152527E-01
        1   -1    0    0  501    0  0.00000000000E+00  0.00000000000E+00  0.19556281363E+04  0.19556281363E+04  0.50400001928E-02 0. -1.
       -1   -1    0    0    0  501  0.00000000000E+00  0.00000000000E+00 -0.14269885911E+04  0.14269885911E+04  0.50400001928E-02 0.  1.
    10030    2    1    2    0    0  0.00000000000E+00  0.00000000000E+00  0.52863954516E+03  0.33826167274E+04  0.33410531507E+04 0.  0.
        1    1    3    3  502    0 -0.19743585145E+03  0.13608696452E+04  0.12246512134E+04  0.18413901545E+04  0.50400001928E-02 0. -1.
       -1    1    3    3    0  502  0.19743585145E+03 -0.13608696452E+04 -0.69601166827E+03  0.15412265729E+04  0.50400001928E-02 0.  1.
</event>
<event>
 5   0  0.2101998E-06  0.3379467E+04  0.7818609E-02  0.8142964E-01
       -1   -1    0    0    0  501  0.00000000000E+00  0.00000000000E+00  0.11614199690E+04  0.11614199690E+04  0.50400001928E-02 0. -1.
        1   -1    0    0  501    0  0.00000000000E+00  0.00000000000E+00 -0.24583695697E+04  0.24583695697E+04  0.50400001928E-02 0.  1.
    10030    2    1    2    0    0  0.00000000000E+00  0.00000000000E+00 -0.12969496007E+04  0.36197895387E+04  0.33794671234E+04 0.  0.
        5    1    3    3  502    0  0.98083015287E+03 -0.11702000880E+04  0.12671870328E+03  0.15321474323E+04  0.46999998093E+01 0. -1.
       -5    1    3    3    0  502 -0.98083015287E+03  0.11702000880E+04 -0.14236683040E+04  0.20876421064E+04  0.46999998093E+01 0.  1.
</event>
<event>
 5   0  0.4173467E-06  0.3360617E+04  0.7818609E-02  0.8147640E-01
        2   -1    0    0  501    0  0.00000000000E+00  0.00000000000E+00  0.27679968722E+04  0.27679968722E+04  0.25500000920E-02 0.  1.
       -2   -1    0    0    0  501  0.00000000000E+00  0.00000000000E+00 -0.10200289120E+04  0.10200289120E+04  0.25500000920E-02 0. -1.
    10030    2    1    2    0    0  0.00000000000E+00  0.00000000000E+00  0.17479679602E+04  0.37880257841E+04  0.33606171087E+04 0.  0.
        4    1    3    3  502    0  0.36532574579E+03  0.18976136483E+03  0.27102741959E+04  0.27413609952E+04  0.12699999809E+01 0.  1.
       -4    1    3    3    0  502 -0.36532574579E+03 -0.18976136483E+03 -0.96230623572E+03  0.10466647889E+04  0.12699999809E+01 0. -1.
</event>
<event>
 5   0  0.1562618E-06  0.3512332E+04  0.7818609E-02  0.8110874E-01
        1   -1    0    0  501    0  0.00000000000E+00  0.00000000000E+00  0.25447226555E+04  0.25447226555E+04  0.50400001928E-02 0. -1.
       -1   -1    0    0    0  501  0.00000000000E+00  0.00000000000E+00 -0.12119667588E+04  0.12119667589E+04  0.50400001928E-02 0.  1.
    10030    2    1    2    0    0  0.00000000000E+00  0.00000000000E+00  0.13327558967E+04  0.37566894144E+04  0.35123321420E+04 0.  0.
        2    1    3    3  502    0  0.71023452043E+03  0.56499688001E+03  0.22744613888E+04  0.24488424117E+04  0.25500000920E-02 0. -1.
       -2    1    3    3    0  502 -0.71023452043E+03 -0.56499688001E+03 -0.94170549212E+03  0.13078470026E+04  0.25500000920E-02 0.  1.
</event>
<event>
 5   0  0.2722449E-06  0.3360951E+04  0.7818609E-02  0.8147557E-01
        2   -1    0    0  501    0  0.00000000000E+00  0.00000000000E+00  0.14020816247E+04  0.14020816247E+04  0.25500000920E-02 0.  1.
       -2   -1    0    0    0  501  0.00000000000E+00  0.00000000000E+00 -0.20141468375E+04  0.20141468375E+04  0.25500000920E-02 0. -1.
    10030    2    1    2    0    0  0.00000000000E+00  0.00000000000E+00 -0.61206521280E+03  0.34162284623E+04  0.33609512168E+04 0.  0.
        2    1    3    3  502    0 -0.32750760104E+03  0.13681005713E+04  0.62834577896E+03  0.15407072466E+04  0.25500000920E-02 0.  1.
       -2    1    3    3    0  502  0.32750760104E+03 -0.13681005713E+04 -0.12404109918E+04  0.18755212157E+04  0.25500000920E-02 0. -1.
</event>
<event>
 5   0  0.4189587E-06  0.3341419E+04  0.7818609E-02  0.8152436E-01
        2   -1    0    0  501    0  0.00000000000E+00  0.00000000000E+00  0.26923565527E+04  0.26923565527E+04  0.25500000920E-02 0. -1.
       -2   -1    0    0    0  501  0.00000000000E+00  0.00000000000E+00 -0.10367384286E+04  0.10367384286E+04  0.25500000920E-02 0.  1.
    10030    2    1    2    0    0  0.00000000000E+00  0.00000000000E+00  0.16556181241E+04  0.37290949812E+04  0.33414185620E+04 0.  0.
        1    1    3    3  502    0  0.22130027428E+03 -0.25166882486E+03  0.26544599683E+04  0.26755314860E+04  0.50400001928E-02 0. -1.
       -1    1    3    3    0  502 -0.22130027428E+03  0.25166882486E+03 -0.99884184421E+03  0.10535634953E+04  0.50400001928E-02 0.  1.
</event>
<event>
 5   0  0.4400349E-06  0.3457054E+04  0.7818609E-02  0.8124044E-01
        2   -1    0    0  501    0  0.00000000000E+00  0.00000000000E+00  0.20031801104E+04  0.20031801104E+04  0.25500000920E-02 0. -1.
       -2   -1    0    0    0  501  0.00000000000E+00  0.00000000000E+00 -0.14915315586E+04  0.14915315586E+04  0.25500000920E-02 0.  1.
    10030    2    1    2    0    0  0.00000000000E+00  0.00000000000E+00  0.51164855181E+03  0.34947116690E+04  0.34570544411E+04 0.  0.
        5    1    3    3  502    0  0.49920680220E+03  0.11462788207E+04  0.14624009034E+04  0.19240065120E+04  0.46999998093E+01 0. -1.
       -5    1    3    3    0  502 -0.49920680220E+03 -0.11462788207E+04 -0.95075235155E+03  0.15707051570E+04  0.46999998093E+01 0.  1.
</event>
<event>
 5   0  0.4400349E-06  0.2254858E+04  0.7818609E-02  0.8495936E-01
       -2   -1    0    0    0  501  0.00000000000E+00  0.00000000000E+00  0.93886119248E+03  0.93886119249E+03  0.25500000920E-02 0.  1.
        2   -1    0    0  501    0  0.00000000000E+00  0.00000000000E+00 -0.13538705770E+04  0.13538705770E+04  0.25500000920E-02 0. -1.
    10030    2    1    2    0    0  0.00000000000E+00  0.00000000000E+00 -0.41500938449E+03  0.22927317695E+04  0.22548583498E+04 0.  0.
        5    1    3    3  502    0 -0.91534781022E+03 -0.33947275912E+03 -0.78086523109E+03  0.12501503777E+04  0.46999998093E+01 0. -1.
       -5    1    3    3    0  502  0.91534781022E+03  0.33947275912E+03  0.36585584660E+03  0.10425813917E+04  0.46999998093E+01 0.  1.
</event>
<event>
 5   0  0.1550164E-06  0.3375921E+04  0.7818609E-02  0.8143841E-01
       -1   -1    0    0    0  501  0.00000000000E+00  0.00000000000E+00  0.12728663998E+04  0.12728663998E+04  0.50400001928E-02 0. -1.
        1   -1    0    0  501    0  0.00000000000E+00  0.00000000000E+00 -0.22384210928E+04  0.22384210928E+04  0.50400001928E-02 0.  1.
    10030    2    1    2    0    0  0.00000000000E+00  0.00000000000E+00 -0.96555469295E+03  0.35112874926E+04  0.33759212062E+04 0.  0.
        4    1    3    3  502    0 -0.95715416264E+03 -0.13733443027E+04 -0.70824286762E+03  0.18176435947E+04  0.12699999809E+01 0.  1.
       -4    1    3    3    0  502  0.95715416264E+03  0.13733443027E+04 -0.25731182532E+03  0.16936438980E+04  0.12699999809E+01 0. -1.
</event>
<event>
 5   0  0.4173467E-06  0.3402348E+04  0.7818609E-02  0.8137330E-01
       -2   -1    0    0    0  501  0.00000000000E+00  0.00000000000E+00  0.29164689773E+04  0.29164689773E+04  0.25500000920E-02 0. -1.
        2   -1    0    0  501    0  0.00000000000E+00  0.00000000000E+00 -0.99229321983E+03  0.99229321984E+03  0.25500000920E-02 0.  1.
    10030    2    1    2    0    0  0.00000000000E+00  0.00000000000E+00  0.19241757574E+04  0.39087621971E+04  0.34023476554E+04 0.  0.
        4    1    3    3  502    0 -0.30566772860E+03  0.15125830225E+03 -0.95261585714E+03  0.10118252905E+04  0.12699999809E+01 0.  1.
       -4    1    3    3    0  502  0.30566772860E+03 -0.15125830225E+03  0.28767916146E+04  0.28969369066E+04  0.12699999809E+01 0. -1.
</event>
<event>
 5   0  0.4189587E-06  0.1696447E+04  0.7818609E-02  0.8763393E-01
       -2   -1    0    0    0  501  0.00000000000E+00  0.00000000000E+00  0.79338687491E+03  0.79338687492E+03  0.25500000920E-02 0. -1.
        2   -1    0    0  501    0  0.00000000000E+00  0.00000000000E+00 -0.90685042683E+03  0.90685042683E+03  0.25500000920E-02 0.  1.
    10030    2    1    2    0    0  0.00000000000E+00  0.00000000000E+00 -0.11346355192E+03  0.17002373018E+04  0.16964471417E+04 0.  0.
        1    1    3    3  502    0 -0.30468247085E+03  0.76891252860E+03 -0.24536849328E+03  0.86270712423E+03  0.50400001928E-02 0.  1.
       -1    1    3    3    0  502  0.30468247085E+03 -0.76891252860E+03  0.13190494136E+03  0.83753017752E+03  0.50400001928E-02 0. -1.
</event>
<event>
 5   0  0.1571391E-06  0.3367158E+04  0.7818609E-02  0.8146014E-01
        1   -1    0    0  501    0  0.00000000000E+00  0.00000000000E+00  0.13968858256E+04  0.13968858256E+04  0.50400001928E-02 0. -1.
       -1   -1    0    0    0  501  0.00000000000E+00  0.00000000000E+00 -0.20291123410E+04  0.20291123410E+04  0.50400001928E-02 0.  1.
    10030    2    1    2    0    0  0.00000000000E+00  0.00000000000E+00 -0.63222651541E+03  0.34259981666E+04  0.33671580109E+04 0.  0.
        1    1    3    3  502    0  0.11315399193E+04 -0.10529070750E+04 -0.99519083627E+03  0.18383146352E+04  0.50400001928E-02 0.  1.
       -1    1    3    3    0  502 -0.11315399193E+04  0.10529070750E+04  0.36296432086E+03  0.15876835314E+04  0.50400001928E-02 0. -1.
</event>
<event>
 5   0  0.1571391E-06  0.2603396E+04  0.7818609E-02  0.8367048E-01
       -1   -1    0    0    0  501  0.00000000000E+00  0.00000000000E+00  0.85493018794E+03  0.85493018796E+03  0.50400001928E-02 0.  1.
        1   -1    0    0  501    0  0.00000000000E+00  0.00000000000E+00 -0.19819374360E+04  0.19819374360E+04  0.50400001928E-02 0. -1.
    10030    2    1    2    0    0  0.00000000000E+00  0.00000000000E+00 -0.11270072480E+04  0.28368676239E+04  0.26033963545E+04 0.  0.
        1    1    3    3  502    0  0.82390150369E+03 -0.20435272158E+03  0.51183085005E+03  0.99123384814E+03  0.50400001928E-02 0.  1.
       -1    1    3    3    0  502 -0.82390150369E+03  0.20435272158E+03 -0.16388380981E+04  0.18456337758E+04  0.50400001928E-02 0. -1.
</event>
<event>
 5   0  0.1401125E-06  0.3343012E+04  0.7818609E-02  0.8152036E-01
        4   -1    0    0  501    0  0.00000000000E+00  0.00000000000E+00  0.16106101867E+04  0.16106106874E+04  0.12699999809E+01 0. -1.
       -4   -1    0    0    0  501  0.00000000000E+00  0.00000000000E+00 -0.17347033452E+04  0.17347038101E+04  0.12699999809E+01 0.  1.
    10030    2    1    2    0    0  0.00000000000E+00  0.00000000000E+00 -0.12409315848E+03  0.33453144976E+04  0.33430121112E+04 0.  0.
        2    1    3    3  502    0 -0.67979239033E+03  0.36276141336E+03 -0.15463816671E+04  0.17277180897E+04  0.25500000920E-02 0.  1.
       -2    1    3    3    0  502  0.67979239033E+03 -0.36276141336E+03  0.14222885086E+04  0.16175964079E+04  0.25500000920E-02 0. -1.
</event>
<event>
 5   0  0.1562618E-06  0.1900966E+04  0.7818609E-02  0.8654376E-01
        1   -1    0    0  501    0  0.00000000000E+00  0.00000000000E+00  0.20951236042E+04  0.20951236043E+04  0.50400001928E-02 0. -1.
       -1   -1    0    0    0  501  0.00000000000E+00  0.00000000000E+00 -0.43120037293E+03  0.43120037296E+03  0.50400001928E-02 0.  1.
    10030    2    1    2    0    0  0.00000000000E+00  0.00000000000E+00  0.16639232313E+04  0.25263239772E+04  0.19009661539E+04 0.  0.
        2    1    3    3  502    0 -0.76852605032E+03 -0.35883844668E+03  0.14020577129E+04  0.16386467439E+04  0.25500000920E-02 0.  1.
       -2    1    3    3    0  502  0.76852605032E+03  0.35883844668E+03  0.26186551840E+03  0.88767723333E+03  0.25500000920E-02 0. -1.
</event>
<event>
 5   0  0.4344980E-06  0.3409291E+04  0.7818609E-02  0.8135630E-01
       -2   -1    0    0    0  501  0.00000000000E+00  0.00000000000E+00  0.13587569891E+04  0.13587569891E+04  0.25500000920E-02 0.  1.
        2   -1    0    0  501    0  0.00000000000E+00  0.00000000000E+00 -0.21385837847E+04  0.21385837847E+04  0.25500000920E-02 0. -1.
    10030    2    1    2    0    0  0.00000000000E+00  0.00000000000E+00 -0.77982679557E+03  0.34973407738E+04  0.34092906384E+04 0.  0.
        3    1    3    3  502    0  0.22009819397E+03  0.74970044375E+02  0.13424132952E+04  0.13624012581E+04  0.10100000352E+00 0.  1.
       -3    1    3    3    0  502 -0.22009819397E+03 -0.74970044375E+02 -0.21222400908E+04  0.21349395157E+04  0.10100000352E+00 0. -1.
</event>
<event>
 5   0  0.2739222E-06  0.1832116E+04  0.7818609E-02  0.8689404E-01
       -1   -1    0    0    0  501  0.00000000000E+00  0.00000000000E+00  0.82668398117E+03  0.82668398119E+03  0.50400001928E-02 0.  1.
        1   -1    0    0  501    0  0.00000000000E+00  0.00000000000E+00 -0.10150948964E+04  0.10150948964E+04  0.50400001928E-02 0. -1.
    10030    2    1    2    0    0  0.00000000000E+00  0.00000000000E+00 -0.18841091525E+03  0.18417788776E+04  0.18321164704E+04 0.  0.
        5    1    3    3  502    0 -0.56753159079E+03 -0.12769605840E+03  0.61715793139E+03  0.84811814752E+03  0.46999998093E+01 0.  1.
       -5    1    3    3    0  502  0.56753159079E+03  0.12769605840E+03 -0.80556884664E+03  0.99366073010E+03  0.46999998093E+01 0. -1.
</event>
<event>
 5   0  0.1571391E-06  0.3106776E+04  0.7818609E-02  0.8213881E-01
        1   -1    0    0  501    0  0.00000000000E+00  0.00000000000E+00  0.19332495766E+04  0.19332495766E+04  0.50400001928E-02 0. -1.
       -1   -1    0    0    0  501  0.00000000000E+00  0.00000000000E+00 -0.12481645863E+04  0.12481645863E+04  0.50400001928E-02 0.  1.
    10030    2    1    2    0    0  0.00000000000E+00  0.00000000000E+00  0.68508499034E+03  0.31814141630E+04  0.31067756006E+04 0.  0.
        1    1    3    3  502    0 -0.82760066541E+03  0.13093869994E+04  0.46194779599E+03  0.16164197914E+04  0.50400001928E-02 0. -1.
       -1    1    3    3    0  502  0.82760066541E+03 -0.13093869994E+04  0.22313719434E+03  0.15649943716E+04  0.50400001928E-02 0.  1.
</event>
<event>
 5   0  0.1654257E-06  0.2431836E+04  0.7818609E-02  0.8427680E-01
        1   -1    0    0  501    0  0.00000000000E+00  0.00000000000E+00  0.13855663322E+04  0.13855663323E+04  0.50400001928E-02 0. -1.
       -1   -1    0    0    0  501  0.00000000000E+00  0.00000000000E+00 -0.10670410266E+04  0.10670410266E+04  0.50400001928E-02 0.  1.
    10030    2    1    2    0    0  0.00000000000E+00  0.00000000000E+00  0.31852530567E+03  0.24526073588E+04  0.24318356207E+04 0.  0.
        3    1    3    3  502    0 -0.56952508584E+03  0.41175896650E+03  0.11599838656E+04  0.13562694601E+04  0.10100000352E+00 0. -1.
       -3    1    3    3    0  502  0.56952508584E+03 -0.41175896650E+03 -0.84145855990E+03  0.10963378987E+04  0.10100000352E+00 0.  1.
</event>
<event>
 5   0  0.1550164E-06  0.3071877E+04  0.7818609E-02  0.8223499E-01
        1   -1    0    0  501    0  0.00000000000E+00  0.00000000000E+00  0.21163929336E+04  0.21163929336E+04  0.50400001928E-02 0.  1.
       -1   -1    0    0    0  501  0.00000000000E+00  0.00000000000E+00 -0.11146832534E+04  0.11146832534E+04  0.50400001928E-02 0. -1.
    10030    2    1    2    0    0  0.00000000000E+00  0.00000000000E+00  0.10017096802E+04  0.32310761870E+04  0.30718774459E+04 0.  0.
        4    1    3    3  502    0 -0.91487753545E+03  0.72752152796E+03  0.15488953316E+04  0.19404553176E+04  0.12699999809E+01 0.  1.
       -4    1    3    3    0  502  0.91487753545E+03 -0.72752152796E+03 -0.54718565137E+03  0.12906208694E+04  0.12699999809E+01 0. -1.
</event>
<event>
 5   0  0.2722449E-06  0.2218867E+04  0.7818609E-02  0.8510616E-01
        2   -1    0    0  501    0  0.00000000000E+00  0.00000000000E+00  0.94379582087E+03  0.94379582088E+03  0.25500000920E-02 0. -1.
       -2   -1    0    0    0  501  0.00000000000E+00  0.00000000000E+00 -0.13041410724E+04  0.13041410724E+04  0.25500000920E-02 0.  1.
    10030    2    1    2    0    0  0.00000000000E+00  0.00000000000E+00 -0.36034525155E+03  0.22479368933E+04  0.22188671830E+04 0.  0.
        2    1    3    3  502    0 -0.20408820500E+03 -0.28167590860E+03  0.88712334346E+03  0.95288044340E+03  0.25500000920E-02 0. -1.
       -2    1    3    3    0  502  0.20408820500E+03  0.28167590860E+03 -0.12474685950E+04  0.12950564499E+04  0.25500000920E-02 0.  1.
</event>
<event>
 5   0  0.4173467E-06  0.3399562E+04  0.7818609E-02  0.8138014E-01
        2   -1    0    0  501    0  0.00000000000E+00  0.00000000000E+00  0.12672202641E+04  0.12672202641E+04  0.25500000920E-02 0.  1.
       -2   -1    0    0    0  501  0.00000000000E+00  0.00000000000E+00 -0.22799940187E+04  0.22799940187E+04  0.25500000920E-02 0. -1.
    10030    2    1    2    0    0  0.00000000000E+00  0.00000000000E+00 -0.10127737546E+04  0.35472142828E+04  0.33995615144E+04 0.  0.
        4    1    3    3  502    0 -0.28546628762E+03 -0.82361811549E+03  0.10162442228E+04  0.13388770425E+04  0.12699999809E+01 0.  1.
       -4    1    3    3    0  502  0.28546628762E+03  0.82361811549E+03 -0.20290179774E+04  0.22083372404E+04  0.12699999809E+01 0. -1.
</event>
<event>
 5   0  0.2101998E-06  0.3482586E+04  0.7818609E-02  0.8117929E-01
       -1   -1    0    0    0  501  0.00000000000E+00  0.00000000000E+00  0.15188402564E+04  0.15188402564E+04  0.50400001928E-02 0. -1.
        1   -1    0    0  501    0  0.00000000000E+00  0.00000000000E+00 -0.19963263068E+04  0.19963263068E+04  0.50400001928E-02 0.  1.
    10030    2    1    2    0    0  0.00000000000E+00  0.00000000000E+00 -0.47748605040E+03  0.35151665631E+04  0.34825856828E+04 0.  0.
        5    1    3    3  502    0 -0.87940390705E+03  0.77998920343E+02  0.12761792159E+04  0.15518023535E+04  0.46999998093E+01 0. -1.
       -5    1    3    3    0  502  0.87940390705E+03 -0.77998920343E+02 -0.17536652663E+04  0.19633642096E+04  0.46999998093E+01 0.  1.
</event>
<event>
 5   0  0.1562618E-06  0.1847773E+04  0.7818609E-02  0.8681299E-01
        1   -1    0    0  501    0  0.00000000000E+00  0.00000000000E+00  0.11429570333E+04  0.11429570333E+04  0.50400001928E-02 0. -1.
       -1   -1    0    0    0  501  0.00000000000E+00  0.00000000000E+00 -0.74680528216E+03  0.74680528218E+03  0.50400001928E-02 0.  1.
    10030    2    1    2    0    0  0.00000000000E+00  0.00000000000E+00  0.39615175117E+03  0.18897623155E+04  0.18477730919E+04 0.  0.
        2    1    3    3  502    0  0.63758741945E+03 -0.45951111763E+03 -0.29865462459E+03  0.84075131249E+03  0.25500000920E-02 0.  1.
       -2    1    3    3    0  502 -0.63758741945E+03  0.45951111763E+03  0.69480637576E+03  0.10490110030E+04  0.25500000920E-02 0. -1.
</event>
<event>
 5   0  0.1571391E-06  0.3433437E+04  0.7818609E-02  0.8129748E-01
        1   -1    0    0  501    0  0.00000000000E+00  0.00000000000E+00  0.19785830791E+04  0.19785830791E+04  0.50400001928E-02 0.  1.
       -1   -1    0    0    0  501  0.00000000000E+00  0.00000000000E+00 -0.14895113082E+04  0.14895113082E+04  0.50400001928E-02 0. -1.
    10030    2    1    2    0    0  0.00000000000E+00  0.00000000000E+00  0.48907177089E+03  0.34680943873E+04  0.34334366867E+04 0.  0.
        1    1    3    3  502    0  0.55319060244E+03  0.90581889987E+03 -0.11183780641E+04  0.15418486360E+04  0.50400001928E-02 0. -1.
       -1    1    3    3    0  502 -0.55319060244E+03 -0.90581889987E+03  0.16074498350E+04  0.19262457512E+04  0.50400001928E-02 0.  1.
</event>
<event>
 5   0  0.2722449E-06  0.3381054E+04  0.7818609E-02  0.8142572E-01
        2   -1    0    0  501    0  0.00000000000E+00  0.00000000000E+00  0.29461783821E+04  0.29461783821E+04  0.25500000920E-02 0.  1.
       -2   -1    0    0    0  501  0.00000000000E+00  0.00000000000E+00 -0.97003008305E+03  0.97003008305E+03  0.25500000920E-02 0. -1.
    10030    2    1    2    0    0  0.00000000000E+00  0.00000000000E+00  0.19761482991E+04  0.39162084652E+04  0.33810540727E+04 0.  0.
        2    1    3    3  502    0  0.13758492218E+04 -0.45175945474E+03 -0.22245115229E+02  0.14482895191E+04  0.25500000920E-02 0. -1.
       -2    1    3    3    0  502 -0.13758492218E+04  0.45175945474E+03  0.19983934143E+04  0.24679189461E+04  0.25500000920E-02 0.  1.
</event>
<event>
 5   0  0.4189587E-06  0.3222547E+04  0.7818609E-02  0.8182888E-01
        2   -1    0    0  501    0  0.00000000000E+00  0.00000000000E+00  0.15993285703E+04  0.15993285703E+04  0.25500000920E-02 0. -1.
       -2   -1    0    0    0  501  0.00000000000E+00  0.00000000000E+00 -0.16233078577E+04  0.16233078577E+04  0.25500000920E-02 0.  1.
    10030    2    1    2    0    0  0.00000000000E+00  0.00000000000E+00 -0.23979287456E+02  0.32226364280E+04  0.32225472131E+04 0.  0.
        1    1    3    3  502    0 -0.56596433231E+03  0.14910462495E+04 -0.24149129487E+03  0.16130259109E+04  0.50400001928E-02 0.  1.
       -1    1    3    3    0  502  0.56596433231E+03 -0.14910462495E+04  0.21751200742E+03  0.16096105172E+04  0.50400001928E-02 0. -1.
</event>
<event>
 5   0  0.1550164E-06  0.3327697E+04  0.7818609E-02  0.8155883E-01
        1   -1    0    0  501    0  0.00000000000E+00  0.00000000000E+00  0.17081799462E+04  0.17081799462E+04  0.50400001928E-02 0. -1.
       -1   -1    0    0    0  501  0.00000000000E+00  0.00000000000E+00 -0.16206676362E+04  0.16206676362E+04  0.50400001928E-02 0.  1.
    10030    2    1    2    0    0  0.00000000000E+00  0.00000000000E+00  0.87512309972E+02  0.33288475825E+04  0.33276970750E+04 0.  0.
        4    1    3    3  502    0  0.15396266609E+04  0.34379453701E+03  0.57284865560E+03  0.16783331415E+04  0.12699999809E+01 0. -1.
       -4    1    3    3    0  502 -0.15396266609E+04 -0.34379453701E+03 -0.48533634562E+03  0.16505144410E+04  0.12699999809E+01 0.  1.
</event>
<event>
 5   0  0.2722449E-06  0.2008035E+04  0.7818609E-02  0.8602873E-01
       -2   -1    0    0    0  501  0.00000000000E+00  0.00000000000E+00  0.50304978129E+03  0.50304978130E+03  0.25500000920E-02 0. -1.
        2   -1    0    0  501    0  0.00000000000E+00  0.00000000000E+00 -0.20038790400E+04  0.20038790400E+04  0.25500000920E-02 0.  1.
    10030    2    1    2    0    0  0.00000000000E+00  0.00000000000E+00 -0.15008292587E+04  0.25069288213E+04  0.20080347734E+04 0.  0.
        2    1    3    3  502    0 -0.39765936512E+03  0.41994933469E+03  0.27419652351E+03  0.64005792541E+03  0.25500000920E-02 0. -1.
       -2    1    3    3    0  502  0.39765936512E+03 -0.41994933469E+03 -0.17750257822E+04  0.18668708959E+04  0.25500000920E-02 0.  1.
</event>
<event>
 5   0  0.1562618E-06  0.3132603E+04  0.7818609E-02  0.8206847E-01
        1   -1    0    0  501    0  0.00000000000E+00  0.00000000000E+00  0.17896687154E+04  0.17896687154E+04  0.50400001928E-02 0.  1.
       -1   -1    0    0    0  501  0.00000000000E+00  0.00000000000E+00 -0.13708123386E+04  0.13708123387E+04  0.50400001928E-02 0. -1.
    10030    2    1    2    0    0  0.00000000000E+00  0.00000000000E+00  0.41885637675E+03  0.31604810541E+04  0.31326027244E+04 0.  0.
        2    1    3    3  502    0  0.16821900477E+03  0.62421933047E+03 -0.12299260563E+04  0.13894839006E+04  0.25500000920E-02 0. -1.
       -2    1    3    3    0  502 -0.16821900477E+03 -0.62421933047E+03  0.16487824330E+04  0.17709971535E+04  0.25500000920E-02 0.  1.
</event>
<event>
 5   0  0.1401125E-06  0.2807854E+04  0.7818609E-02  0.8300834E-01
        3   -1    0    0  501    0  0.00000000000E+00  0.00000000000E+00  0.99447778457E+03  0.99447778969E+03  0.10100000352E+00 0.  1.
       -3   -1    0    0    0  501  0.00000000000E+00  0.00000000000E+00 -0.19819557042E+04  0.19819557068E+04  0.10100000352E+00 0. -1.
    10030    2    1    2    0    0  0.00000000000E+00  0.00000000000E+00 -0.98747791966E+03  0.29764334965E+04  0.28078539345E+04 0.  0.
        5    1    3    3  502    0 -0.91912471885E+03  0.87999469009E+03 -0.11224838773E+04  0.16968126144E+04  0.46999998093E+01 0. -1.
       -5    1    3    3    0  502  0.91912471885E+03 -0.87999469009E+03  0.13500595767E+03  0.12796208821E+04  0.46999998093E+01 0.  1.
</event>
<event>
 5   0  0.1571391E-06  0.3365611E+04  0.7818609E-02  0.8146398E-01
       -1   -1    0    0    0  501  0.00000000000E+00  0.00000000000E+00  0.28335620546E+04  0.28335620546E+04  0.50400001928E-02 0. -1.
        1   -1    0    0  501    0  0.00000000000E+00  0.00000000000E+00 -0.99939032986E+03  0.99939032987E+03  0.50400001928E-02 0.  1.
    10030    2    1    2    0    0  0.00000000000E+00  0.00000000000E+00  0.18341717247E+04  0.38329523844E+04  0.33656110984E+04 0.  0.
        1    1    3    3  502    0 -0.10859649695E+04 -0.70650698229E+03  0.21401589319E+04  0.25017498446E+04  0.50400001928E-02 0. -1.
       -1    1    3    3    0  502  0.10859649695E+04  0.70650698229E+03 -0.30598720723E+03  0.13312025398E+04  0.50400001928E-02 0.  1.
</event>
<event>
 5   0  0.4344980E-06  0.3433648E+04  0.7818609E-02  0.8129697E-01
        2   -1    0    0  501    0  0.00000000000E+00  0.00000000000E+00  0.24394443818E+04  0.24394443818E+04  0.25500000920E-02 0.  1.
       -2   -1    0    0    0  501  0.00000000000E+00  0.00000000000E+00 -0.12082604538E+04  0.12082604538E+04  0.25500000920E-02 0. -1.
    10030    2    1    2    0    0  0.00000000000E+00  0.00000000000E+00  0.12311839280E+04  0.36477048357E+04  0.34336477256E+04 0.  0.
        3    1    3    3  502    0 -0.15145192910E+04 -0.25793106019E+02  0.14740859063E+04  0.21136137861E+04  0.10100000352E+00 0.  1.
       -3    1    3    3    0  502  0.15145192910E+04  0.25793106019E+02 -0.24290197832E+03  0.15340910496E+04  0.10100000352E+00 0. -1.
</event>
<event>
 5   0  0.2722449E-06  0.3472566E+04  0.7818609E-02  0.8120322E-01
       -2   -1    0    0    0  501  0.00000000000E+00  0.00000000000E+00  0.25164699517E+04  0.25164699517E+04  0.25500000920E-02 0.  1.
        2   -1    0    0  501    0  0.00000000000E+00  0.00000000000E+00 -0.11979794319E+04  0.11979794319E+04  0.25500000920E-02 0. -1.
    10030    2    1    2    0    0  0.00000000000E+00  0.00000000000E+00  0.13184905198E+04  0.37144493836E+04  0.34725663381E+04 0.  0.
        2    1    3    3  502    0 -0.85246603295E+03 -0.43681898272E+03 -0.88978792014E+03  0.13073758847E+04  0.25500000920E-02 0. -1.
       -2    1    3    3    0  502  0.85246603295E+03  0.43681898272E+03  0.22082784399E+04  0.24070734989E+04  0.25500000920E-02 0.  1.
</event>
<event>
 5   0  0.2101998E-06  0.3237808E+04  0.7818609E-02  0.8178903E-01
       -1   -1    0    0    0  501  0.00000000000E+00  0.00000000000E+00  0.28721628944E+04  0.28721628944E+04  0.50400001928E-02 0. -1.
        1   -1    0    0  501    0  0.00000000000E+00  0.00000000000E+00 -0.91250030620E+03  0.91250030621E+03  0.50400001928E-02 0.  1.
    10030    2    1    2    0    0  0.00000000000E+00  0.00000000000E+00  0.19596625882E+04  0.37846632006E+04  0.32378076043E+04 0.  0.
        5    1    3    3  502    0 -0.13778155774E+04 -0.81836944311E+03  0.71143485474E+03  0.17533584782E+04  0.46999998093E+01 0.  1.
       -5    1    3    3    0  502  0.13778155774E+04  0.81836944311E+03  0.12482277335E+04  0.20313047224E+04  0.46999998093E+01 0. -1.
</event>
<event>
 5   0  0.2101998E-06  0.1868223E+04  0.7818609E-02  0.8670837E-01
       -1   -1    0    0    0  501  0.00000000000E+00  0.00000000000E+00  0.41326841019E+03  0.41326841022E+03  0.50400001928E-02 0.  1.
        1   -1    0    0  501    0  0.00000000000E+00  0.00000000000E+00 -0.21113744734E+04  0.21113744734E+04  0.50400001928E-02 0. -1.
    10030    2    1    2    0    0  0.00000000000E+00  0.00000000000E+00 -0.16981060632E+04  0.25246428836E+04  0.18682230830E+04 0.  0.
        5    1    3    3  502    0 -0.58514130964E+03 -0.19080115668E+02 -0.18326614341E+04  0.19239086322E+04  0.46999998093E+01 0. -1.
       -5    1    3    3    0  502  0.58514130964E+03  0.19080115668E+02  0.13455537085E+03  0.60073425146E+03  0.46999998093E+01 0.  1.
</event>
<event>
 5   0  0.4400349E-06  0.3751979E+04  0.7818609E-02  0.8056539E-01
       -2   -1    0    0    0  501  0.00000000000E+00  0.00000000000E+00  0.12293782327E+04  0.12293782327E+04  0.25500000920E-02 0.  1.
        2   -1    0    0  501    0  0.00000000000E+00  0.00000000000E+00 -0.28626956405E+04  0.28626956405E+04  0.25500000920E-02 0. -1.
    10030    2    1    2    0    0  0.00000000000E+00  0.00000000000E+00 -0.16333174078E+04  0.40920738732E+04  0.37519785219E+04 0.  0.
        5    1    3    3  502    0  0.74754150864E+03  0.16568662864E+04 -0.13227099105E+04  0.22480230860E+04  0.46999998093E+01 0.  1.
       -5    1    3    3    0  502 -0.74754150864E+03 -0.16568662864E+04 -0.31060749727E+03  0.18440507871E+04  0.46999998093E+01 0. -1.
</event>
<event>
 5   0  0.1550164E-06  0.2341321E+04  0.7818609E-02  0.8461805E-01
        1   -1    0    0  501    0  0.00000000000E+00  0.00000000000E+00  0.99940625008E+03  0.99940625009E+03  0.50400001928E-02 0.  1.
       -1   -1    0    0    0  501  0.00000000000E+00  0.00000000000E+00 -0.13712606900E+04  0.13712606900E+04  0.50400001928E-02 0. -1.
    10030    2    1    2    0    0  0.00000000000E+00  0.00000000000E+00 -0.37185443989E+03  0.23706669401E+04  0.23413214252E+04 0.  0.
        4    1    3    3  502    0 -0.61725707628E+03 -0.98854428577E+03 -0.74003130586E+02  0.11677774528E+04  0.12699999809E+01 0.  1.
       -4    1    3    3    0  502  0.61725707628E+03  0.98854428577E+03 -0.29785130930E+03  0.12028894872E+04  0.12699999809E+01 0. -1.
</event>
<event>
 5   0  0.2722449E-06  0.3524558E+04  0.7818609E-02  0.8107995E-01
       -2   -1    0    0    0  501  0.00000000000E+00  0.00000000000E+00  0.14087059369E+04  0.14087059369E+04  0.25500000920E-02 0. -1.
        2   -1    0    0  501    0  0.00000000000E+00  0.00000000000E+00 -0.22045955228E+04  0.22045955228E+04  0.25500000920E-02 0.  1.
    10030    2    1    2    0    0  0.00000000000E+00  0.00000000000E+00 -0.79588958598E+03  0.36133014597E+04  0.35245577319E+04 0.  0.
        2    1    3    3  502    0  0.21513911268E+03 -0.90367437457E+03 -0.19332211852E+04  0.21448208233E+04  0.25500000920E-02 0.  1.
       -2    1    3    3    0  502 -0.21513911268E+03  0.90367437457E+03  0.11373315992E+04  0.14684806364E+04  0.25500000920E-02 0. -1.
</event>
<event>
 5   0  0.1571391E-06  0.3385094E+04  0.7818609E-02  0.8141574E-01
       -1   -1    0    0    0  501  0.00000000000E+00  0.00000000000E+00  0.13835862466E+04  0.13835862466E+04  0.50400001928E-02 0.  1.
        1   -1    0    0  501    0  0.00000000000E+00  0.00000000000E+00 -0.20704998469E+04  0.20704998469E+04  0.50400001928E-02 0. -1.
    10030    2    1    2    0    0  0.00000000000E+00  0.00000000000E+00 -0.68691360026E+03  0.34540860935E+04  0.33850938609E+04 0.  0.
        1    1    3    3  502    0 -0.22871160960E+03  0.85050118949E+03 -0.18182708263E+04  0.20203390982E+04  0.50400001928E-02 0. -1.
       -1    1    3    3    0  502  0.22871160960E+03 -0.85050118949E+03  0.11313572261E+04  0.14337469954E+04  0.50400001928E-02 0.  1.
</event>
<event>
 5   0  0.4400349E-06  0.1698809E+04  0.7818609E-02  0.8762044E-01
        2   -1    0    0  501    0  0.00000000000E+00  0.00000000000E+00  0.52742710954E+03  0.52742710955E+03  0.25500000920E-02 0. -1.
       -2   -1    0    0    0  501  0.00000000000E+00  0.00000000000E+00 -0.13679390062E+04  0.13679390062E+04  0.25500000920E-02 0.  1.
    10030    2    1    2    0    0  0.00000000000E+00  0.00000000000E+00 -0.84051189661E+03  0.18953661157E+04  0.16988091312E+04 0.  0.
        5    1    3    3  502    0  0.34991380912E+03 -0.38166408257E+03 -0.11714801816E+04  0.12808181181E+04  0.46999998093E+01 0.  1.
       -5    1    3    3    0  502 -0.34991380912E+03  0.38166408257E+03  0.33096828497E+03  0.61454799763E+03  0.46999998093E+01 0. -1.
</event>
<event>
 5   0  0.1571391E-06  0.3374301E+04  0.7818609E-02  0.8144243E-01
        1   -1    0    0  501    0  0.00000000000E+00  0.00000000000E+00  0.18254793278E+04  0.18254793278E+04  0.50400001928E-02 0.  1.
       -1   -1    0    0    0  501  0.00000000000E+00  0.00000000000E+00 -0.15593040127E+04  0.15593040127E+04  0.50400001928E-02 0. -1.
    10030    2    1    2    0    0  0.00000000000E+00  0.00000000000E+00  0.26617531514E+03  0.33847833405E+04  0.33743012556E+04 0.  0.
        1    1    3    3  502    0  0.97378277755E+03 -0.12443987941E+04  0.72627563971E+03  0.17390392639E+04  0.50400001928E-02 0.  1.
       -1    1    3    3    0  502 -0.97378277755E+03  0.12443987941E+04 -0.46010032457E+03  0.16457440765E+04  0.50400001928E-02 0. -1.
</event>
<event>
 5   0  0.2101998E-06  0.3432492E+04  0.7818609E-02  0.8129977E-01
       -1   -1    0    0    0  501  0.00000000000E+00  0.00000000000E+00  0.17283817592E+04  0.17283817592E+04  0.50400001928E-02 0.  1.
        1   -1    0    0  501    0  0.00000000000E+00  0.00000000000E+00 -0.17041956556E+04  0.17041956556E+04  0.50400001928E-02 0. -1.
    10030    2    1    2    0    0  0.00000000000E+00  0.00000000000E+00  0.24186103543E+02  0.34325774148E+04  0.34324922055E+04 0.  0.
        5    1    3    3  502    0  0.37814818238E+03  0.18189496656E+03 -0.16520987242E+04  0.17045627331E+04  0.46999998093E+01 0. -1.
       -5    1    3    3    0  502 -0.37814818238E+03 -0.18189496656E+03  0.16762848277E+04  0.17280146817E+04  0.46999998093E+01 0.  1.
</event>
<event>
 5   0  0.1654257E-06  0.3348038E+04  0.7818609E-02  0.8150779E-01
       -1   -1    0    0    0  501  0.00000000000E+00  0.00000000000E+00  0.20496961946E+04  0.20496961946E+04  0.50400001928E-02 0. -1.
        1   -1    0    0  501    0  0.00000000000E+00  0.00000000000E+00 -0.13671976899E+04  0.13671976899E+04  0.50400001928E-02 0.  1.
    10030    2    1    2    0    0  0.00000000000E+00  0.00000000000E+00  0.68249850470E+03  0.34168938845E+04  0.33480381732E+04 0.  0.
        3    1    3    3  502    0 -0.13836295218E+02  0.72191961435E+03  0.18826014238E+04  0.20163202880E+04  0.10100000352E+00 0. -1.
       -3    1    3    3    0  502  0.13836295218E+02 -0.72191961435E+03 -0.12001029191E+04  0.14005735965E+04  0.10100000352E+00 0.  1.
</event>
<event>
 5   0  0.2722449E-06  0.3348732E+04  0.7818609E-02  0.8150605E-01
       -2   -1    0    0    0  501  0.00000000000E+00  0.00000000000E+00  0.11561136069E+04  0.11561136069E+04  0.25500000920E-02 0.  1.
        2   -1    0    0  501    0  0.00000000000E+00  0.00000000000E+00 -0.24249364349E+04  0.24249364349E+04  0.25500000920E-02 0. -1.
    10030    2    1    2    0    0  0.00000000000E+00  0.00000000000E+00 -0.12688228280E+04  0.35810500418E+04  0.33487323024E+04 0.  0.
        2    1    3    3  502    0 -0.12828232571E+04 -0.44834620265E+03  0.41163844242E+03  0.14198929656E+04  0.25500000920E-02 0.  1.
       -2    1    3    3    0  502  0.12828232571E+04  0.44834620265E+03 -0.16804612704E+04  0.21611570762E+04  0.25500000920E-02 0. -1.
</event>
<event>
 5   0  0.2101998E-06  0.3398536E+04  0.7818609E-02  0.8138266E-01
       -1   -1    0    0    0  501  0.00000000000E+00  0.00000000000E+00  0.16256345973E+04  0.16256345973E+04  0.50400001928E-02 0. -1.
        1   -1    0    0  501    0  0.00000000000E+00  0.00000000000E+00 -0.17762367676E+04  0.17762367676E+04  0.50400001928E-02 0.  1.
    10030    2    1    2    0    0  0.00000000000E+00  0.00000000000E+00 -0.15060217025E+03  0.34018713649E+04  0.33985361216E+04 0.  0.
        5    1    3    3  502    0 -0.21965085554E+03  0.15804470264E+04 -0.66019511264E+03  0.17268291688E+04  0.46999998093E+01 0.  1.
       -5    1    3    3    0  502  0.21965085554E+03 -0.15804470264E+04  0.50959294238E+03  0.16750421960E+04  0.46999998093E+01 0. -1.
</event>
<event>
 5   0  0.1571391E-06  0.3385250E+04  0.7818609E-02  0.8141536E-01
       -1   -1    0    0    0  501  0.00000000000E+00  0.00000000000E+00  0.13267246660E+04  0.13267246660E+04  0.50400001928E-02 0. -1.
        1   -1    0    0  501    0  0.00000000000E+00  0.00000000000E+00 -0.21594378185E+04  0.21594378185E+04  0.50400001928E-02 0.  1.
    10030    2    1    2    0    0  0.00000000000E+00  0.00000000000E+00 -0.83271315254E+03  0.34861624846E+04  0.33852500165E+04 0.  0.
        1    1    3    3  502    0  0.41251352710E+03  0.14610617936E+04  0.35435824616E+03  0.15589864468E+04  0.50400001928E-02 0. -1.
       -1    1    3    3    0  502 -0.41251352710E+03 -0.14610617936E+04 -0.11870713987E+04  0.19271760377E+04  0.50400001928E-02 0.  1.
</event>
<event>
 5   0  0.2722449E-06  0.1895046E+04  0.7818609E-02  0.8657326E-01
       -2   -1    0    0    0  501  0.00000000000E+00  0.00000000000E+00  0.51221264826E+03  0.51221264826E+03  0.25500000920E-02 0.  1.
        2   -1    0    0  501    0  0.00000000000E+00  0.00000000000E+00 -0.17527869058E+04  0.17527869058E+04  0.25500000920E-02 0. -1.
    10030    2    1    2    0    0  0.00000000000E+00  0.00000000000E+00 -0.12405742575E+04  0.22649995541E+04  0.18950457756E+04 0.  0.
        2    1    3    3  502    0 -0.69909273699E+03 -0.16430856952E+03 -0.13590768247E+04  0.15371459841E+04  0.25500000920E-02 0. -1.
       -2    1    3    3    0  502  0.69909273699E+03  0.16430856952E+03  0.11850256715E+03  0.72785357000E+03  0.25500000920E-02 0.  1.
</event>
<event>
 5   0  0.4400349E-06  0.3229362E+04  0.7818609E-02  0.8181106E-01
       -2   -1    0    0    0  501  0.00000000000E+00  0.00000000000E+00  0.13571774648E+04  0.13571774648E+04  0.25500000920E-02 0. -1.
        2   -1    0    0  501    0  0.00000000000E+00  0.00000000000E+00 -0.19210416474E+04  0.19210416474E+04  0.25500000920E-02 0.  1.
    10030    2    1    2    0    0  0.00000000000E+00  0.00000000000E+00 -0.56386418258E+03  0.32782191122E+04  0.32293618148E+04 0.  0.
        5    1    3    3  502    0 -0.15285253072E+04 -0.43235445899E+03 -0.57588576423E+03  0.16896705289E+04  0.46999998093E+01 0.  1.
       -5    1    3    3    0  502  0.15285253072E+04  0.43235445899E+03  0.12021581648E+02  0.15885485832E+04  0.46999998093E+01 0. -1.
</event>
<event>
 5   0  0.4400349E-06  0.3438278E+04  0.7818609E-02  0.8128575E-01
       -2   -1    0    0    0  501  0.00000000000E+00  0.00000000000E+00  0.11118634259E+04  0.11118634259E+04  0.25500000920E-02 0. -1.
        2   -1    0    0  501    0  0.00000000000E+00  0.00000000000E+00 -0.26580947989E+04  0.26580947989E+04  0.25500000920E-02 0.  1.
    10030    2    1    2    0    0  0.00000000000E+00  0.00000000000E+00 -0.15462313729E+04  0.37699582248E+04  0.34382777023E+04 0.  0.
        5    1    3    3  502    0  0.15022071253E+03  0.16808170991E+04 -0.41327411508E+03  0.17373917139E+04  0.46999998093E+01 0.  1.
       -5    1    3    3    0  502 -0.15022071253E+03 -0.16808170991E+04 -0.11329572579E+04  0.20325665109E+04  0.46999998093E+01 0. -1.
</event>
<event>
 5   0  0.1562618E-06  0.3406675E+04  0.7818609E-02  0.8136270E-01
       -1   -1    0    0    0  501  0.00000000000E+00  0.00000000000E+00  0.16971831836E+04  0.16971831836E+04  0.50400001928E-02 0.  1.
        1   -1    0    0  501    0  0.00000000000E+00  0.00000000000E+00 -0.17095144828E+04  0.17095144829E+04  0.50400001928E-02 0. -1.
    10030    2    1    2    0    0  0.00000000000E+00  0.00000000000E+00 -0.12331299216E+02  0.34066976665E+04  0.34066753485E+04 0.  0.
        2    1    3    3  502    0 -0.13538649021E+04  0.56445977235E+03 -0.87207791364E+03  0.17064831951E+04  0.25500000920E-02 0. -1.
       -2    1    3    3    0  502  0.13538649021E+04 -0.56445977235E+03  0.85974661442E+03  0.17002144714E+04  0.25500000920E-02 0.  1.
</event>
<event>
 5   0  0.1550164E-06  0.2857572E+04  0.7818609E-02  0.8285614E-01
       -1   -1    0    0    0  501  0.00000000000E+00  0.00000000000E+00  0.12844954185E+04  0.12844954185E+04  0.50400001928E-02 0.  1.
        1   -1    0    0  501    0  0.00000000000E+00  0.00000000000E+00 -0.15892847954E+04  0.15892847954E+04  0.50400001928E-02 0. -1.
    10030    2    1    2    0    0  0.00000000000E+00  0.00000000000E+00 -0.30478937683E+03  0.28737802139E+04  0.28575717232E+04 0.  0.
        4    1    3    3  502    0  0.10670539542E+04  0.68734682219E+03  0.50735813222E+03  0.13669175843E+04  0.12699999809E+01 0.  1.
       -4    1    3    3    0  502 -0.10670539542E+04 -0.68734682219E+03 -0.81214750905E+03  0.15068626296E+04  0.12699999809E+01 0. -1.
</event>
<event>
 5   0  0.2101998E-06  0.2597242E+04  0.7818609E-02  0.8369139E-01
       -1   -1    0    0    0  501  0.00000000000E+00  0.00000000000E+00  0.61519598664E+03  0.61519598666E+03  0.50400001928E-02 0. -1.
        1   -1    0    0  501    0  0.00000000000E+00  0.00000000000E+00 -0.27412672933E+04  0.27412672933E+04  0.50400001928E-02 0.  1.
    10030    2    1    2    0    0  0.00000000000E+00  0.00000000000E+00 -0.21260713066E+04  0.33564632799E+04  0.25972421044E+04 0.  0.
        5    1    3    3  502    0  0.31634954927E+03 -0.22911539198E+02 -0.26904294460E+04  0.27090652761E+04  0.46999998093E+01 0.  1.
       -5    1    3    3    0  502 -0.31634954927E+03  0.22911539198E+02  0.56435813938E+03  0.64739800388E+03  0.46999998093E+01 0. -1.
</event>
<event>
 5   0  0.1654257E-06  0.2122220E+04  0.7818609E-02  0.8551518E-01
        1   -1    0    0  501    0  0.00000000000E+00  0.00000000000E+00  0.13085490362E+04  0.13085490362E+04  0.50400001928E-02 0. -1.
       -1   -1    0    0    0  501  0.00000000000E+00  0.00000000000E+00 -0.86046011307E+03  0.86046011309E+03  0.50400001928E-02 0.  1.
    10030    2    1    2    0    0  0.00000000000E+00  0.00000000000E+00  0.44808892308E+03  0.21690091493E+04  0.21222198299E+04 0.  0.
        3    1    3    3  502    0  0.95365943007E+03  0.46154275694E+03  0.16387185121E+03  0.10720737003E+04  0.10100000352E+00 0.  1.
       -3    1    3    3    0  502 -0.95365943007E+03 -0.46154275694E+03  0.28421707188E+03  0.10969354490E+04  0.10100000352E+00 0. -1.
</event>
<event>
 5   0  0.4344980E-06  0.3202303E+04  0.7818609E-02  0.8188209E-01
       -2   -1    0    0    0  501  0.00000000000E+00  0.00000000000E+00  0.10651661857E+04  0.10651661857E+04  0.25500000920E-02 0. -1.
        2   -1    0    0  501    0  0.00000000000E+00  0.00000000000E+00 -0.24068412341E+04  0.24068412341E+04  0.25500000920E-02 0.  1.
    10030    2    1    2    0    0  0.00000000000E+00  0.00000000000E+00 -0.13416750483E+04  0.34720074198E+04  0.32023028570E+04 0.  0.
        3    1    3    3  502    0 -0.13458620692E+04  0.31573643489E+03  0.20507144270E+03  0.13975294317E+04  0.10100000352E+00 0. -1.
       -3    1    3    3    0  502  0.13458620692E+04 -0.31573643489E+03 -0.15467464910E+04  0.20744779881E+04  0.10100000352E+00 0.  1.
</event>
<event>
 5   0  0.2380564E-06  0.1728588E+04  0.7818609E-02  0.8745225E-01
       -1   -1    0    0    0  501  0.00000000000E+00  0.00000000000E+00  0.75283716579E+03  0.75283716581E+03  0.50400001928E-02 0. -1.
        1   -1    0    0  501    0  0.00000000000E+00  0.00000000000E+00 -0.99225224633E+03  0.99225224634E+03  0.50400001928E-02 0.  1.
    10030    2    1    2    0    0  0.00000000000E+00  0.00000000000E+00 -0.23941508054E+03  0.17450894121E+04  0.17285882898E+04 0.  0.
        5    1    3    3  502    0 -0.52488793839E+03  0.52952603533E+03  0.32158892398E+03  0.81200166009E+03  0.46999998093E+01 0. -1.
       -5    1    3    3    0  502  0.52488793839E+03 -0.52952603533E+03 -0.56100400452E+03  0.93308775206E+03  0.46999998093E+01 0.  1.
</event>
<event>
 5   0  0.4173467E-06  0.3529537E+04  0.7818609E-02  0.8106825E-01
        2   -1    0    0  501    0  0.00000000000E+00  0.00000000000E+00  0.25150589887E+04  0.25150589887E+04  0.25500000920E-02 0.  1.
       -2   -1    0    0    0  501  0.00000000000E+00  0.00000000000E+00 -0.12383044425E+04  0.12383044425E+04  0.25500000920E-02 0. -1.
    10030    2    1    2    0    0  0.00000000000E+00  0.00000000000E+00  0.12767545462E+04  0.37533634312E+04  0.35295374875E+04 0.  0.
        4    1    3    3  502    0  0.85218759414E+03 -0.11393172619E+04  0.17486863106E+04  0.22543675266E+04  0.12699999809E+01 0.  1.
       -4    1    3    3    0  502 -0.85218759414E+03  0.11393172619E+04 -0.47193176447E+03  0.14989959047E+04  0.12699999809E+01 0. -1.
</event>
<event>
 5   0  0.1654257E-06  0.3178756E+04  0.7818609E-02  0.8194450E-01
        1   -1    0    0  501    0  0.00000000000E+00  0.00000000000E+00  0.11889263904E+04  0.11889263904E+04  0.50400001928E-02 0.  1.
       -1   -1    0    0    0  501  0.00000000000E+00  0.00000000000E+00 -0.21247082280E+04  0.21247082281E+04  0.50400001928E-02 0. -1.
    10030    2    1    2    0    0  0.00000000000E+00  0.00000000000E+00 -0.93578183765E+03  0.33136346185E+04  0.31787555327E+04 0.  0.
        3    1    3    3  502    0 -0.99039356576E+03  0.50166879482E+03  0.71772103995E+03  0.13219964055E+04  0.10100000352E+00 0.  1.
       -3    1    3    3    0  502  0.99039356576E+03 -0.50166879482E+03 -0.16535028776E+04  0.19916382129E+04  0.10100000352E+00 0. -1.
</event>
<event>
 5   0  0.1562618E-06  0.2208842E+04  0.7818609E-02  0.8514757E-01
        1   -1    0    0  501    0  0.00000000000E+00  0.00000000000E+00  0.15118745202E+04  0.15118745203E+04  0.50400001928E-02 0. -1.
       -1   -1    0    0    0  501  0.00000000000E+00  0.00000000000E+00 -0.80677726890E+03  0.80677726891E+03  0.50400001928E-02 0.  1.
    10030    2    1    2    0    0  0.00000000000E+00  0.00000000000E+00  0.70509725135E+03  0.23186517892E+04  0.22088422274E+04 0.  0.
        2    1    3    3  502    0  0.16205503317E+03 -0.25036002479E+03 -0.76370917707E+03  0.81987418726E+03  0.25500000920E-02 0.  1.
       -2    1    3    3    0  502 -0.16205503317E+03  0.25036002479E+03  0.14688064284E+04  0.14987776019E+04  0.25500000920E-02 0. -1.
</event>
<event>
 5   0  0.4173467E-06  0.3433759E+04  0.7818609E-02  0.8129670E-01
       -2   -1    0    0    0  501  0.00000000000E+00  0.00000000000E+00  0.14947793017E+04  0.14947793017E+04  0.25500000920E-02 0.  1.
        2   -1    0    0  501    0  0.00000000000E+00  0.00000000000E+00 -0.19719804708E+04  0.19719804708E+04  0.25500000920E-02 0. -1.
    10030    2    1    2    0    0  0.00000000000E+00  0.00000000000E+00 -0.47720116914E+03  0.34667597725E+04  0.34337592176E+04 0.  0.
        4    1    3    3  502    0  0.10946578414E+03 -0.64099912835E+03 -0.18428370210E+04  0.19542038122E+04  0.12699999809E+01 0. -1.
       -4    1    3    3    0  502 -0.10946578414E+03  0.64099912835E+03  0.13656358519E+04  0.15125559604E+04  0.12699999809E+01 0.  1.
</event>
<event>
 5   0  0.4344980E-06  0.3425927E+04  0.7818609E-02  0.8131572E-01
        2   -1    0    0  501    0  0.00000000000E+00  0.00000000000E+00  0.16434525350E+04  0.16434525350E+04  0.25500000920E-02 0.  1.
       -2   -1    0    0    0  501  0.00000000000E+00  0.00000000000E+00 -0.17854148523E+04  0.17854148523E+04  0.25500000920E-02 0. -1.
    10030    2    1    2    0    0  0.00000000000E+00  0.00000000000E+00 -0.14196231732E+03  0.34288673873E+04  0.34259273577E+04 0.  0.
        3    1    3    3  502    0  0.86291012584E+03 -0.14368271866E+04 -0.42506195729E+03  0.17290933830E+04  0.10100000352E+00 0.  1.
       -3    1    3    3    0  502 -0.86291012584E+03  0.14368271866E+04  0.28309963997E+03  0.16997740043E+04  0.10100000352E+00 0. -1.
</event>
<event>
 5   0  0.4189587E-06  0.3309543E+04  0.7818609E-02  0.8160471E-01
       -2   -1    0    0    0  501  0.00000000000E+00  0.00000000000E+00  0.28619561210E+04  0.28619561210E+04  0.25500000920E-02 0. -1.
        2   -1    0    0  501    0  0.00000000000E+00  0.00000000000E+00 -0.95678226526E+03  0.95678226527E+03  0.25500000920E-02 0.  1.
    10030    2    1    2    0    0  0.00000000000E+00  0.00000000000E+00  0.19051738557E+04  0.38187383863E+04  0.33095430866E+04 0.  0.
        1    1    3    3  502    0  0.36549788120E+03 -0.13978827950E+04  0.18832879310E+04  0.23736972092E+04  0.50400001928E-02 0. -1.
       -1    1    3    3    0  502 -0.36549788120E+03  0.13978827950E+04  0.21885924677E+02  0.14450411771E+04  0.50400001928E-02 0.  1.
</event>
<event>
 5   0  0.4189587E-06  0.3494681E+04  0.7818609E-02  0.8115052E-01
       -2   -1    0    0    0  501  0.00000000000E+00  0.00000000000E+00  0.32758956974E+04  0.32758956974E+04  0.25500000920E-02 0. -1.
        2   -1    0    0  501    0  0.00000000000E+00  0.00000000000E+00 -0.93201940477E+03  0.93201940477E+03  0.25500000920E-02 0.  1.
    10030    2    1    2    0    0  0.00000000000E+00  0.00000000000E+00  0.23438762926E+04  0.42079151021E+04  0.34946807339E+04 0.  0.
        1    1    3    3  502    0  0.12395599979E+04  0.74986700528E+03 -0.43728052629E+01  0.14487334590E+04  0.50400001928E-02 0.  1.
       -1    1    3    3    0  502 -0.12395599979E+04 -0.74986700528E+03  0.23482490979E+04  0.27591816431E+04  0.50400001928E-02 0. -1.
</event>
<event>
 5   0  0.2722449E-06  0.2642339E+04  0.7818609E-02  0.8353960E-01
        2   -1    0    0  501    0  0.00000000000E+00  0.00000000000E+00  0.10781259072E+04  0.10781259072E+04  0.25500000920E-02 0. -1.
       -2   -1    0    0    0  501  0.00000000000E+00  0.00000000000E+00 -0.16190023169E+04  0.16190023169E+04  0.25500000920E-02 0.  1.
    10030    2    1    2    0    0  0.00000000000E+00  0.00000000000E+00 -0.54087640965E+03  0.26971282241E+04  0.26423386169E+04 0.  0.
        2    1    3    3  502    0  0.97757231509E+03  0.59072704065E+03  0.40731946473E+03  0.12126480174E+04  0.25500000920E-02 0. -1.
       -2    1    3    3    0  502 -0.97757231509E+03 -0.59072704065E+03 -0.94819587438E+03  0.14844802067E+04  0.25500000920E-02 0.  1.
</event>
<event>
 5   0  0.4173467E-06  0.3381513E+04  0.7818609E-02  0.8142459E-01
        2   -1    0    0  501    0  0.00000000000E+00  0.00000000000E+00  0.18182926113E+04  0.18182926113E+04  0.25500000920E-02 0. -1.
       -2   -1    0    0    0  501  0.00000000000E+00  0.00000000000E+00 -0.15721654322E+04  0.15721654322E+04  0.25500000920E-02 0.  1.
    10030    2    1    2    0    0  0.00000000000E+00  0.00000000000E+00  0.24612717910E+03  0.33904580435E+04  0.33815125546E+04 0.  0.
        4    1    3    3  502    0  0.47716096729E+03  0.15282505400E+04 -0.42190243828E+03  0.16556677149E+04  0.12699999809E+01 0.  1.
       -4    1    3    3    0  502 -0.47716096729E+03 -0.15282505400E+04  0.66802961738E+03  0.17347903286E+04  0.12699999809E+01 0. -1.
</event>
<event>
 5   0  0.2101998E-06  0.3407775E+04  0.7818609E-02  0.8136001E-01
        1   -1    0    0  501    0  0.00000000000E+00  0.00000000000E+00  0.21588989349E+04  0.21588989349E+04  0.50400001928E-02 0.  1.
       -1   -1    0    0    0  501  0.00000000000E+00  0.00000000000E+00 -0.13447742848E+04  0.13447742848E+04  0.50400001928E-02 0. -1.
    10030    2    1    2    0    0  0.00000000000E+00  0.00000000000E+00  0.81412465013E+03  0.35036732197E+04  0.34077745061E+04 0.  0.
        5    1    3    3  502    0  0.12668716496E+04  0.11392965689E+04  0.39083095582E+03  0.17480650373E+04  0.46999998093E+01 0.  1.
       -5    1    3    3    0  502 -0.12668716496E+04 -0.11392965689E+04  0.42329369431E+03  0.17556081824E+04  0.46999998093E+01 0. -1.
</event>
<event>
 5   0  0.1654257E-06  0.3438228E+04  0.7818609E-02  0.8128587E-01
        1   -1    0    0  501    0  0.00000000000E+00  0.00000000000E+00  0.16754878047E+04  0.16754878047E+04  0.50400001928E-02 0. -1.
       -1   -1    0    0    0  501  0.00000000000E+00  0.00000000000E+00 -0.17638758952E+04  0.17638758952E+04  0.50400001928E-02 0.  1.
    10030    2    1    2    0    0  0.00000000000E+00  0.00000000000E+00 -0.88388090519E+02  0.34393637000E+04  0.34382277711E+04 0.  0.
        3    1    3    3  502    0 -0.13918272278E+03 -0.15105189587E+04 -0.85335756684E+03  0.17404765157E+04  0.10100000352E+00 0.  1.
       -3    1    3    3    0  502  0.13918272278E+03  0.15105189587E+04  0.76496947632E+03  0.16988871842E+04  0.10100000352E+00 0. -1.
</event>
<event>
 5   0  0.2722449E-06  0.2435394E+04  0.7818609E-02  0.8426370E-01
        2   -1    0    0  501    0  0.00000000000E+00  0.00000000000E+00  0.18324737385E+04  0.18324737385E+04  0.25500000920E-02 0.  1.
       -2   -1    0    0    0  501  0.00000000000E+00  0.00000000000E+00 -0.80917153066E+03  0.80917153066E+03  0.25500000920E-02 0. -1.
    10030    2    1    2    0    0  0.00000000000E+00  0.00000000000E+00  0.10233022078E+04  0.26416452692E+04  0.24353936683E+04 0.  0.
        2    1    3    3  502    0 -0.40031426130E+03  0.95845359515E+03  0.12010056923E+04  0.15878600300E+04  0.25500000920E-02 0.  1.
       -2    1    3    3    0  502  0.40031426130E+03 -0.95845359515E+03 -0.17770348450E+03  0.10537852392E+04  0.25500000920E-02 0. -1.
</event>
<event>
 5   0  0.1654257E-06  0.2951895E+04  0.7818609E-02  0.8257603E-01
       -1   -1    0    0    0  501  0.00000000000E+00  0.00000000000E+00  0.85683891363E+03  0.85683891364E+03  0.50400001928E-02 0. -1.
        1   -1    0    0  501    0  0.00000000000E+00  0.00000000000E+00 -0.25423923112E+04  0.25423923112E+04  0.50400001928E-02 0.  1.
    10030    2    1    2    0    0  0.00000000000E+00  0.00000000000E+00 -0.16855533976E+04  0.33992312248E+04  0.29518947583E+04 0.  0.
        3    1    3    3  502    0  0.36585589768E+03 -0.42044786369E+03  0.73100428041E+03  0.91923566735E+03  0.10100000352E+00 0. -1.
       -3    1    3    3    0  502 -0.36585589768E+03  0.42044786369E+03 -0.24165576780E+04  0.24799955575E+04  0.10100000352E+00 0.  1.
</event>
<event>
 5   0  0.1654257E-06  0.1832536E+04  0.7818609E-02  0.8689186E-01
       -1   -1    0    0    0  501  0.00000000000E+00  0.00000000000E+00  0.44971882358E+03  0.44971882360E+03  0.50400001928E-02 0. -1.
        1   -1    0    0  501    0  0.00000000000E+00  0.00000000000E+00 -0.18668261414E+04  0.18668261414E+04  0.50400001928E-02 0.  1.
    10030    2    1    2    0    0  0.00000000000E+00  0.00000000000E+00 -0.14171073178E+04  0.23165449650E+04  0.18325357908E+04 0.  0.
        3    1    3    3  502    0 -0.86640621491E+02 -0.39767616912E+03  0.32917553763E+03  0.52345914603E+03  0.10100000352E+00 0. -1.
       -3    1    3    3    0  502  0.86640621491E+02  0.39767616912E+03 -0.17462828554E+04  0.17930858189E+04  0.10100000352E+00 0.  1.
</event>
<event>
 5   0  0.4400349E-06  0.3197991E+04  0.7818609E-02  0.8189348E-01
        2   -1    0    0  501    0  0.00000000000E+00  0.00000000000E+00  0.17946458050E+04  0.17946458050E+04  0.25500000920E-02 0. -1.
       -2   -1    0    0    0  501  0.00000000000E+00  0.00000000000E+00 -0.14246748227E+04  0.14246748227E+04  0.25500000920E-02 0.  1.
    10030    2    1    2    0    0  0.00000000000E+00  0.00000000000E+00  0.36997098235E+03  0.32193206277E+04  0.31979910532E+04 0.  0.
        5    1    3    3  502    0 -0.13295345709E+04  0.92152322194E+02  0.10743998745E+04  0.17118736536E+04  0.46999998093E+01 0. -1.
       -5    1    3    3    0  502  0.13295345709E+04 -0.92152322194E+02 -0.70442889215E+03  0.15074469741E+04  0.46999998093E+01 0.  1.
</event>
<event>
 5   0  0.4189587E-06  0.3238776E+04  0.7818609E-02  0.8178651E-01
       -2   -1    0    0    0  501  0.00000000000E+00  0.00000000000E+00  0.12832743490E+04  0.12832743490E+04  0.25500000920E-02 0. -1.
        2   -1    0    0  501    0  0.00000000000E+00  0.00000000000E+00 -0.20435365719E+04  0.20435365719E+04  0.25500000920E-02 0.  1.
    10030    2    1    2    0    0  0.00000000000E+00  0.00000000000E+00 -0.76026222295E+03  0.33268109209E+04  0.32387763516E+04 0.  0.
        1    1    3    3  502    0  0.14270291828E+03 -0.15911124514E+04 -0.10755983763E+03  0.16011158842E+04  0.50400001928E-02 0. -1.
       -1    1    3    3    0  502 -0.14270291828E+03  0.15911124514E+04 -0.65270238532E+03  0.17256950367E+04  0.50400001928E-02 0.  1.
</event>
<event>
 5   0  0.2101998E-06  0.2812797E+04  0.7818609E-02  0.8299306E-01
       -1   -1    0    0    0  501  0.00000000000E+00  0.00000000000E+00  0.63555672466E+03  0.63555672468E+03  0.50400001928E-02 0. -1.
        1   -1    0    0  501    0  0.00000000000E+00  0.00000000000E+00 -0.31121643692E+04  0.31121643692E+04  0.50400001928E-02 0.  1.
    10030    2    1    2    0    0  0.00000000000E+00  0.00000000000E+00 -0.24766076445E+04  0.37477210939E+04  0.28127971794E+04 0.  0.
        5    1    3    3  502    0  0.57899315716E+03  0.38203004633E+03 -0.28683660551E+04  0.29510550568E+04  0.46999998093E+01 0.  1.
       -5    1    3    3    0  502 -0.57899315716E+03 -0.38203004633E+03  0.39175841057E+03  0.79666603705E+03  0.46999998093E+01 0. -1.
</event>
<event>
 5   0  0.2722449E-06  0.3630612E+04  0.7818609E-02  0.8083515E-01
       -2   -1    0    0    0  501  0.00000000000E+00  0.00000000000E+00  0.16783042668E+04  0.16783042668E+04  0.25500000920E-02 0.  1.
        2   -1    0    0  501    0  0.00000000000E+00  0.00000000000E+00 -0.19634917849E+04  0.19634917849E+04  0.25500000920E-02 0. -1.
    10030    2    1    2    0    0  0.00000000000E+00  0.00000000000E+00 -0.28518751806E+03  0.36417960517E+04  0.36306124224E+04 0.  0.
        2    1    3    3  502    0 -0.88139049031E+03 -0.13504186383E+04 -0.97874229335E+03  0.18863764661E+04  0.25500000920E-02 0. -1.
       -2    1    3    3    0  502  0.88139049031E+03  0.13504186383E+04  0.69355477529E+03  0.17554195856E+04  0.25500000920E-02 0.  1.
</event>
<event>
 5   0  0.1571391E-06  0.3436654E+04  0.7818609E-02  0.8128968E-01
       -1   -1    0    0    0  501  0.00000000000E+00  0.00000000000E+00  0.12963414277E+04  0.12963414277E+04  0.50400001928E-02 0.  1.
        1   -1    0    0  501    0  0.00000000000E+00  0.00000000000E+00 -0.22776772665E+04  0.22776772665E+04  0.50400001928E-02 0. -1.
    10030    2    1    2    0    0  0.00000000000E+00  0.00000000000E+00 -0.98133583881E+03  0.35740186942E+04  0.34366538374E+04 0.  0.
        1    1    3    3  502    0 -0.10356264809E+04 -0.12169113818E+03 -0.19110241856E+04  0.21770035321E+04  0.50400001928E-02 0. -1.
       -1    1    3    3    0  502  0.10356264809E+04  0.12169113818E+03  0.92968834676E+03  0.13970151621E+04  0.50400001928E-02 0.  1.
</event>
<event>
 5   0  0.1401125E-06  0.3309948E+04  0.7818609E-02  0.8160369E-01
        3   -1    0    0  501    0  0.00000000000E+00  0.00000000000E+00  0.10719579930E+04  0.10719579978E+04  0.10100000352E+00 0. -1.
       -3   -1    0    0    0  501  0.00000000000E+00  0.00000000000E+00 -0.25550797838E+04  0.25550797858E+04  0.10100000352E+00 0.  1.
    10030    2    1    2    0    0  0.00000000000E+00  0.00000000000E+00 -0.14831217907E+04  0.36270377836E+04  0.33099475581E+04 0.  0.
        1    1    3    3  502    0 -0.14349421219E+04  0.53891191158E+03 -0.57714372949E+02  0.15338891390E+04  0.50400001928E-02 0. -1.
       -1    1    3    3    0  502  0.14349421219E+04 -0.53891191158E+03 -0.14254074178E+04  0.20931486446E+04  0.50400001928E-02 0.  1.
</event>
<event>
 5   0  0.4189587E-06  0.3308705E+04  0.7818609E-02  0.8160684E-01
       -2   -1    0    0    0  501  0.00000000000E+00  0.00000000000E+00  0.19879091240E+04  0.19879091240E+04  0.25500000920E-02 0. -1.
        2   -1    0    0  501    0  0.00000000000E+00  0.00000000000E+00 -0.13767639158E+04  0.13767639158E+04  0.25500000920E-02 0.  1.
    10030    2    1    2    0    0  0.00000000000E+00  0.00000000000E+00  0.61114520812E+03  0.33646730398E+04  0.33087046105E+04 0.  0.
        1    1    3    3  502    0 -0.79811146211E+03  0.59103529164E+03  0.16510471059E+04  0.19267229089E+04  0.50400001928E-02 0. -1.
       -1    1    3    3    0  502  0.79811146211E+03 -0.59103529164E+03 -0.10399018978E+04  0.14379501309E+04  0.50400001928E-02 0.  1.
</event>
<event>
 5   0  0.4400349E-06  0.3508531E+04  0.7818609E-02  0.8111771E-01
       -2   -1    0    0    0  501  0.00000000000E+00  0.00000000000E+00  0.13564168025E+04  0.13564168025E+04  0.25500000920E-02 0. -1.
        2   -1    0    0  501    0  0.00000000000E+00  0.00000000000E+00 -0.22688062140E+04  0.22688062140E+04  0.25500000920E-02 0.  1.
    10030    2    1    2    0    0  0.00000000000E+00  0.00000000000E+00 -0.91238941146E+03  0.36252230165E+04  0.35085306727E+04 0.  0.
        5    1    3    3  502    0 -0.70085363805E+03 -0.11078284951E+04  0.74831523481E+03  0.15094626783E+04  0.46999998093E+01 0. -1.
       -5    1    3    3    0  502  0.70085363805E+03  0.11078284951E+04 -0.16607046463E+04  0.21157603382E+04  0.46999998093E+01 0.  1.
</event>
<event>
 5   0  0.1654257E-06  0.3786872E+04  0.7818609E-02  0.8048978E-01
        1   -1    0    0  501    0  0.00000000000E+00  0.00000000000E+00  0.16502018311E+04  0.16502018311E+04  0.50400001928E-02 0.  1.
       -1   -1    0    0    0  501  0.00000000000E+00  0.00000000000E+00 -0.21725215181E+04  0.21725215181E+04  0.50400001928E-02 0. -1.
    10030    2    1    2    0    0  0.00000000000E+00  0.00000000000E+00 -0.52231968700E+03  0.38227233492E+04  0.37868715253E+04 0.  0.
        3    1    3    3  502    0  0.15572693832E+04  0.58707454655E+03 -0.11726784538E+04  0.20359074687E+04  0.10100000352E+00 0. -1.
       -3    1    3    3    0  502 -0.15572693832E+04 -0.58707454655E+03  0.65035876676E+03  0.17868158805E+04  0.10100000352E+00 0.  1.
</event>
<event>
 5   0  0.2101998E-06  0.3400191E+04  0.7818609E-02  0.8137859E-01
        1   -1    0    0  501    0  0.00000000000E+00  0.00000000000E+00  0.23973135418E+04  0.23973135418E+04  0.50400001928E-02 0.  1.
       -1   -1    0    0    0  501  0.00000000000E+00  0.00000000000E+00 -0.12056518350E+04  0.12056518350E+04  0.50400001928E-02 0. -1.
    10030    2    1    2    0    0  0.00000000000E+00  0.00000000000E+00  0.11916617068E+04  0.36029653769E+04  0.34001914481E+04 0.  0.
        5    1    3    3  502    0  0.63350946393E+03 -0.70645873475E+03 -0.89892660311E+03  0.13070995802E+04  0.46999998093E+01 0. -1.
       -5    1    3    3    0  502 -0.63350946393E+03  0.70645873475E+03  0.20905883099E+04  0.22958657967E+04  0.46999998093E+01 0.  1.
</event>
<event>
 5   0  0.1401125E-06  0.2409997E+04  0.7818609E-02  0.8435770E-01
       -4   -1    0    0    0  501  0.00000000000E+00  0.00000000000E+00  0.14602993133E+04  0.14602998656E+04  0.12699999809E+01 0. -1.
        4   -1    0    0  501    0  0.00000000000E+00  0.00000000000E+00 -0.99432979288E+03  0.99433060393E+03  0.12699999809E+01 0.  1.
    10030    2    1    2    0    0  0.00000000000E+00  0.00000000000E+00  0.46596952046E+03  0.24546304695E+04  0.24099965037E+04 0.  0.
        4    1    3    3  502    0 -0.12239511696E+02  0.37902482813E+03 -0.93196813644E+03  0.10061688955E+04  0.12699999809E+01 0.  1.
       -4    1    3    3    0  502  0.12239511696E+02 -0.37902482813E+03  0.13979376569E+04  0.14484615740E+04  0.12699999809E+01 0. -1.
</event>
<event>
 5   0  0.2722449E-06  0.3412785E+04  0.7818609E-02  0.8134775E-01
        2   -1    0    0  501    0  0.00000000000E+00  0.00000000000E+00  0.19875409825E+04  0.19875409825E+04  0.25500000920E-02 0.  1.
       -2   -1    0    0    0  501  0.00000000000E+00  0.00000000000E+00 -0.14650142779E+04  0.14650142779E+04  0.25500000920E-02 0. -1.
    10030    2    1    2    0    0  0.00000000000E+00  0.00000000000E+00  0.52252670461E+03  0.34525552604E+04  0.34127853242E+04 0.  0.
        2    1    3    3  502    0  0.22863639446E+03 -0.14486311976E+04  0.11437642215E+04  0.18598396549E+04  0.25500000920E-02 0.  1.
       -2    1    3    3    0  502 -0.22863639446E+03  0.14486311976E+04 -0.62123751694E+03  0.15927156055E+04  0.25500000920E-02 0. -1.
</event>
<event>
 5   0  0.1550164E-06  0.3351371E+04  0.7818609E-02  0.8149946E-01
       -1   -1    0    0    0  501  0.00000000000E+00  0.00000000000E+00  0.12931659748E+04  0.12931659748E+04  0.50400001928E-02 0.  1.
        1   -1    0    0  501    0  0.00000000000E+00  0.00000000000E+00 -0.21713545938E+04  0.21713545938E+04  0.50400001928E-02 0. -1.
    10030    2    1    2    0    0  0.00000000000E+00  0.00000000000E+00 -0.87818861905E+03  0.34645205686E+04  0.33513709911E+04 0.  0.
        4    1    3    3  502    0 -0.95028522115E+03  0.74299812334E+03 -0.16414766259E+04  0.20370408290E+04  0.12699999809E+01 0. -1.
       -4    1    3    3    0  502  0.95028522115E+03 -0.74299812334E+03  0.76328800683E+03  0.14274797396E+04  0.12699999809E+01 0.  1.
</event>
<event>
 5   0  0.1654257E-06  0.1969950E+04  0.7818609E-02  0.8620800E-01
       -1   -1    0    0    0  501  0.00000000000E+00  0.00000000000E+00  0.87936670591E+03  0.87936670592E+03  0.50400001928E-02 0. -1.
        1   -1    0    0  501    0  0.00000000000E+00  0.00000000000E+00 -0.11032659615E+04  0.11032659615E+04  0.50400001928E-02 0.  1.
    10030    2    1    2    0    0  0.00000000000E+00  0.00000000000E+00 -0.22389925562E+03  0.19826326675E+04  0.19699495977E+04 0.  0.
        3    1    3    3  502    0  0.23543532921E+02  0.41360935234E+03 -0.10113182911E+04  0.10928822857E+04  0.10100000352E+00 0.  1.
       -3    1    3    3    0  502 -0.23543532921E+02 -0.41360935234E+03  0.78741903546E+03  0.88975038178E+03  0.10100000352E+00 0. -1.
</event>
<event>
 5   0  0.4400349E-06  0.2839779E+04  0.7818609E-02  0.8291024E-01
       -2   -1    0    0    0  501  0.00000000000E+00  0.00000000000E+00  0.99413700673E+03  0.99413700674E+03  0.25500000920E-02 0. -1.
        2   -1    0    0  501    0  0.00000000000E+00  0.00000000000E+00 -0.20279765382E+04  0.20279765382E+04  0.25500000920E-02 0.  1.
    10030    2    1    2    0    0  0.00000000000E+00  0.00000000000E+00 -0.10338395314E+04  0.30221135449E+04  0.28397792346E+04 0.  0.
        5    1    3    3  502    0  0.64439907021E+03  0.44443837245E+02 -0.18625587714E+04  0.19713885166E+04  0.46999998093E+01 0.  1.
       -5    1    3    3    0  502 -0.64439907021E+03 -0.44443837245E+02  0.82871924000E+03  0.10507250283E+04  0.46999998093E+01 0. -1.
</event>
<event>
 5   0  0.4173467E-06  0.1810217E+04  0.7818609E-02  0.8700885E-01
       -2   -1    0    0    0  501  0.00000000000E+00  0.00000000000E+00  0.14627193247E+04  0.14627193247E+04  0.25500000920E-02 0.  1.
        2   -1    0    0  501    0  0.00000000000E+00  0.00000000000E+00 -0.56006734511E+03  0.56006734511E+03  0.25500000920E-02 0. -1.
    10030    2    1    2    0    0  0.00000000000E+00  0.00000000000E+00  0.90265197963E+03  0.20227866699E+04  0.18102169250E+04 0.  0.
        4    1    3    3  502    0 -0.84302643365E+03 -0.12458778437E+03  0.79210304885E+03  0.11634623057E+04  0.12699999809E+01 0.  1.
       -4    1    3    3    0  502  0.84302643365E+03  0.12458778437E+03  0.11054893078E+03  0.85932436417E+03  0.12699999809E+01 0. -1.
</event>
<event>
 5   0  0.4344980E-06  0.2406182E+04  0.7818609E-02  0.8437193E-01
       -2   -1    0    0    0  501  0.00000000000E+00  0.00000000000E+00  0.12507582409E+04  0.12507582409E+04  0.25500000920E-02 0.  1.
        2   -1    0    0  501    0  0.00000000000E+00  0.00000000000E+00 -0.11572408092E+04  0.11572408092E+04  0.25500000920E-02 0. -1.
    10030    2    1    2    0    0  0.00000000000E+00  0.00000000000E+00  0.93517431681E+02  0.24079990502E+04  0.24061824361E+04 0.  0.
        3    1    3    3  502    0  0.27040369624E+03  0.71211570001E+03 -0.88518091178E+03  0.11678065704E+04  0.10100000352E+00 0. -1.
       -3    1    3    3    0  502 -0.27040369624E+03 -0.71211570001E+03  0.97869834346E+03  0.12401924798E+04  0.10100000352E+00 0.  1.
</event>
<event>
 5   0  0.4344980E-06  0.3469621E+04  0.7818609E-02  0.8121027E-01
        2   -1    0    0  501    0  0.00000000000E+00  0.00000000000E+00  0.32475067347E+04  0.32475067347E+04  0.25500000920E-02 0.  1.
       -2   -1    0    0    0  501  0.00000000000E+00  0.00000000000E+00 -0.92673187448E+03  0.92673187449E+03  0.25500000920E-02 0. -1.
    10030    2    1    2    0    0  0.00000000000E+00  0.00000000000E+00  0.23207748602E+04  0.41742386092E+04  0.34696213071E+04 0.  0.
        3    1    3    3  502    0  0.16942226951E+03 -0.41839332717E+03  0.31756164568E+04  0.32075374936E+04  0.10100000352E+00 0.  1.
       -3    1    3    3    0  502 -0.16942226951E+03  0.41839332717E+03 -0.85484159656E+03  0.96670111566E+03  0.10100000352E+00 0. -1.
</event>
<event>
 5   0  0.1550164E-06  0.3062473E+04  0.7818609E-02  0.8226113E-01
        1   -1    0    0  501    0  0.00000000000E+00  0.00000000000E+00  0.30356468495E+04  0.30356468495E+04  0.50400001928E-02 0.  1.
       -1   -1    0    0    0  501  0.00000000000E+00  0.00000000000E+00 -0.77238420579E+03  0.77238420581E+03  0.50400001928E-02 0. -1.
    10030    2    1    2    0    0  0.00000000000E+00  0.00000000000E+00  0.22632626437E+04  0.38080310553E+04  0.30624733017E+04 0.  0.
        4    1    3    3  502    0  0.52006636072E+03 -0.54969784879E+03  0.27868898272E+04  0.28878007664E+04  0.12699999809E+01 0.  1.
       -4    1    3    3    0  502 -0.52006636072E+03  0.54969784879E+03 -0.52362718347E+03  0.92023028894E+03  0.12699999809E+01 0. -1.
</event>
<event>
 5   0  0.4173467E-06  0.3368646E+04  0.7818609E-02  0.8145645E-01
        2   -1    0    0  501    0  0.00000000000E+00  0.00000000000E+00  0.16110250611E+04  0.16110250611E+04  0.25500000920E-02 0. -1.
       -2   -1    0    0    0  501  0.00000000000E+00  0.00000000000E+00 -0.17609560666E+04  0.17609560666E+04  0.25500000920E-02 0.  1.
    10030    2    1    2    0    0  0.00000000000E+00  0.00000000000E+00 -0.14993100554E+03  0.33719811277E+04  0.33686462295E+04 0.  0.
        4    1    3    3  502    0 -0.10154829409E+04 -0.23372161954E+03 -0.13995711784E+04  0.17448875308E+04  0.12699999809E+01 0.  1.
       -4    1    3    3    0  502  0.10154829409E+04  0.23372161954E+03  0.12496401729E+04  0.16270935970E+04  0.12699999809E+01 0. -1.
</event>
<event>
 5   0  0.1562618E-06  0.3439906E+04  0.7818609E-02  0.8128181E-01
       -1   -1    0    0    0  501  0.00000000000E+00  0.00000000000E+00  0.17642232612E+04  0.17642232612E+04  0.50400001928E-02 0.  1.
        1   -1    0    0  501    0  0.00000000000E+00  0.00000000000E+00 -0.16767934469E+04  0.16767934470E+04  0.50400001928E-02 0. -1.
    10030    2    1    2    0    0  0.00000000000E+00  0.00000000000E+00  0.87429814247E+02  0.34410167082E+04  0.34399058146E+04 0.  0.
        2    1    3    3  502    0  0.13159457556E+04  0.10999428028E+04 -0.85363976815E+02  0.17172287005E+04  0.25500000920E-02 0.  1.
       -2    1    3    3    0  502 -0.13159457556E+04 -0.10999428028E+04  0.17279379106E+03  0.17237880077E+04  0.25500000920E-02 0. -1.
</event>
<event>
 5   0  0.1571391E-06  0.3369765E+04  0.7818609E-02  0.8145367E-01
       -1   -1    0    0    0  501  0.00000000000E+00  0.00000000000E+00  0.21017231596E+04  0.21017231596E+04  0.50400001928E-02 0. -1.
        1   -1    0    0  501    0  0.00000000000E+00  0.00000000000E+00 -0.13507152358E+04  0.13507152358E+04  0.50400001928E-02 0.  1.
    10030    2    1    2    0    0  0.00000000000E+00  0.00000000000E+00  0.75100792379E+03  0.34524383955E+04  0.33697652697E+04 0.  0.
        1    1    3    3  502    0 -0.20294073970E+03 -0.83719537320E+03  0.18590446226E+04  0.20489333678E+04  0.50400001928E-02 0. -1.
       -1    1    3    3    0  502  0.20294073970E+03  0.83719537320E+03 -0.11080366988E+04  0.14035050277E+04  0.50400001928E-02 0.  1.
</event>
<event>
 5   0  0.2101998E-06  0.3371142E+04  0.7818609E-02  0.8145026E-01
       -1   -1    0    0    0  501  0.00000000000E+00  0.00000000000E+00  0.97332405964E+03  0.97332405965E+03  0.50400001928E-02 0. -1.
        1   -1    0    0  501    0  0.00000000000E+00  0.00000000000E+00 -0.29190163023E+04  0.29190163023E+04  0.50400001928E-02 0.  1.
    10030    2    1    2    0    0  0.00000000000E+00  0.00000000000E+00 -0.19456922427E+04  0.38923403620E+04  0.33711415263E+04 0.  0.
        5    1    3    3  502    0 -0.18039948890E+03  0.15717599618E+04 -0.16442605567E+04  0.22817949561E+04  0.46999998093E+01 0.  1.
       -5    1    3    3    0  502  0.18039948890E+03 -0.15717599618E+04 -0.30143168592E+03  0.16105454059E+04  0.46999998093E+01 0. -1.
</event>
<event>
 5   0  0.2722449E-06  0.2531168E+04  0.7818609E-02  0.8391965E-01
        2   -1    0    0  501    0  0.00000000000E+00  0.00000000000E+00  0.12646825551E+04  0.12646825551E+04  0.25500000920E-02 0.  1.
       -2   -1    0    0    0  501  0.00000000000E+00  0.00000000000E+00 -0.12664857870E+04  0.12664857870E+04  0.25500000920E-02 0. -1.
    10030    2    1    2    0    0  0.00000000000E+00  0.00000000000E+00 -0.18032318982E+01  0.25311683421E+04  0.25311676998E+04 0.  0.
        2    1    3    3  502    0  0.27449365328E+03  0.25052481535E+03 -0.12106924140E+04  0.12664460392E+04  0.25500000920E-02 0. -1.
       -2    1    3    3    0  502 -0.27449365328E+03 -0.25052481535E+03  0.12088891821E+04  0.12647223029E+04  0.25500000920E-02 0.  1.
</event>
<event>
 5   0  0.4173467E-06  0.3296240E+04  0.7818609E-02  0.8163853E-01
       -2   -1    0    0    0  501  0.00000000000E+00  0.00000000000E+00  0.14116884031E+04  0.14116884031E+04  0.25500000920E-02 0.  1.
        2   -1    0    0  501    0  0.00000000000E+00  0.00000000000E+00 -0.19241489534E+04  0.19241489534E+04  0.25500000920E-02 0. -1.
    10030    2    1    2    0    0  0.00000000000E+00  0.00000000000E+00 -0.51246055032E+03  0.33358373565E+04  0.32962395322E+04 0.  0.
        4    1    3    3  502    0  0.14615431381E+04  0.76128861073E+03 -0.23086007165E+03  0.16640212375E+04  0.12699999809E+01 0.  1.
       -4    1    3    3    0  502 -0.14615431381E+04 -0.76128861073E+03 -0.28160047867E+03  0.16718161190E+04  0.12699999809E+01 0. -1.
</event>
<event>
 5   0  0.4344980E-06  0.3415840E+04  0.7818609E-02  0.8134030E-01
       -2   -1    0    0    0  501  0.00000000000E+00  0.00000000000E+00  0.10889303241E+04  0.10889303241E+04  0.25500000920E-02 0.  1.
        2   -1    0    0  501    0  0.00000000000E+00  0.00000000000E+00 -0.26787674298E+04  0.26787674298E+04  0.25500000920E-02 0. -1.
    10030    2    1    2    0    0  0.00000000000E+00  0.00000000000E+00 -0.15898371058E+04  0.37676977539E+04  0.34158402102E+04 0.  0.
        3    1    3    3  502    0  0.10080289310E+03  0.10042880407E+04 -0.23146034306E+04  0.25251029174E+04  0.10100000352E+00 0. -1.
       -3    1    3    3    0  502 -0.10080289310E+03 -0.10042880407E+04  0.72476632486E+03  0.12425948365E+04  0.10100000352E+00 0.  1.
</event>
<event>
 5   0  0.1401125E-06  0.2245485E+04  0.7818609E-02  0.8499731E-01
       -3   -1    0    0    0  501  0.00000000000E+00  0.00000000000E+00  0.10742600738E+04  0.10742600786E+04  0.10100000352E+00 0.  1.
        3   -1    0    0  501    0  0.00000000000E+00  0.00000000000E+00 -0.11734129094E+04  0.11734129137E+04  0.10100000352E+00 0. -1.
    10030    2    1    2    0    0  0.00000000000E+00  0.00000000000E+00 -0.99152835541E+02  0.22476729923E+04  0.22454849355E+04 0.  0.
        2    1    3    3  502    0  0.63127940026E+03 -0.49714711337E+03  0.73533160963E+03  0.10892114164E+04  0.25500000920E-02 0.  1.
       -2    1    3    3    0  502 -0.63127940026E+03  0.49714711337E+03 -0.83448444517E+03  0.11584615759E+04  0.25500000920E-02 0. -1.
</event>
<event>
 5   0  0.4400349E-06  0.2257986E+04  0.7818609E-02  0.8494673E-01
        2   -1    0    0  501    0  0.00000000000E+00  0.00000000000E+00  0.11211116010E+04  0.11211116010E+04  0.25500000920E-02 0.  1.
       -2   -1    0    0    0  501  0.00000000000E+00  0.00000000000E+00 -0.11369297617E+04  0.11369297617E+04  0.25500000920E-02 0. -1.
    10030    2    1    2    0    0  0.00000000000E+00  0.00000000000E+00 -0.15818160667E+02  0.22580413627E+04  0.22579859569E+04 0.  0.
        5    1    3    3  502    0  0.87474945318E+03 -0.12225854508E+03  0.69529328335E+03  0.11240945679E+04  0.46999998093E+01 0.  1.
       -5    1    3    3    0  502 -0.87474945318E+03  0.12225854508E+03 -0.71111144402E+03  0.11339467948E+04  0.46999998093E+01 0. -1.
</event>
<event>
 5   0  0.2722449E-06  0.3310802E+04  0.7818609E-02  0.8160152E-01
       -2   -1    0    0    0  501  0.00000000000E+00  0.00000000000E+00  0.20616298912E+04  0.20616298912E+04  0.25500000920E-02 0.  1.
        2   -1    0    0  501    0  0.00000000000E+00  0.00000000000E+00 -0.13292161640E+04  0.13292161640E+04  0.25500000920E-02 0. -1.
    10030    2    1    2    0    0  0.00000000000E+00  0.00000000000E+00  0.73241372723E+03  0.33908460552E+04  0.33108015800E+04 0.  0.
        2    1    3    3  502    0 -0.13346361666E+04  0.91941255765E+03  0.20740901373E+02  0.16208032988E+04  0.25500000920E-02 0. -1.
       -2    1    3    3    0  502  0.13346361666E+04 -0.91941255765E+03  0.71167282586E+03  0.17700427564E+04  0.25500000920E-02 0.  1.
</event>
<event>
 5   0  0.4173467E-06  0.2710294E+04  0.7818609E-02  0.8331673E-01
       -2   -1    0    0    0  501  0.00000000000E+00  0.00000000000E+00  0.14786812306E+04  0.14786812306E+04  0.25500000920E-02 0. -1.
        2   -1    0    0  501    0  0.00000000000E+00  0.00000000000E+00 -0.12419332949E+04  0.12419332949E+04  0.25500000920E-02 0.  1.
    10030    2    1    2    0    0  0.00000000000E+00  0.00000000000E+00  0.23674793575E+03  0.27206145255E+04  0.27102940452E+04 0.  0.
        4    1    3    3  502    0 -0.29174443507E+03  0.60187455796E+03 -0.10646952991E+04  0.12573565492E+04  0.12699999809E+01 0.  1.
       -4    1    3    3    0  502  0.29174443507E+03 -0.60187455796E+03  0.13014432348E+04  0.14632579763E+04  0.12699999809E+01 0. -1.
</event>
<event>
 5   0  0.1550164E-06  0.3338868E+04  0.7818609E-02  0.8153075E-01
        1   -1    0    0  501    0  0.00000000000E+00  0.00000000000E+00  0.13575619340E+04  0.13575619340E+04  0.50400001928E-02 0. -1.
       -1   -1    0    0    0  501  0.00000000000E+00  0.00000000000E+00 -0.20529522688E+04  0.20529522688E+04  0.50400001928E-02 0.  1.
    10030    2    1    2    0    0  0.00000000000E+00  0.00000000000E+00 -0.69539033480E+03  0.34105142028E+04  0.33388679833E+04 0.  0.
        4    1    3    3  502    0 -0.67783014196E+03  0.22005301474E+03  0.11943790598E+04  0.13908342756E+04  0.12699999809E+01 0. -1.
       -4    1    3    3    0  502  0.67783014196E+03 -0.22005301474E+03 -0.18897693946E+04  0.20196799272E+04  0.12699999809E+01 0.  1.
</event>
<event>
 5   0  0.1654257E-06  0.2860409E+04  0.7818609E-02  0.8284755E-01
       -1   -1    0    0    0  501  0.00000000000E+00  0.00000000000E+00  0.12561490384E+04  0.12561490384E+04  0.50400001928E-02 0. -1.
        1   -1    0    0  501    0  0.00000000000E+00  0.00000000000E+00 -0.16283772965E+04  0.16283772965E+04  0.50400001928E-02 0.  1.
    10030    2    1    2    0    0  0.00000000000E+00  0.00000000000E+00 -0.37222825811E+03  0.28845263349E+04  0.28604087646E+04 0.  0.
        3    1    3    3  502    0 -0.53673925614E+03  0.84404433187E+03  0.84474987354E+03  0.13092372674E+04  0.10100000352E+00 0. -1.
       -3    1    3    3    0  502  0.53673925614E+03 -0.84404433187E+03 -0.12169781317E+04  0.15752890676E+04  0.10100000352E+00 0.  1.
</event>
<event>
 5   0  0.4344980E-06  0.3367979E+04  0.7818609E-02  0.8145810E-01
       -2   -1    0    0    0  501  0.00000000000E+00  0.00000000000E+00  0.13686856045E+04  0.13686856045E+04  0.25500000920E-02 0. -1.
        2   -1    0    0  501    0  0.00000000000E+00  0.00000000000E+00 -0.20719297324E+04  0.20719297324E+04  0.25500000920E-02 0.  1.
    10030    2    1    2    0    0  0.00000000000E+00  0.00000000000E+00 -0.70324412787E+03  0.34406153370E+04  0.33679788588E+04 0.  0.
        3    1    3    3  502    0  0.10747926228E+04  0.12307229124E+04  0.64548646232E+02  0.16352445099E+04  0.10100000352E+00 0.  1.
       -3    1    3    3    0  502 -0.10747926228E+04 -0.12307229124E+04 -0.76779277410E+03  0.18053708271E+04  0.10100000352E+00 0. -1.
</event>
<event>
 5   0  0.4400349E-06  0.2854631E+04  0.7818609E-02  0.8286506E-01
        2   -1    0    0  501    0  0.00000000000E+00  0.00000000000E+00  0.13249201891E+04  0.13249201891E+04  0.25500000920E-02 0.  1.
       -2   -1    0    0    0  501  0.00000000000E+00  0.00000000000E+00 -0.15376242319E+04  0.15376242319E+04  0.25500000920E-02 0. -1.
    10030    2    1    2    0    0  0.00000000000E+00  0.00000000000E+00 -0.21270404280E+03  0.28625444210E+04  0.28546308960E+04 0.  0.
        5    1    3    3  502    0  0.43626497523E+03 -0.13319749791E+04  0.16406725256E+03  0.14111784532E+04  0.46999998093E+01 0. -1.
       -5    1    3    3    0  502 -0.43626497523E+03  0.13319749791E+04 -0.37677129536E+03  0.14513659678E+04  0.46999998093E+01 0.  1.
</event>
<event>
 5   0  0.4400349E-06  0.3276547E+04  0.7818609E-02  0.8168889E-01
        2   -1    0    0  501    0  0.00000000000E+00  0.00000000000E+00  0.14257560022E+04  0.14257560022E+04  0.25500000920E-02 0. -1.
       -2   -1    0    0    0  501  0.00000000000E+00  0.00000000000E+00 -0.18824681588E+04  0.18824681588E+04  0.25500000920E-02 0.  1.
    10030    2    1    2    0    0  0.00000000000E+00  0.00000000000E+00 -0.45671215659E+03  0.33082241610E+04  0.32765471316E+04 0.  0.
        5    1    3    3  502    0  0.37857524183E+03  0.60776540827E+02  0.13798090022E+04  0.14320991496E+04  0.46999998093E+01 0. -1.
       -5    1    3    3    0  502 -0.37857524183E+03 -0.60776540827E+02 -0.18365211588E+04  0.18761250114E+04  0.46999998093E+01 0.  1.
</event>
<event>
 5   0  0.4173467E-06  0.3314252E+04  0.7818609E-02  0.8159278E-01
        2   -1    0    0  501    0  0.00000000000E+00  0.00000000000E+00  0.14919299599E+04  0.14919299599E+04  0.25500000920E-02 0.  1.
       -2   -1    0    0    0  501  0.00000000000E+00  0.00000000000E+00 -0.18406138663E+04  0.18406138663E+04  0.25500000920E-02 0. -1.
    10030    2    1    2    0    0  0.00000000000E+00  0.00000000000E+00 -0.34868390641E+03  0.33325438263E+04  0.33142522365E+04 0.  0.
        4    1    3    3  502    0 -0.18172204697E+03 -0.16306497403E+04 -0.40805513183E+03  0.16907253122E+04  0.12699999809E+01 0.  1.
       -4    1    3    3    0  502  0.18172204697E+03  0.16306497403E+04  0.59371225415E+02  0.16418185141E+04  0.12699999809E+01 0. -1.
</event>
<event>
 5   0  0.4173467E-06  0.3406499E+04  0.7818609E-02  0.8136313E-01
        2   -1    0    0  501    0  0.00000000000E+00  0.00000000000E+00  0.14577324130E+04  0.14577324130E+04  0.25500000920E-02 0. -1.
       -2   -1    0    0    0  501  0.00000000000E+00  0.00000000000E+00 -0.19901175958E+04  0.19901175958E+04  0.25500000920E-02 0.  1.
    10030    2    1    2    0    0  0.00000000000E+00  0.00000000000E+00 -0.53238518277E+03  0.34478500089E+04  0.34064990387E+04 0.  0.
        4    1    3    3  502    0 -0.13708271165E+04  0.91431934856E+03 -0.70259988868E+03  0.17913109923E+04  0.12699999809E+01 0. -1.
       -4    1    3    3    0  502  0.13708271165E+04 -0.91431934856E+03  0.17021470591E+03  0.16565390166E+04  0.12699999809E+01 0.  1.
</event>
<event>
 5   0  0.1654257E-06  0.1672332E+04  0.7818609E-02  0.8777303E-01
       -1   -1    0    0    0  501  0.00000000000E+00  0.00000000000E+00  0.27362273663E+03  0.27362273668E+03  0.50400001928E-02 0.  1.
        1   -1    0    0  501    0  0.00000000000E+00  0.00000000000E+00 -0.25552475461E+04  0.25552475462E+04  0.50400001928E-02 0. -1.
    10030    2    1    2    0    0  0.00000000000E+00  0.00000000000E+00 -0.22816248095E+04  0.28288702828E+04  0.16723322952E+04 0.  0.
        3    1    3    3  502    0 -0.77411161720E+03  0.31597807492E+03 -0.11562118878E+04  0.14268555917E+04  0.10100000352E+00 0.  1.
       -3    1    3    3    0  502  0.77411161720E+03 -0.31597807492E+03 -0.11254129217E+04  0.14020146912E+04  0.10100000352E+00 0. -1.
</event>
<event>
 5   0  0.4189587E-06  0.2696375E+04  0.7818609E-02  0.8336182E-01
        2   -1    0    0  501    0  0.00000000000E+00  0.00000000000E+00  0.22764154953E+04  0.22764154953E+04  0.25500000920E-02 0. -1.
       -2   -1    0    0    0  501  0.00000000000E+00  0.00000000000E+00 -0.79845217443E+03  0.79845217444E+03  0.25500000920E-02 0.  1.
    10030    2    1    2    0    0  0.00000000000E+00  0.00000000000E+00  0.14779633209E+04  0.30748676698E+04  0.26963745305E+04 0.  0.
        1    1    3    3  502    0 -0.54123992852E+03  0.54409206830E+03  0.20030109471E+04  0.21450010940E+04  0.50400001928E-02 0. -1.
       -1    1    3    3    0  502  0.54123992852E+03 -0.54409206830E+03 -0.52504762617E+03  0.92986657580E+03  0.50400001928E-02 0.  1.
</event>
<event>
 5   0  0.2722449E-06  0.2101149E+04  0.7818609E-02  0.8560737E-01
        2   -1    0    0  501    0  0.00000000000E+00  0.00000000000E+00  0.80830226690E+03  0.80830226690E+03  0.25500000920E-02 0. -1.
       -2   -1    0    0    0  501  0.00000000000E+00  0.00000000000E+00 -0.13654627882E+04  0.13654627882E+04  0.25500000920E-02 0.  1.
    10030    2    1    2    0    0  0.00000000000E+00  0.00000000000E+00 -0.55716052130E+03  0.21737650551E+04  0.21011488925E+04 0.  0.
        2    1    3    3  502    0  0.31518059549E+02  0.96855264005E+03 -0.69833522020E+03  0.11944704619E+04  0.25500000920E-02 0.  1.
       -2    1    3    3    0  502 -0.31518059549E+02 -0.96855264005E+03  0.14117469889E+03  0.97929459319E+03  0.25500000920E-02 0. -1.
</event>
<event>
 5   0  0.1571391E-06  0.3430179E+04  0.7818609E-02  0.8130539E-01
        1   -1    0    0  501    0  0.00000000000E+00  0.00000000000E+00  0.22580252388E+04  0.22580252388E+04  0.50400001928E-02 0.  1.
       -1   -1    0    0    0  501  0.00000000000E+00  0.00000000000E+00 -0.13027010093E+04  0.13027010093E+04  0.50400001928E-02 0. -1.
    10030    2    1    2    0    0  0.00000000000E+00  0.00000000000E+00  0.95532422951E+03  0.35607262481E+04  0.34301788628E+04 0.  0.
        1    1    3    3  502    0  0.14419058366E+04  0.45361295018E+03  0.13188575961E+04  0.20060514722E+04  0.50400001928E-02 0.  1.
       -1    1    3    3    0  502 -0.14419058366E+04 -0.45361295018E+03 -0.36353336656E+03  0.15546747759E+04  0.50400001928E-02 0. -1.
</event>
<event>
 5   0  0.4400349E-06  0.3434416E+04  0.7818609E-02  0.8129511E-01
       -2   -1    0    0    0  501  0.00000000000E+00  0.00000000000E+00  0.21773751270E+04  0.21773751270E+04  0.25500000920E-02 0. -1.
        2   -1    0    0  501    0  0.00000000000E+00  0.00000000000E+00 -0.13542930548E+04  0.13542930548E+04  0.25500000920E-02 0.  1.
    10030    2    1    2    0    0  0.00000000000E+00  0.00000000000E+00  0.82308207223E+03  0.35316681818E+04  0.34344164058E+04 0.  0.
        5    1    3    3  502    0 -0.16270210073E+04 -0.69048002528E+02  0.97177738425E+03  0.18964014235E+04  0.46999998093E+01 0. -1.
       -5    1    3    3    0  502  0.16270210073E+04  0.69048002528E+02 -0.14869531202E+03  0.16352667582E+04  0.46999998093E+01 0.  1.
</event>
<event>
 5   0  0.2722449E-06  0.3182153E+04  0.7818609E-02  0.8193546E-01
       -2   -1    0    0    0  501  0.00000000000E+00  0.00000000000E+00  0.12935784459E+04  0.12935784459E+04  0.25500000920E-02 0.  1.
        2   -1    0    0  501    0  0.00000000000E+00  0.00000000000E+00 -0.19569937557E+04  0.19569937557E+04  0.25500000920E-02 0. -1.
    10030    2    1    2    0    0  0.00000000000E+00  0.00000000000E+00 -0.66341530981E+03  0.32505722015E+04  0.31821533219E+04 0.  0.
        2    1    3    3  502    0 -0.14721382004E+04 -0.42243877271E+03 -0.77211496045E+03  0.17151696446E+04  0.25500000920E-02 0. -1.
       -2    1    3    3    0  502  0.14721382004E+04  0.42243877271E+03  0.10869965064E+03  0.15354025569E+04  0.25500000920E-02 0.  1.
</event>
<event>
 5   0  0.1571391E-06  0.3381904E+04  0.7818609E-02  0.8142362E-01
        1   -1    0    0  501    0  0.00000000000E+00  0.00000000000E+00  0.27060796776E+04  0.27060796776E+04  0.50400001928E-02 0.  1.
       -1   -1    0    0    0  501  0.00000000000E+00  0.00000000000E+00 -0.10566276226E+04  0.10566276226E+04  0.50400001928E-02 0. -1.
    10030    2    1    2    0    0  0.00000000000E+00  0.00000000000E+00  0.16494520550E+04  0.37627073002E+04  0.33819039231E+04 0.  0.
        1    1    3    3  502    0 -0.13101866924E+04  0.12175738429E+03 -0.35688717944E+03  0.13633717352E+04  0.50400001928E-02 0. -1.
       -1    1    3    3    0  502  0.13101866924E+04 -0.12175738429E+03  0.20063392345E+04  0.23993355650E+04  0.50400001928E-02 0.  1.
</event>
<event>
 5   0  0.4344980E-06  0.3376667E+04  0.7818609E-02  0.8143657E-01
        2   -1    0    0  501    0  0.00000000000E+00  0.00000000000E+00  0.21346869618E+04  0.21346869618E+04  0.25500000920E-02 0. -1.
       -2   -1    0    0    0  501  0.00000000000E+00  0.00000000000E+00 -0.13353107497E+04  0.13353107497E+04  0.25500000920E-02 0.  1.
    10030    2    1    2    0    0  0.00000000000E+00  0.00000000000E+00  0.79937621209E+03  0.34699977116E+04  0.33766672608E+04 0.  0.
        3    1    3    3  502    0  0.89457205248E+03 -0.28885608190E+03  0.18408676502E+04  0.20670004133E+04  0.10100000352E+00 0. -1.
       -3    1    3    3    0  502 -0.89457205248E+03  0.28885608190E+03 -0.10414914381E+04  0.14029972982E+04  0.10100000352E+00 0.  1.
</event>
<event>
 5   0  0.4400349E-06  0.2397170E+04  0.7818609E-02  0.8440564E-01
        2   -1    0    0  501    0  0.00000000000E+00  0.00000000000E+00  0.72724917102E+03  0.72724917102E+03  0.25500000920E-02 0. -1.
       -2   -1    0    0    0  501  0.00000000000E+00  0.00000000000E+00 -0.19753975064E+04  0.19753975064E+04  0.25500000920E-02 0.  1.
    10030    2    1    2    0    0  0.00000000000E+00  0.00000000000E+00 -0.12481483354E+04  0.27026466774E+04  0.23971701642E+04 0.  0.
        5    1    3    3  502    0 -0.82193502702E+03 -0.42235021069E+02  0.35829590360E+03  0.89764081356E+03  0.46999998093E+01 0. -1.
       -5    1    3    3    0  502  0.82193502702E+03  0.42235021069E+02 -0.16064442390E+04  0.18050058639E+04  0.46999998093E+01 0.  1.
</event>
<event>
 5   0  0.4189587E-06  0.3245958E+04  0.7818609E-02  0.8176784E-01
        2   -1    0    0  501    0  0.00000000000E+00  0.00000000000E+00  0.10115931061E+04  0.10115931061E+04  0.25500000920E-02 0. -1.
       -2   -1    0    0    0  501  0.00000000000E+00  0.00000000000E+00 -0.26038737152E+04  0.26038737152E+04  0.25500000920E-02 0.  1.
    10030    2    1    2    0    0  0.00000000000E+00  0.00000000000E+00 -0.15922806091E+04  0.36154668213E+04  0.32459579169E+04 0.  0.
        1    1    3    3  502    0  0.44226494318E+03 -0.26454510734E+03  0.91803881636E+03  0.10527951663E+04  0.50400001928E-02 0. -1.
       -1    1    3    3    0  502 -0.44226494318E+03  0.26454510734E+03 -0.25103194254E+04  0.25626716550E+04  0.50400001928E-02 0.  1.
</event>
<event>
 5   0  0.4400349E-06  0.3309633E+04  0.7818609E-02  0.8160449E-01
        2   -1    0    0  501    0  0.00000000000E+00  0.00000000000E+00  0.29514370834E+04  0.29514370834E+04  0.25500000920E-02 0. -1.
       -2   -1    0    0    0  501  0.00000000000E+00  0.00000000000E+00 -0.92782502963E+03  0.92782502964E+03  0.25500000920E-02 0.  1.
    10030    2    1    2    0    0  0.00000000000E+00  0.00000000000E+00  0.20236120538E+04  0.38792621131E+04  0.33096327285E+04 0.  0.
        5    1    3    3  502    0  0.62381972175E+03 -0.46455078573E+03 -0.70021540150E+03  0.10465572972E+04  0.46999998093E+01 0.  1.
       -5    1    3    3    0  502 -0.62381972175E+03  0.46455078573E+03  0.27238274553E+04  0.28327048159E+04  0.46999998093E+01 0. -1.
</event>
<event>
 5   0  0.2101998E-06  0.3396493E+04  0.7818609E-02  0.8138768E-01
        1   -1    0    0  501    0  0.00000000000E+00  0.00000000000E+00  0.20744383922E+04  0.20744383922E+04  0.50400001928E-02 0. -1.
       -1   -1    0    0    0  501  0.00000000000E+00  0.00000000000E+00 -0.13902753281E+04  0.13902753281E+04  0.50400001928E-02 0.  1.
    10030    2    1    2    0    0  0.00000000000E+00  0.00000000000E+00  0.68416306403E+03  0.34647137203E+04  0.33964926123E+04 0.  0.
        5    1    3    3  502    0  0.96310016940E+03 -0.10632917532E+04  0.12691072319E+04  0.19154128915E+04  0.46999998093E+01 0. -1.
       -5    1    3    3    0  502 -0.96310016940E+03  0.10632917532E+04 -0.58494416783E+03  0.15493008288E+04  0.46999998093E+01 0.  1.
</event>
<event>
 5   0  0.2722449E-06  0.3362226E+04  0.7818609E-02  0.8147240E-01
        2   -1    0    0  501    0  0.00000000000E+00  0.00000000000E+00  0.25989822276E+04  0.25989822276E+04  0.25500000920E-02 0. -1.
       -2   -1    0    0    0  501  0.00000000000E+00  0.00000000000E+00 -0.10874029970E+04  0.10874029970E+04  0.25500000920E-02 0.  1.
    10030    2    1    2    0    0  0.00000000000E+00  0.00000000000E+00  0.15115792305E+04  0.36863852246E+04  0.33622260861E+04 0.  0.
        2    1    3    3  502    0 -0.67541937803E+03 -0.22064414990E+03 -0.91467102774E+03  0.11582306619E+04  0.25500000920E-02 0.  1.
       -2    1    3    3    0  502  0.67541937803E+03  0.22064414990E+03  0.24262502583E+04  0.25281545627E+04  0.25500000920E-02 0. -1.
</event>
<event>
 5   0  0.4189587E-06  0.1752719E+04  0.7818609E-02  0.8731855E-01
        2   -1    0    0  501    0  0.00000000000E+00  0.00000000000E+00  0.94616416311E+03  0.94616416312E+03  0.25500000920E-02 0.  1.
       -2   -1    0    0    0  501  0.00000000000E+00  0.00000000000E+00 -0.81170437466E+03  0.81170437466E+03  0.25500000920E-02 0. -1.
    10030    2    1    2    0    0  0.00000000000E+00  0.00000000000E+00  0.13445978845E+03  0.17578685378E+04  0.17527185631E+04 0.  0.
        1    1    3    3  502    0  0.17910753559E+01 -0.54513070310E+03  0.75542016709E+03  0.93157410885E+03  0.50400001928E-02 0.  1.
       -1    1    3    3    0  502 -0.17910753559E+01  0.54513070310E+03 -0.62096037863E+03  0.82629442893E+03  0.50400001928E-02 0. -1.
</event>
<event>
 5   0  0.1562618E-06  0.3436694E+04  0.7818609E-02  0.8128959E-01
        1   -1    0    0  501    0  0.00000000000E+00  0.00000000000E+00  0.15046817639E+04  0.15046817639E+04  0.50400001928E-02 0.  1.
       -1   -1    0    0    0  501  0.00000000000E+00  0.00000000000E+00 -0.19623524027E+04  0.19623524027E+04  0.50400001928E-02 0. -1.
    10030    2    1    2    0    0  0.00000000000E+00  0.00000000000E+00 -0.45767063886E+03  0.34670341666E+04  0.34366936871E+04 0.  0.
        2    1    3    3  502    0  0.54868822157E+03  0.15038647965E+04 -0.85888704280E+03  0.18166879322E+04  0.25500000920E-02 0. -1.
       -2    1    3    3    0  502 -0.54868822157E+03 -0.15038647965E+04  0.40121640394E+03  0.16503462344E+04  0.25500000920E-02 0.  1.
</event>
<event>
 5   0  0.1571391E-06  0.2668903E+04  0.7818609E-02  0.8345166E-01
        1   -1    0    0  501    0  0.00000000000E+00  0.00000000000E+00  0.20542746241E+04  0.20542746241E+04  0.50400001928E-02 0. -1.
       -1   -1    0    0    0  501  0.00000000000E+00  0.00000000000E+00 -0.86685651511E+03  0.86685651513E+03  0.50400001928E-02 0.  1.
    10030    2    1    2    0    0  0.00000000000E+00  0.00000000000E+00  0.11874181089E+04  0.29211311392E+04  0.26689034016E+04 0.  0.
        1    1    3    3  502    0 -0.34004396886E+03  0.12720598628E+04  0.35643803175E+03  0.13641166614E+04  0.50400001928E-02 0.  1.
       -1    1    3    3    0  502  0.34004396886E+03 -0.12720598628E+04  0.83098007720E+03  0.15570144778E+04  0.50400001928E-02 0. -1.
</event>
<event>
 5   0  0.2722449E-06  0.3096084E+04  0.7818609E-02  0.8216813E-01
       -2   -1    0    0    0  501  0.00000000000E+00  0.00000000000E+00  0.15459789691E+04  0.15459789691E+04  0.25500000920E-02 0.  1.
        2   -1    0    0  501    0  0.00000000000E+00  0.00000000000E+00 -0.15501080073E+04  0.15501080073E+04  0.25500000920E-02 0. -1.
    10030    2    1    2    0    0  0.00000000000E+00  0.00000000000E+00 -0.41290382035E+01  0.30960869764E+04  0.30960842231E+04 0.  0.
        2    1    3    3  502    0  0.60902921537E+03  0.40357618887E+03  0.13627238772E+04  0.15462233638E+04  0.25500000920E-02 0.  1.
       -2    1    3    3    0  502 -0.60902921537E+03 -0.40357618887E+03 -0.13668529154E+04  0.15498636126E+04  0.25500000920E-02 0. -1.
</event>
<event>
 5   0  0.1571391E-06  0.3401262E+04  0.7818609E-02  0.8137597E-01
        1   -1    0    0  501    0  0.00000000000E+00  0.00000000000E+00  0.12928230524E+04  0.12928230524E+04  0.50400001928E-02 0.  1.
       -1   -1    0    0    0  501  0.00000000000E+00  0.00000000000E+00 -0.22370780927E+04  0.22370780927E+04  0.50400001928E-02 0. -1.
    10030    2    1    2    0    0  0.00000000000E+00  0.00000000000E+00 -0.94425504024E+03  0.35299011451E+04  0.34012621942E+04 0.  0.
        1    1    3    3  502    0  0.14700884228E+04 -0.45995460134E+03  0.27584402622E+03  0.15648668100E+04  0.50400001928E-02 0.  1.
       -1    1    3    3    0  502 -0.14700884228E+04  0.45995460134E+03 -0.12200990665E+04  0.19650343351E+04  0.50400001928E-02 0. -1.
</event>
<event>
 5   0  0.1550164E-06  0.3435390E+04  0.7818609E-02  0.8129275E-01
        1   -1    0    0  501    0  0.00000000000E+00  0.00000000000E+00  0.18550049051E+04  0.18550049051E+04  0.50400001928E-02 0. -1.
       -1   -1    0    0    0  501  0.00000000000E+00  0.00000000000E+00 -0.15905493093E+04  0.15905493093E+04  0.50400001928E-02 0.  1.
    10030    2    1    2    0    0  0.00000000000E+00  0.00000000000E+00  0.26445559581E+03  0.34455542144E+04  0.34353903828E+04 0.  0.
        4    1    3    3  502    0  0.93842662901E+03 -0.14372591879E+04  0.19657872023E+03  0.17277162144E+04  0.12699999809E+01 0. -1.
       -4    1    3    3    0  502 -0.93842662901E+03  0.14372591879E+04  0.67876875578E+02  0.17178380001E+04  0.12699999809E+01 0.  1.
</event>
<event>
 5   0  0.1562618E-06  0.1996969E+04  0.7818609E-02  0.8608039E-01
        1   -1    0    0  501    0  0.00000000000E+00  0.00000000000E+00  0.11125459382E+04  0.11125459383E+04  0.50400001928E-02 0.  1.
       -1   -1    0    0    0  501  0.00000000000E+00  0.00000000000E+00 -0.89611667722E+03  0.89611667723E+03  0.50400001928E-02 0. -1.
    10030    2    1    2    0    0  0.00000000000E+00  0.00000000000E+00  0.21642926103E+03  0.20086626155E+04  0.19969686722E+04 0.  0.
        2    1    3    3  502    0  0.22922456564E+03  0.89211826653E+03  0.49589614524E+03  0.10461031927E+04  0.25500000920E-02 0.  1.
       -2    1    3    3    0  502 -0.22922456564E+03 -0.89211826653E+03 -0.27946688421E+03  0.96255942276E+03  0.25500000920E-02 0. -1.
</event>
<event>
 5   0  0.4173467E-06  0.3323006E+04  0.7818609E-02  0.8157066E-01
       -2   -1    0    0    0  501  0.00000000000E+00  0.00000000000E+00  0.10589815028E+04  0.10589815028E+04  0.25500000920E-02 0. -1.
        2   -1    0    0  501    0  0.00000000000E+00  0.00000000000E+00 -0.26068373033E+04  0.26068373033E+04  0.25500000920E-02 0.  1.
    10030    2    1    2    0    0  0.00000000000E+00  0.00000000000E+00 -0.15478558006E+04  0.36658188061E+04  0.33230061601E+04 0.  0.
        4    1    3    3  502    0  0.67361666545E+03 -0.50548838792E+03 -0.23539232523E+04  0.25000468422E+04  0.12699999809E+01 0.  1.
       -4    1    3    3    0  502 -0.67361666545E+03  0.50548838792E+03  0.80606745175E+03  0.11657719640E+04  0.12699999809E+01 0. -1.
</event>
<event>
 5   0  0.4400349E-06  0.3403916E+04  0.7818609E-02  0.8136946E-01
       -2   -1    0    0    0  501  0.00000000000E+00  0.00000000000E+00  0.27007053851E+04  0.27007053851E+04  0.25500000920E-02 0.  1.
        2   -1    0    0  501    0  0.00000000000E+00  0.00000000000E+00 -0.10725573156E+04  0.10725573156E+04  0.25500000920E-02 0. -1.
    10030    2    1    2    0    0  0.00000000000E+00  0.00000000000E+00  0.16281480694E+04  0.37732627007E+04  0.34039161671E+04 0.  0.
        5    1    3    3  502    0  0.65366243050E+03  0.93197275550E+03 -0.58843466340E+03  0.12814543430E+04  0.46999998093E+01 0. -1.
       -5    1    3    3    0  502 -0.65366243050E+03 -0.93197275550E+03  0.22165827328E+04  0.24918083577E+04  0.46999998093E+01 0.  1.
</event>
<event>
 5   0  0.4173467E-06  0.2690324E+04  0.7818609E-02  0.8338151E-01
       -2   -1    0    0    0  501  0.00000000000E+00  0.00000000000E+00  0.72117049923E+03  0.72117049923E+03  0.25500000920E-02 0. -1.
        2   -1    0    0  501    0  0.00000000000E+00  0.00000000000E+00 -0.25090617972E+04  0.25090617972E+04  0.25500000920E-02 0.  1.
    10030    2    1    2    0    0  0.00000000000E+00  0.00000000000E+00 -0.17878912980E+04  0.32302322965E+04  0.26903244034E+04 0.  0.
        4    1    3    3  502    0  0.32214387999E+03  0.10677616300E+04  0.90207278719E+01  0.11153360769E+04  0.12699999809E+01 0. -1.
       -4    1    3    3    0  502 -0.32214387999E+03 -0.10677616300E+04 -0.17969120259E+04  0.21148962196E+04  0.12699999809E+01 0.  1.
</event>
<event>
 5   0  0.4173467E-06  0.1835985E+04  0.7818609E-02  0.8687394E-01
        2   -1    0    0  501    0  0.00000000000E+00  0.00000000000E+00  0.80393792050E+03  0.80393792050E+03  0.25500000920E-02 0. -1.
       -2   -1    0    0    0  501  0.00000000000E+00  0.00000000000E+00 -0.10482283811E+04  0.10482283811E+04  0.25500000920E-02 0.  1.
    10030    2    1    2    0    0  0.00000000000E+00  0.00000000000E+00 -0.24429046062E+03  0.18521663016E+04  0.18359853430E+04 0.  0.
        4    1    3    3  502    0 -0.17308715990E+03  0.83649363182E+03 -0.46130483359E+03  0.97081642105E+03  0.12699999809E+01 0.  1.
       -4    1    3    3    0  502  0.17308715990E+03 -0.83649363182E+03  0.21701437297E+03  0.88134988056E+03  0.12699999809E+01 0. -1.
</event>
<event>
 5   0  0.4400349E-06  0.3453639E+04  0.7818609E-02  0.8124866E-01
       -2   -1    0    0    0  501  0.00000000000E+00  0.00000000000E+00  0.24341623470E+04  0.24341623470E+04  0.25500000920E-02 0.  1.
        2   -1    0    0  501    0  0.00000000000E+00  0.00000000000E+00 -0.12250235986E+04  0.12250235986E+04  0.25500000920E-02 0. -1.
    10030    2    1    2    0    0  0.00000000000E+00  0.00000000000E+00  0.12091387484E+04  0.36591859456E+04  0.34536394241E+04 0.  0.
        5    1    3    3  502    0 -0.90551607462E+03 -0.12425669738E+04  0.14374541449E+04  0.21048108120E+04  0.46999998093E+01 0.  1.
       -5    1    3    3    0  502  0.90551607462E+03  0.12425669738E+04 -0.22831539655E+03  0.15543751336E+04  0.46999998093E+01 0. -1.
</event>
<event>
 5   0  0.4189587E-06  0.3423597E+04  0.7818609E-02  0.8132139E-01
       -2   -1    0    0    0  501  0.00000000000E+00  0.00000000000E+00  0.25770943298E+04  0.25770943298E+04  0.25500000920E-02 0.  1.
        2   -1    0    0  501    0  0.00000000000E+00  0.00000000000E+00 -0.11370382876E+04  0.11370382876E+04  0.25500000920E-02 0. -1.
    10030    2    1    2    0    0  0.00000000000E+00  0.00000000000E+00  0.14400560422E+04  0.37141326174E+04  0.34235974785E+04 0.  0.
        1    1    3    3  502    0  0.12483568345E+04 -0.73939863511E+03  0.17054928004E+04  0.22391540412E+04  0.50400001928E-02 0.  1.
       -1    1    3    3    0  502 -0.12483568345E+04  0.73939863511E+03 -0.26543675823E+03  0.14749785763E+04  0.50400001928E-02 0. -1.
</event>
<event>
 5   0  0.4173467E-06  0.3392764E+04  0.7818609E-02  0.8139685E-01
        2   -1    0    0  501    0  0.00000000000E+00  0.00000000000E+00  0.25130366875E+04  0.25130366875E+04  0.25500000920E-02 0.  1.
       -2   -1    0    0    0  501  0.00000000000E+00  0.00000000000E+00 -0.11451132576E+04  0.11451132576E+04  0.25500000920E-02 0. -1.
    10030    2    1    2    0    0  0.00000000000E+00  0.00000000000E+00  0.13679234299E+04  0.36581499451E+04  0.33927638454E+04 0.  0.
        4    1    3    3  502    0 -0.76726649265E+02 -0.11749169770E+04 -0.63279014672E+03  0.13366906390E+04  0.12699999809E+01 0. -1.
       -4    1    3    3    0  502  0.76726649265E+02  0.11749169770E+04  0.20007135766E+04  0.23214593062E+04  0.12699999809E+01 0.  1.
</event>
<event>
 5   0  0.1571391E-06  0.2418998E+04  0.7818609E-02  0.8432425E-01
        1   -1    0    0  501    0  0.00000000000E+00  0.00000000000E+00  0.19282144605E+04  0.19282144605E+04  0.50400001928E-02 0.  1.
       -1   -1    0    0    0  501  0.00000000000E+00  0.00000000000E+00 -0.75867458793E+03  0.75867458795E+03  0.50400001928E-02 0. -1.
    10030    2    1    2    0    0  0.00000000000E+00  0.00000000000E+00  0.11695398725E+04  0.26868890484E+04  0.24189975703E+04 0.  0.
        1    1    3    3  502    0 -0.12087699590E+03  0.32266644733E+03 -0.70300561834E+03  0.78290598658E+03  0.50400001928E-02 0. -1.
       -1    1    3    3    0  502  0.12087699590E+03 -0.32266644733E+03  0.18725454909E+04  0.19039830619E+04  0.50400001928E-02 0.  1.
</event>
<event>
 5   0  0.1562618E-06  0.1740490E+04  0.7818609E-02  0.8738602E-01
        1   -1    0    0  501    0  0.00000000000E+00  0.00000000000E+00  0.60957853641E+03  0.60957853643E+03  0.50400001928E-02 0.  1.
       -1   -1    0    0    0  501  0.00000000000E+00  0.00000000000E+00 -0.12423775438E+04  0.12423775438E+04  0.50400001928E-02 0. -1.
    10030    2    1    2    0    0  0.00000000000E+00  0.00000000000E+00 -0.63279900740E+03  0.18519560803E+04  0.17404903733E+04 0.  0.
        2    1    3    3  502    0 -0.80969978146E+03 -0.51405496510E+02 -0.65131178050E+03  0.10404149636E+04  0.25500000920E-02 0. -1.
       -2    1    3    3    0  502  0.80969978146E+03  0.51405496510E+02  0.18512773095E+02  0.81154111660E+03  0.25500000920E-02 0.  1.
</event>
<event>
 5   0  0.1654257E-06  0.3319066E+04  0.7818609E-02  0.8158061E-01
       -1   -1    0    0    0  501  0.00000000000E+00  0.00000000000E+00  0.18118740041E+04  0.18118740041E+04  0.50400001928E-02 0.  1.
        1   -1    0    0  501    0  0.00000000000E+00  0.00000000000E+00 -0.15200004347E+04  0.15200004347E+04  0.50400001928E-02 0. -1.
    10030    2    1    2    0    0  0.00000000000E+00  0.00000000000E+00  0.29187356940E+03  0.33318744388E+04  0.33190656962E+04 0.  0.
        3    1    3    3  502    0 -0.45677731503E+03 -0.85980296210E+03 -0.12031776773E+04  0.15477542384E+04  0.10100000352E+00 0. -1.
       -3    1    3    3    0  502  0.45677731503E+03  0.85980296210E+03  0.14950512467E+04  0.17841202004E+04  0.10100000352E+00 0.  1.
</event>
<event>
 5   0  0.4173467E-06  0.3292568E+04  0.7818609E-02  0.8164789E-01
       -2   -1    0    0    0  501  0.00000000000E+00  0.00000000000E+00  0.28328636138E+04  0.28328636138E+04  0.25500000920E-02 0. -1.
        2   -1    0    0  501    0  0.00000000000E+00  0.00000000000E+00 -0.95671800628E+03  0.95671800629E+03  0.25500000920E-02 0.  1.
    10030    2    1    2    0    0  0.00000000000E+00  0.00000000000E+00  0.18761456076E+04  0.37895816201E+04  0.32925683766E+04 0.  0.
        4    1    3    3  502    0 -0.89361793343E+03 -0.40502269670E+03 -0.58346989045E+03  0.11415056381E+04  0.12699999809E+01 0.  1.
       -4    1    3    3    0  502  0.89361793343E+03  0.40502269670E+03  0.24596154980E+04  0.26480759821E+04  0.12699999809E+01 0. -1.
</event>
<event>
 5   0  0.1550164E-06  0.2544075E+04  0.7818609E-02  0.8387450E-01
        1   -1    0    0  501    0  0.00000000000E+00  0.00000000000E+00  0.16285651247E+04  0.16285651247E+04  0.50400001928E-02 0.  1.
       -1   -1    0    0    0  501  0.00000000000E+00  0.00000000000E+00 -0.99356157503E+03  0.99356157505E+03  0.50400001928E-02 0. -1.
    10030    2    1    2    0    0  0.00000000000E+00  0.00000000000E+00  0.63500354969E+03  0.26221266998E+04  0.25440752586E+04 0.  0.
        4    1    3    3  502    0  0.29002237795E+03  0.65788444063E+03 -0.76405068905E+03  0.10491425000E+04  0.12699999809E+01 0. -1.
       -4    1    3    3    0  502 -0.29002237795E+03 -0.65788444063E+03  0.13990542387E+04  0.15729841998E+04  0.12699999809E+01 0.  1.
</event>
<event>
 5   0  0.2101998E-06  0.2033249E+04  0.7818609E-02  0.8591232E-01
       -1   -1    0    0    0  501  0.00000000000E+00  0.00000000000E+00  0.18738801285E+04  0.18738801285E+04  0.50400001928E-02 0. -1.
        1   -1    0    0  501    0  0.00000000000E+00  0.00000000000E+00 -0.55154277095E+03  0.55154277097E+03  0.50400001928E-02 0.  1.
    10030    2    1    2    0    0  0.00000000000E+00  0.00000000000E+00  0.13223373576E+04  0.24254228995E+04  0.20332486700E+04 0.  0.
        5    1    3    3  502    0  0.79538378054E+03 -0.40281722646E+03  0.78478711363E+02  0.89502965002E+03  0.46999998093E+01 0.  1.
       -5    1    3    3    0  502 -0.79538378054E+03  0.40281722646E+03  0.12438586462E+04  0.15303932495E+04  0.46999998093E+01 0. -1.
</event>
<event>
 5   0  0.1550164E-06  0.3433963E+04  0.7818609E-02  0.8129621E-01
        1   -1    0    0  501    0  0.00000000000E+00  0.00000000000E+00  0.30323075925E+04  0.30323075925E+04  0.50400001928E-02 0.  1.
       -1   -1    0    0    0  501  0.00000000000E+00  0.00000000000E+00 -0.97220508529E+03  0.97220508530E+03  0.50400001928E-02 0. -1.
    10030    2    1    2    0    0  0.00000000000E+00  0.00000000000E+00  0.20601025072E+04  0.40045126778E+04  0.34339626449E+04 0.  0.
        4    1    3    3  502    0 -0.12260361628E+04 -0.36875665513E+03 -0.30409531019E+03  0.13159109825E+04  0.12699999809E+01 0. -1.
       -4    1    3    3    0  502  0.12260361628E+04  0.36875665513E+03  0.23641978174E+04  0.26886016953E+04  0.12699999809E+01 0.  1.
</event>
<event>
 5   0  0.1562618E-06  0.3328411E+04  0.7818609E-02  0.8155704E-01
        1   -1    0    0  501    0  0.00000000000E+00  0.00000000000E+00  0.15952476576E+04  0.15952476576E+04  0.50400001928E-02 0. -1.
       -1   -1    0    0    0  501  0.00000000000E+00  0.00000000000E+00 -0.17361438004E+04  0.17361438004E+04  0.50400001928E-02 0.  1.
    10030    2    1    2    0    0  0.00000000000E+00  0.00000000000E+00 -0.14089614277E+03  0.33313914580E+04  0.33284106302E+04 0.  0.
        2    1    3    3  502    0  0.73964229763E+02 -0.63506764995E+03 -0.16083128640E+04  0.17307373850E+04  0.25500000920E-02 0.  1.
       -2    1    3    3    0  502 -0.73964229763E+02  0.63506764995E+03  0.14674167213E+04  0.16006540729E+04  0.25500000920E-02 0. -1.
</event>
<event>
 5   0  0.4344980E-06  0.3385806E+04  0.7818609E-02  0.8141399E-01
        2   -1    0    0  501    0  0.00000000000E+00  0.00000000000E+00  0.14122613069E+04  0.14122613069E+04  0.25500000920E-02 0. -1.
       -2   -1    0    0    0  501  0.00000000000E+00  0.00000000000E+00 -0.20293128891E+04  0.20293128891E+04  0.25500000920E-02 0.  1.
    10030    2    1    2    0    0  0.00000000000E+00  0.00000000000E+00 -0.61705158215E+03  0.34415741960E+04  0.33858057079E+04 0.  0.
        3    1    3    3  502    0 -0.12393781322E+04  0.50816342295E+03 -0.13607733070E+04  0.19094481460E+04  0.10100000352E+00 0.  1.
       -3    1    3    3    0  502  0.12393781322E+04 -0.50816342295E+03  0.74372172485E+03  0.15321260500E+04  0.10100000352E+00 0. -1.
</event>
<event>
 5   0  0.4173467E-06  0.3435926E+04  0.7818609E-02  0.8129145E-01
       -2   -1    0    0    0  501  0.00000000000E+00  0.00000000000E+00  0.21672537597E+04  0.21672537597E+04  0.25500000920E-02 0. -1.
        2   -1    0    0  501    0  0.00000000000E+00  0.00000000000E+00 -0.13618138667E+04  0.13618138667E+04  0.25500000920E-02 0.  1.
    10030    2    1    2    0    0  0.00000000000E+00  0.00000000000E+00  0.80543989298E+03  0.35290676263E+04  0.34359256235E+04 0.  0.
        4    1    3    3  502    0  0.16285482461E+04  0.21059475385E+03  0.92125713058E+03  0.18828796706E+04  0.12699999809E+01 0. -1.
       -4    1    3    3    0  502 -0.16285482461E+04 -0.21059475385E+03 -0.11581723760E+03  0.16461879558E+04  0.12699999809E+01 0.  1.
</event>
<event>
 5   0  0.1654257E-06  0.3285354E+04  0.7818609E-02  0.8166632E-01
        1   -1    0    0  501    0  0.00000000000E+00  0.00000000000E+00  0.16917409062E+04  0.16917409062E+04  0.50400001928E-02 0.  1.
       -1   -1    0    0    0  501  0.00000000000E+00  0.00000000000E+00 -0.15950359382E+04  0.15950359382E+04  0.50400001928E-02 0. -1.
    10030    2    1    2    0    0  0.00000000000E+00  0.00000000000E+00  0.96704967967E+02  0.32867768444E+04  0.32853538887E+04 0.  0.
        3    1    3    3  502    0 -0.14474505718E+04  0.13559499792E+03 -0.71675870834E+03  0.16208769902E+04  0.10100000352E+00 0. -1.
       -3    1    3    3    0  502  0.14474505718E+04 -0.13559499792E+03  0.81346367631E+03  0.16658998542E+04  0.10100000352E+00 0.  1.
</event>
<event>
 5   0  0.4400349E-06  0.3517490E+04  0.7818609E-02  0.8109657E-01
       -2   -1    0    0    0  501  0.00000000000E+00  0.00000000000E+00  0.18935587944E+04  0.18935587944E+04  0.25500000920E-02 0. -1.
        2   -1    0    0  501    0  0.00000000000E+00  0.00000000000E+00 -0.16335296860E+04  0.16335296860E+04  0.25500000920E-02 0.  1.
    10030    2    1    2    0    0  0.00000000000E+00  0.00000000000E+00  0.26002910842E+03  0.35270884804E+04  0.35174903001E+04 0.  0.
        5    1    3    3  502    0 -0.10607232505E+04 -0.28142074105E+03  0.15081122068E+04  0.18651423447E+04  0.46999998093E+01 0. -1.
       -5    1    3    3    0  502  0.10607232505E+04  0.28142074105E+03 -0.12480830984E+04  0.16619461357E+04  0.46999998093E+01 0.  1.
</event>
<event>
 5   0  0.2722449E-06  0.3387870E+04  0.7818609E-02  0.8140890E-01
        2   -1    0    0  501    0  0.00000000000E+00  0.00000000000E+00  0.30272326504E+04  0.30272326504E+04  0.25500000920E-02 0.  1.
       -2   -1    0    0    0  501  0.00000000000E+00  0.00000000000E+00 -0.94786756591E+03  0.94786756592E+03  0.25500000920E-02 0. -1.
    10030    2    1    2    0    0  0.00000000000E+00  0.00000000000E+00  0.20793650845E+04  0.39751002163E+04  0.33878699171E+04 0.  0.
        2    1    3    3  502    0 -0.15814663802E+04  0.14141366753E+03  0.34713570290E+03  0.16252805706E+04  0.25500000920E-02 0. -1.
       -2    1    3    3    0  502  0.15814663802E+04 -0.14141366753E+03  0.17322293816E+04  0.23498196457E+04  0.25500000920E-02 0.  1.
</event>
<event>
 5   0  0.1550164E-06  0.3430538E+04  0.7818609E-02  0.8130452E-01
       -1   -1    0    0    0  501  0.00000000000E+00  0.00000000000E+00  0.15591207866E+04  0.15591207866E+04  0.50400001928E-02 0. -1.
        1   -1    0    0  501    0  0.00000000000E+00  0.00000000000E+00 -0.18870562220E+04  0.18870562220E+04  0.50400001928E-02 0.  1.
    10030    2    1    2    0    0  0.00000000000E+00  0.00000000000E+00 -0.32793543540E+03  0.34461770086E+04  0.34305384890E+04 0.  0.
        4    1    3    3  502    0 -0.12135849488E+04  0.83695522209E+03  0.71687869091E+03  0.16392678677E+04  0.12699999809E+01 0. -1.
       -4    1    3    3    0  502  0.12135849488E+04 -0.83695522209E+03 -0.10448141263E+04  0.18069091408E+04  0.12699999809E+01 0.  1.
</event>
<event>
 5   0  0.4173467E-06  0.3153271E+04  0.7818609E-02  0.8201268E-01
       -2   -1    0    0    0  501  0.00000000000E+00  0.00000000000E+00  0.13939371862E+04  0.13939371862E+04  0.25500000920E-02 0.  1.
        2   -1    0    0  501    0  0.00000000000E+00  0.00000000000E+00 -0.17832796692E+04  0.17832796692E+04  0.25500000920E-02 0. -1.
    10030    2    1    2    0    0  0.00000000000E+00  0.00000000000E+00 -0.38934248292E+03  0.31772168554E+04  0.31532712185E+04 0.  0.
        4    1    3    3  502    0 -0.48055988529E+03 -0.27792169686E+03  0.12922041744E+04  0.14064037522E+04  0.12699999809E+01 0.  1.
       -4    1    3    3    0  502  0.48055988529E+03  0.27792169686E+03 -0.16815466573E+04  0.17708131032E+04  0.12699999809E+01 0. -1.
</event>
<event>
 5   0  0.1550164E-06  0.2078112E+04  0.7818609E-02  0.8570947E-01
        1   -1    0    0  501    0  0.00000000000E+00  0.00000000000E+00  0.76187009818E+03  0.76187009819E+03  0.50400001928E-02 0. -1.
       -1   -1    0    0    0  501  0.00000000000E+00  0.00000000000E+00 -0.14170891813E+04  0.14170891813E+04  0.50400001928E-02 0.  1.
    10030    2    1    2    0    0  0.00000000000E+00  0.00000000000E+00 -0.65521908316E+03  0.21789592795E+04  0.20781124837E+04 0.  0.
        4    1    3    3  502    0 -0.74928923568E+03 -0.24290692759E+03  0.38291669113E+03  0.87582243601E+03  0.12699999809E+01 0. -1.
       -4    1    3    3    0  502  0.74928923568E+03  0.24290692759E+03 -0.10381357743E+04  0.13031368435E+04  0.12699999809E+01 0.  1.
</event>
<event>
 5   0  0.1550164E-06  0.3370197E+04  0.7818609E-02  0.8145260E-01
       -1   -1    0    0    0  501  0.00000000000E+00  0.00000000000E+00  0.21077306542E+04  0.21077306542E+04  0.50400001928E-02 0.  1.
        1   -1    0    0  501    0  0.00000000000E+00  0.00000000000E+00 -0.13472106521E+04  0.13472106522E+04  0.50400001928E-02 0. -1.
    10030    2    1    2    0    0  0.00000000000E+00  0.00000000000E+00  0.76052000210E+03  0.34549413064E+04  0.33701971392E+04 0.  0.
        4    1    3    3  502    0 -0.92530218245E+03  0.11191729230E+04  0.12566382601E+04  0.19203836831E+04  0.12699999809E+01 0.  1.
       -4    1    3    3    0  502  0.92530218245E+03 -0.11191729230E+04 -0.49611825801E+03  0.15345576233E+04  0.12699999809E+01 0. -1.
</event>
<event>
 5   0  0.4344980E-06  0.1673258E+04  0.7818609E-02  0.8776765E-01
        2   -1    0    0  501    0  0.00000000000E+00  0.00000000000E+00  0.19054175315E+04  0.19054175315E+04  0.25500000920E-02 0.  1.
       -2   -1    0    0    0  501  0.00000000000E+00  0.00000000000E+00 -0.36734621472E+03  0.36734621473E+03  0.25500000920E-02 0. -1.
    10030    2    1    2    0    0  0.00000000000E+00  0.00000000000E+00  0.15380713168E+04  0.22727637462E+04  0.16732578016E+04 0.  0.
        3    1    3    3  502    0  0.13761403899E+03  0.84707840277E+02 -0.34594715677E+03  0.38182782430E+03  0.10100000352E+00 0. -1.
       -3    1    3    3    0  502 -0.13761403899E+03 -0.84707840277E+02  0.18840184735E+04  0.18909359219E+04  0.10100000352E+00 0.  1.
</event>
<event>
 5   0  0.2101998E-06  0.3488829E+04  0.7818609E-02  0.8116442E-01
       -1   -1    0    0    0  501  0.00000000000E+00  0.00000000000E+00  0.22305523592E+04  0.22305523592E+04  0.50400001928E-02 0.  1.
        1   -1    0    0  501    0  0.00000000000E+00  0.00000000000E+00 -0.13642281361E+04  0.13642281361E+04  0.50400001928E-02 0. -1.
    10030    2    1    2    0    0  0.00000000000E+00  0.00000000000E+00  0.86632422307E+03  0.35947804954E+04  0.34888291948E+04 0.  0.
        5    1    3    3  502    0  0.14115829387E+04 -0.72769593702E+03 -0.31045609648E+03  0.16181819574E+04  0.46999998093E+01 0.  1.
       -5    1    3    3    0  502 -0.14115829387E+04  0.72769593702E+03  0.11767803196E+04  0.19765985379E+04  0.46999998093E+01 0. -1.
</event>
<event>
 5   0  0.4189587E-06  0.3159891E+04  0.7818609E-02  0.8199491E-01
        2   -1    0    0  501    0  0.00000000000E+00  0.00000000000E+00  0.79369769912E+03  0.79369769913E+03  0.25500000920E-02 0. -1.
       -2   -1    0    0    0  501  0.00000000000E+00  0.00000000000E+00 -0.31450619833E+04  0.31450619833E+04  0.25500000920E-02 0.  1.
    10030    2    1    2    0    0  0.00000000000E+00  0.00000000000E+00 -0.23513642842E+04  0.39387596825E+04  0.31598914284E+04 0.  0.
        1    1    3    3  502    0  0.24628859219E+03  0.59270482130E+03 -0.29752343714E+04  0.30436781434E+04  0.50400001928E-02 0.  1.
       -1    1    3    3    0  502 -0.24628859219E+03 -0.59270482130E+03  0.62387008720E+03  0.89508153905E+03  0.50400001928E-02 0. -1.
</event>
<event>
 5   0  0.2722449E-06  0.3387453E+04  0.7818609E-02  0.8140993E-01
       -2   -1    0    0    0  501  0.00000000000E+00  0.00000000000E+00  0.12838647928E+04  0.12838647928E+04  0.25500000920E-02 0.  1.
        2   -1    0    0  501    0  0.00000000000E+00  0.00000000000E+00 -0.22344325857E+04  0.22344325857E+04  0.25500000920E-02 0. -1.
    10030    2    1    2    0    0  0.00000000000E+00  0.00000000000E+00 -0.95056779288E+03  0.35182973785E+04  0.33874529243E+04 0.  0.
        2    1    3    3  502    0 -0.21520293832E+03  0.32123488002E+03  0.12374120322E+04  0.12964153232E+04  0.25500000920E-02 0.  1.
       -2    1    3    3    0  502  0.21520293832E+03 -0.32123488002E+03 -0.21879798251E+04  0.22218820553E+04  0.25500000920E-02 0. -1.
</event>
<event>
 5   0  0.4189587E-06  0.3370910E+04  0.7818609E-02  0.8145083E-01
        2   -1    0    0  501    0  0.00000000000E+00  0.00000000000E+00  0.15641840249E+04  0.15641840249E+04  0.25500000920E-02 0. -1.
       -2   -1    0    0    0  501  0.00000000000E+00  0.00000000000E+00 -0.18161280465E+04  0.18161280465E+04  0.25500000920E-02 0.  1.
    10030    2    1    2    0    0  0.00000000000E+00  0.00000000000E+00 -0.25194402168E+03  0.33803120714E+04  0.33709099528E+04 0.  0.
        1    1    3    3  502    0  0.98797717275E+03  0.90725911605E+03  0.89743343064E+03  0.16138787935E+04  0.50400001928E-02 0. -1.
       -1    1    3    3    0  502 -0.98797717275E+03 -0.90725911605E+03 -0.11493774523E+04  0.17664332779E+04  0.50400001928E-02 0.  1.
</event>
<event>
 5   0  0.4189587E-06  0.1911079E+04  0.7818609E-02  0.8649361E-01
       -2   -1    0    0    0  501  0.00000000000E+00  0.00000000000E+00  0.13293186382E+04  0.13293186382E+04  0.25500000920E-02 0. -1.
        2   -1    0    0  501    0  0.00000000000E+00  0.00000000000E+00 -0.68686030771E+03  0.68686030772E+03  0.25500000920E-02 0.  1.
    10030    2    1    2    0    0  0.00000000000E+00  0.00000000000E+00  0.64245833044E+03  0.20161789459E+04  0.19110794948E+04 0.  0.
        1    1    3    3  502    0  0.49171546626E+03 -0.52337437434E+03 -0.34379539059E+03  0.79617843860E+03  0.50400001928E-02 0.  1.
       -1    1    3    3    0  502 -0.49171546626E+03  0.52337437434E+03  0.98625372103E+03  0.12200005073E+04  0.50400001928E-02 0. -1.
</event>
<event>
 5   0  0.4400349E-06  0.3162612E+04  0.7818609E-02  0.8198762E-01
       -2   -1    0    0    0  501  0.00000000000E+00  0.00000000000E+00  0.23574527286E+04  0.23574527286E+04  0.25500000920E-02 0.  1.
        2   -1    0    0  501    0  0.00000000000E+00  0.00000000000E+00 -0.10606907531E+04  0.10606907531E+04  0.25500000920E-02 0. -1.
    10030    2    1    2    0    0  0.00000000000E+00  0.00000000000E+00  0.12967619755E+04  0.34181434817E+04  0.31626117751E+04 0.  0.
        5    1    3    3  502    0 -0.48372103898E+03  0.75296352668E+03  0.20573889128E+04  0.22436156856E+04  0.46999998093E+01 0.  1.
       -5    1    3    3    0  502  0.48372103898E+03 -0.75296352668E+03 -0.76062693730E+03  0.11745277961E+04  0.46999998093E+01 0. -1.
</event>
<event>
 5   0  0.1562618E-06  0.2619364E+04  0.7818609E-02  0.8361653E-01
       -1   -1    0    0    0  501  0.00000000000E+00  0.00000000000E+00  0.13141336001E+04  0.13141336001E+04  0.50400001928E-02 0. -1.
        1   -1    0    0  501    0  0.00000000000E+00  0.00000000000E+00 -0.13052458024E+04  0.13052458024E+04  0.50400001928E-02 0.  1.
    10030    2    1    2    0    0  0.00000000000E+00  0.00000000000E+00  0.88877977068E+01  0.26193794026E+04  0.26193643240E+04 0.  0.
        2    1    3    3  502    0 -0.22199934383E+03  0.10699702969E+04 -0.71746552803E+03  0.13072401955E+04  0.25500000920E-02 0. -1.
       -2    1    3    3    0  502  0.22199934383E+03 -0.10699702969E+04  0.72635332574E+03  0.13121392071E+04  0.25500000920E-02 0.  1.
</event>
<event>
 5   0  0.4344980E-06  0.3422985E+04  0.7818609E-02  0.8132288E-01
        2   -1    0    0  501    0  0.00000000000E+00  0.00000000000E+00  0.22767455656E+04  0.22767455656E+04  0.25500000920E-02 0.  1.
       -2   -1    0    0    0  501  0.00000000000E+00  0.00000000000E+00 -0.12865761067E+04  0.12865761067E+04  0.25500000920E-02 0. -1.
    10030    2    1    2    0    0  0.00000000000E+00  0.00000000000E+00  0.99016945890E+03  0.35633216722E+04  0.34229849229E+04 0.  0.
        3    1    3    3  502    0  0.69301039852E+03 -0.15247354826E+04  0.86184239817E+03  0.18835748017E+04  0.10100000352E+00 0. -1.
       -3    1    3    3    0  502 -0.69301039852E+03  0.15247354826E+04  0.12832706073E+03  0.16797468705E+04  0.10100000352E+00 0.  1.
</event>
<event>
 5   0  0.1550164E-06  0.3403091E+04  0.7818609E-02  0.8137148E-01
       -1   -1    0    0    0  501  0.00000000000E+00  0.00000000000E+00  0.15169469573E+04  0.15169469573E+04  0.50400001928E-02 0.  1.
        1   -1    0    0  501    0  0.00000000000E+00  0.00000000000E+00 -0.19086084783E+04  0.19086084783E+04  0.50400001928E-02 0. -1.
    10030    2    1    2    0    0  0.00000000000E+00  0.00000000000E+00 -0.39166152103E+03  0.34255554357E+04  0.34030914322E+04 0.  0.
        4    1    3    3  502    0  0.14628621548E+04  0.15936526323E+03 -0.10558081900E+04  0.18111033980E+04  0.12699999809E+01 0. -1.
       -4    1    3    3    0  502 -0.14628621548E+04 -0.15936526323E+03  0.66414666896E+03  0.16144520377E+04  0.12699999809E+01 0.  1.
</event>
<event>
 5   0  0.1550164E-06  0.2486417E+04  0.7818609E-02  0.8407841E-01
        1   -1    0    0  501    0  0.00000000000E+00  0.00000000000E+00  0.16494183973E+04  0.16494183973E+04  0.50400001928E-02 0. -1.
       -1   -1    0    0    0  501  0.00000000000E+00  0.00000000000E+00 -0.93703782876E+03  0.93703782877E+03  0.50400001928E-02 0.  1.
    10030    2    1    2    0    0  0.00000000000E+00  0.00000000000E+00  0.71238056852E+03  0.25864562261E+04  0.24864170477E+04 0.  0.
        4    1    3    3  502    0 -0.12125991428E+04  0.35680894192E+02  0.73414859809E+02  0.12153440508E+04  0.12699999809E+01 0.  1.
       -4    1    3    3    0  502  0.12125991428E+04 -0.35680894192E+02  0.63896570871E+03  0.13711121752E+04  0.12699999809E+01 0. -1.
</event>
<event>
 5   0  0.1654257E-06  0.3475143E+04  0.7818609E-02  0.8119706E-01
        1   -1    0    0  501    0  0.00000000000E+00  0.00000000000E+00  0.15065850927E+04  0.15065850927E+04  0.50400001928E-02 0.  1.
       -1   -1    0    0    0  501  0.00000000000E+00  0.00000000000E+00 -0.20039721597E+04  0.20039721597E+04  0.50400001928E-02 0. -1.
    10030    2    1    2    0    0  0.00000000000E+00  0.00000000000E+00 -0.49738706696E+03  0.35105572525E+04  0.34751429220E+04 0.  0.
        3    1    3    3  502    0  0.82265669758E+03  0.68905695132E+03  0.11318314847E+04  0.15596813919E+04  0.10100000352E+00 0.  1.
       -3    1    3    3    0  502 -0.82265669758E+03 -0.68905695132E+03 -0.16292185516E+04  0.19508758606E+04  0.10100000352E+00 0. -1.
</event>
<event>
 5   0  0.2722449E-06  0.3396794E+04  0.7818609E-02  0.8138694E-01
       -2   -1    0    0    0  501  0.00000000000E+00  0.00000000000E+00  0.12321415945E+04  0.12321415945E+04  0.25500000920E-02 0.  1.
        2   -1    0    0  501    0  0.00000000000E+00  0.00000000000E+00 -0.23410884199E+04  0.23410884199E+04  0.25500000920E-02 0. -1.
    10030    2    1    2    0    0  0.00000000000E+00  0.00000000000E+00 -0.11089468254E+04  0.35732300144E+04  0.33967940288E+04 0.  0.
        2    1    3    3  502    0 -0.12086664661E+04  0.30801233972E+03  0.65814059667E+03  0.14102819834E+04  0.25500000920E-02 0.  1.
       -2    1    3    3    0  502  0.12086664661E+04 -0.30801233972E+03 -0.17670874221E+04  0.21629480310E+04  0.25500000920E-02 0. -1.
</event>
<event>
 5   0  0.1550164E-06  0.3063003E+04  0.7818609E-02  0.8225965E-01
        1   -1    0    0  501    0  0.00000000000E+00  0.00000000000E+00  0.17452057426E+04  0.17452057426E+04  0.50400001928E-02 0.  1.
       -1   -1    0    0    0  501  0.00000000000E+00  0.00000000000E+00 -0.13439659763E+04  0.13439659764E+04  0.50400001928E-02 0. -1.
    10030    2    1    2    0    0  0.00000000000E+00  0.00000000000E+00  0.40123976626E+03  0.30891717190E+04  0.30630031928E+04 0.  0.
        4    1    3    3  502    0  0.58566256519E+03 -0.18731069557E+03 -0.12140072792E+04  0.13608457752E+04  0.12699999809E+01 0. -1.
       -4    1    3    3    0  502 -0.58566256519E+03  0.18731069557E+03  0.16152470455E+04  0.17283259438E+04  0.12699999809E+01 0.  1.
</event>
<event>
 5   0  0.2722449E-06  0.3616065E+04  0.7818609E-02  0.8086822E-01
       -2   -1    0    0    0  501  0.00000000000E+00  0.00000000000E+00  0.14511022830E+04  0.14511022830E+04  0.25500000920E-02 0.  1.
        2   -1    0    0  501    0  0.00000000000E+00  0.00000000000E+00 -0.22527580915E+04  0.22527580915E+04  0.25500000920E-02 0. -1.
    10030    2    1    2    0    0  0.00000000000E+00  0.00000000000E+00 -0.80165580852E+03  0.37038603745E+04  0.36160654914E+04 0.  0.
        2    1    3    3  502    0 -0.52359650946E+03 -0.13549628160E+04  0.70183360138E+03  0.16132724325E+04  0.25500000920E-02 0.  1.
       -2    1    3    3    0  502  0.52359650946E+03  0.13549628160E+04 -0.15034894099E+04  0.20905879420E+04  0.25500000920E-02 0. -1.
</event>
<event>
 5   0  0.4344980E-06  0.2920720E+04  0.7818609E-02  0.8266739E-01
       -2   -1    0    0    0  501  0.00000000000E+00  0.00000000000E+00  0.10347654361E+04  0.10347654361E+04  0.25500000920E-02 0. -1.
        2   -1    0    0  501    0  0.00000000000E+00  0.00000000000E+00 -0.20609998234E+04  0.20609998234E+04  0.25500000920E-02 0.  1.
    10030    2    1    2    0    0  0.00000000000E+00  0.00000000000E+00 -0.10262343873E+04  0.30957652595E+04  0.29207200353E+04 0.  0.
        3    1    3    3  502    0 -0.74368635441E+03 -0.55451386800E+03 -0.17085855785E+04  0.19441758441E+04  0.10100000352E+00 0.  1.
       -3    1    3    3    0  502  0.74368635441E+03  0.55451386800E+03  0.68235119116E+03  0.11515894155E+04  0.10100000352E+00 0. -1.
</event>
<event>
 5   0  0.1654257E-06  0.3348463E+04  0.7818609E-02  0.8150672E-01
       -1   -1    0    0    0  501  0.00000000000E+00  0.00000000000E+00  0.21052161735E+04  0.21052161735E+04  0.50400001928E-02 0.  1.
        1   -1    0    0  501    0  0.00000000000E+00  0.00000000000E+00 -0.13314786640E+04  0.13314786640E+04  0.50400001928E-02 0. -1.
    10030    2    1    2    0    0  0.00000000000E+00  0.00000000000E+00  0.77373750949E+03  0.34366948375E+04  0.33484625834E+04 0.  0.
        3    1    3    3  502    0 -0.17216410401E+03 -0.14828309517E+04  0.11648815821E+04  0.18935092343E+04  0.10100000352E+00 0.  1.
       -3    1    3    3    0  502  0.17216410401E+03  0.14828309517E+04 -0.39114407260E+03  0.15431856031E+04  0.10100000352E+00 0. -1.
</event>
<event>
 5   0  0.1654257E-06  0.3349277E+04  0.7818609E-02  0.8150469E-01
       -1   -1    0    0    0  501  0.00000000000E+00  0.00000000000E+00  0.88854435985E+03  0.88854435986E+03  0.50400001928E-02 0. -1.
        1   -1    0    0  501    0  0.00000000000E+00  0.00000000000E+00 -0.31561895678E+04  0.31561895678E+04  0.50400001928E-02 0.  1.
    10030    2    1    2    0    0  0.00000000000E+00  0.00000000000E+00 -0.22676452079E+04  0.40447339276E+04  0.33492771991E+04 0.  0.
        3    1    3    3  502    0  0.32511569541E+03 -0.95649305174E+03  0.47911005821E+03  0.11180901715E+04  0.10100000352E+00 0. -1.
       -3    1    3    3    0  502 -0.32511569541E+03  0.95649305174E+03 -0.27467552661E+04  0.29266437562E+04  0.10100000352E+00 0.  1.
</event>
<event>
 5   0  0.2722449E-06  0.3375216E+04  0.7818609E-02  0.8144016E-01
        2   -1    0    0  501    0  0.00000000000E+00  0.00000000000E+00  0.12771417659E+04  0.12771417659E+04  0.25500000920E-02 0.  1.
       -2   -1    0    0    0  501  0.00000000000E+00  0.00000000000E+00 -0.22299960172E+04  0.22299960172E+04  0.25500000920E-02 0. -1.
    10030    2    1    2    0    0  0.00000000000E+00  0.00000000000E+00 -0.95285425126E+03  0.35071377831E+04  0.33752161717E+04 0.  0.
        2    1    3    3  502    0 -0.16318905481E+04  0.39396631654E+03 -0.65563496069E+03  0.18022578676E+04  0.25500000920E-02 0.  1.
       -2    1    3    3    0  502  0.16318905481E+04 -0.39396631654E+03 -0.29721929056E+03  0.17048799155E+04  0.25500000920E-02 0. -1.
</event>
<event>
 5   0  0.1562618E-06  0.3414033E+04  0.7818609E-02  0.8134471E-01
       -1   -1    0    0    0  501  0.00000000000E+00  0.00000000000E+00  0.22286556918E+04  0.22286556918E+04  0.50400001928E-02 0.  1.
        1   -1    0    0  501    0  0.00000000000E+00  0.00000000000E+00 -0.13074720691E+04  0.13074720691E+04  0.50400001928E-02 0. -1.
    10030    2    1    2    0    0  0.00000000000E+00  0.00000000000E+00  0.92118362278E+03  0.35361277609E+04  0.34140328462E+04 0.  0.
        2    1    3    3  502    0  0.41714162322E+03  0.16481273738E+04  0.30156228536E+03  0.17266356842E+04  0.25500000920E-02 0.  1.
       -2    1    3    3    0  502 -0.41714162322E+03 -0.16481273738E+04  0.61962133742E+03  0.18094920767E+04  0.25500000920E-02 0. -1.
</event>
<event>
 5   0  0.4344980E-06  0.3422966E+04  0.7818609E-02  0.8132293E-01
        2   -1    0    0  501    0  0.00000000000E+00  0.00000000000E+00  0.26512678893E+04  0.26512678893E+04  0.25500000920E-02 0. -1.
       -2   -1    0    0    0  501  0.00000000000E+00  0.00000000000E+00 -0.11048199622E+04  0.11048199622E+04  0.25500000920E-02 0.  1.
    10030    2    1    2    0    0  0.00000000000E+00  0.00000000000E+00  0.15464479271E+04  0.37560878515E+04  0.34229657838E+04 0.  0.
        3    1    3    3  502    0  0.38971196487E+03 -0.38030272691E+03 -0.10072320100E+04  0.11449986514E+04  0.10100000352E+00 0.  1.
       -3    1    3    3    0  502 -0.38971196487E+03  0.38030272691E+03  0.25536799371E+04  0.26110892001E+04  0.10100000352E+00 0. -1.
</event>
<event>
 5   0  0.4344980E-06  0.3374721E+04  0.7818609E-02  0.8144139E-01
        2   -1    0    0  501    0  0.00000000000E+00  0.00000000000E+00  0.23748454807E+04  0.23748454807E+04  0.25500000920E-02 0.  1.
       -2   -1    0    0    0  501  0.00000000000E+00  0.00000000000E+00 -0.11988931602E+04  0.11988931602E+04  0.25500000920E-02 0. -1.
    10030    2    1    2    0    0  0.00000000000E+00  0.00000000000E+00  0.11759523205E+04  0.35737386409E+04  0.33747213238E+04 0.  0.
        3    1    3    3  502    0  0.71784050995E+03 -0.10283581728E+04  0.17834297513E+04  0.21802378808E+04  0.10100000352E+00 0.  1.
       -3    1    3    3    0  502 -0.71784050995E+03  0.10283581728E+04 -0.60747743072E+03  0.13935007600E+04  0.10100000352E+00 0. -1.
</event>
<event>
 5   0  0.4173467E-06  0.3265880E+04  0.7818609E-02  0.8171632E-01
       -2   -1    0    0    0  501  0.00000000000E+00  0.00000000000E+00  0.19019456809E+04  0.19019456809E+04  0.25500000920E-02 0.  1.
        2   -1    0    0  501    0  0.00000000000E+00  0.00000000000E+00 -0.14019820862E+04  0.14019820862E+04  0.25500000920E-02 0. -1.
    10030    2    1    2    0    0  0.00000000000E+00  0.00000000000E+00  0.49996359471E+03  0.33039277671E+04  0.32658804471E+04 0.  0.
        4    1    3    3  502    0  0.10394725967E+04  0.28031311135E+03 -0.99208929135E+03  0.14640087071E+04  0.12699999809E+01 0. -1.
       -4    1    3    3    0  502 -0.10394725967E+04 -0.28031311135E+03  0.14920528861E+04  0.18399190600E+04  0.12699999809E+01 0.  1.
</event>
<event>
 5   0  0.1550164E-06  0.3158236E+04  0.7818609E-02  0.8199935E-01
        1   -1    0    0  501    0  0.00000000000E+00  0.00000000000E+00  0.17317338486E+04  0.17317338486E+04  0.50400001928E-02 0. -1.
       -1   -1    0    0    0  501  0.00000000000E+00  0.00000000000E+00 -0.14399520269E+04  0.14399520269E+04  0.50400001928E-02 0.  1.
    10030    2    1    2    0    0  0.00000000000E+00  0.00000000000E+00  0.29178182176E+03  0.31716858755E+04  0.31582360047E+04 0.  0.
        4    1    3    3  502    0 -0.14753626602E+04 -0.56246066173E+03  0.12223049452E+03  0.15836662785E+04  0.12699999809E+01 0.  1.
       -4    1    3    3    0  502  0.14753626602E+04  0.56246066173E+03  0.16955132723E+03  0.15880195970E+04  0.12699999809E+01 0. -1.
</event>
<event>
 5   0  0.4189587E-06  0.3030385E+04  0.7818609E-02  0.8235107E-01
        2   -1    0    0  501    0  0.00000000000E+00  0.00000000000E+00  0.16450784623E+04  0.16450784623E+04  0.25500000920E-02 0. -1.
       -2   -1    0    0    0  501  0.00000000000E+00  0.00000000000E+00 -0.13955611797E+04  0.13955611797E+04  0.25500000920E-02 0.  1.
    10030    2    1    2    0    0  0.00000000000E+00  0.00000000000E+00  0.24951728263E+03  0.30406396419E+04  0.30303845561E+04 0.  0.
        1    1    3    3  502    0 -0.42962667080E+03 -0.46026548913E+03 -0.12580867436E+04  0.14068424401E+04  0.50400001928E-02 0.  1.
       -1    1    3    3    0  502  0.42962667080E+03  0.46026548913E+03  0.15076040263E+04  0.16337972018E+04  0.50400001928E-02 0. -1.
</event>
<event>
 5   0  0.1550164E-06  0.3432939E+04  0.7818609E-02  0.8129869E-01
        1   -1    0    0  501    0  0.00000000000E+00  0.00000000000E+00  0.12610819833E+04  0.12610819833E+04  0.50400001928E-02 0.  1.
       -1   -1    0    0    0  501  0.00000000000E+00  0.00000000000E+00 -0.23363018425E+04  0.23363018425E+04  0.50400001928E-02 0. -1.
    10030    2    1    2    0    0  0.00000000000E+00  0.00000000000E+00 -0.10752198592E+04  0.35973838258E+04  0.34329393592E+04 0.  0.
        4    1    3    3  502    0  0.16529952436E+04  0.16262039633E+03 -0.83942352758E+02  0.16630954873E+04  0.12699999809E+01 0.  1.
       -4    1    3    3    0  502 -0.16529952436E+04 -0.16262039633E+03 -0.99127750641E+03  0.19342883384E+04  0.12699999809E+01 0. -1.
</event>
<event>
 5   0  0.2722449E-06  0.3450925E+04  0.7818609E-02  0.8125520E-01
        2   -1    0    0  501    0  0.00000000000E+00  0.00000000000E+00  0.19776837520E+04  0.19776837520E+04  0.25500000920E-02 0. -1.
       -2   -1    0    0    0  501  0.00000000000E+00  0.00000000000E+00 -0.15054078615E+04  0.15054078615E+04  0.25500000920E-02 0.  1.
    10030    2    1    2    0    0  0.00000000000E+00  0.00000000000E+00  0.47227589044E+03  0.34830916135E+04  0.34509249009E+04 0.  0.
        2    1    3    3  502    0  0.76849528060E+03  0.15223167095E+04 -0.29349037488E+02  0.17055481601E+04  0.25500000920E-02 0.  1.
       -2    1    3    3    0  502 -0.76849528060E+03 -0.15223167095E+04  0.50162492793E+03  0.17775434534E+04  0.25500000920E-02 0. -1.
</event>
<event>
 5   0  0.1571391E-06  0.2084632E+04  0.7818609E-02  0.8568044E-01
        1   -1    0    0  501    0  0.00000000000E+00  0.00000000000E+00  0.12738542120E+04  0.12738542120E+04  0.50400001928E-02 0. -1.
       -1   -1    0    0    0  501  0.00000000000E+00  0.00000000000E+00 -0.85286239692E+03  0.85286239694E+03  0.50400001928E-02 0.  1.
    10030    2    1    2    0    0  0.00000000000E+00  0.00000000000E+00  0.42099181508E+03  0.21267166089E+04  0.20846317244E+04 0.  0.
        1    1    3    3  502    0  0.19143775300E+03 -0.26847185383E+03 -0.79825137673E+03  0.86367286055E+03  0.50400001928E-02 0.  1.
       -1    1    3    3    0  502 -0.19143775300E+03  0.26847185383E+03  0.12192431918E+04  0.12630437484E+04  0.50400001928E-02 0. -1.
</event>
<event>
 5   0  0.4344980E-06  0.2917283E+04  0.7818609E-02  0.8267754E-01
       -2   -1    0    0    0  501  0.00000000000E+00  0.00000000000E+00  0.15411761430E+04  0.15411761430E+04  0.25500000920E-02 0.  1.
        2   -1    0    0  501    0  0.00000000000E+00  0.00000000000E+00 -0.13805264960E+04  0.13805264960E+04  0.25500000920E-02 0. -1.
    10030    2    1    2    0    0  0.00000000000E+00  0.00000000000E+00  0.16064964700E+03  0.29217026390E+04  0.29172826400E+04 0.  0.
        3    1    3    3  502    0  0.98065205980E+03  0.60959382393E+03 -0.81228947046E+03  0.14117709753E+04  0.10100000352E+00 0.  1.
       -3    1    3    3    0  502 -0.98065205980E+03 -0.60959382393E+03  0.97293911747E+03  0.15099316637E+04  0.10100000352E+00 0. -1.
</event>
<event>
 5   0  0.4400349E-06  0.3457155E+04  0.7818609E-02  0.8124019E-01
       -2   -1    0    0    0  501  0.00000000000E+00  0.00000000000E+00  0.18254253595E+04  0.18254253595E+04  0.25500000920E-02 0.  1.
        2   -1    0    0  501    0  0.00000000000E+00  0.00000000000E+00 -0.16368677136E+04  0.16368677137E+04  0.25500000920E-02 0. -1.
    10030    2    1    2    0    0  0.00000000000E+00  0.00000000000E+00  0.18855764590E+03  0.34622930732E+04  0.34571548040E+04 0.  0.
        5    1    3    3  502    0 -0.10600188299E+04 -0.45382744431E+02 -0.12723952370E+04  0.16567170074E+04  0.46999998093E+01 0. -1.
       -5    1    3    3    0  502  0.10600188299E+04  0.45382744431E+02  0.14609528829E+04  0.18055760658E+04  0.46999998093E+01 0.  1.
</event>
<event>
 5   0  0.2722449E-06  0.3384373E+04  0.7818609E-02  0.8141752E-01
        2   -1    0    0  501    0  0.00000000000E+00  0.00000000000E+00  0.14561553785E+04  0.14561553785E+04  0.25500000920E-02 0.  1.
       -2   -1    0    0    0  501  0.00000000000E+00  0.00000000000E+00 -0.19664761172E+04  0.19664761172E+04  0.25500000920E-02 0. -1.
    10030    2    1    2    0    0  0.00000000000E+00  0.00000000000E+00 -0.51032073865E+03  0.34226314957E+04  0.33843727778E+04 0.  0.
        2    1    3    3  502    0  0.97190084641E+03  0.11118265497E+04  0.58046437321E+03  0.15867225405E+04  0.25500000920E-02 0.  1.
       -2    1    3    3    0  502 -0.97190084641E+03 -0.11118265497E+04 -0.10907851119E+04  0.18359089553E+04  0.25500000920E-02 0. -1.
</event>
<event>
 5   0  0.2722449E-06  0.3322052E+04  0.7818609E-02  0.8157307E-01
        2   -1    0    0  501    0  0.00000000000E+00  0.00000000000E+00  0.31095232600E+04  0.31095232600E+04  0.25500000920E-02 0.  1.
       -2   -1    0    0    0  501  0.00000000000E+00  0.00000000000E+00 -0.88727650080E+03  0.88727650080E+03  0.25500000920E-02 0. -1.
    10030    2    1    2    0    0  0.00000000000E+00  0.00000000000E+00  0.22222467592E+04  0.39967997608E+04  0.33220517258E+04 0.  0.
        2    1    3    3  502    0  0.65506052365E+03 -0.11391082376E+04 -0.11128505230E+03  0.13187328120E+04  0.25500000920E-02 0. -1.
       -2    1    3    3    0  502 -0.65506052365E+03  0.11391082376E+04  0.23335318115E+04  0.26780669487E+04  0.25500000920E-02 0.  1.
</event>
<event>
 5   0  0.4189587E-06  0.3516910E+04  0.7818609E-02  0.8109794E-01
        2   -1    0    0  501    0  0.00000000000E+00  0.00000000000E+00  0.22814037121E+04  0.22814037121E+04  0.25500000920E-02 0. -1.
       -2   -1    0    0    0  501  0.00000000000E+00  0.00000000000E+00 -0.13553780785E+04  0.13553780786E+04  0.25500000920E-02 0.  1.
    10030    2    1    2    0    0  0.00000000000E+00  0.00000000000E+00  0.92602563350E+03  0.36367817906E+04  0.35169103370E+04 0.  0.
        1    1    3    3  502    0 -0.62406760760E+03  0.25004531516E+02  0.21628407695E+04  0.22512142945E+04  0.50400001928E-02 0. -1.
       -1    1    3    3    0  502  0.62406760760E+03 -0.25004531516E+02 -0.12368151360E+04  0.13855674961E+04  0.50400001928E-02 0.  1.
</event>
<event>
 5   0  0.1654257E-06  0.1931093E+04  0.7818609E-02  0.8639533E-01
        1   -1    0    0  501    0  0.00000000000E+00  0.00000000000E+00  0.10515693389E+04  0.10515693389E+04  0.50400001928E-02 0. -1.
       -1   -1    0    0    0  501  0.00000000000E+00  0.00000000000E+00 -0.88656023630E+03  0.88656023631E+03  0.50400001928E-02 0.  1.
    10030    2    1    2    0    0  0.00000000000E+00  0.00000000000E+00  0.16500910258E+03  0.19381295752E+04  0.19310925007E+04 0.  0.
        3    1    3    3  502    0  0.52275060231E+03  0.74760598341E+03  0.40003802093E+03  0.99609905483E+03  0.10100000352E+00 0. -1.
       -3    1    3    3    0  502 -0.52275060231E+03 -0.74760598341E+03 -0.23502891836E+03  0.94203052037E+03  0.10100000352E+00 0.  1.
</event>
<event>
 5   0  0.1654257E-06  0.2684876E+04  0.7818609E-02  0.8339929E-01
        1   -1    0    0  501    0  0.00000000000E+00  0.00000000000E+00  0.15880543591E+04  0.15880543592E+04  0.50400001928E-02 0.  1.
       -1   -1    0    0    0  501  0.00000000000E+00  0.00000000000E+00 -0.11348101089E+04  0.11348101089E+04  0.50400001928E-02 0. -1.
    10030    2    1    2    0    0  0.00000000000E+00  0.00000000000E+00  0.45324425027E+03  0.27228644680E+04  0.26848762655E+04 0.  0.
        3    1    3    3  502    0  0.19295522930E+03 -0.12997990713E+04  0.50515474169E+03  0.14077963878E+04  0.10100000352E+00 0. -1.
       -3    1    3    3    0  502 -0.19295522930E+03  0.12997990713E+04 -0.51910491425E+02  0.13150680802E+04  0.10100000352E+00 0.  1.
</event>
<event>
 5   0  0.1401125E-06  0.3344479E+04  0.7818609E-02  0.8151669E-01
       -3   -1    0    0    0  501  0.00000000000E+00  0.00000000000E+00  0.26635036247E+04  0.26635036266E+04  0.10100000352E+00 0. -1.
        3   -1    0    0  501    0  0.00000000000E+00  0.00000000000E+00 -0.10498895837E+04  0.10498895885E+04  0.10100000352E+00 0.  1.
    10030    2    1    2    0    0  0.00000000000E+00  0.00000000000E+00  0.16136140410E+04  0.37133932151E+04  0.33444788677E+04 0.  0.
        1    1    3    3  502    0  0.11334555070E+03 -0.70901262120E+03 -0.87002578432E+03  0.11280474176E+04  0.50400001928E-02 0.  1.
       -1    1    3    3    0  502 -0.11334555070E+03  0.70901262120E+03  0.24836398253E+04  0.25853457975E+04  0.50400001928E-02 0. -1.
</event>
<event>
 5   0  0.4189587E-06  0.2228060E+04  0.7818609E-02  0.8506839E-01
       -2   -1    0    0    0  501  0.00000000000E+00  0.00000000000E+00  0.59737752861E+03  0.59737752861E+03  0.25500000920E-02 0. -1.
        2   -1    0    0  501    0  0.00000000000E+00  0.00000000000E+00 -0.20775189769E+04  0.20775189769E+04  0.25500000920E-02 0.  1.
    10030    2    1    2    0    0  0.00000000000E+00  0.00000000000E+00 -0.14801414483E+04  0.26748965056E+04  0.22280602793E+04 0.  0.
        1    1    3    3  502    0 -0.10999557423E+03 -0.51965917558E+03 -0.19157013421E+04  0.19879779469E+04  0.50400001928E-02 0.  1.
       -1    1    3    3    0  502  0.10999557423E+03  0.51965917558E+03  0.43555989380E+03  0.68691855865E+03  0.50400001928E-02 0. -1.
</event>
<event>
 5   0  0.1550164E-06  0.3440999E+04  0.7818609E-02  0.8127916E-01
        1   -1    0    0  501    0  0.00000000000E+00  0.00000000000E+00  0.23353247791E+04  0.23353247791E+04  0.50400001928E-02 0.  1.
       -1   -1    0    0    0  501  0.00000000000E+00  0.00000000000E+00 -0.12675404680E+04  0.12675404680E+04  0.50400001928E-02 0. -1.
    10030    2    1    2    0    0  0.00000000000E+00  0.00000000000E+00  0.10677843112E+04  0.36028652471E+04  0.34409990778E+04 0.  0.
        4    1    3    3  502    0 -0.25862563428E+03 -0.16661664470E+03  0.23062903515E+04  0.23267198205E+04  0.12699999809E+01 0.  1.
       -4    1    3    3    0  502  0.25862563428E+03  0.16661664470E+03 -0.12385060403E+04  0.12761454266E+04  0.12699999809E+01 0. -1.
</event>
<event>
 5   0  0.2722449E-06  0.3207887E+04  0.7818609E-02  0.8186737E-01
        2   -1    0    0  501    0  0.00000000000E+00  0.00000000000E+00  0.19316095869E+04  0.19316095869E+04  0.25500000920E-02 0. -1.
       -2   -1    0    0    0  501  0.00000000000E+00  0.00000000000E+00 -0.13318602926E+04  0.13318602926E+04  0.25500000920E-02 0.  1.
    10030    2    1    2    0    0  0.00000000000E+00  0.00000000000E+00  0.59974929430E+03  0.32634698794E+04  0.32078865999E+04 0.  0.
        2    1    3    3  502    0  0.70717870657E+03  0.12965328009E+04 -0.33669502282E+03  0.15147483505E+04  0.25500000920E-02 0.  1.
       -2    1    3    3    0  502 -0.70717870657E+03 -0.12965328009E+04  0.93644431712E+03  0.17487215290E+04  0.25500000920E-02 0. -1.
</event>
<event>
 5   0  0.1550164E-06  0.3351884E+04  0.7818609E-02  0.8149818E-01
        1   -1    0    0  501    0  0.00000000000E+00  0.00000000000E+00  0.23246502023E+04  0.23246502023E+04  0.50400001928E-02 0.  1.
       -1   -1    0    0    0  501  0.00000000000E+00  0.00000000000E+00 -0.12082595760E+04  0.12082595760E+04  0.50400001928E-02 0. -1.
    10030    2    1    2    0    0  0.00000000000E+00  0.00000000000E+00  0.11163906263E+04  0.35329097783E+04  0.33518835706E+04 0.  0.
        4    1    3    3  502    0  0.94170068954E+03 -0.13157063408E+04  0.10187083319E+04  0.19119758477E+04  0.12699999809E+01 0.  1.
       -4    1    3    3    0  502 -0.94170068954E+03  0.13157063408E+04  0.97682294459E+02  0.16209339306E+04  0.12699999809E+01 0. -1.
</event>
<event>
 5   0  0.1550164E-06  0.3138992E+04  0.7818609E-02  0.8205118E-01
       -1   -1    0    0    0  501  0.00000000000E+00  0.00000000000E+00  0.12643051632E+04  0.12643051632E+04  0.50400001928E-02 0.  1.
        1   -1    0    0  501    0  0.00000000000E+00  0.00000000000E+00 -0.19483571524E+04  0.19483571524E+04  0.50400001928E-02 0. -1.
    10030    2    1    2    0    0  0.00000000000E+00  0.00000000000E+00 -0.68405198925E+03  0.32126623156E+04  0.31389921998E+04 0.  0.
        4    1    3    3  502    0 -0.37179566553E+03  0.12631128907E+04 -0.12162570788E+04  0.17924756864E+04  0.12699999809E+01 0. -1.
       -4    1    3    3    0  502  0.37179566553E+03 -0.12631128907E+04  0.53220508953E+03  0.14201866292E+04  0.12699999809E+01 0.  1.
</event>
<event>
 5   0  0.4400349E-06  0.3439833E+04  0.7818609E-02  0.8128199E-01
       -2   -1    0    0    0  501  0.00000000000E+00  0.00000000000E+00  0.11209928369E+04  0.11209928369E+04  0.25500000920E-02 0.  1.
        2   -1    0    0  501    0  0.00000000000E+00  0.00000000000E+00 -0.26388332799E+04  0.26388332799E+04  0.25500000920E-02 0. -1.
    10030    2    1    2    0    0  0.00000000000E+00  0.00000000000E+00 -0.15178404430E+04  0.37598261168E+04  0.34398332544E+04 0.  0.
        5    1    3    3  502    0 -0.75299627967E+03  0.97811681747E+03 -0.20679868593E+04  0.24083827865E+04  0.46999998093E+01 0. -1.
       -5    1    3    3    0  502  0.75299627967E+03 -0.97811681747E+03  0.55014641630E+03  0.13514433304E+04  0.46999998093E+01 0.  1.
</event>
<event>
 5   0  0.1654257E-06  0.2373970E+04  0.7818609E-02  0.8449314E-01
        1   -1    0    0  501    0  0.00000000000E+00  0.00000000000E+00  0.16366711043E+04  0.16366711043E+04  0.50400001928E-02 0. -1.
       -1   -1    0    0    0  501  0.00000000000E+00  0.00000000000E+00 -0.86085298147E+03  0.86085298149E+03  0.50400001928E-02 0.  1.
    10030    2    1    2    0    0  0.00000000000E+00  0.00000000000E+00  0.77581812280E+03  0.24975240858E+04  0.23739698396E+04 0.  0.
        3    1    3    3  502    0 -0.48100711949E+03 -0.88612050474E+03  0.10468925331E+04  0.14534653020E+04  0.10100000352E+00 0. -1.
       -3    1    3    3    0  502  0.48100711949E+03  0.88612050474E+03 -0.27107441030E+03  0.10440587838E+04  0.10100000352E+00 0.  1.
</event>
<event>
 5   0  0.2722449E-06  0.3333170E+04  0.7818609E-02  0.8154506E-01
       -2   -1    0    0    0  501  0.00000000000E+00  0.00000000000E+00  0.16643200513E+04  0.16643200513E+04  0.25500000920E-02 0. -1.
        2   -1    0    0  501    0  0.00000000000E+00  0.00000000000E+00 -0.16688525526E+04  0.16688525526E+04  0.25500000920E-02 0.  1.
    10030    2    1    2    0    0  0.00000000000E+00  0.00000000000E+00 -0.45325013296E+01  0.33331726039E+04  0.33331695223E+04 0.  0.
        2    1    3    3  502    0  0.15413267229E+02  0.80448617068E+03 -0.14617432587E+04  0.16685709221E+04  0.25500000920E-02 0.  1.
       -2    1    3    3    0  502 -0.15413267229E+02 -0.80448617068E+03  0.14572107574E+04  0.16646016818E+04  0.25500000920E-02 0. -1.
</event>
<event>
 5   0  0.2722449E-06  0.2030688E+04  0.7818609E-02  0.8592406E-01
       -2   -1    0    0    0  501  0.00000000000E+00  0.00000000000E+00  0.84835680580E+03  0.84835680581E+03  0.25500000920E-02 0.  1.
        2   -1    0    0  501    0  0.00000000000E+00  0.00000000000E+00 -0.12152005060E+04  0.12152005060E+04  0.25500000920E-02 0. -1.
    10030    2    1    2    0    0  0.00000000000E+00  0.00000000000E+00 -0.36684370016E+03  0.20635573118E+04  0.20306881786E+04 0.  0.
        2    1    3    3  502    0 -0.42301032485E+03 -0.10526386963E+02 -0.11213320340E+04  0.11985132749E+04  0.25500000920E-02 0. -1.
       -2    1    3    3    0  502  0.42301032485E+03  0.10526386963E+02  0.75448833383E+03  0.86504403683E+03  0.25500000920E-02 0.  1.
</event>
<event>
 5   0  0.1562618E-06  0.3392254E+04  0.7818609E-02  0.8139810E-01
        1   -1    0    0  501    0  0.00000000000E+00  0.00000000000E+00  0.23578308760E+04  0.23578308760E+04  0.50400001928E-02 0.  1.
       -1   -1    0    0    0  501  0.00000000000E+00  0.00000000000E+00 -0.12201244081E+04  0.12201244082E+04  0.50400001928E-02 0. -1.
    10030    2    1    2    0    0  0.00000000000E+00  0.00000000000E+00  0.11377064679E+04  0.35779552842E+04  0.33922541191E+04 0.  0.
        2    1    3    3  502    0 -0.56835493208E+03  0.28176157438E+01 -0.11166941630E+04  0.12530128177E+04  0.25500000920E-02 0. -1.
       -2    1    3    3    0  502  0.56835493208E+03 -0.28176157438E+01  0.22544006309E+04  0.23249424664E+04  0.25500000920E-02 0.  1.
</event>
<event>
 5   0  0.4173467E-06  0.3399050E+04  0.7818609E-02  0.8138139E-01
       -2   -1    0    0    0  501  0.00000000000E+00  0.00000000000E+00  0.10340003551E+04  0.10340003551E+04  0.25500000920E-02 0.  1.
        2   -1    0    0  501    0  0.00000000000E+00  0.00000000000E+00 -0.27934084768E+04  0.27934084768E+04  0.25500000920E-02 0. -1.
    10030    2    1    2    0    0  0.00000000000E+00  0.00000000000E+00 -0.17594081217E+04  0.38274088319E+04  0.33990500772E+04 0.  0.
        4    1    3    3  502    0  0.11681172717E+04 -0.13924852323E+03 -0.22608601338E+04  0.25486031997E+04  0.12699999809E+01 0. -1.
       -4    1    3    3    0  502 -0.11681172717E+04  0.13924852323E+03  0.50145201211E+03  0.12788056322E+04  0.12699999809E+01 0.  1.
</event>
<event>
 5   0  0.4173467E-06  0.3153157E+04  0.7818609E-02  0.8201299E-01
        2   -1    0    0  501    0  0.00000000000E+00  0.00000000000E+00  0.16970765016E+04  0.16970765016E+04  0.25500000920E-02 0. -1.
       -2   -1    0    0    0  501  0.00000000000E+00  0.00000000000E+00 -0.14646366937E+04  0.14646366937E+04  0.25500000920E-02 0.  1.
    10030    2    1    2    0    0  0.00000000000E+00  0.00000000000E+00  0.23243980792E+03  0.31617131953E+04  0.31531574755E+04 0.  0.
        4    1    3    3  502    0 -0.13565486379E+04 -0.69401115181E+03 -0.28950526176E+03  0.15510288828E+04  0.12699999809E+01 0. -1.
       -4    1    3    3    0  502  0.13565486379E+04  0.69401115181E+03  0.52194506968E+03  0.16106843125E+04  0.12699999809E+01 0.  1.
</event>
<event>
 5   0  0.4173467E-06  0.1918780E+04  0.7818609E-02  0.8645565E-01
        2   -1    0    0  501    0  0.00000000000E+00  0.00000000000E+00  0.78650906594E+03  0.78650906595E+03  0.25500000920E-02 0.  1.
       -2   -1    0    0    0  501  0.00000000000E+00  0.00000000000E+00 -0.11702710167E+04  0.11702710167E+04  0.25500000920E-02 0. -1.
    10030    2    1    2    0    0  0.00000000000E+00  0.00000000000E+00 -0.38376195073E+03  0.19567800826E+04  0.19187795749E+04 0.  0.
        4    1    3    3  502    0  0.32106342035E+03  0.90066313181E+03 -0.11189712475E+03  0.96270368043E+03  0.12699999809E+01 0.  1.
       -4    1    3    3    0  502 -0.32106342035E+03 -0.90066313181E+03 -0.27186482598E+03  0.99407640219E+03  0.12699999809E+01 0. -1.
</event>
<event>
 5   0  0.1654257E-06  0.3076989E+04  0.7818609E-02  0.8222082E-01
       -1   -1    0    0    0  501  0.00000000000E+00  0.00000000000E+00  0.20366164280E+04  0.20366164280E+04  0.50400001928E-02 0. -1.
        1   -1    0    0  501    0  0.00000000000E+00  0.00000000000E+00 -0.11622047143E+04  0.11622047143E+04  0.50400001928E-02 0.  1.
    10030    2    1    2    0    0  0.00000000000E+00  0.00000000000E+00  0.87441171372E+03  0.31988211422E+04  0.30769889267E+04 0.  0.
        3    1    3    3  502    0  0.66249015440E+03  0.53255495445E+03 -0.89593277709E+03  0.12349913099E+04  0.10100000352E+00 0.  1.
       -3    1    3    3    0  502 -0.66249015440E+03 -0.53255495445E+03  0.17703444908E+04  0.19638298324E+04  0.10100000352E+00 0. -1.
</event>
<event>
 5   0  0.4400349E-06  0.3364142E+04  0.7818609E-02  0.8146764E-01
       -2   -1    0    0    0  501  0.00000000000E+00  0.00000000000E+00  0.12484270841E+04  0.12484270841E+04  0.25500000920E-02 0.  1.
        2   -1    0    0  501    0  0.00000000000E+00  0.00000000000E+00 -0.22663415155E+04  0.22663415155E+04  0.25500000920E-02 0. -1.
    10030    2    1    2    0    0  0.00000000000E+00  0.00000000000E+00 -0.10179144314E+04  0.35147685996E+04  0.33641415724E+04 0.  0.
        5    1    3    3  502    0 -0.70824516545E+03  0.15193342007E+04 -0.65429884424E+03  0.17994767838E+04  0.46999998093E+01 0. -1.
       -5    1    3    3    0  502  0.70824516545E+03 -0.15193342007E+04 -0.36361558714E+03  0.17152918157E+04  0.46999998093E+01 0.  1.
</event>
<event>
 5   0  0.1654257E-06  0.1883364E+04  0.7818609E-02  0.8663182E-01
       -1   -1    0    0    0  501  0.00000000000E+00  0.00000000000E+00  0.82589397375E+03  0.82589397376E+03  0.50400001928E-02 0. -1.
        1   -1    0    0  501    0  0.00000000000E+00  0.00000000000E+00 -0.10737029447E+04  0.10737029448E+04  0.50400001928E-02 0.  1.
    10030    2    1    2    0    0  0.00000000000E+00  0.00000000000E+00 -0.24780897100E+03  0.18995969185E+04  0.18833637903E+04 0.  0.
        3    1    3    3  502    0  0.72031136732E+03  0.39879370419E+03 -0.58487756373E+03  0.10099339875E+04  0.10100000352E+00 0.  1.
       -3    1    3    3    0  502 -0.72031136732E+03 -0.39879370419E+03  0.33706859274E+03  0.88966293100E+03  0.10100000352E+00 0. -1.
</event>
<event>
 5   0  0.1571391E-06  0.2568369E+04  0.7818609E-02  0.8379026E-01
        1   -1    0    0  501    0  0.00000000000E+00  0.00000000000E+00  0.12129504247E+04  0.12129504247E+04  0.50400001928E-02 0.  1.
       -1   -1    0    0    0  501  0.00000000000E+00  0.00000000000E+00 -0.13596017115E+04  0.13596017115E+04  0.50400001928E-02 0. -1.
    10030    2    1    2    0    0  0.00000000000E+00  0.00000000000E+00 -0.14665128686E+03  0.25725521362E+04  0.25683687223E+04 0.  0.
        1    1    3    3  502    0  0.94926129333E+03 -0.50003066345E+03  0.63351623366E+03  0.12459817357E+04  0.50400001928E-02 0.  1.
       -1    1    3    3    0  502 -0.94926129333E+03  0.50003066345E+03 -0.78016752053E+03  0.13265704005E+04  0.50400001928E-02 0. -1.
</event>
<event>
 5   0  0.4344980E-06  0.1700334E+04  0.7818609E-02  0.8761174E-01
        2   -1    0    0  501    0  0.00000000000E+00  0.00000000000E+00  0.23602760429E+04  0.23602760429E+04  0.25500000920E-02 0.  1.
       -2   -1    0    0    0  501  0.00000000000E+00  0.00000000000E+00 -0.30622872449E+03  0.30622872450E+03  0.25500000920E-02 0. -1.
    10030    2    1    2    0    0  0.00000000000E+00  0.00000000000E+00  0.20540473184E+04  0.26665047674E+04  0.17003344637E+04 0.  0.
        3    1    3    3  502    0 -0.71203315006E+03 -0.26495285139E+03  0.16254054803E+04  0.17941945841E+04  0.10100000352E+00 0.  1.
       -3    1    3    3    0  502  0.71203315006E+03  0.26495285139E+03  0.42864183814E+03  0.87231018327E+03  0.10100000352E+00 0. -1.
</event>
<event>
 5   0  0.1550164E-06  0.3136952E+04  0.7818609E-02  0.8205669E-01
        1   -1    0    0  501    0  0.00000000000E+00  0.00000000000E+00  0.16464651385E+04  0.16464651385E+04  0.50400001928E-02 0.  1.
       -1   -1    0    0    0  501  0.00000000000E+00  0.00000000000E+00 -0.14941810612E+04  0.14941810612E+04  0.50400001928E-02 0. -1.
    10030    2    1    2    0    0  0.00000000000E+00  0.00000000000E+00  0.15228407731E+03  0.31406461997E+04  0.31369520417E+04 0.  0.
        4    1    3    3  502    0  0.40401244516E+03  0.14214594185E+04 -0.45015989039E+03  0.15448037008E+04  0.12699999809E+01 0. -1.
       -4    1    3    3    0  502 -0.40401244516E+03 -0.14214594185E+04  0.60244396770E+03  0.15958424989E+04  0.12699999809E+01 0.  1.
</event>
<event>
 5   0  0.1550164E-06  0.2180863E+04  0.7818609E-02  0.8526436E-01
        1   -1    0    0  501    0  0.00000000000E+00  0.00000000000E+00  0.11446440517E+04  0.11446440517E+04  0.50400001928E-02 0.  1.
       -1   -1    0    0    0  501  0.00000000000E+00  0.00000000000E+00 -0.10387864009E+04  0.10387864009E+04  0.50400001928E-02 0. -1.
    10030    2    1    2    0    0  0.00000000000E+00  0.00000000000E+00  0.10585765083E+03  0.21834304526E+04  0.21808628336E+04 0.  0.
        4    1    3    3  502    0 -0.53527970159E+03 -0.77707396273E+03  0.60008003668E+03  0.11182423556E+04  0.12699999809E+01 0.  1.
       -4    1    3    3    0  502  0.53527970159E+03  0.77707396273E+03 -0.49422238586E+03  0.10651880970E+04  0.12699999809E+01 0. -1.
</event>
<event>
 5   0  0.2101998E-06  0.3347960E+04  0.7818609E-02  0.8150798E-01
       -1   -1    0    0    0  501  0.00000000000E+00  0.00000000000E+00  0.17771412360E+04  0.17771412360E+04  0.50400001928E-02 0.  1.
        1   -1    0    0  501    0  0.00000000000E+00  0.00000000000E+00 -0.15768071138E+04  0.15768071138E+04  0.50400001928E-02 0. -1.
    10030    2    1    2    0    0  0.00000000000E+00  0.00000000000E+00  0.20033412226E+03  0.33539483498E+04  0.33479599419E+04 0.  0.
        5    1    3    3  502    0  0.54867332296E+03  0.73673989233E+03  0.15020838789E+04  0.17607118315E+04  0.46999998093E+01 0.  1.
       -5    1    3    3    0  502 -0.54867332296E+03 -0.73673989233E+03 -0.13017497567E+04  0.15932365183E+04  0.46999998093E+01 0. -1.
</event>
<event>
 5   0  0.1550164E-06  0.2347023E+04  0.7818609E-02  0.8459608E-01
       -1   -1    0    0    0  501  0.00000000000E+00  0.00000000000E+00  0.13977049400E+04  0.13977049401E+04  0.50400001928E-02 0. -1.
        1   -1    0    0  501    0  0.00000000000E+00  0.00000000000E+00 -0.98527901683E+03  0.98527901684E+03  0.50400001928E-02 0.  1.
    10030    2    1    2    0    0  0.00000000000E+00  0.00000000000E+00  0.41242592322E+03  0.23829839569E+04  0.23470230925E+04 0.  0.
        4    1    3    3  502    0 -0.10759007466E+04  0.10143593134E+03  0.67068924470E+03  0.12718794520E+04  0.12699999809E+01 0. -1.
       -4    1    3    3    0  502  0.10759007466E+04 -0.10143593134E+03 -0.25826332148E+03  0.11111045049E+04  0.12699999809E+01 0.  1.
</event>
<event>
 5   0  0.1550164E-06  0.3336256E+04  0.7818609E-02  0.8153731E-01
       -1   -1    0    0    0  501  0.00000000000E+00  0.00000000000E+00  0.15724132346E+04  0.15724132346E+04  0.50400001928E-02 0. -1.
        1   -1    0    0  501    0  0.00000000000E+00  0.00000000000E+00 -0.17696690802E+04  0.17696690802E+04  0.50400001928E-02 0.  1.
    10030    2    1    2    0    0  0.00000000000E+00  0.00000000000E+00 -0.19725584561E+03  0.33420823147E+04  0.33362560348E+04 0.  0.
        4    1    3    3  502    0  0.23711624983E+03  0.11622096287E+04  0.10763202559E+04  0.16016935547E+04  0.12699999809E+01 0. -1.
       -4    1    3    3    0  502 -0.23711624983E+03 -0.11622096287E+04 -0.12735761015E+04  0.17403887601E+04  0.12699999809E+01 0.  1.
</event>
<event>
 5   0  0.4173467E-06  0.3447516E+04  0.7818609E-02  0.8126342E-01
        2   -1    0    0  501    0  0.00000000000E+00  0.00000000000E+00  0.17347090595E+04  0.17347090595E+04  0.25500000920E-02 0. -1.
       -2   -1    0    0    0  501  0.00000000000E+00  0.00000000000E+00 -0.17128762086E+04  0.17128762086E+04  0.25500000920E-02 0.  1.
    10030    2    1    2    0    0  0.00000000000E+00  0.00000000000E+00  0.21832850891E+02  0.34475852681E+04  0.34475161360E+04 0.  0.
        4    1    3    3  502    0  0.55655389598E+03 -0.16279608954E+04 -0.95534513616E+02  0.17231185021E+04  0.12699999809E+01 0.  1.
       -4    1    3    3    0  502 -0.55655389598E+03  0.16279608954E+04  0.11736736451E+03  0.17244667660E+04  0.12699999809E+01 0. -1.
</event>
<event>
 5   0  0.1562618E-06  0.2902512E+04  0.7818609E-02  0.8272130E-01
       -1   -1    0    0    0  501  0.00000000000E+00  0.00000000000E+00  0.14193840140E+04  0.14193840140E+04  0.50400001928E-02 0. -1.
        1   -1    0    0  501    0  0.00000000000E+00  0.00000000000E+00 -0.14838441293E+04  0.14838441293E+04  0.50400001928E-02 0.  1.
    10030    2    1    2    0    0  0.00000000000E+00  0.00000000000E+00 -0.64460115279E+02  0.29032281433E+04  0.29025124540E+04 0.  0.
        2    1    3    3  502    0  0.28482781036E+03  0.55158727816E+03 -0.13443344491E+04  0.14807466083E+04  0.25500000920E-02 0.  1.
       -2    1    3    3    0  502 -0.28482781036E+03 -0.55158727816E+03  0.12798743338E+04  0.14224815350E+04  0.25500000920E-02 0. -1.
</event>
<event>
 5   0  0.1550164E-06  0.3403238E+04  0.7818609E-02  0.8137112E-01
       -1   -1    0    0    0  501  0.00000000000E+00  0.00000000000E+00  0.10477172007E+04  0.10477172007E+04  0.50400001928E-02 0.  1.
        1   -1    0    0  501    0  0.00000000000E+00  0.00000000000E+00 -0.27636343277E+04  0.27636343277E+04  0.50400001928E-02 0. -1.
    10030    2    1    2    0    0  0.00000000000E+00  0.00000000000E+00 -0.17159171270E+04  0.38113515284E+04  0.34032380003E+04 0.  0.
        4    1    3    3  502    0 -0.38401857941E+03  0.10258611951E+04 -0.23162826276E+04  0.25622311146E+04  0.12699999809E+01 0. -1.
       -4    1    3    3    0  502  0.38401857941E+03 -0.10258611951E+04  0.60036550061E+03  0.12491204138E+04  0.12699999809E+01 0.  1.
</event>
<event>
 5   0  0.1571391E-06  0.2197853E+04  0.7818609E-02  0.8519322E-01
       -1   -1    0    0    0  501  0.00000000000E+00  0.00000000000E+00  0.87314349027E+03  0.87314349029E+03  0.50400001928E-02 0.  1.
        1   -1    0    0  501    0  0.00000000000E+00  0.00000000000E+00 -0.13830944011E+04  0.13830944011E+04  0.50400001928E-02 0. -1.
    10030    2    1    2    0    0  0.00000000000E+00  0.00000000000E+00 -0.50995091085E+03  0.22562378914E+04  0.21978533826E+04 0.  0.
        1    1    3    3  502    0 -0.51885121627E+03  0.39656727733E+03 -0.11622909029E+04  0.13331887837E+04  0.50400001928E-02 0. -1.
       -1    1    3    3    0  502  0.51885121627E+03 -0.39656727733E+03  0.65233999201E+03  0.92304910773E+03  0.50400001928E-02 0.  1.
</event>
<event>
 5   0  0.1654257E-06  0.2729531E+04  0.7818609E-02  0.8325486E-01
       -1   -1    0    0    0  501  0.00000000000E+00  0.00000000000E+00  0.11543988397E+04  0.11543988398E+04  0.50400001928E-02 0. -1.
        1   -1    0    0  501    0  0.00000000000E+00  0.00000000000E+00 -0.16134669320E+04  0.16134669321E+04  0.50400001928E-02 0.  1.
    10030    2    1    2    0    0  0.00000000000E+00  0.00000000000E+00 -0.45906809230E+03  0.27678657718E+04  0.27295306222E+04 0.  0.
        3    1    3    3  502    0  0.77992747906E+03 -0.11110666906E+04 -0.86743457702E+02  0.13602501612E+04  0.10100000352E+00 0. -1.
       -3    1    3    3    0  502 -0.77992747906E+03  0.11110666906E+04 -0.37232463460E+03  0.14076156106E+04  0.10100000352E+00 0.  1.
</event>
<event>
 5   0  0.2722449E-06  0.3314678E+04  0.7818609E-02  0.8159170E-01
       -2   -1    0    0    0  501  0.00000000000E+00  0.00000000000E+00  0.13365755660E+04  0.13365755660E+04  0.25500000920E-02 0. -1.
        2   -1    0    0  501    0  0.00000000000E+00  0.00000000000E+00 -0.20550825881E+04  0.20550825881E+04  0.25500000920E-02 0.  1.
    10030    2    1    2    0    0  0.00000000000E+00  0.00000000000E+00 -0.71850702209E+03  0.33916581541E+04  0.33146783695E+04 0.  0.
        2    1    3    3  502    0  0.76012028508E+03  0.52978884560E+03  0.10468192579E+04  0.13979590936E+04  0.25500000920E-02 0. -1.
       -2    1    3    3    0  502 -0.76012028508E+03 -0.52978884560E+03 -0.17653262800E+04  0.19936990605E+04  0.25500000920E-02 0.  1.
</event>
<event>
 5   0  0.1562618E-06  0.3395003E+04  0.7818609E-02  0.8139134E-01
        1   -1    0    0  501    0  0.00000000000E+00  0.00000000000E+00  0.17731061174E+04  0.17731061174E+04  0.50400001928E-02 0.  1.
       -1   -1    0    0    0  501  0.00000000000E+00  0.00000000000E+00 -0.16251206934E+04  0.16251206934E+04  0.50400001928E-02 0. -1.
    10030    2    1    2    0    0  0.00000000000E+00  0.00000000000E+00  0.14798542399E+03  0.33982268108E+04  0.33950030592E+04 0.  0.
        2    1    3    3  502    0 -0.37393956253E+03  0.16518816949E+04  0.18797582962E+03  0.17040771235E+04  0.25500000920E-02 0. -1.
       -2    1    3    3    0  502  0.37393956253E+03 -0.16518816949E+04 -0.39990405624E+02  0.16941496873E+04  0.25500000920E-02 0.  1.
</event>
<event>
 5   0  0.1550164E-06  0.3261984E+04  0.7818609E-02  0.8172636E-01
        1   -1    0    0  501    0  0.00000000000E+00  0.00000000000E+00  0.13875850518E+04  0.13875850518E+04  0.50400001928E-02 0.  1.
       -1   -1    0    0    0  501  0.00000000000E+00  0.00000000000E+00 -0.19170971856E+04  0.19170971856E+04  0.50400001928E-02 0. -1.
    10030    2    1    2    0    0  0.00000000000E+00  0.00000000000E+00 -0.52951213387E+03  0.33046822374E+04  0.32619843026E+04 0.  0.
        4    1    3    3  502    0  0.27152346935E+03  0.39056835466E+03  0.13157497388E+04  0.13990952870E+04  0.12699999809E+01 0.  1.
       -4    1    3    3    0  502 -0.27152346935E+03 -0.39056835466E+03 -0.18452618726E+04  0.19055869504E+04  0.12699999809E+01 0. -1.
</event>
<event>
 5   0  0.4173467E-06  0.3403198E+04  0.7818609E-02  0.8137122E-01
       -2   -1    0    0    0  501  0.00000000000E+00  0.00000000000E+00  0.13808334402E+04  0.13808334402E+04  0.25500000920E-02 0. -1.
        2   -1    0    0  501    0  0.00000000000E+00  0.00000000000E+00 -0.20968780027E+04  0.20968780027E+04  0.25500000920E-02 0.  1.
    10030    2    1    2    0    0  0.00000000000E+00  0.00000000000E+00 -0.71604456252E+03  0.34777114429E+04  0.34031980642E+04 0.  0.
        4    1    3    3  502    0  0.67507120945E+03 -0.13139899586E+04  0.50494795931E+03  0.15611741747E+04  0.12699999809E+01 0. -1.
       -4    1    3    3    0  502 -0.67507120945E+03  0.13139899586E+04 -0.12209925218E+04  0.19165372682E+04  0.12699999809E+01 0.  1.
</event>
<event>
 5   0  0.4344980E-06  0.3401347E+04  0.7818609E-02  0.8137576E-01
       -2   -1    0    0    0  501  0.00000000000E+00  0.00000000000E+00  0.12399093114E+04  0.12399093114E+04  0.25500000920E-02 0. -1.
        2   -1    0    0  501    0  0.00000000000E+00  0.00000000000E+00 -0.23326632337E+04  0.23326632337E+04  0.25500000920E-02 0.  1.
    10030    2    1    2    0    0  0.00000000000E+00  0.00000000000E+00 -0.10927539223E+04  0.35725725452E+04  0.34013473001E+04 0.  0.
        3    1    3    3  502    0 -0.11690148752E+03  0.16106958567E+04 -0.11064002634E+04  0.19575823491E+04  0.10100000352E+00 0. -1.
       -3    1    3    3    0  502  0.11690148752E+03 -0.16106958567E+04  0.13646341107E+02  0.16149901960E+04  0.10100000352E+00 0.  1.
</event>
<event>
 5   0  0.1562618E-06  0.1930178E+04  0.7818609E-02  0.8639979E-01
       -1   -1    0    0    0  501  0.00000000000E+00  0.00000000000E+00  0.40863589506E+03  0.40863589509E+03  0.50400001928E-02 0. -1.
        1   -1    0    0  501    0  0.00000000000E+00  0.00000000000E+00 -0.22792839328E+04  0.22792839328E+04  0.50400001928E-02 0.  1.
    10030    2    1    2    0    0  0.00000000000E+00  0.00000000000E+00 -0.18706480378E+04  0.26879198279E+04  0.19301784685E+04 0.  0.
        2    1    3    3  502    0  0.14596672679E+03 -0.94004004477E+03 -0.11616578989E+04  0.15014761554E+04  0.25500000920E-02 0.  1.
       -2    1    3    3    0  502 -0.14596672679E+03  0.94004004477E+03 -0.70899013885E+03  0.11864436725E+04  0.25500000920E-02 0. -1.
</event>
<event>
 5   0  0.2722449E-06  0.2770877E+04  0.7818609E-02  0.8312367E-01
       -2   -1    0    0    0  501  0.00000000000E+00  0.00000000000E+00  0.14325363428E+04  0.14325363428E+04  0.25500000920E-02 0. -1.
        2   -1    0    0  501    0  0.00000000000E+00  0.00000000000E+00 -0.13398893413E+04  0.13398893413E+04  0.25500000920E-02 0.  1.
    10030    2    1    2    0    0  0.00000000000E+00  0.00000000000E+00  0.92647001482E+02  0.27724256840E+04  0.27708772450E+04 0.  0.
        2    1    3    3  502    0  0.10104219170E+04 -0.80005548082E+03 -0.46229013933E+03  0.13692163436E+04  0.25500000920E-02 0.  1.
       -2    1    3    3    0  502 -0.10104219170E+04  0.80005548082E+03  0.55493714082E+03  0.14032093404E+04  0.25500000920E-02 0. -1.
</event>
<event>
 5   0  0.4344980E-06  0.3386309E+04  0.7818609E-02  0.8141275E-01
        2   -1    0    0  501    0  0.00000000000E+00  0.00000000000E+00  0.27926889494E+04  0.27926889494E+04  0.25500000920E-02 0. -1.
       -2   -1    0    0    0  501  0.00000000000E+00  0.00000000000E+00 -0.10265278472E+04  0.10265278472E+04  0.25500000920E-02 0.  1.
    10030    2    1    2    0    0  0.00000000000E+00  0.00000000000E+00  0.17661611022E+04  0.38192167966E+04  0.33863094809E+04 0.  0.
        3    1    3    3  502    0 -0.13246565952E+04  0.46375967756E+03  0.19512501528E+04  0.24035734444E+04  0.10100000352E+00 0. -1.
       -3    1    3    3    0  502  0.13246565952E+04 -0.46375967756E+03 -0.18508905057E+03  0.14156433522E+04  0.10100000352E+00 0.  1.
</event>
<event>
 5   0  0.2101998E-06  0.3292406E+04  0.7818609E-02  0.8164830E-01
        1   -1    0    0  501    0  0.00000000000E+00  0.00000000000E+00  0.22573228489E+04  0.22573228490E+04  0.50400001928E-02 0.  1.
       -1   -1    0    0    0  501  0.00000000000E+00  0.00000000000E+00 -0.12005298843E+04  0.12005298843E+04  0.50400001928E-02 0. -1.
    10030    2    1    2    0    0  0.00000000000E+00  0.00000000000E+00  0.10567929646E+04  0.34578527333E+04  0.32924055271E+04 0.  0.
        5    1    3    3  502    0 -0.88065948937E+03  0.10253091625E+03 -0.92834682925E+03  0.12837147854E+04  0.46999998093E+01 0. -1.
       -5    1    3    3    0  502  0.88065948937E+03 -0.10253091625E+03  0.19851397939E+04  0.21741379478E+04  0.46999998093E+01 0.  1.
</event>
<event>
 5   0  0.2722449E-06  0.3384272E+04  0.7818609E-02  0.8141777E-01
        2   -1    0    0  501    0  0.00000000000E+00  0.00000000000E+00  0.25632232616E+04  0.25632232616E+04  0.25500000920E-02 0.  1.
       -2   -1    0    0    0  501  0.00000000000E+00  0.00000000000E+00 -0.11170794878E+04  0.11170794878E+04  0.25500000920E-02 0. -1.
    10030    2    1    2    0    0  0.00000000000E+00  0.00000000000E+00  0.14461437738E+04  0.36803027494E+04  0.33842719324E+04 0.  0.
        2    1    3    3  502    0 -0.48204999407E+03  0.14705179677E+04  0.14674377662E+04  0.21326436383E+04  0.25500000920E-02 0. -1.
       -2    1    3    3    0  502  0.48204999407E+03 -0.14705179677E+04 -0.21293992425E+02  0.15476591111E+04  0.25500000920E-02 0.  1.
</event>
<event>
 5   0  0.2101998E-06  0.2197183E+04  0.7818609E-02  0.8519602E-01
       -1   -1    0    0    0  501  0.00000000000E+00  0.00000000000E+00  0.75987393242E+03  0.75987393244E+03  0.50400001928E-02 0. -1.
        1   -1    0    0  501    0  0.00000000000E+00  0.00000000000E+00 -0.15882938822E+04  0.15882938822E+04  0.50400001928E-02 0.  1.
    10030    2    1    2    0    0  0.00000000000E+00  0.00000000000E+00 -0.82841994976E+03  0.23481678146E+04  0.21971828491E+04 0.  0.
        5    1    3    3  502    0 -0.78989208580E+02 -0.41740408521E+03 -0.14969508812E+04  0.15560686026E+04  0.46999998093E+01 0.  1.
       -5    1    3    3    0  502  0.78989208580E+02  0.41740408521E+03  0.66853093141E+03  0.79209921201E+03  0.46999998093E+01 0. -1.
</event>
<event>
 5   0  0.2722449E-06  0.2451665E+04  0.7818609E-02  0.8420410E-01
       -2   -1    0    0    0  501  0.00000000000E+00  0.00000000000E+00  0.86907102710E+03  0.86907102710E+03  0.25500000920E-02 0. -1.
        2   -1    0    0  501    0  0.00000000000E+00  0.00000000000E+00 -0.17290472963E+04  0.17290472963E+04  0.25500000920E-02 0.  1.
    10030    2    1    2    0    0  0.00000000000E+00  0.00000000000E+00 -0.85997626919E+03  0.25981183234E+04  0.24516646669E+04 0.  0.
        2    1    3    3  502    0 -0.10933965673E+02 -0.12257816316E+04 -0.43229767910E+03  0.12998236201E+04  0.25500000920E-02 0. -1.
       -2    1    3    3    0  502  0.10933965673E+02  0.12257816316E+04 -0.42767859008E+03  0.12982947033E+04  0.25500000920E-02 0.  1.
</event>
<event>
 5   0  0.1654257E-06  0.3411853E+04  0.7818609E-02  0.8135003E-01
        1   -1    0    0  501    0  0.00000000000E+00  0.00000000000E+00  0.27324712876E+04  0.27324712876E+04  0.50400001928E-02 0.  1.
       -1   -1    0    0    0  501  0.00000000000E+00  0.00000000000E+00 -0.10650375785E+04  0.10650375785E+04  0.50400001928E-02 0. -1.
    10030    2    1    2    0    0  0.00000000000E+00  0.00000000000E+00  0.16674337090E+04  0.37975088661E+04  0.34118526367E+04 0.  0.
        3    1    3    3  502    0  0.16514295867E+04 -0.28675331363E+03  0.48044909073E+03  0.17436394357E+04  0.10100000352E+00 0. -1.
       -3    1    3    3    0  502 -0.16514295867E+04  0.28675331363E+03  0.11869846183E+04  0.20538694304E+04  0.10100000352E+00 0.  1.
</event>
<event>
 5   0  0.4189587E-06  0.1755100E+04  0.7818609E-02  0.8730548E-01
       -2   -1    0    0    0  501  0.00000000000E+00  0.00000000000E+00  0.68571903667E+03  0.68571903668E+03  0.25500000920E-02 0. -1.
        2   -1    0    0  501    0  0.00000000000E+00  0.00000000000E+00 -0.11230462383E+04  0.11230462383E+04  0.25500000920E-02 0.  1.
    10030    2    1    2    0    0  0.00000000000E+00  0.00000000000E+00 -0.43732720163E+03  0.18087652750E+04  0.17551002076E+04 0.  0.
        1    1    3    3  502    0  0.73152916576E+03  0.99810905399E+02 -0.70750581630E+03  0.10225759714E+04  0.50400001928E-02 0.  1.
       -1    1    3    3    0  502 -0.73152916576E+03 -0.99810905399E+02  0.27017861467E+03  0.78618930357E+03  0.50400001928E-02 0. -1.
</event>
<event>
 5   0  0.1562618E-06  0.1705046E+04  0.7818609E-02  0.8758492E-01
       -1   -1    0    0    0  501  0.00000000000E+00  0.00000000000E+00  0.12801259191E+04  0.12801259191E+04  0.50400001928E-02 0.  1.
        1   -1    0    0  501    0  0.00000000000E+00  0.00000000000E+00 -0.56775313903E+03  0.56775313905E+03  0.50400001928E-02 0. -1.
    10030    2    1    2    0    0  0.00000000000E+00  0.00000000000E+00  0.71237278010E+03  0.18478790582E+04  0.17050460510E+04 0.  0.
        2    1    3    3  502    0 -0.30847853927E+03  0.29544917875E+03  0.11557905800E+04  0.12321936095E+04  0.25500000920E-02 0.  1.
       -2    1    3    3    0  502  0.30847853927E+03 -0.29544917875E+03 -0.44341779994E+03  0.61568544868E+03  0.25500000920E-02 0. -1.
</event>
<event>
 5   0  0.1571391E-06  0.3475168E+04  0.7818609E-02  0.8119700E-01
        1   -1    0    0  501    0  0.00000000000E+00  0.00000000000E+00  0.25535382796E+04  0.25535382796E+04  0.50400001928E-02 0. -1.
       -1   -1    0    0    0  501  0.00000000000E+00  0.00000000000E+00 -0.11823589032E+04  0.11823589032E+04  0.50400001928E-02 0.  1.
    10030    2    1    2    0    0  0.00000000000E+00  0.00000000000E+00  0.13711793764E+04  0.37358971829E+04  0.34751683238E+04 0.  0.
        1    1    3    3  502    0 -0.12851927491E+04  0.11131872275E+04  0.30053738272E+03  0.17266235618E+04  0.50400001928E-02 0.  1.
       -1    1    3    3    0  502  0.12851927491E+04 -0.11131872275E+04  0.10706419937E+04  0.20092736211E+04  0.50400001928E-02 0. -1.
</event>
<event>
 5   0  0.2722449E-06  0.3394356E+04  0.7818609E-02  0.8139293E-01
        2   -1    0    0  501    0  0.00000000000E+00  0.00000000000E+00  0.33030627583E+04  0.33030627583E+04  0.25500000920E-02 0.  1.
       -2   -1    0    0    0  501  0.00000000000E+00  0.00000000000E+00 -0.87204330906E+03  0.87204330907E+03  0.25500000920E-02 0. -1.
    10030    2    1    2    0    0  0.00000000000E+00  0.00000000000E+00  0.24310194492E+04  0.41751060673E+04  0.33943563618E+04 0.  0.
        2    1    3    3  502    0 -0.12753659682E+03 -0.64182881654E+02 -0.86464326435E+03  0.87635209843E+03  0.25500000920E-02 0. -1.
       -2    1    3    3    0  502  0.12753659682E+03  0.64182881654E+02  0.32956627135E+04  0.32987539689E+04  0.25500000920E-02 0.  1.
</event>
<event>
 5   0  0.1654257E-06  0.2694057E+04  0.7818609E-02  0.8336936E-01
       -1   -1    0    0    0  501  0.00000000000E+00  0.00000000000E+00  0.10391241048E+04  0.10391241048E+04  0.50400001928E-02 0. -1.
        1   -1    0    0  501    0  0.00000000000E+00  0.00000000000E+00 -0.17461684223E+04  0.17461684223E+04  0.50400001928E-02 0.  1.
    10030    2    1    2    0    0  0.00000000000E+00  0.00000000000E+00 -0.70704431747E+03  0.27852925271E+04  0.26940569398E+04 0.  0.
        3    1    3    3  502    0  0.23966832458E+02 -0.13359033255E+04 -0.53041163471E+03  0.14375495179E+04  0.10100000352E+00 0.  1.
       -3    1    3    3    0  502 -0.23966832458E+02  0.13359033255E+04 -0.17663268276E+03  0.13477430092E+04  0.10100000352E+00 0. -1.
</event>
<event>
 5   0  0.2722449E-06  0.3437991E+04  0.7818609E-02  0.8128645E-01
       -2   -1    0    0    0  501  0.00000000000E+00  0.00000000000E+00  0.18485003519E+04  0.18485003519E+04  0.25500000920E-02 0. -1.
        2   -1    0    0  501    0  0.00000000000E+00  0.00000000000E+00 -0.15985632735E+04  0.15985632735E+04  0.25500000920E-02 0.  1.
    10030    2    1    2    0    0  0.00000000000E+00  0.00000000000E+00  0.24993707835E+03  0.34470636254E+04  0.34379905605E+04 0.  0.
        2    1    3    3  502    0 -0.16051756003E+04  0.57353088157E+03  0.34785769085E+03  0.17396928905E+04  0.25500000920E-02 0. -1.
       -2    1    3    3    0  502  0.16051756003E+04 -0.57353088157E+03 -0.97920612499E+02  0.17073707349E+04  0.25500000920E-02 0.  1.
</event>
<event>
 5   0  0.4189587E-06  0.3421695E+04  0.7818609E-02  0.8132602E-01
        2   -1    0    0  501    0  0.00000000000E+00  0.00000000000E+00  0.20810543696E+04  0.20810543696E+04  0.25500000920E-02 0.  1.
       -2   -1    0    0    0  501  0.00000000000E+00  0.00000000000E+00 -0.14064978328E+04  0.14064978328E+04  0.25500000920E-02 0. -1.
    10030    2    1    2    0    0  0.00000000000E+00  0.00000000000E+00  0.67455653672E+03  0.34875522024E+04  0.34216945865E+04 0.  0.
        1    1    3    3  502    0 -0.16264242756E+04  0.21215181086E+03  0.83319633026E+03  0.18396957465E+04  0.50400001928E-02 0.  1.
       -1    1    3    3    0  502  0.16264242756E+04 -0.21215181086E+03 -0.15863979354E+03  0.16478564559E+04  0.50400001928E-02 0. -1.
</event>
<event>
 5   0  0.4400349E-06  0.3331082E+04  0.7818609E-02  0.8155031E-01
       -2   -1    0    0    0  501  0.00000000000E+00  0.00000000000E+00  0.13605304639E+04  0.13605304639E+04  0.25500000920E-02 0. -1.
        2   -1    0    0  501    0  0.00000000000E+00  0.00000000000E+00 -0.20389306062E+04  0.20389306062E+04  0.25500000920E-02 0.  1.
    10030    2    1    2    0    0  0.00000000000E+00  0.00000000000E+00 -0.67840014232E+03  0.33994610702E+04  0.33310822287E+04 0.  0.
        5    1    3    3  502    0 -0.35653664103E+03  0.16247649893E+04 -0.25366143702E+03  0.16826603524E+04  0.46999998093E+01 0.  1.
       -5    1    3    3    0  502  0.35653664103E+03 -0.16247649893E+04 -0.42473870529E+03  0.17168007178E+04  0.46999998093E+01 0. -1.
</event>
<event>
 5   0  0.1550164E-06  0.3470292E+04  0.7818609E-02  0.8120867E-01
        1   -1    0    0  501    0  0.00000000000E+00  0.00000000000E+00  0.23941565043E+04  0.23941565043E+04  0.50400001928E-02 0.  1.
       -1   -1    0    0    0  501  0.00000000000E+00  0.00000000000E+00 -0.12575335591E+04  0.12575335591E+04  0.50400001928E-02 0. -1.
    10030    2    1    2    0    0  0.00000000000E+00  0.00000000000E+00  0.11366229452E+04  0.36516900634E+04  0.34702922931E+04 0.  0.
        4    1    3    3  502    0  0.13429807765E+04  0.61875847144E+03  0.15236623288E+04  0.21232069888E+04  0.12699999809E+01 0.  1.
       -4    1    3    3    0  502 -0.13429807765E+04 -0.61875847144E+03 -0.38703938353E+03  0.15284830746E+04  0.12699999809E+01 0. -1.
</event>
<event>
 5   0  0.1571391E-06  0.3315439E+04  0.7818609E-02  0.8158978E-01
        1   -1    0    0  501    0  0.00000000000E+00  0.00000000000E+00  0.97286309073E+03  0.97286309074E+03  0.50400001928E-02 0. -1.
       -1   -1    0    0    0  501  0.00000000000E+00  0.00000000000E+00 -0.28246868017E+04  0.28246868017E+04  0.50400001928E-02 0.  1.
    10030    2    1    2    0    0  0.00000000000E+00  0.00000000000E+00 -0.18518237110E+04  0.37975498924E+04  0.33154387536E+04 0.  0.
        1    1    3    3  502    0  0.12904404837E+04  0.57509616060E+03 -0.19192316688E+04  0.23831538840E+04  0.50400001928E-02 0.  1.
       -1    1    3    3    0  502 -0.12904404837E+04 -0.57509616060E+03  0.67407957867E+02  0.14143960085E+04  0.50400001928E-02 0. -1.
</event>
<event>
 5   0  0.1654257E-06  0.3349240E+04  0.7818609E-02  0.8150478E-01
        1   -1    0    0  501    0  0.00000000000E+00  0.00000000000E+00  0.18297409283E+04  0.18297409283E+04  0.50400001928E-02 0. -1.
       -1   -1    0    0    0  501  0.00000000000E+00  0.00000000000E+00 -0.15326502748E+04  0.15326502748E+04  0.50400001928E-02 0.  1.
    10030    2    1    2    0    0  0.00000000000E+00  0.00000000000E+00  0.29709065351E+03  0.33623912032E+04  0.33492404731E+04 0.  0.
        3    1    3    3  502    0 -0.12412720102E+04 -0.11185403460E+04  0.36463701246E+02  0.16712924103E+04  0.10100000352E+00 0. -1.
       -3    1    3    3    0  502  0.12412720102E+04  0.11185403460E+04  0.26062695226E+03  0.16910987929E+04  0.10100000352E+00 0.  1.
</event>
<event>
 5   0  0.2722449E-06  0.3351073E+04  0.7818609E-02  0.8150020E-01
        2   -1    0    0  501    0  0.00000000000E+00  0.00000000000E+00  0.23908069823E+04  0.23908069823E+04  0.25500000920E-02 0.  1.
       -2   -1    0    0    0  501  0.00000000000E+00  0.00000000000E+00 -0.11742573393E+04  0.11742573393E+04  0.25500000920E-02 0. -1.
    10030    2    1    2    0    0  0.00000000000E+00  0.00000000000E+00  0.12165496430E+04  0.35650643217E+04  0.33510730496E+04 0.  0.
        2    1    3    3  502    0  0.99247519542E+03 -0.42644937701E+03  0.19709083752E+04  0.22475199461E+04  0.25500000920E-02 0.  1.
       -2    1    3    3    0  502 -0.99247519542E+03  0.42644937701E+03 -0.75435873222E+03  0.13175443756E+04  0.25500000920E-02 0. -1.
</event>
<event>
 5   0  0.4173467E-06  0.3325172E+04  0.7818609E-02  0.8156520E-01
       -2   -1    0    0    0  501  0.00000000000E+00  0.00000000000E+00  0.13847738017E+04  0.13847738017E+04  0.25500000920E-02 0.  1.
        2   -1    0    0  501    0  0.00000000000E+00  0.00000000000E+00 -0.19961329285E+04  0.19961329285E+04  0.25500000920E-02 0. -1.
    10030    2    1    2    0    0  0.00000000000E+00  0.00000000000E+00 -0.61135912675E+03  0.33809067302E+04  0.33251722265E+04 0.  0.
        4    1    3    3  502    0  0.55469704189E+03 -0.15414674626E+04 -0.17413409885E+02  0.16383270694E+04  0.12699999809E+01 0.  1.
       -4    1    3    3    0  502 -0.55469704189E+03  0.15414674626E+04 -0.59394571686E+03  0.17425796608E+04  0.12699999809E+01 0. -1.
</event>
<event>
 5   0  0.4344980E-06  0.1755046E+04  0.7818609E-02  0.8730578E-01
        2   -1    0    0  501    0  0.00000000000E+00  0.00000000000E+00  0.17630545898E+04  0.17630545898E+04  0.25500000920E-02 0.  1.
       -2   -1    0    0    0  501  0.00000000000E+00  0.00000000000E+00 -0.43676827206E+03  0.43676827207E+03  0.25500000920E-02 0. -1.
    10030    2    1    2    0    0  0.00000000000E+00  0.00000000000E+00  0.13262863177E+04  0.21998228618E+04  0.17550456481E+04 0.  0.
        3    1    3    3  502    0 -0.66782861694E+03  0.42163442393E+03  0.18375720054E+03  0.81088677878E+03  0.10100000352E+00 0. -1.
       -3    1    3    3    0  502  0.66782861694E+03 -0.42163442393E+03  0.11425291172E+04  0.13889360831E+04  0.10100000352E+00 0.  1.
</event>
<event>
 5   0  0.4173467E-06  0.3410306E+04  0.7818609E-02  0.8135382E-01
       -2   -1    0    0    0  501  0.00000000000E+00  0.00000000000E+00  0.15827195310E+04  0.15827195310E+04  0.25500000920E-02 0.  1.
        2   -1    0    0  501    0  0.00000000000E+00  0.00000000000E+00 -0.18370571593E+04  0.18370571593E+04  0.25500000920E-02 0. -1.
    10030    2    1    2    0    0  0.00000000000E+00  0.00000000000E+00 -0.25433762832E+03  0.34197766902E+04  0.34103057021E+04 0.  0.
        4    1    3    3  502    0  0.87606582109E+03  0.10433568559E+04  0.90108604191E+03  0.16334143747E+04  0.12699999809E+01 0.  1.
       -4    1    3    3    0  502 -0.87606582109E+03 -0.10433568559E+04 -0.11554236702E+04  0.17863623155E+04  0.12699999809E+01 0. -1.
</event>
<event>
 5   0  0.2722449E-06  0.3517471E+04  0.7818609E-02  0.8109662E-01
       -2   -1    0    0    0  501  0.00000000000E+00  0.00000000000E+00  0.18426160787E+04  0.18426160787E+04  0.25500000920E-02 0.  1.
        2   -1    0    0  501    0  0.00000000000E+00  0.00000000000E+00 -0.16786729637E+04  0.16786729637E+04  0.25500000920E-02 0. -1.
    10030    2    1    2    0    0  0.00000000000E+00  0.00000000000E+00  0.16394311505E+03  0.35212890424E+04  0.35174705649E+04 0.  0.
        2    1    3    3  502    0  0.92933297183E+02  0.16544195331E+04  0.67202570019E+03  0.17881160843E+04  0.25500000920E-02 0.  1.
       -2    1    3    3    0  502 -0.92933297183E+02 -0.16544195331E+04 -0.50808258514E+03  0.17331729581E+04  0.25500000920E-02 0. -1.
</event>
<event>
 5   0  0.4344980E-06  0.3244190E+04  0.7818609E-02  0.8177243E-01
        2   -1    0    0  501    0  0.00000000000E+00  0.00000000000E+00  0.15147599968E+04  0.15147599968E+04  0.25500000920E-02 0.  1.
       -2   -1    0    0    0  501  0.00000000000E+00  0.00000000000E+00 -0.17370357470E+04  0.17370357470E+04  0.25500000920E-02 0. -1.
    10030    2    1    2    0    0  0.00000000000E+00  0.00000000000E+00 -0.22227575027E+03  0.32517957438E+04  0.32441900453E+04 0.  0.
        3    1    3    3  502    0  0.14304051511E+04  0.73449099545E+03 -0.32531223996E+03  0.16405377114E+04  0.10100000352E+00 0. -1.
       -3    1    3    3    0  502 -0.14304051511E+04 -0.73449099545E+03  0.10303648969E+03  0.16112580325E+04  0.10100000352E+00 0.  1.
</event>
<event>
 5   0  0.4400349E-06  0.3319288E+04  0.7818609E-02  0.8158005E-01
        2   -1    0    0  501    0  0.00000000000E+00  0.00000000000E+00  0.16132237353E+04  0.16132237353E+04  0.25500000920E-02 0. -1.
       -2   -1    0    0    0  501  0.00000000000E+00  0.00000000000E+00 -0.17074003067E+04  0.17074003067E+04  0.25500000920E-02 0.  1.
    10030    2    1    2    0    0  0.00000000000E+00  0.00000000000E+00 -0.94176571405E+02  0.33206240420E+04  0.33192882974E+04 0.  0.
        5    1    3    3  502    0  0.15377451537E+04  0.59279886468E+03  0.14876066418E+03  0.16547575281E+04  0.46999998093E+01 0. -1.
       -5    1    3    3    0  502 -0.15377451537E+04 -0.59279886468E+03 -0.24293723559E+03  0.16658665139E+04  0.46999998093E+01 0.  1.
</event>
<event>
 5   0  0.4400349E-06  0.3227276E+04  0.7818609E-02  0.8181651E-01
       -2   -1    0    0    0  501  0.00000000000E+00  0.00000000000E+00  0.13236936801E+04  0.13236936801E+04  0.25500000920E-02 0.  1.
        2   -1    0    0  501    0  0.00000000000E+00  0.00000000000E+00 -0.19670918031E+04  0.19670918031E+04  0.25500000920E-02 0. -1.
    10030    2    1    2    0    0  0.00000000000E+00  0.00000000000E+00 -0.64339812295E+03  0.32907854832E+04  0.32272756238E+04 0.  0.
        5    1    3    3  502    0  0.13993771105E+04  0.49587426383E+03 -0.96632443838E+03  0.17714267112E+04  0.46999998093E+01 0. -1.
       -5    1    3    3    0  502 -0.13993771105E+04 -0.49587426383E+03  0.32292631542E+03  0.15193587720E+04  0.46999998093E+01 0.  1.
</event>
<event>
 5   0  0.4400349E-06  0.3366300E+04  0.7818609E-02  0.8146227E-01
        2   -1    0    0  501    0  0.00000000000E+00  0.00000000000E+00  0.28781995257E+04  0.28781995257E+04  0.25500000920E-02 0.  1.
       -2   -1    0    0    0  501  0.00000000000E+00  0.00000000000E+00 -0.98429353661E+03  0.98429353661E+03  0.25500000920E-02 0. -1.
    10030    2    1    2    0    0  0.00000000000E+00  0.00000000000E+00  0.18939059891E+04  0.38624930623E+04  0.33662995649E+04 0.  0.
        5    1    3    3  502    0 -0.17267328824E+03 -0.12822868070E+04 -0.28824649844E+03  0.13255880407E+04  0.46999998093E+01 0. -1.
       -5    1    3    3    0  502  0.17267328824E+03  0.12822868070E+04  0.21821524876E+04  0.25369050216E+04  0.46999998093E+01 0.  1.
</event>
<event>
 5   0  0.4400349E-06  0.2489443E+04  0.7818609E-02  0.8406756E-01
        2   -1    0    0  501    0  0.00000000000E+00  0.00000000000E+00  0.22940190081E+04  0.22940190081E+04  0.25500000920E-02 0.  1.
       -2   -1    0    0    0  501  0.00000000000E+00  0.00000000000E+00 -0.67537898492E+03  0.67537898493E+03  0.25500000920E-02 0. -1.
    10030    2    1    2    0    0  0.00000000000E+00  0.00000000000E+00  0.16186400232E+04  0.29693979930E+04  0.24894434953E+04 0.  0.
        5    1    3    3  502    0  0.62474540800E+03 -0.35966908453E+03 -0.40102490117E+03  0.82493135262E+03  0.46999998093E+01 0. -1.
       -5    1    3    3    0  502 -0.62474540800E+03  0.35966908453E+03  0.20196649244E+04  0.21444666404E+04  0.46999998093E+01 0.  1.
</event>
<event>
 5   0  0.1654257E-06  0.3177038E+04  0.7818609E-02  0.8194908E-01
        1   -1    0    0  501    0  0.00000000000E+00  0.00000000000E+00  0.16750614294E+04  0.16750614294E+04  0.50400001928E-02 0.  1.
       -1   -1    0    0    0  501  0.00000000000E+00  0.00000000000E+00 -0.15064475023E+04  0.15064475024E+04  0.50400001928E-02 0. -1.
    10030    2    1    2    0    0  0.00000000000E+00  0.00000000000E+00  0.16861392703E+03  0.31815089317E+04  0.31770376810E+04 0.  0.
        3    1    3    3  502    0 -0.13821100399E+04 -0.28558193991E+03 -0.64583293542E+03  0.15520584388E+04  0.10100000352E+00 0. -1.
       -3    1    3    3    0  502  0.13821100399E+04  0.28558193991E+03  0.81444686245E+03  0.16294504929E+04  0.10100000352E+00 0.  1.
</event>
<event>
 5   0  0.4344980E-06  0.1720289E+04  0.7818609E-02  0.8749877E-01
       -2   -1    0    0    0  501  0.00000000000E+00  0.00000000000E+00  0.42429276315E+03  0.42429276316E+03  0.25500000920E-02 0.  1.
        2   -1    0    0  501    0  0.00000000000E+00  0.00000000000E+00 -0.17437210740E+04  0.17437210740E+04  0.25500000920E-02 0. -1.
    10030    2    1    2    0    0  0.00000000000E+00  0.00000000000E+00 -0.13194283108E+04  0.21680138372E+04  0.17202886184E+04 0.  0.
        3    1    3    3  502    0 -0.18116248369E+02  0.25726999326E+03  0.37441651184E+03  0.45464687663E+03  0.10100000352E+00 0.  1.
       -3    1    3    3    0  502  0.18116248369E+02 -0.25726999326E+03 -0.16938448227E+04  0.17133669605E+04  0.10100000352E+00 0. -1.
</event>
<event>
 5   0  0.1571391E-06  0.1780215E+04  0.7818609E-02  0.8716892E-01
       -1   -1    0    0    0  501  0.00000000000E+00  0.00000000000E+00  0.11609969393E+04  0.11609969393E+04  0.50400001928E-02 0.  1.
        1   -1    0    0  501    0  0.00000000000E+00  0.00000000000E+00 -0.68242305361E+03  0.68242305363E+03  0.50400001928E-02 0. -1.
    10030    2    1    2    0    0  0.00000000000E+00  0.00000000000E+00  0.47857388571E+03  0.18434199930E+04  0.17802146799E+04 0.  0.
        1    1    3    3  502    0  0.18300019199E+03 -0.39510069753E+03  0.10431861320E+04  0.11304118442E+04  0.50400001928E-02 0.  1.
       -1    1    3    3    0  502 -0.18300019199E+03  0.39510069753E+03 -0.56461224632E+03  0.71300814875E+03  0.50400001928E-02 0. -1.
</event>
<event>
 5   0  0.4400349E-06  0.2255904E+04  0.7818609E-02  0.8495513E-01
       -2   -1    0    0    0  501  0.00000000000E+00  0.00000000000E+00  0.75613402591E+03  0.75613402591E+03  0.25500000920E-02 0.  1.
        2   -1    0    0  501    0  0.00000000000E+00  0.00000000000E+00 -0.16826055984E+04  0.16826055984E+04  0.25500000920E-02 0. -1.
    10030    2    1    2    0    0  0.00000000000E+00  0.00000000000E+00 -0.92647157250E+03  0.24387396243E+04  0.22559036727E+04 0.  0.
        5    1    3    3  502    0 -0.45867188024E+03 -0.34019656164E+03 -0.15147678196E+04  0.16188444124E+04  0.46999998093E+01 0. -1.
       -5    1    3    3    0  502  0.45867188024E+03  0.34019656164E+03  0.58829624706E+03  0.81989521195E+03  0.46999998093E+01 0.  1.
</event>
<event>
 5   0  0.2101998E-06  0.1990684E+04  0.7818609E-02  0.8610989E-01
        1   -1    0    0  501    0  0.00000000000E+00  0.00000000000E+00  0.11998297728E+04  0.11998297728E+04  0.50400001928E-02 0. -1.
       -1   -1    0    0    0  501  0.00000000000E+00  0.00000000000E+00 -0.82570489843E+03  0.82570489844E+03  0.50400001928E-02 0.  1.
    10030    2    1    2    0    0  0.00000000000E+00  0.00000000000E+00  0.37412487437E+03  0.20255346713E+04  0.19906836220E+04 0.  0.
        5    1    3    3  502    0 -0.81610907864E+03 -0.43151763336E+03  0.56565401997E+03  0.10826948122E+04  0.46999998093E+01 0. -1.
       -5    1    3    3    0  502  0.81610907864E+03  0.43151763336E+03 -0.19152914560E+03  0.94283985901E+03  0.46999998093E+01 0.  1.
</event>
<event>
 5   0  0.2722449E-06  0.3445555E+04  0.7818609E-02  0.8126815E-01
       -2   -1    0    0    0  501  0.00000000000E+00  0.00000000000E+00  0.20212373140E+04  0.20212373140E+04  0.25500000920E-02 0. -1.
        2   -1    0    0  501    0  0.00000000000E+00  0.00000000000E+00 -0.14683885598E+04  0.14683885598E+04  0.25500000920E-02 0.  1.
    10030    2    1    2    0    0  0.00000000000E+00  0.00000000000E+00  0.55284875420E+03  0.34896258737E+04  0.34455546714E+04 0.  0.
        2    1    3    3  502    0 -0.10524790558E+04  0.99486045262E+03  0.12213653397E+04  0.18945165019E+04  0.25500000920E-02 0. -1.
       -2    1    3    3    0  502  0.10524790558E+04 -0.99486045262E+03 -0.66851658550E+03  0.15951093718E+04  0.25500000920E-02 0.  1.
</event>
<event>
 5   0  0.2722449E-06  0.3404177E+04  0.7818609E-02  0.8136882E-01
        2   -1    0    0  501    0  0.00000000000E+00  0.00000000000E+00  0.19104723985E+04  0.19104723985E+04  0.25500000920E-02 0. -1.
       -2   -1    0    0    0  501  0.00000000000E+00  0.00000000000E+00 -0.15164344088E+04  0.15164344088E+04  0.25500000920E-02 0.  1.
    10030    2    1    2    0    0  0.00000000000E+00  0.00000000000E+00  0.39403798969E+03  0.34269068072E+04  0.34041774819E+04 0.  0.
        2    1    3    3  502    0 -0.39951497010E+01  0.16943533200E+04  0.33897114117E+02  0.16946970669E+04  0.25500000920E-02 0.  1.
       -2    1    3    3    0  502  0.39951497010E+01 -0.16943533200E+04  0.36014087557E+03  0.17322097403E+04  0.25500000920E-02 0. -1.
</event>
<event>
 5   0  0.1654257E-06  0.3427639E+04  0.7818609E-02  0.8131156E-01
       -1   -1    0    0    0  501  0.00000000000E+00  0.00000000000E+00  0.14270555564E+04  0.14270555564E+04  0.50400001928E-02 0. -1.
        1   -1    0    0  501    0  0.00000000000E+00  0.00000000000E+00 -0.20582077274E+04  0.20582077274E+04  0.50400001928E-02 0.  1.
    10030    2    1    2    0    0  0.00000000000E+00  0.00000000000E+00 -0.63115217104E+03  0.34852632838E+04  0.34276387053E+04 0.  0.
        3    1    3    3  502    0  0.17085602917E+04 -0.11814724183E+03 -0.38020342971E+03  0.17543351160E+04  0.10100000352E+00 0.  1.
       -3    1    3    3    0  502 -0.17085602917E+04  0.11814724183E+03 -0.25094874133E+03  0.17309281678E+04  0.10100000352E+00 0. -1.
</event>
<event>
 5   0  0.2722449E-06  0.3281540E+04  0.7818609E-02  0.8167609E-01
        2   -1    0    0  501    0  0.00000000000E+00  0.00000000000E+00  0.17121782214E+04  0.17121782214E+04  0.25500000920E-02 0. -1.
       -2   -1    0    0    0  501  0.00000000000E+00  0.00000000000E+00 -0.15723396474E+04  0.15723396474E+04  0.25500000920E-02 0.  1.
    10030    2    1    2    0    0  0.00000000000E+00  0.00000000000E+00  0.13983857395E+03  0.32845178688E+04  0.32815397001E+04 0.  0.
        2    1    3    3  502    0 -0.13219952113E+04  0.63793603976E+03 -0.66388451391E+03  0.16110171871E+04  0.25500000920E-02 0.  1.
       -2    1    3    3    0  502  0.13219952113E+04 -0.63793603976E+03  0.80372308786E+03  0.16735006816E+04  0.25500000920E-02 0. -1.
</event>
<event>
 5   0  0.2101998E-06  0.3434968E+04  0.7818609E-02  0.8129377E-01
       -1   -1    0    0    0  501  0.00000000000E+00  0.00000000000E+00  0.13333837752E+04  0.13333837752E+04  0.50400001928E-02 0.  1.
        1   -1    0    0  501    0  0.00000000000E+00  0.00000000000E+00 -0.22122295942E+04  0.22122295942E+04  0.50400001928E-02 0. -1.
    10030    2    1    2    0    0  0.00000000000E+00  0.00000000000E+00 -0.87884581895E+03  0.35456133694E+04  0.34349678590E+04 0.  0.
        5    1    3    3  502    0 -0.11529148592E+04  0.12440645952E+04 -0.16087958862E+03  0.17037645734E+04  0.46999998093E+01 0.  1.
       -5    1    3    3    0  502  0.11529148592E+04 -0.12440645952E+04 -0.71796623033E+03  0.18418487960E+04  0.46999998093E+01 0. -1.
</event>
<event>
 5   0  0.1401125E-06  0.3421118E+04  0.7818609E-02  0.8132743E-01
       -3   -1    0    0    0  501  0.00000000000E+00  0.00000000000E+00  0.17024810129E+04  0.17024810159E+04  0.10100000352E+00 0.  1.
        3   -1    0    0  501    0  0.00000000000E+00  0.00000000000E+00 -0.17186751223E+04  0.17186751252E+04  0.10100000352E+00 0. -1.
    10030    2    1    2    0    0  0.00000000000E+00  0.00000000000E+00 -0.16194109355E+02  0.34211561411E+04  0.34211178133E+04 0.  0.
        3    1    3    3  502    0  0.48455208861E+03  0.16054830540E+04 -0.34521386859E+03  0.17121738196E+04  0.10100000352E+00 0. -1.
       -3    1    3    3    0  502 -0.48455208861E+03 -0.16054830540E+04  0.32901975924E+03  0.17089823215E+04  0.10100000352E+00 0.  1.
</event>
<event>
 5   0  0.1550164E-06  0.3391596E+04  0.7818609E-02  0.8139972E-01
        1   -1    0    0  501    0  0.00000000000E+00  0.00000000000E+00  0.15785081582E+04  0.15785081582E+04  0.50400001928E-02 0.  1.
       -1   -1    0    0    0  501  0.00000000000E+00  0.00000000000E+00 -0.18218027400E+04  0.18218027400E+04  0.50400001928E-02 0. -1.
    10030    2    1    2    0    0  0.00000000000E+00  0.00000000000E+00 -0.24329458173E+03  0.34003108982E+04  0.33915957824E+04 0.  0.
        4    1    3    3  502    0 -0.15354802193E+04 -0.67427100377E+03  0.13076936732E+03  0.16820948637E+04  0.12699999809E+01 0. -1.
       -4    1    3    3    0  502  0.15354802193E+04  0.67427100377E+03 -0.37406394905E+03  0.17182160345E+04  0.12699999809E+01 0.  1.
</event>
<event>
 5   0  0.1562618E-06  0.2077797E+04  0.7818609E-02  0.8571088E-01
       -1   -1    0    0    0  501  0.00000000000E+00  0.00000000000E+00  0.91985898430E+03  0.91985898432E+03  0.50400001928E-02 0.  1.
        1   -1    0    0  501    0  0.00000000000E+00  0.00000000000E+00 -0.11733427265E+04  0.11733427265E+04  0.50400001928E-02 0. -1.
    10030    2    1    2    0    0  0.00000000000E+00  0.00000000000E+00 -0.25348374218E+03  0.20932017108E+04  0.20777967645E+04 0.  0.
        2    1    3    3  502    0  0.16665048855E+03 -0.28716779676E+03  0.86497126281E+03  0.92650580912E+03  0.25500000920E-02 0.  1.
       -2    1    3    3    0  502 -0.16665048855E+03  0.28716779676E+03 -0.11184550050E+04  0.11666959017E+04  0.25500000920E-02 0. -1.
</event>
<event>
 5   0  0.2101998E-06  0.1877794E+04  0.7818609E-02  0.8665989E-01
       -1   -1    0    0    0  501  0.00000000000E+00  0.00000000000E+00  0.60382325693E+03  0.60382325695E+03  0.50400001928E-02 0. -1.
        1   -1    0    0  501    0  0.00000000000E+00  0.00000000000E+00 -0.14599096967E+04  0.14599096967E+04  0.50400001928E-02 0.  1.
    10030    2    1    2    0    0  0.00000000000E+00  0.00000000000E+00 -0.85608643973E+03  0.20637329536E+04  0.18777938416E+04 0.  0.
        5    1    3    3  502    0  0.16824524151E+03  0.81357292069E+03 -0.90872845221E+03  0.12312663597E+04  0.46999998093E+01 0.  1.
       -5    1    3    3    0  502 -0.16824524151E+03 -0.81357292069E+03  0.52642012474E+02  0.83246659396E+03  0.46999998093E+01 0. -1.
</event>
<event>
 5   0  0.1571391E-06  0.3384747E+04  0.7818609E-02  0.8141660E-01
        1   -1    0    0  501    0  0.00000000000E+00  0.00000000000E+00  0.26041481316E+04  0.26041481316E+04  0.50400001928E-02 0. -1.
       -1   -1    0    0    0  501  0.00000000000E+00  0.00000000000E+00 -0.10998332848E+04  0.10998332848E+04  0.50400001928E-02 0.  1.
    10030    2    1    2    0    0  0.00000000000E+00  0.00000000000E+00  0.15043148468E+04  0.37039814164E+04  0.33847474315E+04 0.  0.
        1    1    3    3  502    0 -0.77048135082E+03  0.13288090468E+04  0.15296250779E+04  0.21677471886E+04  0.50400001928E-02 0. -1.
       -1    1    3    3    0  502  0.77048135082E+03 -0.13288090468E+04 -0.25310231033E+02  0.15362342278E+04  0.50400001928E-02 0.  1.
</event>
<event>
 5   0  0.4189587E-06  0.3418772E+04  0.7818609E-02  0.8133314E-01
        2   -1    0    0  501    0  0.00000000000E+00  0.00000000000E+00  0.13019249748E+04  0.13019249748E+04  0.25500000920E-02 0. -1.
       -2   -1    0    0    0  501  0.00000000000E+00  0.00000000000E+00 -0.22443694189E+04  0.22443694189E+04  0.25500000920E-02 0.  1.
    10030    2    1    2    0    0  0.00000000000E+00  0.00000000000E+00 -0.94244444410E+03  0.35462943937E+04  0.34187720597E+04 0.  0.
        1    1    3    3  502    0 -0.95496423318E+03  0.65859498900E+03  0.83111544716E+03  0.14270448251E+04  0.50400001928E-02 0. -1.
       -1    1    3    3    0  502  0.95496423318E+03 -0.65859498900E+03 -0.17735598913E+04  0.21192495686E+04  0.50400001928E-02 0.  1.
</event>
<event>
 5   0  0.4344980E-06  0.3428680E+04  0.7818609E-02  0.8130903E-01
        2   -1    0    0  501    0  0.00000000000E+00  0.00000000000E+00  0.23248237692E+04  0.23248237692E+04  0.25500000920E-02 0.  1.
       -2   -1    0    0    0  501  0.00000000000E+00  0.00000000000E+00 -0.12641654452E+04  0.12641654452E+04  0.25500000920E-02 0. -1.
    10030    2    1    2    0    0  0.00000000000E+00  0.00000000000E+00  0.10606583240E+04  0.35889892144E+04  0.34286801397E+04 0.  0.
        3    1    3    3  502    0  0.10273113057E+04  0.11345211436E+04 -0.27808528690E+03  0.15555829072E+04  0.10100000352E+00 0. -1.
       -3    1    3    3    0  502 -0.10273113057E+04 -0.11345211436E+04  0.13387436109E+04  0.20334063072E+04  0.10100000352E+00 0.  1.
</event>
<event>
 5   0  0.1654257E-06  0.2781941E+04  0.7818609E-02  0.8308897E-01
        1   -1    0    0  501    0  0.00000000000E+00  0.00000000000E+00  0.17368011476E+04  0.17368011477E+04  0.50400001928E-02 0. -1.
       -1   -1    0    0    0  501  0.00000000000E+00  0.00000000000E+00 -0.11140013437E+04  0.11140013437E+04  0.50400001928E-02 0.  1.
    10030    2    1    2    0    0  0.00000000000E+00  0.00000000000E+00  0.62279980397E+03  0.28508024913E+04  0.27819409140E+04 0.  0.
        3    1    3    3  502    0  0.83145901258E+03 -0.29511894728E+03 -0.79056921533E+03  0.11846598571E+04  0.10100000352E+00 0.  1.
       -3    1    3    3    0  502 -0.83145901258E+03  0.29511894728E+03  0.14133690193E+04  0.16661426342E+04  0.10100000352E+00 0. -1.
</event>
<event>
 5   0  0.1571391E-06  0.3445578E+04  0.7818609E-02  0.8126810E-01
        1   -1    0    0  501    0  0.00000000000E+00  0.00000000000E+00  0.17756879677E+04  0.17756879677E+04  0.50400001928E-02 0. -1.
       -1   -1    0    0    0  501  0.00000000000E+00  0.00000000000E+00 -0.16714659925E+04  0.16714659925E+04  0.50400001928E-02 0.  1.
    10030    2    1    2    0    0  0.00000000000E+00  0.00000000000E+00  0.10422197516E+03  0.34471539602E+04  0.34455780655E+04 0.  0.
        1    1    3    3  502    0  0.15160479461E+04 -0.44755363933E+03 -0.63325445968E+03  0.17028554976E+04  0.50400001928E-02 0.  1.
       -1    1    3    3    0  502 -0.15160479461E+04  0.44755363933E+03  0.73747643484E+03  0.17442984627E+04  0.50400001928E-02 0. -1.
</event>
<event>
 5   0  0.1654257E-06  0.3369517E+04  0.7818609E-02  0.8145429E-01
       -1   -1    0    0    0  501  0.00000000000E+00  0.00000000000E+00  0.15374627347E+04  0.15374627347E+04  0.50400001928E-02 0. -1.
        1   -1    0    0  501    0  0.00000000000E+00  0.00000000000E+00 -0.18461659757E+04  0.18461659757E+04  0.50400001928E-02 0.  1.
    10030    2    1    2    0    0  0.00000000000E+00  0.00000000000E+00 -0.30870324101E+03  0.33836287104E+04  0.33695171106E+04 0.  0.
        3    1    3    3  502    0  0.81535729744E+03 -0.14034627575E+04 -0.60779132236E+03  0.17331836417E+04  0.10100000352E+00 0.  1.
       -3    1    3    3    0  502 -0.81535729744E+03  0.14034627575E+04  0.29908808134E+03  0.16504450687E+04  0.10100000352E+00 0. -1.
</event>
<event>
 5   0  0.2722449E-06  0.3561421E+04  0.7818609E-02  0.8099386E-01
       -2   -1    0    0    0  501  0.00000000000E+00  0.00000000000E+00  0.11289464387E+04  0.11289464387E+04  0.25500000920E-02 0.  1.
        2   -1    0    0  501    0  0.00000000000E+00  0.00000000000E+00 -0.28087519264E+04  0.28087519264E+04  0.25500000920E-02 0. -1.
    10030    2    1    2    0    0  0.00000000000E+00  0.00000000000E+00 -0.16798054876E+04  0.39376983651E+04  0.35614213368E+04 0.  0.
        2    1    3    3  502    0  0.86828788787E+03  0.16791680284E+03  0.86897087619E+03  0.12398509155E+04  0.25500000920E-02 0.  1.
       -2    1    3    3    0  502 -0.86828788787E+03 -0.16791680284E+03 -0.25487763638E+04  0.26978474497E+04  0.25500000920E-02 0. -1.
</event>
<event>
 5   0  0.2722449E-06  0.3409424E+04  0.7818609E-02  0.8135597E-01
        2   -1    0    0  501    0  0.00000000000E+00  0.00000000000E+00  0.23344960436E+04  0.23344960436E+04  0.25500000920E-02 0.  1.
       -2   -1    0    0    0  501  0.00000000000E+00  0.00000000000E+00 -0.12448270211E+04  0.12448270211E+04  0.25500000920E-02 0. -1.
    10030    2    1    2    0    0  0.00000000000E+00  0.00000000000E+00  0.10896690224E+04  0.35793230647E+04  0.34094244416E+04 0.  0.
        2    1    3    3  502    0  0.13512679890E+04 -0.87238592137E+03  0.11378375921E+04  0.19701920617E+04  0.25500000920E-02 0.  1.
       -2    1    3    3    0  502 -0.13512679890E+04  0.87238592137E+03 -0.48168569694E+02  0.16091310030E+04  0.25500000920E-02 0. -1.
</event>
<event>
 5   0  0.1550164E-06  0.1875356E+04  0.7818609E-02  0.8667221E-01
       -1   -1    0    0    0  501  0.00000000000E+00  0.00000000000E+00  0.11184752832E+04  0.11184752832E+04  0.50400001928E-02 0. -1.
        1   -1    0    0  501    0  0.00000000000E+00  0.00000000000E+00 -0.78610617179E+03  0.78610617181E+03  0.50400001928E-02 0.  1.
    10030    2    1    2    0    0  0.00000000000E+00  0.00000000000E+00  0.33236911143E+03  0.19045814550E+04  0.18753563109E+04 0.  0.
        4    1    3    3  502    0  0.45618014011E+02 -0.42028109706E+03  0.10161993675E+04  0.11006270809E+04  0.12699999809E+01 0. -1.
       -4    1    3    3    0  502 -0.45618014011E+02  0.42028109706E+03 -0.68383025606E+03  0.80395437417E+03  0.12699999809E+01 0.  1.
</event>
<event>
 5   0  0.4189587E-06  0.2956767E+04  0.7818609E-02  0.8256185E-01
        2   -1    0    0  501    0  0.00000000000E+00  0.00000000000E+00  0.18168735750E+04  0.18168735750E+04  0.25500000920E-02 0. -1.
       -2   -1    0    0    0  501  0.00000000000E+00  0.00000000000E+00 -0.12029555757E+04  0.12029555757E+04  0.25500000920E-02 0.  1.
    10030    2    1    2    0    0  0.00000000000E+00  0.00000000000E+00  0.61391799929E+03  0.30198291507E+04  0.29567672870E+04 0.  0.
        1    1    3    3  502    0 -0.92520524499E+03 -0.25559997074E+03 -0.84142524152E+03  0.12764531043E+04  0.50400001928E-02 0.  1.
       -1    1    3    3    0  502  0.92520524499E+03  0.25559997074E+03  0.14553432408E+04  0.17433760464E+04  0.50400001928E-02 0. -1.
</event>
<event>
 5   0  0.1401125E-06  0.2552887E+04  0.7818609E-02  0.8384383E-01
       -3   -1    0    0    0  501  0.00000000000E+00  0.00000000000E+00  0.74910745791E+03  0.74910746472E+03  0.10100000352E+00 0.  1.
        3   -1    0    0  501    0  0.00000000000E+00  0.00000000000E+00 -0.21749982802E+04  0.21749982826E+04  0.10100000352E+00 0. -1.
    10030    2    1    2    0    0  0.00000000000E+00  0.00000000000E+00 -0.14258908223E+04  0.29241057473E+04  0.25528865592E+04 0.  0.
        1    1    3    3  502    0  0.10396381317E+04 -0.59175073101E+03 -0.12229958664E+04  0.17107703709E+04  0.50400001928E-02 0. -1.
       -1    1    3    3    0  502 -0.10396381317E+04  0.59175073101E+03 -0.20289495588E+03  0.12133353764E+04  0.50400001928E-02 0.  1.
</event>
<event>
 5   0  0.4400349E-06  0.3469971E+04  0.7818609E-02  0.8120943E-01
        2   -1    0    0  501    0  0.00000000000E+00  0.00000000000E+00  0.17402172206E+04  0.17402172206E+04  0.25500000920E-02 0. -1.
       -2   -1    0    0    0  501  0.00000000000E+00  0.00000000000E+00 -0.17297697366E+04  0.17297697367E+04  0.25500000920E-02 0.  1.
    10030    2    1    2    0    0  0.00000000000E+00  0.00000000000E+00  0.10447483987E+02  0.34699869573E+04  0.34699712295E+04 0.  0.
        5    1    3    3  502    0  0.81611167175E+03  0.62969625260E+02  0.15349854138E+04  0.17395993059E+04  0.46999998093E+01 0. -1.
       -5    1    3    3    0  502 -0.81611167175E+03 -0.62969625260E+02 -0.15245379298E+04  0.17303876514E+04  0.46999998093E+01 0.  1.
</event>
<event>
 5   0  0.4400349E-06  0.3247973E+04  0.7818609E-02  0.8176261E-01
        2   -1    0    0  501    0  0.00000000000E+00  0.00000000000E+00  0.21063787173E+04  0.21063787173E+04  0.25500000920E-02 0.  1.
       -2   -1    0    0    0  501  0.00000000000E+00  0.00000000000E+00 -0.12520696514E+04  0.12520696514E+04  0.25500000920E-02 0. -1.
    10030    2    1    2    0    0  0.00000000000E+00  0.00000000000E+00  0.85430906590E+03  0.33584483686E+04  0.32479734396E+04 0.  0.
        5    1    3    3  502    0 -0.18382535675E+03  0.46019158311E+03  0.20262833052E+04  0.20860043571E+04  0.46999998093E+01 0.  1.
       -5    1    3    3    0  502  0.18382535675E+03 -0.46019158311E+03 -0.11719742393E+04  0.12724440115E+04  0.46999998093E+01 0. -1.
</event>
<event>
 5   0  0.2722449E-06  0.3507670E+04  0.7818609E-02  0.8111975E-01
        2   -1    0    0  501    0  0.00000000000E+00  0.00000000000E+00  0.28226247893E+04  0.28226247893E+04  0.25500000920E-02 0. -1.
       -2   -1    0    0    0  501  0.00000000000E+00  0.00000000000E+00 -0.10897438311E+04  0.10897438311E+04  0.25500000920E-02 0.  1.
    10030    2    1    2    0    0  0.00000000000E+00  0.00000000000E+00  0.17328809582E+04  0.39123686205E+04  0.35076704245E+04 0.  0.
        2    1    3    3  502    0  0.15958221651E+04 -0.36335917775E+03  0.16343577908E+03  0.16448068363E+04  0.25500000920E-02 0.  1.
       -2    1    3    3    0  502 -0.15958221651E+04  0.36335917775E+03  0.15694451791E+04  0.22675617842E+04  0.25500000920E-02 0. -1.
</event>
<event>
 5   0  0.2101998E-06  0.3454153E+04  0.7818609E-02  0.8124742E-01
       -1   -1    0    0    0  501  0.00000000000E+00  0.00000000000E+00  0.11446603875E+04  0.11446603875E+04  0.50400001928E-02 0. -1.
        1   -1    0    0  501    0  0.00000000000E+00  0.00000000000E+00 -0.26058325790E+04  0.26058325790E+04  0.50400001928E-02 0.  1.
    10030    2    1    2    0    0  0.00000000000E+00  0.00000000000E+00 -0.14611721914E+04  0.37504929665E+04  0.34541530538E+04 0.  0.
        5    1    3    3  502    0  0.13421729472E+04  0.18491394158E+03 -0.18935248814E+04  0.23283212735E+04  0.46999998093E+01 0.  1.
       -5    1    3    3    0  502 -0.13421729472E+04 -0.18491394158E+03  0.43235268997E+03  0.14221716931E+04  0.46999998093E+01 0. -1.
</event>
<event>
 5   0  0.4344980E-06  0.3731731E+04  0.7818609E-02  0.8060966E-01
        2   -1    0    0  501    0  0.00000000000E+00  0.00000000000E+00  0.21862800675E+04  0.21862800675E+04  0.25500000920E-02 0. -1.
       -2   -1    0    0    0  501  0.00000000000E+00  0.00000000000E+00 -0.15924097851E+04  0.15924097851E+04  0.25500000920E-02 0.  1.
    10030    2    1    2    0    0  0.00000000000E+00  0.00000000000E+00  0.59387028232E+03  0.37786898526E+04  0.37317308437E+04 0.  0.
        3    1    3    3  502    0  0.86144685923E+03 -0.35871283388E+03 -0.13391595528E+04  0.16322113547E+04  0.10100000352E+00 0.  1.
       -3    1    3    3    0  502 -0.86144685923E+03  0.35871283388E+03  0.19330298351E+04  0.21464784979E+04  0.10100000352E+00 0. -1.
</event>
<event>
 5   0  0.1654257E-06  0.3306686E+04  0.7818609E-02  0.8161196E-01
       -1   -1    0    0    0  501  0.00000000000E+00  0.00000000000E+00  0.12528549382E+04  0.12528549382E+04  0.50400001928E-02 0. -1.
        1   -1    0    0  501    0  0.00000000000E+00  0.00000000000E+00 -0.21818514198E+04  0.21818514198E+04  0.50400001928E-02 0.  1.
    10030    2    1    2    0    0  0.00000000000E+00  0.00000000000E+00 -0.92899648157E+03  0.34347063581E+04  0.33066861513E+04 0.  0.
        3    1    3    3  502    0  0.18700473669E+03 -0.79974087349E+03 -0.19549689585E+04  0.21204857640E+04  0.10100000352E+00 0.  1.
       -3    1    3    3    0  502 -0.18700473669E+03  0.79974087349E+03  0.10259724769E+04  0.13142205941E+04  0.10100000352E+00 0. -1.
</event>
<event>
 5   0  0.4173467E-06  0.3310147E+04  0.7818609E-02  0.8160318E-01
       -2   -1    0    0    0  501  0.00000000000E+00  0.00000000000E+00  0.17701471643E+04  0.17701471643E+04  0.25500000920E-02 0. -1.
        2   -1    0    0  501    0  0.00000000000E+00  0.00000000000E+00 -0.15474806521E+04  0.15474806521E+04  0.25500000920E-02 0.  1.
    10030    2    1    2    0    0  0.00000000000E+00  0.00000000000E+00  0.22266651221E+03  0.33176278164E+04  0.33101471195E+04 0.  0.
        4    1    3    3  502    0  0.93561327303E+03  0.12986034958E+04 -0.31095447460E+03  0.16304715680E+04  0.12699999809E+01 0.  1.
       -4    1    3    3    0  502 -0.93561327303E+03 -0.12986034958E+04  0.53362098682E+03  0.16871562484E+04  0.12699999809E+01 0. -1.
</event>
<event>
 5   0  0.1633783E-06  0.1843867E+04  0.7818609E-02  0.8683313E-01
       -1   -1    0    0    0  501  0.00000000000E+00  0.00000000000E+00  0.92540273819E+03  0.92540273821E+03  0.50400001928E-02 0.  1.
        1   -1    0    0  501    0  0.00000000000E+00  0.00000000000E+00 -0.91847719052E+03  0.91847719053E+03  0.50400001928E-02 0. -1.
    10030    2    1    2    0    0  0.00000000000E+00  0.00000000000E+00  0.69255476738E+01  0.18438799287E+04  0.18438669226E+04 0.  0.
        2    1    3    3  502    0  0.49878198499E+02 -0.36041349541E+03 -0.84364153374E+03  0.91875827061E+03  0.25500000920E-02 0. -1.
       -2    1    3    3    0  502 -0.49878198499E+02  0.36041349541E+03  0.85056708141E+03  0.92512165813E+03  0.25500000920E-02 0.  1.
</event>
<event>
 5   0  0.1571391E-06  0.3236826E+04  0.7818609E-02  0.8179159E-01
        1   -1    0    0  501    0  0.00000000000E+00  0.00000000000E+00  0.18670364705E+04  0.18670364705E+04  0.50400001928E-02 0. -1.
       -1   -1    0    0    0  501  0.00000000000E+00  0.00000000000E+00 -0.14028975344E+04  0.14028975344E+04  0.50400001928E-02 0.  1.
    10030    2    1    2    0    0  0.00000000000E+00  0.00000000000E+00  0.46413893606E+03  0.32699340049E+04  0.32368261375E+04 0.  0.
        1    1    3    3  502    0  0.32308373177E+03  0.37875568578E+03 -0.13236239986E+04  0.14141497293E+04  0.50400001928E-02 0.  1.
       -1    1    3    3    0  502 -0.32308373177E+03 -0.37875568578E+03  0.17877629346E+04  0.18557842756E+04  0.50400001928E-02 0. -1.
</event>
<event>
 5   0  0.4344980E-06  0.3388617E+04  0.7818609E-02  0.8140706E-01
        2   -1    0    0  501    0  0.00000000000E+00  0.00000000000E+00  0.22280652979E+04  0.22280652979E+04  0.25500000920E-02 0.  1.
       -2   -1    0    0    0  501  0.00000000000E+00  0.00000000000E+00 -0.12884186308E+04  0.12884186308E+04  0.25500000920E-02 0. -1.
    10030    2    1    2    0    0  0.00000000000E+00  0.00000000000E+00  0.93964666710E+03  0.35164839288E+04  0.33886167329E+04 0.  0.
        3    1    3    3  502    0  0.16414913390E+04  0.29252617315E+03  0.78220628045E+03  0.18417144332E+04  0.10100000352E+00 0.  1.
       -3    1    3    3    0  502 -0.16414913390E+04 -0.29252617315E+03  0.15744038665E+03  0.16747694956E+04  0.10100000352E+00 0. -1.
</event>
<event>
 5   0  0.1654257E-06  0.2695526E+04  0.7818609E-02  0.8336458E-01
       -1   -1    0    0    0  501  0.00000000000E+00  0.00000000000E+00  0.16640184706E+04  0.16640184706E+04  0.50400001928E-02 0. -1.
        1   -1    0    0  501    0  0.00000000000E+00  0.00000000000E+00 -0.10916136776E+04  0.10916136776E+04  0.50400001928E-02 0.  1.
    10030    2    1    2    0    0  0.00000000000E+00  0.00000000000E+00  0.57240479297E+03  0.27556321482E+04  0.26955261618E+04 0.  0.
        3    1    3    3  502    0 -0.68807659859E+03  0.11407662599E+04  0.77522647733E+02  0.13344687469E+04  0.10100000352E+00 0.  1.
       -3    1    3    3    0  502  0.68807659859E+03 -0.11407662599E+04  0.49488214524E+03  0.14211634013E+04  0.10100000352E+00 0. -1.
</event>
<event>
 5   0  0.4344980E-06  0.3407946E+04  0.7818609E-02  0.8135959E-01
       -2   -1    0    0    0  501  0.00000000000E+00  0.00000000000E+00  0.11318005464E+04  0.11318005464E+04  0.25500000920E-02 0. -1.
        2   -1    0    0  501    0  0.00000000000E+00  0.00000000000E+00 -0.25654025338E+04  0.25654025338E+04  0.25500000920E-02 0.  1.
    10030    2    1    2    0    0  0.00000000000E+00  0.00000000000E+00 -0.14336019874E+04  0.36972030801E+04  0.34079460027E+04 0.  0.
        3    1    3    3  502    0  0.16096996807E+04 -0.50533081186E+03 -0.97588387180E+03  0.19490617314E+04  0.10100000352E+00 0.  1.
       -3    1    3    3    0  502 -0.16096996807E+04  0.50533081186E+03 -0.45771811563E+03  0.17481413487E+04  0.10100000352E+00 0. -1.
</event>
<event>
 5   0  0.4189587E-06  0.1896012E+04  0.7818609E-02  0.8656844E-01
        2   -1    0    0  501    0  0.00000000000E+00  0.00000000000E+00  0.18995992193E+04  0.18995992193E+04  0.25500000920E-02 0.  1.
       -2   -1    0    0    0  501  0.00000000000E+00  0.00000000000E+00 -0.47310792262E+03  0.47310792263E+03  0.25500000920E-02 0. -1.
    10030    2    1    2    0    0  0.00000000000E+00  0.00000000000E+00  0.14264912967E+04  0.23727071419E+04  0.18960120680E+04 0.  0.
        1    1    3    3  502    0 -0.22176453728E+03  0.68044636093E+03  0.14912712754E+04  0.16541090583E+04  0.50400001928E-02 0.  1.
       -1    1    3    3    0  502  0.22176453728E+03 -0.68044636093E+03 -0.64779978685E+02  0.71859808360E+03  0.50400001928E-02 0. -1.
</event>
<event>
 5   0  0.4400349E-06  0.3306724E+04  0.7818609E-02  0.8161187E-01
       -2   -1    0    0    0  501  0.00000000000E+00  0.00000000000E+00  0.10760304865E+04  0.10760304865E+04  0.25500000920E-02 0. -1.
        2   -1    0    0  501    0  0.00000000000E+00  0.00000000000E+00 -0.25404535490E+04  0.25404535490E+04  0.25500000920E-02 0.  1.
    10030    2    1    2    0    0  0.00000000000E+00  0.00000000000E+00 -0.14644230625E+04  0.36164840355E+04  0.33067237371E+04 0.  0.
        5    1    3    3  502    0 -0.81068608024E+03 -0.14119676238E+03 -0.23005728610E+04  0.24433186499E+04  0.46999998093E+01 0.  1.
       -5    1    3    3    0  502  0.81068608024E+03  0.14119676238E+03  0.83614979852E+03  0.11731653856E+04  0.46999998093E+01 0. -1.
</event>
<event>
 5   0  0.4400349E-06  0.3448596E+04  0.7818609E-02  0.8126081E-01
       -2   -1    0    0    0  501  0.00000000000E+00  0.00000000000E+00  0.97061963595E+03  0.97061963596E+03  0.25500000920E-02 0. -1.
        2   -1    0    0  501    0  0.00000000000E+00  0.00000000000E+00 -0.30632021487E+04  0.30632021487E+04  0.25500000920E-02 0.  1.
    10030    2    1    2    0    0  0.00000000000E+00  0.00000000000E+00 -0.20925825128E+04  0.40338217847E+04  0.34485963257E+04 0.  0.
        5    1    3    3  502    0  0.16855219696E+04 -0.26124147052E+03 -0.75049217400E+03  0.18634623713E+04  0.46999998093E+01 0. -1.
       -5    1    3    3    0  502 -0.16855219696E+04  0.26124147052E+03 -0.13420903388E+04  0.21703594134E+04  0.46999998093E+01 0.  1.
</event>
<event>
 5   0  0.4189587E-06  0.3408080E+04  0.7818609E-02  0.8135926E-01
        2   -1    0    0  501    0  0.00000000000E+00  0.00000000000E+00  0.18244672063E+04  0.18244672063E+04  0.25500000920E-02 0.  1.
       -2   -1    0    0    0  501  0.00000000000E+00  0.00000000000E+00 -0.15915619117E+04  0.15915619117E+04  0.25500000920E-02 0. -1.
    10030    2    1    2    0    0  0.00000000000E+00  0.00000000000E+00  0.23290529460E+03  0.34160291181E+04  0.34080801134E+04 0.  0.
        1    1    3    3  502    0 -0.29101891114E+03  0.13581032503E+04 -0.87307641242E+03  0.16405483434E+04  0.50400001928E-02 0. -1.
       -1    1    3    3    0  502  0.29101891114E+03 -0.13581032503E+04  0.11059817070E+04  0.17754807747E+04  0.50400001928E-02 0.  1.
</event>
<event>
 5   0  0.4344980E-06  0.3269858E+04  0.7818609E-02  0.8170608E-01
       -2   -1    0    0    0  501  0.00000000000E+00  0.00000000000E+00  0.16858439956E+04  0.16858439956E+04  0.25500000920E-02 0. -1.
        2   -1    0    0  501    0  0.00000000000E+00  0.00000000000E+00 -0.15855514524E+04  0.15855514524E+04  0.25500000920E-02 0.  1.
    10030    2    1    2    0    0  0.00000000000E+00  0.00000000000E+00  0.10029254323E+03  0.32713954479E+04  0.32698577312E+04 0.  0.
        3    1    3    3  502    0 -0.44694402599E+03 -0.19524456125E+03 -0.15110724335E+04  0.15878347869E+04  0.10100000352E+00 0.  1.
       -3    1    3    3    0  502  0.44694402599E+03  0.19524456125E+03  0.16113649767E+04  0.16835606610E+04  0.10100000352E+00 0. -1.
</event>
<event>
 5   0  0.1562618E-06  0.3122960E+04  0.7818609E-02  0.8209465E-01
       -1   -1    0    0    0  501  0.00000000000E+00  0.00000000000E+00  0.17795914790E+04  0.17795914790E+04  0.50400001928E-02 0. -1.
        1   -1    0    0  501    0  0.00000000000E+00  0.00000000000E+00 -0.13701012467E+04  0.13701012467E+04  0.50400001928E-02 0.  1.
    10030    2    1    2    0    0  0.00000000000E+00  0.00000000000E+00  0.40949023238E+03  0.31496927257E+04  0.31229604570E+04 0.  0.
        2    1    3    3  502    0  0.90127433078E+03  0.54301366203E+03  0.13683371036E+04  0.17261244699E+04  0.25500000920E-02 0. -1.
       -2    1    3    3    0  502 -0.90127433078E+03 -0.54301366203E+03 -0.95884687123E+03  0.14235682558E+04  0.25500000920E-02 0.  1.
</event>
<event>
 5   0  0.1550164E-06  0.1802513E+04  0.7818609E-02  0.8704964E-01
       -1   -1    0    0    0  501  0.00000000000E+00  0.00000000000E+00  0.13579354852E+04  0.13579354853E+04  0.50400001928E-02 0.  1.
        1   -1    0    0  501    0  0.00000000000E+00  0.00000000000E+00 -0.59816013005E+03  0.59816013007E+03  0.50400001928E-02 0. -1.
    10030    2    1    2    0    0  0.00000000000E+00  0.00000000000E+00  0.75977535519E+03  0.19560956153E+04  0.18025125425E+04 0.  0.
        4    1    3    3  502    0  0.36689390159E+03  0.62017422420E+03  0.96733756933E+03  0.12062216999E+04  0.12699999809E+01 0.  1.
       -4    1    3    3    0  502 -0.36689390159E+03 -0.62017422420E+03 -0.20756221414E+03  0.74987391542E+03  0.12699999809E+01 0. -1.
</event>
<event>
 5   0  0.1550164E-06  0.3384285E+04  0.7818609E-02  0.8141774E-01
       -1   -1    0    0    0  501  0.00000000000E+00  0.00000000000E+00  0.27743194135E+04  0.27743194135E+04  0.50400001928E-02 0.  1.
        1   -1    0    0  501    0  0.00000000000E+00  0.00000000000E+00 -0.10320897755E+04  0.10320897755E+04  0.50400001928E-02 0. -1.
    10030    2    1    2    0    0  0.00000000000E+00  0.00000000000E+00  0.17422296381E+04  0.38064091890E+04  0.33842852720E+04 0.  0.
        4    1    3    3  502    0  0.11450647914E+04  0.26943629947E+02  0.22720460156E+04  0.25444241089E+04  0.12699999809E+01 0.  1.
       -4    1    3    3    0  502 -0.11450647914E+04 -0.26943629947E+02 -0.52981637756E+03  0.12619850802E+04  0.12699999809E+01 0. -1.
</event>
<event>
 5   0  0.1571391E-06  0.3330048E+04  0.7818609E-02  0.8155292E-01
        1   -1    0    0  501    0  0.00000000000E+00  0.00000000000E+00  0.17021631037E+04  0.17021631037E+04  0.50400001928E-02 0.  1.
       -1   -1    0    0    0  501  0.00000000000E+00  0.00000000000E+00 -0.16286948356E+04  0.16286948356E+04  0.50400001928E-02 0. -1.
    10030    2    1    2    0    0  0.00000000000E+00  0.00000000000E+00  0.73468268107E+02  0.33308579394E+04  0.33300476012E+04 0.  0.
        1    1    3    3  502    0 -0.91042464578E+03 -0.10263244380E+04 -0.90694092266E+03  0.16446144608E+04  0.50400001928E-02 0. -1.
       -1    1    3    3    0  502  0.91042464578E+03  0.10263244380E+04  0.98040919077E+03  0.16862434786E+04  0.50400001928E-02 0.  1.
</event>
<event>
 5   0  0.1562618E-06  0.3358353E+04  0.7818609E-02  0.8148204E-01
       -1   -1    0    0    0  501  0.00000000000E+00  0.00000000000E+00  0.15700506486E+04  0.15700506486E+04  0.50400001928E-02 0.  1.
        1   -1    0    0  501    0  0.00000000000E+00  0.00000000000E+00 -0.17958872781E+04  0.17958872781E+04  0.50400001928E-02 0. -1.
    10030    2    1    2    0    0  0.00000000000E+00  0.00000000000E+00 -0.22583662951E+03  0.33659379267E+04  0.33583531594E+04 0.  0.
        2    1    3    3  502    0  0.10150737097E+04 -0.60955145865E+02  0.12263419852E+04  0.15931116817E+04  0.25500000920E-02 0.  1.
       -2    1    3    3    0  502 -0.10150737097E+04  0.60955145865E+02 -0.14521786147E+04  0.17728262450E+04  0.25500000920E-02 0. -1.
</event>
<event>
 5   0  0.1654257E-06  0.3369197E+04  0.7818609E-02  0.8145508E-01
       -1   -1    0    0    0  501  0.00000000000E+00  0.00000000000E+00  0.12530081667E+04  0.12530081667E+04  0.50400001928E-02 0.  1.
        1   -1    0    0  501    0  0.00000000000E+00  0.00000000000E+00 -0.22648475122E+04  0.22648475122E+04  0.50400001928E-02 0. -1.
    10030    2    1    2    0    0  0.00000000000E+00  0.00000000000E+00 -0.10118393455E+04  0.35178556789E+04  0.33691971917E+04 0.  0.
        3    1    3    3  502    0 -0.42963331364E+03  0.45515885321E+03  0.11270957818E+04  0.12892242929E+04  0.10100000352E+00 0.  1.
       -3    1    3    3    0  502  0.42963331364E+03 -0.45515885321E+03 -0.21389351273E+04  0.22286313860E+04  0.10100000352E+00 0. -1.
</event>
<event>
 5   0  0.4400349E-06  0.3416161E+04  0.7818609E-02  0.8133951E-01
        2   -1    0    0  501    0  0.00000000000E+00  0.00000000000E+00  0.24673821403E+04  0.24673821403E+04  0.25500000920E-02 0.  1.
       -2   -1    0    0    0  501  0.00000000000E+00  0.00000000000E+00 -0.11824430344E+04  0.11824430344E+04  0.25500000920E-02 0. -1.
    10030    2    1    2    0    0  0.00000000000E+00  0.00000000000E+00  0.12849391059E+04  0.36498251746E+04  0.34161609007E+04 0.  0.
        5    1    3    3  502    0  0.99149630478E+02  0.69164337898E+03 -0.10227661253E+04  0.12386580844E+04  0.46999998093E+01 0. -1.
       -5    1    3    3    0  502 -0.99149630478E+02 -0.69164337898E+03  0.23077052312E+04  0.24111670903E+04  0.46999998093E+01 0.  1.
</event>
<event>
 5   0  0.4173467E-06  0.3273171E+04  0.7818609E-02  0.8169756E-01
        2   -1    0    0  501    0  0.00000000000E+00  0.00000000000E+00  0.17387944316E+04  0.17387944316E+04  0.25500000920E-02 0. -1.
       -2   -1    0    0    0  501  0.00000000000E+00  0.00000000000E+00 -0.15403843158E+04  0.15403843158E+04  0.25500000920E-02 0.  1.
    10030    2    1    2    0    0  0.00000000000E+00  0.00000000000E+00  0.19841011584E+03  0.32791787474E+04  0.32731707385E+04 0.  0.
        4    1    3    3  502    0  0.10275389152E+04 -0.56414253620E+03 -0.10449582433E+04  0.15703605848E+04  0.12699999809E+01 0.  1.
       -4    1    3    3    0  502 -0.10275389152E+04  0.56414253620E+03  0.12433683591E+04  0.17088181626E+04  0.12699999809E+01 0. -1.
</event>
<event>
 5   0  0.4189587E-06  0.3126719E+04  0.7818609E-02  0.8208443E-01
        2   -1    0    0  501    0  0.00000000000E+00  0.00000000000E+00  0.16858586072E+04  0.16858586072E+04  0.25500000920E-02 0.  1.
       -2   -1    0    0    0  501  0.00000000000E+00  0.00000000000E+00 -0.14497611693E+04  0.14497611693E+04  0.25500000920E-02 0. -1.
    10030    2    1    2    0    0  0.00000000000E+00  0.00000000000E+00  0.23609743789E+03  0.31356197766E+04  0.31267186287E+04 0.  0.
        1    1    3    3  502    0  0.32791814008E+03 -0.11411614124E+04 -0.90185814854E+03  0.14910156927E+04  0.50400001928E-02 0. -1.
       -1    1    3    3    0  502 -0.32791814008E+03  0.11411614124E+04  0.11379555864E+04  0.16446040838E+04  0.50400001928E-02 0.  1.
</event>
<event>
 5   0  0.2722449E-06  0.2539316E+04  0.7818609E-02  0.8389111E-01
       -2   -1    0    0    0  501  0.00000000000E+00  0.00000000000E+00  0.91173108981E+03  0.91173108981E+03  0.25500000920E-02 0. -1.
        2   -1    0    0  501    0  0.00000000000E+00  0.00000000000E+00 -0.17680998971E+04  0.17680998971E+04  0.25500000920E-02 0.  1.
    10030    2    1    2    0    0  0.00000000000E+00  0.00000000000E+00 -0.85636880732E+03  0.26798309869E+04  0.25393161647E+04 0.  0.
        2    1    3    3  502    0 -0.12491280379E+04 -0.21475695817E+03 -0.34927916179E+03  0.13147004750E+04  0.25500000920E-02 0. -1.
       -2    1    3    3    0  502  0.12491280379E+04  0.21475695817E+03 -0.50708964553E+03  0.13651305120E+04  0.25500000920E-02 0.  1.
</event>
<event>
 5   0  0.1562618E-06  0.3346891E+04  0.7818609E-02  0.8151065E-01
       -1   -1    0    0    0  501  0.00000000000E+00  0.00000000000E+00  0.96637668205E+03  0.96637668206E+03  0.50400001928E-02 0. -1.
        1   -1    0    0  501    0  0.00000000000E+00  0.00000000000E+00 -0.28978551603E+04  0.28978551603E+04  0.50400001928E-02 0.  1.
    10030    2    1    2    0    0  0.00000000000E+00  0.00000000000E+00 -0.19314784782E+04  0.38642318423E+04  0.33468908885E+04 0.  0.
        2    1    3    3  502    0  0.48942451718E+02 -0.92696835019E+03 -0.25733576479E+04  0.27356599331E+04  0.25500000920E-02 0.  1.
       -2    1    3    3    0  502 -0.48942451718E+02  0.92696835019E+03  0.64187916964E+03  0.11285719092E+04  0.25500000920E-02 0. -1.
</event>
<event>
 5   0  0.1562618E-06  0.3324804E+04  0.7818609E-02  0.8156613E-01
       -1   -1    0    0    0  501  0.00000000000E+00  0.00000000000E+00  0.13467558898E+04  0.13467558898E+04  0.50400001928E-02 0. -1.
        1   -1    0    0  501    0  0.00000000000E+00  0.00000000000E+00 -0.20520274121E+04  0.20520274121E+04  0.50400001928E-02 0.  1.
    10030    2    1    2    0    0  0.00000000000E+00  0.00000000000E+00 -0.70527152229E+03  0.33987833018E+04  0.33248037555E+04 0.  0.
        2    1    3    3  502    0  0.86548955338E+03 -0.10517090272E+04 -0.13269517667E+04  0.19015690984E+04  0.25500000920E-02 0.  1.
       -2    1    3    3    0  502 -0.86548955338E+03  0.10517090272E+04  0.62168024438E+03  0.14972142035E+04  0.25500000920E-02 0. -1.
</event>
<event>
 5   0  0.1550164E-06  0.2979821E+04  0.7818609E-02  0.8249517E-01
       -1   -1    0    0    0  501  0.00000000000E+00  0.00000000000E+00  0.11871422047E+04  0.11871422047E+04  0.50400001928E-02 0. -1.
        1   -1    0    0  501    0  0.00000000000E+00  0.00000000000E+00 -0.18698969539E+04  0.18698969540E+04  0.50400001928E-02 0.  1.
    10030    2    1    2    0    0  0.00000000000E+00  0.00000000000E+00 -0.68275474926E+03  0.30570391587E+04  0.29798211976E+04 0.  0.
        4    1    3    3  502    0  0.90359514950E+03  0.38660302612E+03  0.80741039526E+03  0.12719509634E+04  0.12699999809E+01 0. -1.
       -4    1    3    3    0  502 -0.90359514950E+03 -0.38660302612E+03 -0.14901651445E+04  0.17850881953E+04  0.12699999809E+01 0.  1.
</event>
<event>
 5   0  0.1562618E-06  0.3370613E+04  0.7818609E-02  0.8145157E-01
       -1   -1    0    0    0  501  0.00000000000E+00  0.00000000000E+00  0.15513104091E+04  0.15513104092E+04  0.50400001928E-02 0.  1.
        1   -1    0    0  501    0  0.00000000000E+00  0.00000000000E+00 -0.18308768996E+04  0.18308768996E+04  0.50400001928E-02 0. -1.
    10030    2    1    2    0    0  0.00000000000E+00  0.00000000000E+00 -0.27956649049E+03  0.33821873088E+04  0.33706132334E+04 0.  0.
        2    1    3    3  502    0  0.18845307756E+03  0.76841872120E+03 -0.16329374424E+04  0.18145155233E+04  0.25500000920E-02 0. -1.
       -2    1    3    3    0  502 -0.18845307756E+03 -0.76841872120E+03  0.13533709519E+04  0.15676717855E+04  0.25500000920E-02 0.  1.
</event>
<event>
 5   0  0.4400349E-06  0.2936064E+04  0.7818609E-02  0.8262227E-01
       -2   -1    0    0    0  501  0.00000000000E+00  0.00000000000E+00  0.10707828750E+04  0.10707828750E+04  0.25500000920E-02 0. -1.
        2   -1    0    0  501    0  0.00000000000E+00  0.00000000000E+00 -0.20126568647E+04  0.20126568647E+04  0.25500000920E-02 0.  1.
    10030    2    1    2    0    0  0.00000000000E+00  0.00000000000E+00 -0.94187398967E+03  0.30834397397E+04  0.29360643754E+04 0.  0.
        5    1    3    3  502    0  0.23457414121E+03  0.79842866334E+03  0.79914032472E+03  0.11537593799E+04  0.46999998093E+01 0. -1.
       -5    1    3    3    0  502 -0.23457414121E+03 -0.79842866334E+03 -0.17410143144E+04  0.19296803598E+04  0.46999998093E+01 0.  1.
</event>
<event>
 5   0  0.4189587E-06  0.3192058E+04  0.7818609E-02  0.8190918E-01
       -2   -1    0    0    0  501  0.00000000000E+00  0.00000000000E+00  0.80264898985E+03  0.80264898986E+03  0.25500000920E-02 0.  1.
        2   -1    0    0  501    0  0.00000000000E+00  0.00000000000E+00 -0.31736276717E+04  0.31736276717E+04  0.25500000920E-02 0. -1.
    10030    2    1    2    0    0  0.00000000000E+00  0.00000000000E+00 -0.23709786818E+04  0.39762766615E+04  0.31920582982E+04 0.  0.
        1    1    3    3  502    0  0.31835268322E+03  0.17425648430E+03  0.75056644430E+03  0.83370482820E+03  0.50400001928E-02 0.  1.
       -1    1    3    3    0  502 -0.31835268322E+03 -0.17425648430E+03 -0.31215451261E+04  0.31425718333E+04  0.50400001928E-02 0. -1.
</event>
<event>
 5   0  0.4189587E-06  0.3274681E+04  0.7818609E-02  0.8169368E-01
       -2   -1    0    0    0  501  0.00000000000E+00  0.00000000000E+00  0.14426227020E+04  0.14426227020E+04  0.25500000920E-02 0. -1.
        2   -1    0    0  501    0  0.00000000000E+00  0.00000000000E+00 -0.18583407501E+04  0.18583407501E+04  0.25500000920E-02 0.  1.
    10030    2    1    2    0    0  0.00000000000E+00  0.00000000000E+00 -0.41571804811E+03  0.33009634521E+04  0.32746813916E+04 0.  0.
        1    1    3    3  502    0  0.11999154987E+04  0.10818907749E+04 -0.47569758090E+03  0.16842128848E+04  0.50400001928E-02 0.  1.
       -1    1    3    3    0  502 -0.11999154987E+04 -0.10818907749E+04  0.59979532791E+02  0.16167505674E+04  0.50400001928E-02 0. -1.
</event>
<event>
 5   0  0.4189587E-06  0.3169899E+04  0.7818609E-02  0.8196812E-01
        2   -1    0    0  501    0  0.00000000000E+00  0.00000000000E+00  0.19702778313E+04  0.19702778313E+04  0.25500000920E-02 0. -1.
       -2   -1    0    0    0  501  0.00000000000E+00  0.00000000000E+00 -0.12749796801E+04  0.12749796801E+04  0.25500000920E-02 0.  1.
    10030    2    1    2    0    0  0.00000000000E+00  0.00000000000E+00  0.69529815127E+03  0.32452575114E+04  0.31698985467E+04 0.  0.
        1    1    3    3  502    0 -0.73348421322E+03 -0.12279890268E+04 -0.35130252949E+03  0.14728780018E+04  0.50400001928E-02 0.  1.
       -1    1    3    3    0  502  0.73348421322E+03  0.12279890268E+04  0.10466006808E+04  0.17723795096E+04  0.50400001928E-02 0. -1.
</event>
<event>
 5   0  0.1550164E-06  0.2287684E+04  0.7818609E-02  0.8482793E-01
        1   -1    0    0  501    0  0.00000000000E+00  0.00000000000E+00  0.11956453934E+04  0.11956453934E+04  0.50400001928E-02 0. -1.
       -1   -1    0    0    0  501  0.00000000000E+00  0.00000000000E+00 -0.10942830654E+04  0.10942830654E+04  0.50400001928E-02 0.  1.
    10030    2    1    2    0    0  0.00000000000E+00  0.00000000000E+00  0.10136232802E+03  0.22899284589E+04  0.22876839872E+04 0.  0.
        4    1    3    3  502    0 -0.48313801742E+03 -0.10302887565E+04 -0.65431038206E+02  0.11398245915E+04  0.12699999809E+01 0.  1.
       -4    1    3    3    0  502  0.48313801742E+03  0.10302887565E+04  0.16679336623E+03  0.11501038673E+04  0.12699999809E+01 0. -1.
</event>
<event>
 5   0  0.2722449E-06  0.3413713E+04  0.7818609E-02  0.8134549E-01
        2   -1    0    0  501    0  0.00000000000E+00  0.00000000000E+00  0.21712977593E+04  0.21712977593E+04  0.25500000920E-02 0. -1.
       -2   -1    0    0    0  501  0.00000000000E+00  0.00000000000E+00 -0.13417596256E+04  0.13417596256E+04  0.25500000920E-02 0.  1.
    10030    2    1    2    0    0  0.00000000000E+00  0.00000000000E+00  0.82953813369E+03  0.35130573849E+04  0.34137133263E+04 0.  0.
        2    1    3    3  502    0  0.43675385515E+03 -0.15785059285E+04 -0.79761862054E+02  0.16397551192E+04  0.25500000920E-02 0. -1.
       -2    1    3    3    0  502 -0.43675385515E+03  0.15785059285E+04  0.90929999574E+03  0.18733022657E+04  0.25500000920E-02 0.  1.
</event>
<event>
 5   0  0.2722449E-06  0.2421501E+04  0.7818609E-02  0.8431498E-01
       -2   -1    0    0    0  501  0.00000000000E+00  0.00000000000E+00  0.77273847889E+03  0.77273847889E+03  0.25500000920E-02 0.  1.
        2   -1    0    0  501    0  0.00000000000E+00  0.00000000000E+00 -0.18970410413E+04  0.18970410413E+04  0.25500000920E-02 0. -1.
    10030    2    1    2    0    0  0.00000000000E+00  0.00000000000E+00 -0.11243025624E+04  0.26697795202E+04  0.24215008641E+04 0.  0.
        2    1    3    3  502    0  0.96413344909E+03  0.46268027888E+03  0.63762277842E+02  0.10713038673E+04  0.25500000920E-02 0.  1.
       -2    1    3    3    0  502 -0.96413344909E+03 -0.46268027888E+03 -0.11880648403E+04  0.15984756529E+04  0.25500000920E-02 0. -1.
</event>
<event>
 5   0  0.1550164E-06  0.2383048E+04  0.7818609E-02  0.8445877E-01
        1   -1    0    0  501    0  0.00000000000E+00  0.00000000000E+00  0.16555298030E+04  0.16555298030E+04  0.50400001928E-02 0. -1.
       -1   -1    0    0    0  501  0.00000000000E+00  0.00000000000E+00 -0.85756814404E+03  0.85756814405E+03  0.50400001928E-02 0.  1.
    10030    2    1    2    0    0  0.00000000000E+00  0.00000000000E+00  0.79796165897E+03  0.25130979471E+04  0.23830481494E+04 0.  0.
        4    1    3    3  502    0 -0.33370143184E+03  0.10821035866E+04  0.80439782272E+01  0.11324182691E+04  0.12699999809E+01 0. -1.
       -4    1    3    3    0  502  0.33370143184E+03 -0.10821035866E+04  0.78991768074E+03  0.13806796779E+04  0.12699999809E+01 0.  1.
</event>
<event>
 5   0  0.1562618E-06  0.3043028E+04  0.7818609E-02  0.8231550E-01
       -1   -1    0    0    0  501  0.00000000000E+00  0.00000000000E+00  0.10996257577E+04  0.10996257577E+04  0.50400001928E-02 0.  1.
        1   -1    0    0  501    0  0.00000000000E+00  0.00000000000E+00 -0.21052666930E+04  0.21052666930E+04  0.50400001928E-02 0. -1.
    10030    2    1    2    0    0  0.00000000000E+00  0.00000000000E+00 -0.10056409354E+04  0.32048924507E+04  0.30430284142E+04 0.  0.
        2    1    3    3  502    0 -0.12646014214E+04  0.78904727963E+03 -0.18130684894E+03  0.15015607007E+04  0.25500000920E-02 0. -1.
       -2    1    3    3    0  502  0.12646014214E+04 -0.78904727963E+03 -0.82433408642E+03  0.17033317500E+04  0.25500000920E-02 0.  1.
</event>
<event>
 5   0  0.2101998E-06  0.3109522E+04  0.7818609E-02  0.8213130E-01
       -1   -1    0    0    0  501  0.00000000000E+00  0.00000000000E+00  0.15640264399E+04  0.15640264399E+04  0.50400001928E-02 0.  1.
        1   -1    0    0  501    0  0.00000000000E+00  0.00000000000E+00 -0.15455503387E+04  0.15455503387E+04  0.50400001928E-02 0. -1.
    10030    2    1    2    0    0  0.00000000000E+00  0.00000000000E+00  0.18476101224E+02  0.31095767786E+04  0.31095218886E+04 0.  0.
        5    1    3    3  502    0  0.76646675452E+03  0.23783264864E+03 -0.13224099707E+04  0.15468761667E+04  0.46999998093E+01 0. -1.
       -5    1    3    3    0  502 -0.76646675452E+03 -0.23783264864E+03  0.13408860719E+04  0.15627006119E+04  0.46999998093E+01 0.  1.
</event>
<event>
 5   0  0.2722449E-06  0.2180288E+04  0.7818609E-02  0.8526678E-01
       -2   -1    0    0    0  501  0.00000000000E+00  0.00000000000E+00  0.12502795860E+04  0.12502795860E+04  0.25500000920E-02 0.  1.
        2   -1    0    0  501    0  0.00000000000E+00  0.00000000000E+00 -0.95051850716E+03  0.95051850717E+03  0.25500000920E-02 0. -1.
    10030    2    1    2    0    0  0.00000000000E+00  0.00000000000E+00  0.29976107887E+03  0.22007980932E+04  0.21802879495E+04 0.  0.
        2    1    3    3  502    0  0.61943583674E+02 -0.48310161272E+03 -0.83458363947E+03  0.96630948823E+03  0.25500000920E-02 0. -1.
       -2    1    3    3    0  502 -0.61943583674E+02  0.48310161272E+03  0.11343447183E+04  0.12344886050E+04  0.25500000920E-02 0.  1.
</event>
<event>
 5   0  0.1654257E-06  0.3342480E+04  0.7818609E-02  0.8152170E-01
       -1   -1    0    0    0  501  0.00000000000E+00  0.00000000000E+00  0.13346650324E+04  0.13346650324E+04  0.50400001928E-02 0.  1.
        1   -1    0    0  501    0  0.00000000000E+00  0.00000000000E+00 -0.20926924358E+04  0.20926924358E+04  0.50400001928E-02 0. -1.
    10030    2    1    2    0    0  0.00000000000E+00  0.00000000000E+00 -0.75802740343E+03  0.34273574682E+04  0.33424801676E+04 0.  0.
        3    1    3    3  502    0 -0.50233689212E+03 -0.41954025405E+03 -0.19558165603E+04  0.20624196483E+04  0.10100000352E+00 0. -1.
       -3    1    3    3    0  502  0.50233689212E+03  0.41954025405E+03  0.11977891568E+04  0.13649378200E+04  0.10100000352E+00 0.  1.
</event>
<event>
 5   0  0.4189587E-06  0.3083573E+04  0.7818609E-02  0.8220261E-01
        2   -1    0    0  501    0  0.00000000000E+00  0.00000000000E+00  0.13812022617E+04  0.13812022617E+04  0.25500000920E-02 0. -1.
       -2   -1    0    0    0  501  0.00000000000E+00  0.00000000000E+00 -0.17210411421E+04  0.17210411421E+04  0.25500000920E-02 0.  1.
    10030    2    1    2    0    0  0.00000000000E+00  0.00000000000E+00 -0.33983888042E+03  0.31022434038E+04  0.30835731987E+04 0.  0.
        1    1    3    3  502    0  0.79368593190E+03  0.10671496022E+04 -0.95461651786E+03  0.16370822606E+04  0.50400001928E-02 0.  1.
       -1    1    3    3    0  502 -0.79368593190E+03 -0.10671496022E+04  0.61477763744E+03  0.14651611432E+04  0.50400001928E-02 0. -1.
</event>
<event>
 5   0  0.2101998E-06  0.3455798E+04  0.7818609E-02  0.8124346E-01
       -1   -1    0    0    0  501  0.00000000000E+00  0.00000000000E+00  0.13767071781E+04  0.13767071781E+04  0.50400001928E-02 0.  1.
        1   -1    0    0  501    0  0.00000000000E+00  0.00000000000E+00 -0.21686782960E+04  0.21686782960E+04  0.50400001928E-02 0. -1.
    10030    2    1    2    0    0  0.00000000000E+00  0.00000000000E+00 -0.79197111789E+03  0.35453854742E+04  0.34557980133E+04 0.  0.
        5    1    3    3  502    0 -0.13701428999E+04  0.10008816712E+04 -0.73087890071E+03  0.18475014867E+04  0.46999998093E+01 0. -1.
       -5    1    3    3    0  502  0.13701428999E+04 -0.10008816712E+04 -0.61092217177E+02  0.16978839875E+04  0.46999998093E+01 0.  1.
</event>
<event>
 5   0  0.1571391E-06  0.3409058E+04  0.7818609E-02  0.8135687E-01
        1   -1    0    0  501    0  0.00000000000E+00  0.00000000000E+00  0.21801524463E+04  0.21801524463E+04  0.50400001928E-02 0.  1.
       -1   -1    0    0    0  501  0.00000000000E+00  0.00000000000E+00 -0.13326675227E+04  0.13326675227E+04  0.50400001928E-02 0. -1.
    10030    2    1    2    0    0  0.00000000000E+00  0.00000000000E+00  0.84748492359E+03  0.35128199691E+04  0.34090575588E+04 0.  0.
        1    1    3    3  502    0 -0.14326578137E+04 -0.43158461607E+03 -0.41759216565E+03  0.15534339087E+04  0.50400001928E-02 0. -1.
       -1    1    3    3    0  502  0.14326578137E+04  0.43158461607E+03  0.12650770892E+04  0.19593860604E+04  0.50400001928E-02 0.  1.
</event>
<event>
 5   0  0.1571391E-06  0.3501346E+04  0.7818609E-02  0.8113471E-01
       -1   -1    0    0    0  501  0.00000000000E+00  0.00000000000E+00  0.17756408245E+04  0.17756408245E+04  0.50400001928E-02 0. -1.
        1   -1    0    0  501    0  0.00000000000E+00  0.00000000000E+00 -0.17260558452E+04  0.17260558452E+04  0.50400001928E-02 0.  1.
    10030    2    1    2    0    0  0.00000000000E+00  0.00000000000E+00  0.49584979223E+02  0.35016966697E+04  0.35013455837E+04 0.  0.
        1    1    3    3  502    0 -0.10855729587E+04  0.13045028291E+04  0.45455518969E+03  0.17569338918E+04  0.50400001928E-02 0. -1.
       -1    1    3    3    0  502  0.10855729587E+04 -0.13045028291E+04 -0.40497021047E+03  0.17447627779E+04  0.50400001928E-02 0.  1.
</event>
<event>
 5   0  0.2101998E-06  0.3245117E+04  0.7818609E-02  0.8177003E-01
        1   -1    0    0  501    0  0.00000000000E+00  0.00000000000E+00  0.20703350641E+04  0.20703350641E+04  0.50400001928E-02 0. -1.
       -1   -1    0    0    0  501  0.00000000000E+00  0.00000000000E+00 -0.12716278061E+04  0.12716278061E+04  0.50400001928E-02 0.  1.
    10030    2    1    2    0    0  0.00000000000E+00  0.00000000000E+00  0.79870725799E+03  0.33419628702E+04  0.32451167223E+04 0.  0.
        5    1    3    3  502    0 -0.12113418483E+04 -0.10599501332E+04  0.18872558193E+03  0.16206427101E+04  0.46999998093E+01 0.  1.
       -5    1    3    3    0  502  0.12113418483E+04  0.10599501332E+04  0.60998167606E+03  0.17213201601E+04  0.46999998093E+01 0. -1.
</event>
<event>
 5   0  0.2722449E-06  0.3485750E+04  0.7818609E-02  0.8117175E-01
       -2   -1    0    0    0  501  0.00000000000E+00  0.00000000000E+00  0.23143501411E+04  0.23143501411E+04  0.25500000920E-02 0. -1.
        2   -1    0    0  501    0  0.00000000000E+00  0.00000000000E+00 -0.13125123631E+04  0.13125123631E+04  0.25500000920E-02 0.  1.
    10030    2    1    2    0    0  0.00000000000E+00  0.00000000000E+00  0.10018377779E+04  0.36268625042E+04  0.34857499467E+04 0.  0.
        2    1    3    3  502    0  0.28636946617E+03 -0.38681316578E+03 -0.12420002809E+04  0.13319897124E+04  0.25500000920E-02 0.  1.
       -2    1    3    3    0  502 -0.28636946617E+03  0.38681316578E+03  0.22438380588E+04  0.22948727918E+04  0.25500000920E-02 0. -1.
</event>
<event>
 5   0  0.4189587E-06  0.3166096E+04  0.7818609E-02  0.8197829E-01
       -2   -1    0    0    0  501  0.00000000000E+00  0.00000000000E+00  0.10820604924E+04  0.10820604924E+04  0.25500000920E-02 0. -1.
        2   -1    0    0  501    0  0.00000000000E+00  0.00000000000E+00 -0.23159901526E+04  0.23159901526E+04  0.25500000920E-02 0.  1.
    10030    2    1    2    0    0  0.00000000000E+00  0.00000000000E+00 -0.12339296602E+04  0.33980506451E+04  0.31660962999E+04 0.  0.
        1    1    3    3  502    0 -0.73127775962E+03 -0.11629049300E+04  0.22739046940E+03  0.13924156935E+04  0.50400001928E-02 0.  1.
       -1    1    3    3    0  502  0.73127775962E+03  0.11629049300E+04 -0.14613201296E+04  0.20056349516E+04  0.50400001928E-02 0. -1.
</event>
<event>
 5   0  0.2722449E-06  0.2630119E+04  0.7818609E-02  0.8358042E-01
        2   -1    0    0  501    0  0.00000000000E+00  0.00000000000E+00  0.78686471214E+03  0.78686471215E+03  0.25500000920E-02 0. -1.
       -2   -1    0    0    0  501  0.00000000000E+00  0.00000000000E+00 -0.21978121996E+04  0.21978121996E+04  0.25500000920E-02 0.  1.
    10030    2    1    2    0    0  0.00000000000E+00  0.00000000000E+00 -0.14109474874E+04  0.29846769117E+04  0.26301185249E+04 0.  0.
        2    1    3    3  502    0 -0.84345656525E+03 -0.40259040422E+03 -0.17553283756E+04  0.19886366479E+04  0.25500000920E-02 0.  1.
       -2    1    3    3    0  502  0.84345656525E+03  0.40259040422E+03  0.34438088819E+03  0.99604026384E+03  0.25500000920E-02 0. -1.
</event>
<event>
 5   0  0.4189587E-06  0.1673774E+04  0.7818609E-02  0.8776465E-01
        2   -1    0    0  501    0  0.00000000000E+00  0.00000000000E+00  0.17704005316E+04  0.17704005316E+04  0.25500000920E-02 0. -1.
       -2   -1    0    0    0  501  0.00000000000E+00  0.00000000000E+00 -0.39560519289E+03  0.39560519290E+03  0.25500000920E-02 0.  1.
    10030    2    1    2    0    0  0.00000000000E+00  0.00000000000E+00  0.13747953387E+04  0.21660057245E+04  0.16737737527E+04 0.  0.
        1    1    3    3  502    0 -0.30711469626E+03 -0.28491561597E+03 -0.25015186843E+03  0.48792653360E+03  0.50400001928E-02 0.  1.
       -1    1    3    3    0  502  0.30711469626E+03  0.28491561597E+03  0.16249472071E+04  0.16780791909E+04  0.50400001928E-02 0. -1.
</event>
<event>
 5   0  0.4344980E-06  0.3359488E+04  0.7818609E-02  0.8147921E-01
       -2   -1    0    0    0  501  0.00000000000E+00  0.00000000000E+00  0.21056897863E+04  0.21056897863E+04  0.25500000920E-02 0. -1.
        2   -1    0    0  501    0  0.00000000000E+00  0.00000000000E+00 -0.13399599970E+04  0.13399599970E+04  0.25500000920E-02 0.  1.
    10030    2    1    2    0    0  0.00000000000E+00  0.00000000000E+00  0.76572978930E+03  0.34456497833E+04  0.33594881037E+04 0.  0.
        3    1    3    3  502    0  0.23617522697E+03  0.30818956856E+03 -0.12933014878E+04  0.13503289586E+04  0.10100000352E+00 0.  1.
       -3    1    3    3    0  502 -0.23617522697E+03 -0.30818956856E+03  0.20590312771E+04  0.20953208246E+04  0.10100000352E+00 0. -1.
</event>
<event>
 5   0  0.4189587E-06  0.3469219E+04  0.7818609E-02  0.8121124E-01
       -2   -1    0    0    0  501  0.00000000000E+00  0.00000000000E+00  0.17517925134E+04  0.17517925134E+04  0.25500000920E-02 0. -1.
        2   -1    0    0  501    0  0.00000000000E+00  0.00000000000E+00 -0.17175949170E+04  0.17175949170E+04  0.25500000920E-02 0.  1.
    10030    2    1    2    0    0  0.00000000000E+00  0.00000000000E+00  0.34197596336E+02  0.34693874304E+04  0.34692188842E+04 0.  0.
        1    1    3    3  502    0 -0.15990632589E+04 -0.46470037205E+03 -0.46864094592E+03  0.17299058003E+04  0.50400001928E-02 0. -1.
       -1    1    3    3    0  502  0.15990632589E+04  0.46470037205E+03  0.50283854225E+03  0.17394816301E+04  0.50400001928E-02 0.  1.
</event>
<event>
 5   0  0.1571391E-06  0.3419619E+04  0.7818609E-02  0.8133108E-01
        1   -1    0    0  501    0  0.00000000000E+00  0.00000000000E+00  0.18866356393E+04  0.18866356393E+04  0.50400001928E-02 0.  1.
       -1   -1    0    0    0  501  0.00000000000E+00  0.00000000000E+00 -0.15495567952E+04  0.15495567952E+04  0.50400001928E-02 0. -1.
    10030    2    1    2    0    0  0.00000000000E+00  0.00000000000E+00  0.33707884405E+03  0.34361924345E+04  0.34196193209E+04 0.  0.
        1    1    3    3  502    0 -0.14780935261E+04 -0.63118298247E+03  0.75471611890E+03  0.17755981666E+04  0.50400001928E-02 0.  1.
       -1    1    3    3    0  502  0.14780935261E+04  0.63118298247E+03 -0.41763727486E+03  0.16605942679E+04  0.50400001928E-02 0. -1.
</event>
<event>
 5   0  0.1654257E-06  0.3401834E+04  0.7818609E-02  0.8137456E-01
        1   -1    0    0  501    0  0.00000000000E+00  0.00000000000E+00  0.18036613003E+04  0.18036613003E+04  0.50400001928E-02 0. -1.
       -1   -1    0    0    0  501  0.00000000000E+00  0.00000000000E+00 -0.16040257714E+04  0.16040257714E+04  0.50400001928E-02 0.  1.
    10030    2    1    2    0    0  0.00000000000E+00  0.00000000000E+00  0.19963552896E+03  0.34076870717E+04  0.34018343338E+04 0.  0.
        3    1    3    3  502    0  0.10331023257E+03  0.11186323730E+04 -0.11795278359E+04  0.16288945073E+04  0.10100000352E+00 0.  1.
       -3    1    3    3    0  502 -0.10331023257E+03 -0.11186323730E+04  0.13791633648E+04  0.17787925644E+04  0.10100000352E+00 0. -1.
</event>
<event>
 5   0  0.2101998E-06  0.3455588E+04  0.7818609E-02  0.8124396E-01
       -1   -1    0    0    0  501  0.00000000000E+00  0.00000000000E+00  0.96168530367E+03  0.96168530369E+03  0.50400001928E-02 0.  1.
        1   -1    0    0  501    0  0.00000000000E+00  0.00000000000E+00 -0.31042088531E+04  0.31042088531E+04  0.50400001928E-02 0. -1.
    10030    2    1    2    0    0  0.00000000000E+00  0.00000000000E+00 -0.21425235494E+04  0.40658941568E+04  0.34555879579E+04 0.  0.
        5    1    3    3  502    0  0.16187894053E+03 -0.15637564258E+03  0.94435501664E+03  0.97081750110E+03  0.46999998093E+01 0.  1.
       -5    1    3    3    0  502 -0.16187894053E+03  0.15637564258E+03 -0.30868785661E+04  0.30950766557E+04  0.46999998093E+01 0. -1.
</event>
<event>
 5   0  0.1654257E-06  0.3225800E+04  0.7818609E-02  0.8182037E-01
       -1   -1    0    0    0  501  0.00000000000E+00  0.00000000000E+00  0.13980239795E+04  0.13980239795E+04  0.50400001928E-02 0. -1.
        1   -1    0    0  501    0  0.00000000000E+00  0.00000000000E+00 -0.18608024296E+04  0.18608024296E+04  0.50400001928E-02 0.  1.
    10030    2    1    2    0    0  0.00000000000E+00  0.00000000000E+00 -0.46277845005E+03  0.32588264091E+04  0.32258000048E+04 0.  0.
        3    1    3    3  502    0  0.63746365509E+03  0.14811070981E+04 -0.26930022239E+03  0.16347968582E+04  0.10100000352E+00 0.  1.
       -3    1    3    3    0  502 -0.63746365509E+03 -0.14811070981E+04 -0.19347822767E+03  0.16240295509E+04  0.10100000352E+00 0. -1.
</event>
<event>
 5   0  0.2722449E-06  0.3444644E+04  0.7818609E-02  0.8127035E-01
        2   -1    0    0  501    0  0.00000000000E+00  0.00000000000E+00  0.19551878398E+04  0.19551878398E+04  0.25500000920E-02 0.  1.
       -2   -1    0    0    0  501  0.00000000000E+00  0.00000000000E+00 -0.15171910034E+04  0.15171910034E+04  0.25500000920E-02 0. -1.
    10030    2    1    2    0    0  0.00000000000E+00  0.00000000000E+00  0.43799683640E+03  0.34723788432E+04  0.34446441910E+04 0.  0.
        2    1    3    3  502    0 -0.27597108531E+03  0.16784136675E+04 -0.53662137901E+02  0.17017967282E+04  0.25500000920E-02 0. -1.
       -2    1    3    3    0  502  0.27597108531E+03 -0.16784136675E+04  0.49165897430E+03  0.17705821150E+04  0.25500000920E-02 0.  1.
</event>
<event>
 5   0  0.4189587E-06  0.3114472E+04  0.7818609E-02  0.8211778E-01
       -2   -1    0    0    0  501  0.00000000000E+00  0.00000000000E+00  0.10097706530E+04  0.10097706530E+04  0.25500000920E-02 0. -1.
        2   -1    0    0  501    0  0.00000000000E+00  0.00000000000E+00 -0.24015189105E+04  0.24015189105E+04  0.25500000920E-02 0.  1.
    10030    2    1    2    0    0  0.00000000000E+00  0.00000000000E+00 -0.13917482575E+04  0.34112895635E+04  0.31144715882E+04 0.  0.
        1    1    3    3  502    0  0.15076317355E+04  0.37272407707E+03 -0.82126899271E+03  0.17568037585E+04  0.50400001928E-02 0.  1.
       -1    1    3    3    0  502 -0.15076317355E+04 -0.37272407707E+03 -0.57047926476E+03  0.16544858050E+04  0.50400001928E-02 0. -1.
</event>
<event>
 5   0  0.1654257E-06  0.2041549E+04  0.7818609E-02  0.8587438E-01
       -1   -1    0    0    0  501  0.00000000000E+00  0.00000000000E+00  0.71419135121E+03  0.71419135123E+03  0.50400001928E-02 0.  1.
        1   -1    0    0  501    0  0.00000000000E+00  0.00000000000E+00 -0.14589655607E+04  0.14589655607E+04  0.50400001928E-02 0. -1.
    10030    2    1    2    0    0  0.00000000000E+00  0.00000000000E+00 -0.74477420946E+03  0.21731569119E+04  0.20415490052E+04 0.  0.
        3    1    3    3  502    0 -0.66483013374E+03 -0.27307331650E+01 -0.11969000824E+04  0.13691517012E+04  0.10100000352E+00 0. -1.
       -3    1    3    3    0  502  0.66483013374E+03  0.27307331650E+01  0.45212587290E+03  0.80400521067E+03  0.10100000352E+00 0.  1.
</event>
<event>
 5   0  0.1562618E-06  0.3443361E+04  0.7818609E-02  0.8127345E-01
        1   -1    0    0  501    0  0.00000000000E+00  0.00000000000E+00  0.22561271492E+04  0.22561271492E+04  0.50400001928E-02 0. -1.
       -1   -1    0    0    0  501  0.00000000000E+00  0.00000000000E+00 -0.13138373936E+04  0.13138373936E+04  0.50400001928E-02 0.  1.
    10030    2    1    2    0    0  0.00000000000E+00  0.00000000000E+00  0.94228975556E+03  0.35699645428E+04  0.34433612726E+04 0.  0.
        2    1    3    3  502    0 -0.46622274420E+03  0.11176349960E+04  0.17399518344E+04  0.21198830198E+04  0.25500000920E-02 0. -1.
       -2    1    3    3    0  502  0.46622274420E+03 -0.11176349960E+04 -0.79766207882E+03  0.14500815230E+04  0.25500000920E-02 0.  1.
</event>
<event>
 5   0  0.2722449E-06  0.3323957E+04  0.7818609E-02  0.8156826E-01
        2   -1    0    0  501    0  0.00000000000E+00  0.00000000000E+00  0.17355422028E+04  0.17355422028E+04  0.25500000920E-02 0. -1.
       -2   -1    0    0    0  501  0.00000000000E+00  0.00000000000E+00 -0.15915326290E+04  0.15915326290E+04  0.25500000920E-02 0.  1.
    10030    2    1    2    0    0  0.00000000000E+00  0.00000000000E+00  0.14400957385E+03  0.33270748318E+04  0.33239567053E+04 0.  0.
        2    1    3    3  502    0 -0.12346023362E+04 -0.87254561968E+03 -0.61900016183E+03  0.16336278607E+04  0.25500000920E-02 0.  1.
       -2    1    3    3    0  502  0.12346023362E+04  0.87254561968E+03  0.76300973568E+03  0.16934469711E+04  0.25500000920E-02 0. -1.
</event>
<event>
 5   0  0.1562618E-06  0.3423259E+04  0.7818609E-02  0.8132221E-01
       -1   -1    0    0    0  501  0.00000000000E+00  0.00000000000E+00  0.18447118731E+04  0.18447118731E+04  0.50400001928E-02 0. -1.
        1   -1    0    0  501    0  0.00000000000E+00  0.00000000000E+00 -0.15881478559E+04  0.15881478559E+04  0.50400001928E-02 0.  1.
    10030    2    1    2    0    0  0.00000000000E+00  0.00000000000E+00  0.25656401720E+03  0.34328597291E+04  0.34232588019E+04 0.  0.
        2    1    3    3  502    0 -0.42481730568E+03  0.10146511889E+04 -0.11867647917E+04  0.16181463002E+04  0.25500000920E-02 0.  1.
       -2    1    3    3    0  502  0.42481730568E+03 -0.10146511889E+04  0.14433288089E+04  0.18147134288E+04  0.25500000920E-02 0. -1.
</event>
<event>
 5   0  0.1401125E-06  0.3418747E+04  0.7818609E-02  0.8133320E-01
       -3   -1    0    0    0  501  0.00000000000E+00  0.00000000000E+00  0.16425433942E+04  0.16425433973E+04  0.10100000352E+00 0.  1.
        3   -1    0    0  501    0  0.00000000000E+00  0.00000000000E+00 -0.17789227718E+04  0.17789227747E+04  0.10100000352E+00 0. -1.
    10030    2    1    2    0    0  0.00000000000E+00  0.00000000000E+00 -0.13637937763E+03  0.34214661720E+04  0.34187470558E+04 0.  0.
        3    1    3    3  502    0  0.18731591504E+03  0.82926811570E+03 -0.15523341033E+04  0.17698909679E+04  0.10100000352E+00 0. -1.
       -3    1    3    3    0  502 -0.18731591504E+03 -0.82926811570E+03  0.14159547256E+04  0.16515752042E+04  0.10100000352E+00 0.  1.
</event>
<event>
 5   0  0.4173467E-06  0.3026979E+04  0.7818609E-02  0.8236069E-01
       -2   -1    0    0    0  501  0.00000000000E+00  0.00000000000E+00  0.12586694055E+04  0.12586694055E+04  0.25500000920E-02 0. -1.
        2   -1    0    0  501    0  0.00000000000E+00  0.00000000000E+00 -0.18198984636E+04  0.18198984636E+04  0.25500000920E-02 0.  1.
    10030    2    1    2    0    0  0.00000000000E+00  0.00000000000E+00 -0.56122905804E+03  0.30785678691E+04  0.30269790335E+04 0.  0.
        4    1    3    3  502    0 -0.12305666547E+04  0.82061368832E+03 -0.60693763625E+03  0.15987732873E+04  0.12699999809E+01 0. -1.
       -4    1    3    3    0  502  0.12305666547E+04 -0.82061368832E+03  0.45708578208E+02  0.14797945817E+04  0.12699999809E+01 0.  1.
</event>
<event>
 5   0  0.1562618E-06  0.2798279E+04  0.7818609E-02  0.8303803E-01
       -1   -1    0    0    0  501  0.00000000000E+00  0.00000000000E+00  0.10552319373E+04  0.10552319373E+04  0.50400001928E-02 0. -1.
        1   -1    0    0  501    0  0.00000000000E+00  0.00000000000E+00 -0.18551295728E+04  0.18551295728E+04  0.50400001928E-02 0.  1.
    10030    2    1    2    0    0  0.00000000000E+00  0.00000000000E+00 -0.79989763554E+03  0.29103615101E+04  0.27982794521E+04 0.  0.
        2    1    3    3  502    0  0.18619195035E+03  0.67529469646E+03 -0.16596175414E+04  0.18013941138E+04  0.25500000920E-02 0.  1.
       -2    1    3    3    0  502 -0.18619195035E+03 -0.67529469646E+03  0.85971990588E+03  0.11089673963E+04  0.25500000920E-02 0. -1.
</event>
<event>
 5   0  0.1571391E-06  0.3235274E+04  0.7818609E-02  0.8179563E-01
        1   -1    0    0  501    0  0.00000000000E+00  0.00000000000E+00  0.18862762898E+04  0.18862762898E+04  0.50400001928E-02 0. -1.
       -1   -1    0    0    0  501  0.00000000000E+00  0.00000000000E+00 -0.13872571249E+04  0.13872571249E+04  0.50400001928E-02 0.  1.
    10030    2    1    2    0    0  0.00000000000E+00  0.00000000000E+00  0.49901916491E+03  0.32735334147E+04  0.32352744691E+04 0.  0.
        1    1    3    3  502    0 -0.59324462029E+02  0.51267445193E+03 -0.13017202318E+04  0.14002964141E+04  0.50400001928E-02 0.  1.
       -1    1    3    3    0  502  0.59324462029E+02 -0.51267445193E+03  0.18007393967E+04  0.18732370006E+04  0.50400001928E-02 0. -1.
</event>
<event>
 5   0  0.1562618E-06  0.3418323E+04  0.7818609E-02  0.8133424E-01
        1   -1    0    0  501    0  0.00000000000E+00  0.00000000000E+00  0.93793424898E+03  0.93793424900E+03  0.50400001928E-02 0. -1.
       -1   -1    0    0    0  501  0.00000000000E+00  0.00000000000E+00 -0.31145398213E+04  0.31145398213E+04  0.50400001928E-02 0.  1.
    10030    2    1    2    0    0  0.00000000000E+00  0.00000000000E+00 -0.21766055723E+04  0.40524740703E+04  0.34183233131E+04 0.  0.
        2    1    3    3  502    0  0.15645034218E+04  0.26514971051E+03 -0.18411359359E+04  0.24305877603E+04  0.25500000920E-02 0.  1.
       -2    1    3    3    0  502 -0.15645034218E+04 -0.26514971051E+03 -0.33546963641E+03  0.16218863101E+04  0.25500000920E-02 0. -1.
</event>
<event>
 5   0  0.4173467E-06  0.3255592E+04  0.7818609E-02  0.8174288E-01
        2   -1    0    0  501    0  0.00000000000E+00  0.00000000000E+00  0.18495371074E+04  0.18495371074E+04  0.25500000920E-02 0.  1.
       -2   -1    0    0    0  501  0.00000000000E+00  0.00000000000E+00 -0.14326394435E+04  0.14326394435E+04  0.25500000920E-02 0. -1.
    10030    2    1    2    0    0  0.00000000000E+00  0.00000000000E+00  0.41689766387E+03  0.32821765509E+04  0.32555919967E+04 0.  0.
        4    1    3    3  502    0 -0.57370889766E+02 -0.13566216102E+04 -0.69665983377E+03  0.15261225866E+04  0.12699999809E+01 0. -1.
       -4    1    3    3    0  502  0.57370889766E+02  0.13566216102E+04  0.11135574976E+04  0.17560539644E+04  0.12699999809E+01 0.  1.
</event>
<event>
 5   0  0.4344980E-06  0.3110022E+04  0.7818609E-02  0.8212993E-01
       -2   -1    0    0    0  501  0.00000000000E+00  0.00000000000E+00  0.89971878914E+03  0.89971878915E+03  0.25500000920E-02 0.  1.
        2   -1    0    0  501    0  0.00000000000E+00  0.00000000000E+00 -0.26875730201E+04  0.26875730201E+04  0.25500000920E-02 0. -1.
    10030    2    1    2    0    0  0.00000000000E+00  0.00000000000E+00 -0.17878542309E+04  0.35872918092E+04  0.31100224715E+04 0.  0.
        3    1    3    3  502    0 -0.52859490211E+03 -0.57201656375E+02 -0.25794718751E+04  0.26336969766E+04  0.10100000352E+00 0. -1.
       -3    1    3    3    0  502  0.52859490211E+03  0.57201656375E+02  0.79161764416E+03  0.95359483261E+03  0.10100000352E+00 0.  1.
</event>
<event>
 5   0  0.1654257E-06  0.2156695E+04  0.7818609E-02  0.8536672E-01
       -1   -1    0    0    0  501  0.00000000000E+00  0.00000000000E+00  0.10035975175E+04  0.10035975175E+04  0.50400001928E-02 0. -1.
        1   -1    0    0  501    0  0.00000000000E+00  0.00000000000E+00 -0.11586652243E+04  0.11586652243E+04  0.50400001928E-02 0.  1.
    10030    2    1    2    0    0  0.00000000000E+00  0.00000000000E+00 -0.15506770685E+03  0.21622627418E+04  0.21566951966E+04 0.  0.
        3    1    3    3  502    0 -0.98925264846E+03 -0.41562861256E+03 -0.18488775462E+03  0.10888303073E+04  0.10100000352E+00 0. -1.
       -3    1    3    3    0  502  0.98925264846E+03  0.41562861256E+03  0.29820047770E+02  0.10734324345E+04  0.10100000352E+00 0.  1.
</event>
<event>
 5   0  0.4173467E-06  0.2909050E+04  0.7818609E-02  0.8270190E-01
       -2   -1    0    0    0  501  0.00000000000E+00  0.00000000000E+00  0.12284506381E+04  0.12284506381E+04  0.25500000920E-02 0.  1.
        2   -1    0    0  501    0  0.00000000000E+00  0.00000000000E+00 -0.17222042288E+04  0.17222042288E+04  0.25500000920E-02 0. -1.
    10030    2    1    2    0    0  0.00000000000E+00  0.00000000000E+00 -0.49375359068E+03  0.29506548669E+04  0.29090499369E+04 0.  0.
        4    1    3    3  502    0 -0.80951461339E+03  0.10447732080E+04  0.36907785988E+03  0.13722554591E+04  0.12699999809E+01 0.  1.
       -4    1    3    3    0  502  0.80951461339E+03 -0.10447732080E+04 -0.86283145056E+03  0.15783994078E+04  0.12699999809E+01 0. -1.
</event>
<event>
 5   0  0.1550164E-06  0.2846201E+04  0.7818609E-02  0.8289067E-01
        1   -1    0    0  501    0  0.00000000000E+00  0.00000000000E+00  0.18492819253E+04  0.18492819253E+04  0.50400001928E-02 0.  1.
       -1   -1    0    0    0  501  0.00000000000E+00  0.00000000000E+00 -0.10951361319E+04  0.10951361319E+04  0.50400001928E-02 0. -1.
    10030    2    1    2    0    0  0.00000000000E+00  0.00000000000E+00  0.75414579340E+03  0.29444180572E+04  0.28462012961E+04 0.  0.
        4    1    3    3  502    0  0.74964798986E+03 -0.10285337793E+04  0.10357223032E+04  0.16409071107E+04  0.12699999809E+01 0.  1.
       -4    1    3    3    0  502 -0.74964798986E+03  0.10285337793E+04 -0.28157650982E+03  0.13035109465E+04  0.12699999809E+01 0. -1.
</event>
<event>
 5   0  0.2101998E-06  0.2266380E+04  0.7818609E-02  0.8491296E-01
       -1   -1    0    0    0  501  0.00000000000E+00  0.00000000000E+00  0.87160492554E+03  0.87160492556E+03  0.50400001928E-02 0.  1.
        1   -1    0    0  501    0  0.00000000000E+00  0.00000000000E+00 -0.14732820466E+04  0.14732820466E+04  0.50400001928E-02 0. -1.
    10030    2    1    2    0    0  0.00000000000E+00  0.00000000000E+00 -0.60167712109E+03  0.23448869722E+04  0.22663802758E+04 0.  0.
        5    1    3    3  502    0  0.40243882881E+03  0.59098067028E+03 -0.12104290416E+04  0.14058363057E+04  0.46999998093E+01 0. -1.
       -5    1    3    3    0  502 -0.40243882881E+03 -0.59098067028E+03  0.60875192052E+03  0.93905066653E+03  0.46999998093E+01 0.  1.
</event>
<event>
 5   0  0.1562618E-06  0.3407884E+04  0.7818609E-02  0.8135974E-01
       -1   -1    0    0    0  501  0.00000000000E+00  0.00000000000E+00  0.23131470656E+04  0.23131470656E+04  0.50400001928E-02 0.  1.
        1   -1    0    0  501    0  0.00000000000E+00  0.00000000000E+00 -0.12551811924E+04  0.12551811924E+04  0.50400001928E-02 0. -1.
    10030    2    1    2    0    0  0.00000000000E+00  0.00000000000E+00  0.10579658732E+04  0.35683282580E+04  0.34078842069E+04 0.  0.
        2    1    3    3  502    0  0.13411993151E+04 -0.10507660597E+04  0.50571566995E+03  0.17772656678E+04  0.25500000920E-02 0. -1.
       -2    1    3    3    0  502 -0.13411993151E+04  0.10507660597E+04  0.55225020328E+03  0.17910625902E+04  0.25500000920E-02 0.  1.
</event>
<event>
 5   0  0.4400349E-06  0.3329132E+04  0.7818609E-02  0.8155522E-01
        2   -1    0    0  501    0  0.00000000000E+00  0.00000000000E+00  0.23491781958E+04  0.23491781958E+04  0.25500000920E-02 0. -1.
       -2   -1    0    0    0  501  0.00000000000E+00  0.00000000000E+00 -0.11794674521E+04  0.11794674521E+04  0.25500000920E-02 0.  1.
    10030    2    1    2    0    0  0.00000000000E+00  0.00000000000E+00  0.11697107437E+04  0.35286456480E+04  0.33291315512E+04 0.  0.
        5    1    3    3  502    0  0.44857042023E+01  0.87880177684E+03 -0.91352864355E+03  0.12676235076E+04  0.46999998093E+01 0.  1.
       -5    1    3    3    0  502 -0.44857042023E+01 -0.87880177684E+03  0.20832393873E+04  0.22610221403E+04  0.46999998093E+01 0. -1.
</event>
<event>
 5   0  0.2101998E-06  0.3464280E+04  0.7818609E-02  0.8122308E-01
       -1   -1    0    0    0  501  0.00000000000E+00  0.00000000000E+00  0.15950897601E+04  0.15950897601E+04  0.50400001928E-02 0. -1.
        1   -1    0    0  501    0  0.00000000000E+00  0.00000000000E+00 -0.18809651248E+04  0.18809651249E+04  0.50400001928E-02 0.  1.
    10030    2    1    2    0    0  0.00000000000E+00  0.00000000000E+00 -0.28587536473E+03  0.34760548850E+04  0.34642795556E+04 0.  0.
        5    1    3    3  502    0 -0.64025295790E+03  0.30565565811E+03  0.14426033183E+04  0.16076304474E+04  0.46999998093E+01 0. -1.
       -5    1    3    3    0  502  0.64025295790E+03 -0.30565565811E+03 -0.17284786830E+04  0.18684244376E+04  0.46999998093E+01 0.  1.
</event>
<event>
 5   0  0.2101998E-06  0.3479293E+04  0.7818609E-02  0.8118715E-01
        1   -1    0    0  501    0  0.00000000000E+00  0.00000000000E+00  0.15417955791E+04  0.15417955791E+04  0.50400001928E-02 0. -1.
       -1   -1    0    0    0  501  0.00000000000E+00  0.00000000000E+00 -0.19628871551E+04  0.19628871551E+04  0.50400001928E-02 0.  1.
    10030    2    1    2    0    0  0.00000000000E+00  0.00000000000E+00 -0.42109157598E+03  0.35046827342E+04  0.34792934558E+04 0.  0.
        5    1    3    3  502    0 -0.93814453112E+03 -0.10834118544E+04 -0.12038717566E+04  0.18716906005E+04  0.46999998093E+01 0. -1.
       -5    1    3    3    0  502  0.93814453112E+03  0.10834118544E+04  0.78278018063E+03  0.16329921337E+04  0.46999998093E+01 0.  1.
</event>
<event>
 5   0  0.1562618E-06  0.3522596E+04  0.7818609E-02  0.8108456E-01
        1   -1    0    0  501    0  0.00000000000E+00  0.00000000000E+00  0.29654273627E+04  0.29654273627E+04  0.50400001928E-02 0.  1.
       -1   -1    0    0    0  501  0.00000000000E+00  0.00000000000E+00 -0.10461124576E+04  0.10461124576E+04  0.50400001928E-02 0. -1.
    10030    2    1    2    0    0  0.00000000000E+00  0.00000000000E+00  0.19193149051E+04  0.40115398203E+04  0.35225959213E+04 0.  0.
        2    1    3    3  502    0 -0.17223392863E+04  0.31517996493E+03  0.11768658024E+04  0.21096929028E+04  0.25500000920E-02 0. -1.
       -2    1    3    3    0  502  0.17223392863E+04 -0.31517996493E+03  0.74244910275E+03  0.19018469175E+04  0.25500000920E-02 0.  1.
</event>
<event>
 5   0  0.4400349E-06  0.2118360E+04  0.7818609E-02  0.8553199E-01
        2   -1    0    0  501    0  0.00000000000E+00  0.00000000000E+00  0.20131413949E+04  0.20131413949E+04  0.25500000920E-02 0.  1.
       -2   -1    0    0    0  501  0.00000000000E+00  0.00000000000E+00 -0.55726941007E+03  0.55726941008E+03  0.25500000920E-02 0. -1.
    10030    2    1    2    0    0  0.00000000000E+00  0.00000000000E+00  0.14558719848E+04  0.25704108049E+04  0.21183598538E+04 0.  0.
        5    1    3    3  502    0 -0.88232384025E+03  0.30929393648E+03  0.13318150405E+04  0.16272404525E+04  0.46999998093E+01 0.  1.
       -5    1    3    3    0  502  0.88232384025E+03 -0.30929393648E+03  0.12405694425E+03  0.94317035239E+03  0.46999998093E+01 0. -1.
</event>
<event>
 5   0  0.4400349E-06  0.2071219E+04  0.7818609E-02  0.8574029E-01
       -2   -1    0    0    0  501  0.00000000000E+00  0.00000000000E+00  0.18461605614E+04  0.18461605614E+04  0.25500000920E-02 0.  1.
        2   -1    0    0  501    0  0.00000000000E+00  0.00000000000E+00 -0.58092835475E+03  0.58092835475E+03  0.25500000920E-02 0. -1.
    10030    2    1    2    0    0  0.00000000000E+00  0.00000000000E+00  0.12652322067E+04  0.24270889162E+04  0.20712189817E+04 0.  0.
        5    1    3    3  502    0  0.60212925152E+03  0.11367299439E+03  0.16109137153E+04  0.17235272767E+04  0.46999998093E+01 0.  1.
       -5    1    3    3    0  502 -0.60212925152E+03 -0.11367299439E+03 -0.34568150864E+03  0.70356163952E+03  0.46999998093E+01 0. -1.
</event>
<event>
 5   0  0.4173467E-06  0.3340016E+04  0.7818609E-02  0.8152787E-01
       -2   -1    0    0    0  501  0.00000000000E+00  0.00000000000E+00  0.14145896365E+04  0.14145896365E+04  0.25500000920E-02 0. -1.
        2   -1    0    0  501    0  0.00000000000E+00  0.00000000000E+00 -0.19715450745E+04  0.19715450745E+04  0.25500000920E-02 0.  1.
    10030    2    1    2    0    0  0.00000000000E+00  0.00000000000E+00 -0.55695543802E+03  0.33861347110E+04  0.33400163055E+04 0.  0.
        4    1    3    3  502    0 -0.61045405980E+03  0.14159401475E+04 -0.92872695133E+03  0.18000211175E+04  0.12699999809E+01 0.  1.
       -4    1    3    3    0  502  0.61045405980E+03 -0.14159401475E+04  0.37177151331E+03  0.15861135935E+04  0.12699999809E+01 0. -1.
</event>
<event>
 5   0  0.2101998E-06  0.3448741E+04  0.7818609E-02  0.8126046E-01
       -1   -1    0    0    0  501  0.00000000000E+00  0.00000000000E+00  0.13247626313E+04  0.13247626313E+04  0.50400001928E-02 0. -1.
        1   -1    0    0  501    0  0.00000000000E+00  0.00000000000E+00 -0.22445175605E+04  0.22445175605E+04  0.50400001928E-02 0.  1.
    10030    2    1    2    0    0  0.00000000000E+00  0.00000000000E+00 -0.91975492919E+03  0.35692801918E+04  0.34487406336E+04 0.  0.
        5    1    3    3  502    0 -0.29362308591E+03 -0.16980309193E+04 -0.52457130645E+03  0.18013108185E+04  0.46999998093E+01 0.  1.
       -5    1    3    3    0  502  0.29362308591E+03  0.16980309193E+04 -0.39518362274E+03  0.17679693733E+04  0.46999998093E+01 0. -1.
</event>
<event>
 5   0  0.1562618E-06  0.3193164E+04  0.7818609E-02  0.8190625E-01
       -1   -1    0    0    0  501  0.00000000000E+00  0.00000000000E+00  0.20982333237E+04  0.20982333237E+04  0.50400001928E-02 0.  1.
        1   -1    0    0  501    0  0.00000000000E+00  0.00000000000E+00 -0.12148666796E+04  0.12148666797E+04  0.50400001928E-02 0. -1.
    10030    2    1    2    0    0  0.00000000000E+00  0.00000000000E+00  0.88336664402E+03  0.33131000033E+04  0.31931637923E+04 0.  0.
        2    1    3    3  502    0 -0.79156148582E+03  0.11102696149E+04  0.13034241907E+04  0.18863146144E+04  0.25500000920E-02 0.  1.
       -2    1    3    3    0  502  0.79156148582E+03 -0.11102696149E+04 -0.42005754671E+03  0.14267853889E+04  0.25500000920E-02 0. -1.
</event>
<event>
 5   0  0.1550164E-06  0.2730749E+04  0.7818609E-02  0.8325097E-01
        1   -1    0    0  501    0  0.00000000000E+00  0.00000000000E+00  0.15112505412E+04  0.15112505412E+04  0.50400001928E-02 0.  1.
       -1   -1    0    0    0  501  0.00000000000E+00  0.00000000000E+00 -0.12335789583E+04  0.12335789583E+04  0.50400001928E-02 0. -1.
    10030    2    1    2    0    0  0.00000000000E+00  0.00000000000E+00  0.27767158293E+03  0.27448294995E+04  0.27307485189E+04 0.  0.
        4    1    3    3  502    0  0.10836342071E+04  0.41232389693E+03  0.86364432177E+03  0.14457376035E+04  0.12699999809E+01 0.  1.
       -4    1    3    3    0  502 -0.10836342071E+04 -0.41232389693E+03 -0.58597273883E+03  0.12990918960E+04  0.12699999809E+01 0. -1.
</event>
<event>
 5   0  0.4344980E-06  0.2760213E+04  0.7818609E-02  0.8315728E-01
       -2   -1    0    0    0  501  0.00000000000E+00  0.00000000000E+00  0.11780167144E+04  0.11780167144E+04  0.25500000920E-02 0.  1.
        2   -1    0    0  501    0  0.00000000000E+00  0.00000000000E+00 -0.16168651257E+04  0.16168651257E+04  0.25500000920E-02 0. -1.
    10030    2    1    2    0    0  0.00000000000E+00  0.00000000000E+00 -0.43884841128E+03  0.27948818401E+04  0.27602131388E+04 0.  0.
        3    1    3    3  502    0  0.79433118219E+03  0.11260507651E+04 -0.29615048035E+03  0.14094883716E+04  0.10100000352E+00 0. -1.
       -3    1    3    3    0  502 -0.79433118219E+03 -0.11260507651E+04 -0.14269793093E+03  0.13853934684E+04  0.10100000352E+00 0.  1.
</event>
<event>
 5   0  0.4344980E-06  0.3408368E+04  0.7818609E-02  0.8135856E-01
        2   -1    0    0  501    0  0.00000000000E+00  0.00000000000E+00  0.20193967253E+04  0.20193967253E+04  0.25500000920E-02 0.  1.
       -2   -1    0    0    0  501  0.00000000000E+00  0.00000000000E+00 -0.14381733336E+04  0.14381733336E+04  0.25500000920E-02 0. -1.
    10030    2    1    2    0    0  0.00000000000E+00  0.00000000000E+00  0.58122339170E+03  0.34575700589E+04  0.34083676564E+04 0.  0.
        3    1    3    3  502    0  0.33206662794E+03 -0.79041716294E+03  0.17846985689E+04  0.19799435671E+04  0.10100000352E+00 0.  1.
       -3    1    3    3    0  502 -0.33206662794E+03  0.79041716294E+03 -0.12034751772E+04  0.14776264918E+04  0.10100000352E+00 0. -1.
</event>
<event>
 5   0  0.4173467E-06  0.3434062E+04  0.7818609E-02  0.8129597E-01
       -2   -1    0    0    0  501  0.00000000000E+00  0.00000000000E+00  0.15828523120E+04  0.15828523120E+04  0.25500000920E-02 0. -1.
        2   -1    0    0  501    0  0.00000000000E+00  0.00000000000E+00 -0.18625838953E+04  0.18625838953E+04  0.25500000920E-02 0.  1.
    10030    2    1    2    0    0  0.00000000000E+00  0.00000000000E+00 -0.27973158340E+03  0.34454362073E+04  0.34340618660E+04 0.  0.
        4    1    3    3  502    0 -0.34455755983E+03 -0.99259933539E+02  0.15448687469E+04  0.15859361603E+04  0.12699999809E+01 0. -1.
       -4    1    3    3    0  502  0.34455755983E+03  0.99259933539E+02 -0.18246003303E+04  0.18595000470E+04  0.12699999809E+01 0.  1.
</event>
<event>
 5   0  0.2101998E-06  0.3336063E+04  0.7818609E-02  0.8153779E-01
        1   -1    0    0  501    0  0.00000000000E+00  0.00000000000E+00  0.19641228751E+04  0.19641228751E+04  0.50400001928E-02 0. -1.
       -1   -1    0    0    0  501  0.00000000000E+00  0.00000000000E+00 -0.14165758705E+04  0.14165758705E+04  0.50400001928E-02 0.  1.
    10030    2    1    2    0    0  0.00000000000E+00  0.00000000000E+00  0.54754700467E+03  0.33806987456E+04  0.33360629919E+04 0.  0.
        5    1    3    3  502    0  0.16090243306E+04 -0.12023165617E+03 -0.15484185832E+03  0.16209296834E+04  0.46999998093E+01 0. -1.
       -5    1    3    3    0  502 -0.16090243306E+04  0.12023165617E+03  0.70238886298E+03  0.17597690622E+04  0.46999998093E+01 0.  1.
</event>
<event>
 5   0  0.2722449E-06  0.3261979E+04  0.7818609E-02  0.8172638E-01
       -2   -1    0    0    0  501  0.00000000000E+00  0.00000000000E+00  0.11541769779E+04  0.11541769779E+04  0.25500000920E-02 0. -1.
        2   -1    0    0  501    0  0.00000000000E+00  0.00000000000E+00 -0.23047825175E+04  0.23047825175E+04  0.25500000920E-02 0.  1.
    10030    2    1    2    0    0  0.00000000000E+00  0.00000000000E+00 -0.11506055396E+04  0.34589594955E+04  0.32619791053E+04 0.  0.
        2    1    3    3  502    0  0.14733187867E+04 -0.68762248158E+03 -0.43854166371E+03  0.16839868513E+04  0.25500000920E-02 0. -1.
       -2    1    3    3    0  502 -0.14733187867E+04  0.68762248158E+03 -0.71206387586E+03  0.17749726442E+04  0.25500000920E-02 0.  1.
</event>
<event>
 5   0  0.1562618E-06  0.3413269E+04  0.7818609E-02  0.8134657E-01
        1   -1    0    0  501    0  0.00000000000E+00  0.00000000000E+00  0.15039244458E+04  0.15039244458E+04  0.50400001928E-02 0.  1.
       -1   -1    0    0    0  501  0.00000000000E+00  0.00000000000E+00 -0.19366678464E+04  0.19366678464E+04  0.50400001928E-02 0. -1.
    10030    2    1    2    0    0  0.00000000000E+00  0.00000000000E+00 -0.43274340061E+03  0.34405922922E+04  0.34132694693E+04 0.  0.
        2    1    3    3  502    0 -0.12250967849E+02 -0.21794814718E+03  0.14897940029E+04  0.15057017142E+04  0.25500000920E-02 0.  1.
       -2    1    3    3    0  502  0.12250967849E+02  0.21794814718E+03 -0.19225374035E+04  0.19348905780E+04  0.25500000920E-02 0. -1.
</event>
<event>
 5   0  0.2722449E-06  0.2679778E+04  0.7818609E-02  0.8341596E-01
        2   -1    0    0  501    0  0.00000000000E+00  0.00000000000E+00  0.21228969613E+04  0.21228969613E+04  0.25500000920E-02 0.  1.
       -2   -1    0    0    0  501  0.00000000000E+00  0.00000000000E+00 -0.84568537465E+03  0.84568537465E+03  0.25500000920E-02 0. -1.
    10030    2    1    2    0    0  0.00000000000E+00  0.00000000000E+00  0.12772115866E+04  0.29685823359E+04  0.26797782834E+04 0.  0.
        2    1    3    3  502    0  0.55300212166E+03  0.11599650150E+04  0.21827582543E+03  0.13034471676E+04  0.25500000920E-02 0.  1.
       -2    1    3    3    0  502 -0.55300212166E+03 -0.11599650150E+04  0.10589357612E+04  0.16651351684E+04  0.25500000920E-02 0. -1.
</event>
<event>
 5   0  0.1654257E-06  0.3385094E+04  0.7818609E-02  0.8141574E-01
        1   -1    0    0  501    0  0.00000000000E+00  0.00000000000E+00  0.17827308403E+04  0.17827308403E+04  0.50400001928E-02 0. -1.
       -1   -1    0    0    0  501  0.00000000000E+00  0.00000000000E+00 -0.16069257216E+04  0.16069257216E+04  0.50400001928E-02 0.  1.
    10030    2    1    2    0    0  0.00000000000E+00  0.00000000000E+00  0.17580511872E+03  0.33896565619E+04  0.33850944105E+04 0.  0.
        3    1    3    3  502    0  0.15986405434E+04 -0.40129488688E+03 -0.29735855229E+03  0.16748466474E+04  0.10100000352E+00 0.  1.
       -3    1    3    3    0  502 -0.15986405434E+04  0.40129488688E+03  0.47316367102E+03  0.17148099146E+04  0.10100000352E+00 0. -1.
</event>
<event>
 5   0  0.4173467E-06  0.3133289E+04  0.7818609E-02  0.8206661E-01
       -2   -1    0    0    0  501  0.00000000000E+00  0.00000000000E+00  0.12676565148E+04  0.12676565148E+04  0.25500000920E-02 0. -1.
        2   -1    0    0  501    0  0.00000000000E+00  0.00000000000E+00 -0.19361514330E+04  0.19361514330E+04  0.25500000920E-02 0.  1.
    10030    2    1    2    0    0  0.00000000000E+00  0.00000000000E+00 -0.66849491812E+03  0.32038079478E+04  0.31332889926E+04 0.  0.
        4    1    3    3  502    0  0.13441314430E+04  0.65225423884E+03 -0.81629001316E+03  0.17024852207E+04  0.12699999809E+01 0.  1.
       -4    1    3    3    0  502 -0.13441314430E+04 -0.65225423884E+03  0.14779509504E+03  0.15013227272E+04  0.12699999809E+01 0. -1.
</event>
<event>
 5   0  0.1550164E-06  0.1910940E+04  0.7818609E-02  0.8649430E-01
        1   -1    0    0  501    0  0.00000000000E+00  0.00000000000E+00  0.79110117004E+03  0.79110117005E+03  0.50400001928E-02 0. -1.
       -1   -1    0    0    0  501  0.00000000000E+00  0.00000000000E+00 -0.11539901636E+04  0.11539901636E+04  0.50400001928E-02 0.  1.
    10030    2    1    2    0    0  0.00000000000E+00  0.00000000000E+00 -0.36288899355E+03  0.19450913337E+04  0.19109400500E+04 0.  0.
        4    1    3    3  502    0 -0.87769758405E+03  0.36910743888E+03 -0.26241490941E+03  0.98765203794E+03  0.12699999809E+01 0.  1.
       -4    1    3    3    0  502  0.87769758405E+03 -0.36910743888E+03 -0.10047408414E+03  0.95743929571E+03  0.12699999809E+01 0. -1.
</event>
<event>
 5   0  0.2101998E-06  0.2449848E+04  0.7818609E-02  0.8421074E-01
       -1   -1    0    0    0  501  0.00000000000E+00  0.00000000000E+00  0.13154156154E+04  0.13154156154E+04  0.50400001928E-02 0. -1.
        1   -1    0    0  501    0  0.00000000000E+00  0.00000000000E+00 -0.11406573948E+04  0.11406573948E+04  0.50400001928E-02 0.  1.
    10030    2    1    2    0    0  0.00000000000E+00  0.00000000000E+00  0.17475822061E+03  0.24560730102E+04  0.24498477903E+04 0.  0.
        5    1    3    3  502    0 -0.46422010475E+03  0.11308638195E+04  0.93148538845E+01  0.12224819591E+04  0.46999998093E+01 0. -1.
       -5    1    3    3    0  502  0.46422010475E+03 -0.11308638195E+04  0.16544336672E+03  0.12335910511E+04  0.46999998093E+01 0.  1.
</event>
<event>
 5   0  0.1550164E-06  0.2968240E+04  0.7818609E-02  0.8252859E-01
        1   -1    0    0  501    0  0.00000000000E+00  0.00000000000E+00  0.21622983531E+04  0.21622983531E+04  0.50400001928E-02 0.  1.
       -1   -1    0    0    0  501  0.00000000000E+00  0.00000000000E+00 -0.10186438345E+04  0.10186438345E+04  0.50400001928E-02 0. -1.
    10030    2    1    2    0    0  0.00000000000E+00  0.00000000000E+00  0.11436545185E+04  0.31809421876E+04  0.29682398055E+04 0.  0.
        4    1    3    3  502    0 -0.97624605519E+02  0.61629665644E+03  0.20148946372E+04  0.21093018144E+04  0.12699999809E+01 0.  1.
       -4    1    3    3    0  502  0.97624605519E+02 -0.61629665644E+03 -0.87124011863E+03  0.10716403732E+04  0.12699999809E+01 0. -1.
</event>
<event>
 5   0  0.2722449E-06  0.2996506E+04  0.7818609E-02  0.8244729E-01
       -2   -1    0    0    0  501  0.00000000000E+00  0.00000000000E+00  0.86478522000E+03  0.86478522000E+03  0.25500000920E-02 0.  1.
        2   -1    0    0  501    0  0.00000000000E+00  0.00000000000E+00 -0.25957451905E+04  0.25957451905E+04  0.25500000920E-02 0. -1.
    10030    2    1    2    0    0  0.00000000000E+00  0.00000000000E+00 -0.17309599705E+04  0.34605304105E+04  0.29965060158E+04 0.  0.
        2    1    3    3  502    0 -0.86209316231E+03 -0.85069815663E+03  0.15306697195E+03  0.12207872346E+04  0.25500000920E-02 0.  1.
       -2    1    3    3    0  502  0.86209316231E+03  0.85069815663E+03 -0.18840269424E+04  0.22397431759E+04  0.25500000920E-02 0. -1.
</event>
<event>
 5   0  0.4189587E-06  0.3407361E+04  0.7818609E-02  0.8136102E-01
       -2   -1    0    0    0  501  0.00000000000E+00  0.00000000000E+00  0.14994514262E+04  0.14994514262E+04  0.25500000920E-02 0. -1.
        2   -1    0    0  501    0  0.00000000000E+00  0.00000000000E+00 -0.19357260797E+04  0.19357260797E+04  0.25500000920E-02 0.  1.
    10030    2    1    2    0    0  0.00000000000E+00  0.00000000000E+00 -0.43627465355E+03  0.34351775059E+04  0.34073609911E+04 0.  0.
        1    1    3    3  502    0 -0.80910343034E+03 -0.11752206425E+04  0.72044912573E+03  0.15983863308E+04  0.50400001928E-02 0. -1.
       -1    1    3    3    0  502  0.80910343034E+03  0.11752206425E+04 -0.11567237793E+04  0.18367911752E+04  0.50400001928E-02 0.  1.
</event>
<event>
 5   0  0.1654257E-06  0.3476564E+04  0.7818609E-02  0.8119366E-01
        1   -1    0    0  501    0  0.00000000000E+00  0.00000000000E+00  0.25249074389E+04  0.25249074389E+04  0.50400001928E-02 0.  1.
       -1   -1    0    0    0  501  0.00000000000E+00  0.00000000000E+00 -0.11967269324E+04  0.11967269325E+04  0.50400001928E-02 0. -1.
    10030    2    1    2    0    0  0.00000000000E+00  0.00000000000E+00  0.13281805064E+04  0.37216343713E+04  0.34765642431E+04 0.  0.
        3    1    3    3  502    0 -0.12536993290E+04 -0.49059068976E+03  0.18412341346E+04  0.22809174429E+04  0.10100000352E+00 0.  1.
       -3    1    3    3    0  502  0.12536993290E+04  0.49059068976E+03 -0.51305362820E+03  0.14407169285E+04  0.10100000352E+00 0. -1.
</event>
<event>
 5   0  0.4400349E-06  0.3402143E+04  0.7818609E-02  0.8137380E-01
        2   -1    0    0  501    0  0.00000000000E+00  0.00000000000E+00  0.24409732777E+04  0.24409732778E+04  0.25500000920E-02 0.  1.
       -2   -1    0    0    0  501  0.00000000000E+00  0.00000000000E+00 -0.11854472607E+04  0.11854472607E+04  0.25500000920E-02 0. -1.
    10030    2    1    2    0    0  0.00000000000E+00  0.00000000000E+00  0.12555260170E+04  0.36264205385E+04  0.34021434923E+04 0.  0.
        5    1    3    3  502    0  0.14427866414E+04  0.75910777237E+03  0.11453065216E+04  0.19923922860E+04  0.46999998093E+01 0. -1.
       -5    1    3    3    0  502 -0.14427866414E+04 -0.75910777237E+03  0.11021949539E+03  0.16340282525E+04  0.46999998093E+01 0.  1.
</event>
<event>
 5   0  0.4344980E-06  0.3422640E+04  0.7818609E-02  0.8132372E-01
        2   -1    0    0  501    0  0.00000000000E+00  0.00000000000E+00  0.15178741016E+04  0.15178741016E+04  0.25500000920E-02 0.  1.
       -2   -1    0    0    0  501  0.00000000000E+00  0.00000000000E+00 -0.19294200208E+04  0.19294200208E+04  0.25500000920E-02 0. -1.
    10030    2    1    2    0    0  0.00000000000E+00  0.00000000000E+00 -0.41154591923E+03  0.34472941225E+04  0.34226403146E+04 0.  0.
        3    1    3    3  502    0 -0.65450700951E+03 -0.38738338911E+03  0.13382965306E+04  0.15393124860E+04  0.10100000352E+00 0.  1.
       -3    1    3    3    0  502  0.65450700951E+03  0.38738338911E+03 -0.17498424498E+04  0.19079816364E+04  0.10100000352E+00 0. -1.
</event>
<event>
 5   0  0.4400349E-06  0.3554429E+04  0.7818609E-02  0.8101011E-01
       -2   -1    0    0    0  501  0.00000000000E+00  0.00000000000E+00  0.17550019268E+04  0.17550019268E+04  0.25500000920E-02 0.  1.
        2   -1    0    0  501    0  0.00000000000E+00  0.00000000000E+00 -0.17997080053E+04  0.17997080053E+04  0.25500000920E-02 0. -1.
    10030    2    1    2    0    0  0.00000000000E+00  0.00000000000E+00 -0.44706078493E+02  0.35547099321E+04  0.35544287963E+04 0.  0.
        5    1    3    3  502    0  0.50944157645E+03  0.93509662968E+03  0.14006201762E+04  0.17594588357E+04  0.46999998093E+01 0. -1.
       -5    1    3    3    0  502 -0.50944157645E+03 -0.93509662968E+03 -0.14453262547E+04  0.17952510964E+04  0.46999998093E+01 0.  1.
</event>
<event>
 5   0  0.1550164E-06  0.3220833E+04  0.7818609E-02  0.8183337E-01
        1   -1    0    0  501    0  0.00000000000E+00  0.00000000000E+00  0.24109148855E+04  0.24109148855E+04  0.50400001928E-02 0. -1.
       -1   -1    0    0    0  501  0.00000000000E+00  0.00000000000E+00 -0.10757081342E+04  0.10757081342E+04  0.50400001928E-02 0.  1.
    10030    2    1    2    0    0  0.00000000000E+00  0.00000000000E+00  0.13352067513E+04  0.34866230197E+04  0.32208326583E+04 0.  0.
        4    1    3    3  502    0 -0.92301649293E+03  0.79344570912E+03 -0.47389239339E+03  0.13061742430E+04  0.12699999809E+01 0.  1.
       -4    1    3    3    0  502  0.92301649293E+03 -0.79344570912E+03  0.18090991447E+04  0.21804487767E+04  0.12699999809E+01 0. -1.
</event>
<event>
 5   0  0.4173467E-06  0.3484766E+04  0.7818609E-02  0.8117410E-01
        2   -1    0    0  501    0  0.00000000000E+00  0.00000000000E+00  0.23569736277E+04  0.23569736277E+04  0.25500000920E-02 0.  1.
       -2   -1    0    0    0  501  0.00000000000E+00  0.00000000000E+00 -0.12880490837E+04  0.12880490837E+04  0.25500000920E-02 0. -1.
    10030    2    1    2    0    0  0.00000000000E+00  0.00000000000E+00  0.10689245440E+04  0.36450227114E+04  0.34847655424E+04 0.  0.
        4    1    3    3  502    0 -0.15991834211E+04 -0.23144725099E+03 -0.14739083071E+03  0.16225538864E+04  0.12699999809E+01 0. -1.
       -4    1    3    3    0  502  0.15991834211E+04  0.23144725099E+03  0.12163153747E+04  0.20224688250E+04  0.12699999809E+01 0.  1.
</event>
<event>
 5   0  0.1550164E-06  0.3393749E+04  0.7818609E-02  0.8139442E-01
       -1   -1    0    0    0  501  0.00000000000E+00  0.00000000000E+00  0.14539064813E+04  0.14539064813E+04  0.50400001928E-02 0.  1.
        1   -1    0    0  501    0  0.00000000000E+00  0.00000000000E+00 -0.19804460225E+04  0.19804460225E+04  0.50400001928E-02 0. -1.
    10030    2    1    2    0    0  0.00000000000E+00  0.00000000000E+00 -0.52653954123E+03  0.34343525038E+04  0.33937491410E+04 0.  0.
        4    1    3    3  502    0  0.44127898306E+02 -0.35102649561E+03 -0.19427080120E+04  0.19746601998E+04  0.12699999809E+01 0. -1.
       -4    1    3    3    0  502 -0.44127898306E+02  0.35102649561E+03  0.14161684707E+04  0.14596923040E+04  0.12699999809E+01 0.  1.
</event>
<event>
 5   0  0.1571391E-06  0.3414103E+04  0.7818609E-02  0.8134454E-01
        1   -1    0    0  501    0  0.00000000000E+00  0.00000000000E+00  0.19951887165E+04  0.19951887165E+04  0.50400001928E-02 0. -1.
       -1   -1    0    0    0  501  0.00000000000E+00  0.00000000000E+00 -0.14605262228E+04  0.14605262228E+04  0.50400001928E-02 0.  1.
    10030    2    1    2    0    0  0.00000000000E+00  0.00000000000E+00  0.53466249368E+03  0.34557149393E+04  0.34141033610E+04 0.  0.
        1    1    3    3  502    0  0.79044992103E+03 -0.62019061284E+03 -0.11295536546E+04  0.15117337506E+04  0.50400001928E-02 0.  1.
       -1    1    3    3    0  502 -0.79044992103E+03  0.62019061284E+03  0.16642161483E+04  0.19439811887E+04  0.50400001928E-02 0. -1.
</event>
<event>
 5   0  0.1562618E-06  0.3444635E+04  0.7818609E-02  0.8127038E-01
       -1   -1    0    0    0  501  0.00000000000E+00  0.00000000000E+00  0.12759920735E+04  0.12759920735E+04  0.50400001928E-02 0.  1.
        1   -1    0    0  501    0  0.00000000000E+00  0.00000000000E+00 -0.23247615276E+04  0.23247615276E+04  0.50400001928E-02 0. -1.
    10030    2    1    2    0    0  0.00000000000E+00  0.00000000000E+00 -0.10487694541E+04  0.36007536011E+04  0.34446348323E+04 0.  0.
        2    1    3    3  502    0 -0.24683290245E+03  0.19458246263E+03 -0.22945288488E+04  0.23159558404E+04  0.25500000920E-02 0. -1.
       -2    1    3    3    0  502  0.24683290245E+03 -0.19458246263E+03  0.12457593947E+04  0.12847977608E+04  0.25500000920E-02 0.  1.
</event>
<event>
 5   0  0.2722449E-06  0.2268650E+04  0.7818609E-02  0.8490385E-01
        2   -1    0    0  501    0  0.00000000000E+00  0.00000000000E+00  0.18642653507E+04  0.18642653507E+04  0.25500000920E-02 0. -1.
       -2   -1    0    0    0  501  0.00000000000E+00  0.00000000000E+00 -0.69018785993E+03  0.69018785994E+03  0.25500000920E-02 0.  1.
    10030    2    1    2    0    0  0.00000000000E+00  0.00000000000E+00  0.11740774907E+04  0.25544532106E+04  0.22686500944E+04 0.  0.
        2    1    3    3  502    0 -0.10321039150E+04 -0.28961789858E+02  0.11159087949E+04  0.15203057966E+04  0.25500000920E-02 0. -1.
       -2    1    3    3    0  502  0.10321039150E+04  0.28961789858E+02  0.58168695816E+02  0.10341474140E+04  0.25500000920E-02 0.  1.
</event>
<event>
 5   0  0.1562618E-06  0.2180718E+04  0.7818609E-02  0.8526497E-01
       -1   -1    0    0    0  501  0.00000000000E+00  0.00000000000E+00  0.63075147030E+03  0.63075147032E+03  0.50400001928E-02 0. -1.
        1   -1    0    0  501    0  0.00000000000E+00  0.00000000000E+00 -0.18848673623E+04  0.18848673623E+04  0.50400001928E-02 0.  1.
    10030    2    1    2    0    0  0.00000000000E+00  0.00000000000E+00 -0.12541158920E+04  0.25156188326E+04  0.21807181020E+04 0.  0.
        2    1    3    3  502    0  0.28657072100E+02  0.23811437988E+03 -0.18540629331E+04  0.18695103759E+04  0.25500000920E-02 0.  1.
       -2    1    3    3    0  502 -0.28657072100E+02 -0.23811437988E+03  0.59994704112E+03  0.64610845672E+03  0.25500000920E-02 0. -1.
</event>
<event>
 5   0  0.1571391E-06  0.2328787E+04  0.7818609E-02  0.8466656E-01
        1   -1    0    0  501    0  0.00000000000E+00  0.00000000000E+00  0.21479489993E+04  0.21479489993E+04  0.50400001928E-02 0.  1.
       -1   -1    0    0    0  501  0.00000000000E+00  0.00000000000E+00 -0.63121263943E+03  0.63121263946E+03  0.50400001928E-02 0. -1.
    10030    2    1    2    0    0  0.00000000000E+00  0.00000000000E+00  0.15167363599E+04  0.27791616388E+04  0.23287872872E+04 0.  0.
        1    1    3    3  502    0 -0.16951354550E+03 -0.34271717815E+03  0.20708972779E+04  0.21058977757E+04  0.50400001928E-02 0.  1.
       -1    1    3    3    0  502  0.16951354550E+03  0.34271717815E+03 -0.55416091796E+03  0.67326386308E+03  0.50400001928E-02 0. -1.
</event>
<event>
 5   0  0.4189587E-06  0.3287286E+04  0.7818609E-02  0.8166138E-01
       -2   -1    0    0    0  501  0.00000000000E+00  0.00000000000E+00  0.87090588600E+03  0.87090588600E+03  0.25500000920E-02 0. -1.
        2   -1    0    0  501    0  0.00000000000E+00  0.00000000000E+00 -0.31020137842E+04  0.31020137842E+04  0.25500000920E-02 0.  1.
    10030    2    1    2    0    0  0.00000000000E+00  0.00000000000E+00 -0.22311078982E+04  0.39729196702E+04  0.32872858489E+04 0.  0.
        1    1    3    3  502    0  0.98095607801E+03 -0.98719541102E+03 -0.58670552712E+02  0.13929364093E+04  0.50400001928E-02 0. -1.
       -1    1    3    3    0  502 -0.98095607801E+03  0.98719541102E+03 -0.21724373455E+04  0.25799832609E+04  0.50400001928E-02 0.  1.
</event>
<event>
 5   0  0.4400349E-06  0.3392917E+04  0.7818609E-02  0.8139647E-01
       -2   -1    0    0    0  501  0.00000000000E+00  0.00000000000E+00  0.15127033237E+04  0.15127033238E+04  0.25500000920E-02 0. -1.
        2   -1    0    0  501    0  0.00000000000E+00  0.00000000000E+00 -0.19025355059E+04  0.19025355059E+04  0.25500000920E-02 0.  1.
    10030    2    1    2    0    0  0.00000000000E+00  0.00000000000E+00 -0.38983218212E+03  0.34152388296E+04  0.33929172010E+04 0.  0.
        5    1    3    3  502    0  0.15522945484E+04 -0.68294795646E+03 -0.23894649143E+03  0.17126452616E+04  0.46999998093E+01 0.  1.
       -5    1    3    3    0  502 -0.15522945484E+04  0.68294795646E+03 -0.15088569069E+03  0.17025935680E+04  0.46999998093E+01 0. -1.
</event>
<event>
 5   0  0.1562618E-06  0.3175111E+04  0.7818609E-02  0.8195421E-01
        1   -1    0    0  501    0  0.00000000000E+00  0.00000000000E+00  0.21363049253E+04  0.21363049253E+04  0.50400001928E-02 0.  1.
       -1   -1    0    0    0  501  0.00000000000E+00  0.00000000000E+00 -0.11797624631E+04  0.11797624631E+04  0.50400001928E-02 0. -1.
    10030    2    1    2    0    0  0.00000000000E+00  0.00000000000E+00  0.95654246221E+03  0.33160673884E+04  0.31751109339E+04 0.  0.
        2    1    3    3  502    0  0.28947811589E+03 -0.43924736068E+03 -0.10860892080E+04  0.12067831583E+04  0.25500000920E-02 0. -1.
       -2    1    3    3    0  502 -0.28947811589E+03  0.43924736068E+03  0.20426316702E+04  0.21092842301E+04  0.25500000920E-02 0.  1.
</event>
<event>
 5   0  0.4173467E-06  0.3519965E+04  0.7818609E-02  0.8109075E-01
        2   -1    0    0  501    0  0.00000000000E+00  0.00000000000E+00  0.16813217993E+04  0.16813217993E+04  0.25500000920E-02 0. -1.
       -2   -1    0    0    0  501  0.00000000000E+00  0.00000000000E+00 -0.18423235484E+04  0.18423235484E+04  0.25500000920E-02 0.  1.
    10030    2    1    2    0    0  0.00000000000E+00  0.00000000000E+00 -0.16100174906E+03  0.35236453477E+04  0.35199651949E+04 0.  0.
        4    1    3    3  502    0  0.59417114607E+03  0.14833691950E+04 -0.81891265422E+03  0.17955620478E+04  0.12699999809E+01 0.  1.
       -4    1    3    3    0  502 -0.59417114607E+03 -0.14833691950E+04  0.65791090516E+03  0.17280832999E+04  0.12699999809E+01 0. -1.
</event>
<event>
 5   0  0.2722449E-06  0.3359867E+04  0.7818609E-02  0.8147827E-01
        2   -1    0    0  501    0  0.00000000000E+00  0.00000000000E+00  0.16403226693E+04  0.16403226693E+04  0.25500000920E-02 0.  1.
       -2   -1    0    0    0  501  0.00000000000E+00  0.00000000000E+00 -0.17205012004E+04  0.17205012004E+04  0.25500000920E-02 0. -1.
    10030    2    1    2    0    0  0.00000000000E+00  0.00000000000E+00 -0.80178531176E+02  0.33608238697E+04  0.33598673317E+04 0.  0.
        2    1    3    3  502    0  0.34644887572E+03 -0.15814381150E+04  0.40859588723E+03  0.16697077391E+04  0.25500000920E-02 0. -1.
       -2    1    3    3    0  502 -0.34644887572E+03  0.15814381150E+04 -0.48877441841E+03  0.16911161306E+04  0.25500000920E-02 0.  1.
</event>
<event>
 5   0  0.1571391E-06  0.2342313E+04  0.7818609E-02  0.8461422E-01
        1   -1    0    0  501    0  0.00000000000E+00  0.00000000000E+00  0.99780977840E+03  0.99780977841E+03  0.50400001928E-02 0.  1.
       -1   -1    0    0    0  501  0.00000000000E+00  0.00000000000E+00 -0.13746185703E+04  0.13746185703E+04  0.50400001928E-02 0. -1.
    10030    2    1    2    0    0  0.00000000000E+00  0.00000000000E+00 -0.37680879187E+03  0.23724283487E+04  0.23423132592E+04 0.  0.
        1    1    3    3  502    0 -0.52539463471E+03  0.73184543044E+02  0.86915234317E+03  0.10182442218E+04  0.50400001928E-02 0.  1.
       -1    1    3    3    0  502  0.52539463471E+03 -0.73184543044E+02 -0.12459611350E+04  0.13541841269E+04  0.50400001928E-02 0. -1.
</event>
<event>
 5   0  0.2722449E-06  0.3513986E+04  0.7818609E-02  0.8110483E-01
        2   -1    0    0  501    0  0.00000000000E+00  0.00000000000E+00  0.27709126908E+04  0.27709126908E+04  0.25500000920E-02 0.  1.
       -2   -1    0    0    0  501  0.00000000000E+00  0.00000000000E+00 -0.11140823075E+04  0.11140823075E+04  0.25500000920E-02 0. -1.
    10030    2    1    2    0    0  0.00000000000E+00  0.00000000000E+00  0.16568303833E+04  0.38849949983E+04  0.35139862290E+04 0.  0.
        2    1    3    3  502    0 -0.36474091862E+03 -0.43123987188E+03  0.26678106178E+04  0.27269428408E+04  0.25500000920E-02 0.  1.
       -2    1    3    3    0  502  0.36474091862E+03  0.43123987188E+03 -0.10109802345E+04  0.11580521574E+04  0.25500000920E-02 0. -1.
</event>
<event>
 5   0  0.1562618E-06  0.2725787E+04  0.7818609E-02  0.8326686E-01
       -1   -1    0    0    0  501  0.00000000000E+00  0.00000000000E+00  0.12529586326E+04  0.12529586326E+04  0.50400001928E-02 0. -1.
        1   -1    0    0  501    0  0.00000000000E+00  0.00000000000E+00 -0.14824738523E+04  0.14824738523E+04  0.50400001928E-02 0.  1.
    10030    2    1    2    0    0  0.00000000000E+00  0.00000000000E+00 -0.22951521971E+03  0.27354324848E+04  0.27257867934E+04 0.  0.
        2    1    3    3  502    0  0.14272034793E+03  0.66269667248E+03  0.10717724930E+04  0.12681609733E+04  0.25500000920E-02 0. -1.
       -2    1    3    3    0  502 -0.14272034793E+03 -0.66269667248E+03 -0.13012877127E+04  0.14672715116E+04  0.25500000920E-02 0.  1.
</event>
<event>
 5   0  0.1550164E-06  0.3326087E+04  0.7818609E-02  0.8156289E-01
        1   -1    0    0  501    0  0.00000000000E+00  0.00000000000E+00  0.16628218418E+04  0.16628218419E+04  0.50400001928E-02 0. -1.
       -1   -1    0    0    0  501  0.00000000000E+00  0.00000000000E+00 -0.16632655078E+04  0.16632655078E+04  0.50400001928E-02 0.  1.
    10030    2    1    2    0    0  0.00000000000E+00  0.00000000000E+00 -0.44366593835E+00  0.33260873496E+04  0.33260873201E+04 0.  0.
        4    1    3    3  502    0  0.72650223769E+03  0.42299044124E+03 -0.14351386334E+04  0.16632350780E+04  0.12699999809E+01 0.  1.
       -4    1    3    3    0  502 -0.72650223769E+03 -0.42299044124E+03  0.14346949675E+04  0.16628522716E+04  0.12699999809E+01 0. -1.
</event>
<event>
 5   0  0.4173467E-06  0.3354888E+04  0.7818609E-02  0.8149068E-01
       -2   -1    0    0    0  501  0.00000000000E+00  0.00000000000E+00  0.11385717666E+04  0.11385717666E+04  0.25500000920E-02 0.  1.
        2   -1    0    0  501    0  0.00000000000E+00  0.00000000000E+00 -0.24713585494E+04  0.24713585494E+04  0.25500000920E-02 0. -1.
    10030    2    1    2    0    0  0.00000000000E+00  0.00000000000E+00 -0.13327867828E+04  0.36099303161E+04  0.33548884152E+04 0.  0.
        4    1    3    3  502    0  0.16669356844E+04  0.17241788794E+03 -0.58721292337E+03  0.17757317180E+04  0.12699999809E+01 0.  1.
       -4    1    3    3    0  502 -0.16669356844E+04 -0.17241788794E+03 -0.74557385946E+03  0.18341985980E+04  0.12699999809E+01 0. -1.
</event>
<event>
 5   0  0.2722449E-06  0.3368147E+04  0.7818609E-02  0.8145769E-01
       -2   -1    0    0    0  501  0.00000000000E+00  0.00000000000E+00  0.20273409690E+04  0.20273409690E+04  0.25500000920E-02 0. -1.
        2   -1    0    0  501    0  0.00000000000E+00  0.00000000000E+00 -0.13989281246E+04  0.13989281246E+04  0.25500000920E-02 0.  1.
    10030    2    1    2    0    0  0.00000000000E+00  0.00000000000E+00  0.62841284439E+03  0.34262690935E+04  0.33681474431E+04 0.  0.
        2    1    3    3  502    0 -0.72979082149E+03  0.25794958430E+03  0.18356666912E+04  0.19921859433E+04  0.25500000920E-02 0. -1.
       -2    1    3    3    0  502  0.72979082149E+03 -0.25794958430E+03 -0.12072538468E+04  0.14340831503E+04  0.25500000920E-02 0.  1.
</event>
<event>
 5   0  0.1571391E-06  0.3267908E+04  0.7818609E-02  0.8171110E-01
       -1   -1    0    0    0  501  0.00000000000E+00  0.00000000000E+00  0.11057972403E+04  0.11057972403E+04  0.50400001928E-02 0. -1.
        1   -1    0    0  501    0  0.00000000000E+00  0.00000000000E+00 -0.24143711044E+04  0.24143711044E+04  0.50400001928E-02 0.  1.
    10030    2    1    2    0    0  0.00000000000E+00  0.00000000000E+00 -0.13085738641E+04  0.35201683447E+04  0.32679075289E+04 0.  0.
        1    1    3    3  502    0 -0.10582470046E+04  0.29530967804E+03  0.64849835522E+03  0.12757917720E+04  0.50400001928E-02 0. -1.
       -1    1    3    3    0  502  0.10582470046E+04 -0.29530967804E+03 -0.19570722193E+04  0.22443765727E+04  0.50400001928E-02 0.  1.
</event>
<event>
 5   0  0.1562618E-06  0.1674412E+04  0.7818609E-02  0.8776094E-01
        1   -1    0    0  501    0  0.00000000000E+00  0.00000000000E+00  0.10015440163E+04  0.10015440163E+04  0.50400001928E-02 0. -1.
       -1   -1    0    0    0  501  0.00000000000E+00  0.00000000000E+00 -0.69983329373E+03  0.69983329375E+03  0.50400001928E-02 0.  1.
    10030    2    1    2    0    0  0.00000000000E+00  0.00000000000E+00  0.30171072254E+03  0.17013773100E+04  0.16744119538E+04 0.  0.
        2    1    3    3  502    0 -0.80828697792E+03 -0.20690973220E+03  0.80645771037E+02  0.83823816207E+03  0.25500000920E-02 0. -1.
       -2    1    3    3    0  502  0.80828697792E+03  0.20690973220E+03  0.22106495151E+03  0.86313914797E+03  0.25500000920E-02 0.  1.
</event>
<event>
 5   0  0.4189587E-06  0.3396144E+04  0.7818609E-02  0.8138853E-01
       -2   -1    0    0    0  501  0.00000000000E+00  0.00000000000E+00  0.10517438892E+04  0.10517438892E+04  0.25500000920E-02 0.  1.
        2   -1    0    0  501    0  0.00000000000E+00  0.00000000000E+00 -0.27415881379E+04  0.27415881379E+04  0.25500000920E-02 0. -1.
    10030    2    1    2    0    0  0.00000000000E+00  0.00000000000E+00 -0.16898442487E+04  0.37933320271E+04  0.33961440315E+04 0.  0.
        1    1    3    3  502    0  0.57192986171E+03  0.10403786820E+04 -0.22009766877E+04  0.25007578748E+04  0.50400001928E-02 0. -1.
       -1    1    3    3    0  502 -0.57192986171E+03 -0.10403786820E+04  0.51113243900E+03  0.12925741522E+04  0.50400001928E-02 0.  1.
</event>
<event>
 5   0  0.4400349E-06  0.3003611E+04  0.7818609E-02  0.8242700E-01
        2   -1    0    0  501    0  0.00000000000E+00  0.00000000000E+00  0.21495231916E+04  0.21495231916E+04  0.25500000920E-02 0.  1.
       -2   -1    0    0    0  501  0.00000000000E+00  0.00000000000E+00 -0.10492651403E+04  0.10492651403E+04  0.25500000920E-02 0. -1.
    10030    2    1    2    0    0  0.00000000000E+00  0.00000000000E+00  0.11002580514E+04  0.31987883319E+04  0.30036109956E+04 0.  0.
        5    1    3    3  502    0  0.42814598827E+03  0.92797569726E+03  0.17220676943E+04  0.20024952224E+04  0.46999998093E+01 0.  1.
       -5    1    3    3    0  502 -0.42814598827E+03 -0.92797569726E+03 -0.62180964287E+03  0.11962931095E+04  0.46999998093E+01 0. -1.
</event>
<event>
 5   0  0.1571391E-06  0.3421289E+04  0.7818609E-02  0.8132701E-01
        1   -1    0    0  501    0  0.00000000000E+00  0.00000000000E+00  0.10177694512E+04  0.10177694512E+04  0.50400001928E-02 0.  1.
       -1   -1    0    0    0  501  0.00000000000E+00  0.00000000000E+00 -0.28752131142E+04  0.28752131142E+04  0.50400001928E-02 0. -1.
    10030    2    1    2    0    0  0.00000000000E+00  0.00000000000E+00 -0.18574436630E+04  0.38929825654E+04  0.34212886890E+04 0.  0.
        1    1    3    3  502    0  0.12482931445E+04 -0.69714236567E+03  0.13994419517E+03  0.14366028088E+04  0.50400001928E-02 0.  1.
       -1    1    3    3    0  502 -0.12482931445E+04  0.69714236567E+03 -0.19973878582E+04  0.24563797566E+04  0.50400001928E-02 0. -1.
</event>
<event>
 5   0  0.4173467E-06  0.3334785E+04  0.7818609E-02  0.8154100E-01
       -2   -1    0    0    0  501  0.00000000000E+00  0.00000000000E+00  0.17521648877E+04  0.17521648877E+04  0.25500000920E-02 0.  1.
        2   -1    0    0  501    0  0.00000000000E+00  0.00000000000E+00 -0.15867212049E+04  0.15867212049E+04  0.25500000920E-02 0. -1.
    10030    2    1    2    0    0  0.00000000000E+00  0.00000000000E+00  0.16544368283E+03  0.33388860926E+04  0.33347846598E+04 0.  0.
        4    1    3    3  502    0  0.15845713975E+04  0.39372387997E+03 -0.25579243330E+03  0.16526694737E+04  0.12699999809E+01 0. -1.
       -4    1    3    3    0  502 -0.15845713975E+04 -0.39372387997E+03  0.42123611612E+03  0.16862166189E+04  0.12699999809E+01 0.  1.
</event>
<event>
 5   0  0.4173467E-06  0.3263723E+04  0.7818609E-02  0.8172188E-01
       -2   -1    0    0    0  501  0.00000000000E+00  0.00000000000E+00  0.11123037879E+04  0.11123037879E+04  0.25500000920E-02 0. -1.
        2   -1    0    0  501    0  0.00000000000E+00  0.00000000000E+00 -0.23941055419E+04  0.23941055419E+04  0.25500000920E-02 0.  1.
    10030    2    1    2    0    0  0.00000000000E+00  0.00000000000E+00 -0.12818017540E+04  0.35064093298E+04  0.32637234337E+04 0.  0.
        4    1    3    3  502    0 -0.22711951215E+03 -0.96537498759E+03 -0.20331962152E+04  0.22621716561E+04  0.12699999809E+01 0.  1.
       -4    1    3    3    0  502  0.22711951215E+03  0.96537498759E+03  0.75139446120E+03  0.12442376737E+04  0.12699999809E+01 0. -1.
</event>
<event>
 5   0  0.4173467E-06  0.3297716E+04  0.7818609E-02  0.8163477E-01
        2   -1    0    0  501    0  0.00000000000E+00  0.00000000000E+00  0.22531397804E+04  0.22531397805E+04  0.25500000920E-02 0.  1.
       -2   -1    0    0    0  501  0.00000000000E+00  0.00000000000E+00 -0.12066419448E+04  0.12066419448E+04  0.25500000920E-02 0. -1.
    10030    2    1    2    0    0  0.00000000000E+00  0.00000000000E+00  0.10464978357E+04  0.34597817252E+04  0.32977161591E+04 0.  0.
        4    1    3    3  502    0 -0.14449017443E+04 -0.76366391525E+03  0.29385363781E+03  0.16605045015E+04  0.12699999809E+01 0.  1.
       -4    1    3    3    0  502  0.14449017443E+04  0.76366391525E+03  0.75264419789E+03  0.17992772237E+04  0.12699999809E+01 0. -1.
</event>
<event>
 5   0  0.4344980E-06  0.3445626E+04  0.7818609E-02  0.8126798E-01
        2   -1    0    0  501    0  0.00000000000E+00  0.00000000000E+00  0.19311597192E+04  0.19311597192E+04  0.25500000920E-02 0. -1.
       -2   -1    0    0    0  501  0.00000000000E+00  0.00000000000E+00 -0.15369444305E+04  0.15369444305E+04  0.25500000920E-02 0.  1.
    10030    2    1    2    0    0  0.00000000000E+00  0.00000000000E+00  0.39421528870E+03  0.34681041496E+04  0.34456263144E+04 0.  0.
        3    1    3    3  502    0  0.36887471640E+03 -0.31993883289E+03 -0.14658373935E+04  0.15450270831E+04  0.10100000352E+00 0.  1.
       -3    1    3    3    0  502 -0.36887471640E+03  0.31993883289E+03  0.18600526822E+04  0.19230770665E+04  0.10100000352E+00 0. -1.
</event>
<event>
 5   0  0.1571391E-06  0.2486377E+04  0.7818609E-02  0.8407855E-01
       -1   -1    0    0    0  501  0.00000000000E+00  0.00000000000E+00  0.10116345436E+04  0.10116345436E+04  0.50400001928E-02 0.  1.
        1   -1    0    0  501    0  0.00000000000E+00  0.00000000000E+00 -0.15277428115E+04  0.15277428115E+04  0.50400001928E-02 0. -1.
    10030    2    1    2    0    0  0.00000000000E+00  0.00000000000E+00 -0.51610826791E+03  0.25393773552E+04  0.24863768033E+04 0.  0.
        1    1    3    3  502    0  0.41485807410E+03 -0.22438530410E+03  0.91670897313E+03  0.10309274115E+04  0.50400001928E-02 0.  1.
       -1    1    3    3    0  502 -0.41485807410E+03  0.22438530410E+03 -0.14328172410E+04  0.15084499437E+04  0.50400001928E-02 0. -1.
</event>
<event>
 5   0  0.2722449E-06  0.3331725E+04  0.7818609E-02  0.8154870E-01
       -2   -1    0    0    0  501  0.00000000000E+00  0.00000000000E+00  0.11442520976E+04  0.11442520976E+04  0.25500000920E-02 0. -1.
        2   -1    0    0  501    0  0.00000000000E+00  0.00000000000E+00 -0.24252499345E+04  0.24252499345E+04  0.25500000920E-02 0.  1.
    10030    2    1    2    0    0  0.00000000000E+00  0.00000000000E+00 -0.12809978369E+04  0.35695020321E+04  0.33317246733E+04 0.  0.
        2    1    3    3  502    0 -0.45949575433E+02  0.90944181363E+03  0.85401154628E+03  0.12484115896E+04  0.25500000920E-02 0. -1.
       -2    1    3    3    0  502  0.45949575433E+02 -0.90944181363E+03 -0.21350093832E+04  0.23210904425E+04  0.25500000920E-02 0.  1.
</event>
<event>
 5   0  0.4189587E-06  0.1836756E+04  0.7818609E-02  0.8686994E-01
       -2   -1    0    0    0  501  0.00000000000E+00  0.00000000000E+00  0.87912171957E+03  0.87912171957E+03  0.25500000920E-02 0.  1.
        2   -1    0    0  501    0  0.00000000000E+00  0.00000000000E+00 -0.95938716061E+03  0.95938716062E+03  0.25500000920E-02 0. -1.
    10030    2    1    2    0    0  0.00000000000E+00  0.00000000000E+00 -0.80265441047E+02  0.18385088802E+04  0.18367559341E+04 0.  0.
        1    1    3    3  502    0  0.63842609291E+01  0.74587705279E+03  0.49614417563E+03  0.89584171576E+03  0.50400001928E-02 0.  1.
       -1    1    3    3    0  502 -0.63842609291E+01 -0.74587705279E+03 -0.57640961668E+03  0.94266716442E+03  0.50400001928E-02 0. -1.
</event>
<event>
 5   0  0.1562618E-06  0.3290501E+04  0.7818609E-02  0.8165317E-01
       -1   -1    0    0    0  501  0.00000000000E+00  0.00000000000E+00  0.15622617657E+04  0.15622617657E+04  0.50400001928E-02 0. -1.
        1   -1    0    0  501    0  0.00000000000E+00  0.00000000000E+00 -0.17326479084E+04  0.17326479084E+04  0.50400001928E-02 0.  1.
    10030    2    1    2    0    0  0.00000000000E+00  0.00000000000E+00 -0.17038614267E+03  0.32949096742E+04  0.32905012268E+04 0.  0.
        2    1    3    3  502    0 -0.29287257276E+03  0.14564782320E+04 -0.79306761077E+03  0.16840603966E+04  0.25500000920E-02 0.  1.
       -2    1    3    3    0  502  0.29287257276E+03 -0.14564782320E+04  0.62268146810E+03  0.16108492775E+04  0.25500000920E-02 0. -1.
</event>
<event>
 5   0  0.1562618E-06  0.3400045E+04  0.7818609E-02  0.8137895E-01
       -1   -1    0    0    0  501  0.00000000000E+00  0.00000000000E+00  0.24700083497E+04  0.24700083497E+04  0.50400001928E-02 0. -1.
        1   -1    0    0  501    0  0.00000000000E+00  0.00000000000E+00 -0.11700676988E+04  0.11700676989E+04  0.50400001928E-02 0.  1.
    10030    2    1    2    0    0  0.00000000000E+00  0.00000000000E+00  0.12999406508E+04  0.36400760485E+04  0.34000452855E+04 0.  0.
        2    1    3    3  502    0 -0.15192350483E+04 -0.59631777561E+03  0.14055659519E+03  0.16381166558E+04  0.25500000920E-02 0. -1.
       -2    1    3    3    0  502  0.15192350483E+04  0.59631777561E+03  0.11593840556E+04  0.20019593927E+04  0.25500000920E-02 0.  1.
</event>
<event>
 5   0  0.4173467E-06  0.3413311E+04  0.7818609E-02  0.8134647E-01
        2   -1    0    0  501    0  0.00000000000E+00  0.00000000000E+00  0.20001181145E+04  0.20001181145E+04  0.25500000920E-02 0. -1.
       -2   -1    0    0    0  501  0.00000000000E+00  0.00000000000E+00 -0.14562502667E+04  0.14562502667E+04  0.25500000920E-02 0.  1.
    10030    2    1    2    0    0  0.00000000000E+00  0.00000000000E+00  0.54386784779E+03  0.34563683812E+04  0.34133107316E+04 0.  0.
        4    1    3    3  502    0 -0.69975938012E+03  0.14797837500E+04  0.76098358709E+03  0.18051373271E+04  0.12699999809E+01 0. -1.
       -4    1    3    3    0  502  0.69975938012E+03 -0.14797837500E+04 -0.21711573929E+03  0.16512310541E+04  0.12699999809E+01 0.  1.
</event>
<event>
 5   0  0.2722449E-06  0.2197937E+04  0.7818609E-02  0.8519287E-01
        2   -1    0    0  501    0  0.00000000000E+00  0.00000000000E+00  0.25578130436E+04  0.25578130436E+04  0.25500000920E-02 0.  1.
       -2   -1    0    0    0  501  0.00000000000E+00  0.00000000000E+00 -0.47217338762E+03  0.47217338763E+03  0.25500000920E-02 0. -1.
    10030    2    1    2    0    0  0.00000000000E+00  0.00000000000E+00  0.20856396560E+04  0.30299864313E+04  0.21979365320E+04 0.  0.
        2    1    3    3  502    0  0.57779348140E+03 -0.40560880844E+03  0.22038971979E+04  0.23142010871E+04  0.25500000920E-02 0.  1.
       -2    1    3    3    0  502 -0.57779348140E+03  0.40560880844E+03 -0.11825754193E+03  0.71578534412E+03  0.25500000920E-02 0. -1.
</event>
<event>
 5   0  0.4173467E-06  0.2209626E+04  0.7818609E-02  0.8514432E-01
        2   -1    0    0  501    0  0.00000000000E+00  0.00000000000E+00  0.11732331526E+04  0.11732331526E+04  0.25500000920E-02 0. -1.
       -2   -1    0    0    0  501  0.00000000000E+00  0.00000000000E+00 -0.10403828405E+04  0.10403828405E+04  0.25500000920E-02 0.  1.
    10030    2    1    2    0    0  0.00000000000E+00  0.00000000000E+00  0.13285031207E+03  0.22136159931E+04  0.22096258868E+04 0.  0.
        4    1    3    3  502    0 -0.78184909722E+03  0.52289259992E+03 -0.51419484470E+03  0.10719620483E+04  0.12699999809E+01 0. -1.
       -4    1    3    3    0  502  0.78184909722E+03 -0.52289259992E+03  0.64704515677E+03  0.11416539448E+04  0.12699999809E+01 0.  1.
</event>
<event>
 5   0  0.1654257E-06  0.3140633E+04  0.7818609E-02  0.8204674E-01
        1   -1    0    0  501    0  0.00000000000E+00  0.00000000000E+00  0.32366592268E+04  0.32366592268E+04  0.50400001928E-02 0.  1.
       -1   -1    0    0    0  501  0.00000000000E+00  0.00000000000E+00 -0.76186369499E+03  0.76186369501E+03  0.50400001928E-02 0. -1.
    10030    2    1    2    0    0  0.00000000000E+00  0.00000000000E+00  0.24747955318E+04  0.39985229218E+04  0.31406325210E+04 0.  0.
        3    1    3    3  502    0 -0.37861453083E+03 -0.68958187176E+03  0.29676857280E+04  0.30701841494E+04  0.10100000352E+00 0.  1.
       -3    1    3    3    0  502  0.37861453083E+03  0.68958187176E+03 -0.49289019614E+03  0.92833877247E+03  0.10100000352E+00 0. -1.
</event>
<event>
 5   0  0.1654257E-06  0.2482505E+04  0.7818609E-02  0.8409245E-01
        1   -1    0    0  501    0  0.00000000000E+00  0.00000000000E+00  0.15745487175E+04  0.15745487176E+04  0.50400001928E-02 0. -1.
       -1   -1    0    0    0  501  0.00000000000E+00  0.00000000000E+00 -0.97850778125E+03  0.97850778126E+03  0.50400001928E-02 0.  1.
    10030    2    1    2    0    0  0.00000000000E+00  0.00000000000E+00  0.59604093629E+03  0.25530564988E+04  0.24825053250E+04 0.  0.
        3    1    3    3  502    0  0.97837781146E+03  0.69683910289E+03  0.61980281462E+03  0.13516521063E+04  0.10100000352E+00 0. -1.
       -3    1    3    3    0  502 -0.97837781146E+03 -0.69683910289E+03 -0.23761878330E+02  0.12014043925E+04  0.10100000352E+00 0.  1.
</event>
<event>
 5   0  0.2722449E-06  0.3331088E+04  0.7818609E-02  0.8155030E-01
       -2   -1    0    0    0  501  0.00000000000E+00  0.00000000000E+00  0.85915730092E+03  0.85915730092E+03  0.25500000920E-02 0.  1.
        2   -1    0    0  501    0  0.00000000000E+00  0.00000000000E+00 -0.32287881848E+04  0.32287881848E+04  0.25500000920E-02 0. -1.
    10030    2    1    2    0    0  0.00000000000E+00  0.00000000000E+00 -0.23696308838E+04  0.40879454857E+04  0.33310880757E+04 0.  0.
        2    1    3    3  502    0  0.88424523697E+03  0.92074239509E+03  0.12800173614E+03  0.12829811541E+04  0.25500000920E-02 0.  1.
       -2    1    3    3    0  502 -0.88424523697E+03 -0.92074239509E+03 -0.24976326200E+04  0.28049643316E+04  0.25500000920E-02 0. -1.
</event>
<event>
 5   0  0.4400349E-06  0.3406067E+04  0.7818609E-02  0.8136419E-01
        2   -1    0    0  501    0  0.00000000000E+00  0.00000000000E+00  0.18610801696E+04  0.18610801696E+04  0.25500000920E-02 0. -1.
       -2   -1    0    0    0  501  0.00000000000E+00  0.00000000000E+00 -0.15584080319E+04  0.15584080319E+04  0.25500000920E-02 0.  1.
    10030    2    1    2    0    0  0.00000000000E+00  0.00000000000E+00  0.30267213775E+03  0.34194882015E+04  0.34060665198E+04 0.  0.
        5    1    3    3  502    0  0.15993539926E+03 -0.70708058789E+03  0.16984334650E+04  0.18466836802E+04  0.46999998093E+01 0. -1.
       -5    1    3    3    0  502 -0.15993539926E+03  0.70708058789E+03 -0.13957613272E+04  0.15728045213E+04  0.46999998093E+01 0.  1.
</event>
<event>
 5   0  0.1562618E-06  0.2893898E+04  0.7818609E-02  0.8274695E-01
       -1   -1    0    0    0  501  0.00000000000E+00  0.00000000000E+00  0.10226364793E+04  0.10226364793E+04  0.50400001928E-02 0. -1.
        1   -1    0    0  501    0  0.00000000000E+00  0.00000000000E+00 -0.20473169642E+04  0.20473169642E+04  0.50400001928E-02 0.  1.
    10030    2    1    2    0    0  0.00000000000E+00  0.00000000000E+00 -0.10246804849E+04  0.30699534434E+04  0.28938977260E+04 0.  0.
        2    1    3    3  502    0  0.58609221963E+03 -0.11548651590E+04 -0.11969240077E+04  0.17634751786E+04  0.25500000920E-02 0.  1.
       -2    1    3    3    0  502 -0.58609221963E+03  0.11548651590E+04  0.17224352274E+03  0.13064782649E+04  0.25500000920E-02 0. -1.
</event>
<event>
 5   0  0.1550164E-06  0.2547845E+04  0.7818609E-02  0.8386136E-01
        1   -1    0    0  501    0  0.00000000000E+00  0.00000000000E+00  0.12587062901E+04  0.12587062901E+04  0.50400001928E-02 0. -1.
       -1   -1    0    0    0  501  0.00000000000E+00  0.00000000000E+00 -0.12893228005E+04  0.12893228005E+04  0.50400001928E-02 0.  1.
    10030    2    1    2    0    0  0.00000000000E+00  0.00000000000E+00 -0.30616510368E+02  0.25480290906E+04  0.25478451436E+04 0.  0.
        4    1    3    3  502    0  0.44731233183E+03 -0.34929798546E+03 -0.11559078927E+04  0.12877197188E+04  0.12699999809E+01 0.  1.
       -4    1    3    3    0  502 -0.44731233183E+03  0.34929798546E+03  0.11252913823E+04  0.12603093719E+04  0.12699999809E+01 0. -1.
</event>
<event>
 5   0  0.2722449E-06  0.3474671E+04  0.7818609E-02  0.8119819E-01
       -2   -1    0    0    0  501  0.00000000000E+00  0.00000000000E+00  0.32846657317E+04  0.32846657317E+04  0.25500000920E-02 0. -1.
        2   -1    0    0  501    0  0.00000000000E+00  0.00000000000E+00 -0.91891696466E+03  0.91891696467E+03  0.25500000920E-02 0.  1.
    10030    2    1    2    0    0  0.00000000000E+00  0.00000000000E+00  0.23657487670E+04  0.42035826964E+04  0.34746712444E+04 0.  0.
        2    1    3    3  502    0  0.53064651128E+03 -0.89770687957E+03  0.28639319449E+04  0.30478795164E+04  0.25500000920E-02 0. -1.
       -2    1    3    3    0  502 -0.53064651128E+03  0.89770687957E+03 -0.49818317783E+03  0.11557031800E+04  0.25500000920E-02 0.  1.
</event>
<event>
 5   0  0.4173467E-06  0.3045505E+04  0.7818609E-02  0.8230855E-01
        2   -1    0    0  501    0  0.00000000000E+00  0.00000000000E+00  0.10782488928E+04  0.10782488928E+04  0.25500000920E-02 0. -1.
       -2   -1    0    0    0  501  0.00000000000E+00  0.00000000000E+00 -0.21505003552E+04  0.21505003552E+04  0.25500000920E-02 0.  1.
    10030    2    1    2    0    0  0.00000000000E+00  0.00000000000E+00 -0.10722514624E+04  0.32287492480E+04  0.30455046393E+04 0.  0.
        4    1    3    3  502    0 -0.82092213611E+03  0.40799528038E+03 -0.18251793643E+04  0.20424628827E+04  0.12699999809E+01 0.  1.
       -4    1    3    3    0  502  0.82092213611E+03 -0.40799528038E+03  0.75292790184E+03  0.11862863654E+04  0.12699999809E+01 0. -1.
</event>
<event>
 5   0  0.1571391E-06  0.2288496E+04  0.7818609E-02  0.8482471E-01
        1   -1    0    0  501    0  0.00000000000E+00  0.00000000000E+00  0.13274549129E+04  0.13274549129E+04  0.50400001928E-02 0.  1.
       -1   -1    0    0    0  501  0.00000000000E+00  0.00000000000E+00 -0.98632591323E+03  0.98632591324E+03  0.50400001928E-02 0. -1.
    10030    2    1    2    0    0  0.00000000000E+00  0.00000000000E+00  0.34112899967E+03  0.23137808262E+04  0.22884957324E+04 0.  0.
        1    1    3    3  502    0 -0.38304435806E+03 -0.61951850423E+03  0.10627983083E+04  0.12884356412E+04  0.50400001928E-02 0.  1.
       -1    1    3    3    0  502  0.38304435806E+03  0.61951850423E+03 -0.72166930862E+03  0.10253451850E+04  0.50400001928E-02 0. -1.
</event>
<event>
 5   0  0.4173467E-06  0.3337132E+04  0.7818609E-02  0.8153511E-01
        2   -1    0    0  501    0  0.00000000000E+00  0.00000000000E+00  0.17125725172E+04  0.17125725172E+04  0.25500000920E-02 0.  1.
       -2   -1    0    0    0  501  0.00000000000E+00  0.00000000000E+00 -0.16256907626E+04  0.16256907626E+04  0.25500000920E-02 0. -1.
    10030    2    1    2    0    0  0.00000000000E+00  0.00000000000E+00  0.86881754577E+02  0.33382632798E+04  0.33371324945E+04 0.  0.
        4    1    3    3  502    0 -0.11240685102E+04  0.99084865911E+03  0.77772000275E+03  0.16882420136E+04  0.12699999809E+01 0.  1.
       -4    1    3    3    0  502  0.11240685102E+04 -0.99084865911E+03 -0.69083824817E+03  0.16500212662E+04  0.12699999809E+01 0. -1.
</event>
<event>
 5   0  0.1562618E-06  0.1749653E+04  0.7818609E-02  0.8733541E-01
       -1   -1    0    0    0  501  0.00000000000E+00  0.00000000000E+00  0.70641216874E+03  0.70641216876E+03  0.50400001928E-02 0.  1.
        1   -1    0    0  501    0  0.00000000000E+00  0.00000000000E+00 -0.10833918376E+04  0.10833918376E+04  0.50400001928E-02 0. -1.
    10030    2    1    2    0    0  0.00000000000E+00  0.00000000000E+00 -0.37697966887E+03  0.17898040064E+04  0.17496527400E+04 0.  0.
        2    1    3    3  502    0  0.58155357958E+03 -0.54882813357E+03 -0.55146246709E+03  0.97135356011E+03  0.25500000920E-02 0. -1.
       -2    1    3    3    0  502 -0.58155357958E+03  0.54882813357E+03  0.17448279822E+03  0.81845044627E+03  0.25500000920E-02 0.  1.
</event>
<event>
 5   0  0.1550164E-06  0.3423794E+04  0.7818609E-02  0.8132091E-01
        1   -1    0    0  501    0  0.00000000000E+00  0.00000000000E+00  0.29629845382E+04  0.29629845382E+04  0.50400001928E-02 0.  1.
       -1   -1    0    0    0  501  0.00000000000E+00  0.00000000000E+00 -0.98906744307E+03  0.98906744309E+03  0.50400001928E-02 0. -1.
    10030    2    1    2    0    0  0.00000000000E+00  0.00000000000E+00  0.19739170951E+04  0.39520519813E+04  0.34237941183E+04 0.  0.
        4    1    3    3  502    0  0.16482739729E+04  0.50203238489E+01  0.45328481873E+03  0.17094739054E+04  0.12699999809E+01 0.  1.
       -4    1    3    3    0  502 -0.16482739729E+04 -0.50203238489E+01  0.15206322764E+04  0.22425780759E+04  0.12699999809E+01 0. -1.
</event>
<event>
 5   0  0.1571391E-06  0.3392549E+04  0.7818609E-02  0.8139737E-01
        1   -1    0    0  501    0  0.00000000000E+00  0.00000000000E+00  0.15206421809E+04  0.15206421809E+04  0.50400001928E-02 0. -1.
       -1   -1    0    0    0  501  0.00000000000E+00  0.00000000000E+00 -0.18921925560E+04  0.18921925560E+04  0.50400001928E-02 0.  1.
    10030    2    1    2    0    0  0.00000000000E+00  0.00000000000E+00 -0.37155037511E+03  0.34128347368E+04  0.33925493747E+04 0.  0.
        1    1    3    3  502    0  0.43301962523E+03  0.45015188891E+03  0.14007423635E+04  0.15336955003E+04  0.50400001928E-02 0. -1.
       -1    1    3    3    0  502 -0.43301962523E+03 -0.45015188891E+03 -0.17722927386E+04  0.18791392365E+04  0.50400001928E-02 0.  1.
</event>
<event>
 5   0  0.1571391E-06  0.2182041E+04  0.7818609E-02  0.8525941E-01
        1   -1    0    0  501    0  0.00000000000E+00  0.00000000000E+00  0.10731697976E+04  0.10731697977E+04  0.50400001928E-02 0. -1.
       -1   -1    0    0    0  501  0.00000000000E+00  0.00000000000E+00 -0.11091676969E+04  0.11091676969E+04  0.50400001928E-02 0.  1.
    10030    2    1    2    0    0  0.00000000000E+00  0.00000000000E+00 -0.35997899238E+02  0.21823374946E+04  0.21820405797E+04 0.  0.
        1    1    3    3  502    0 -0.45678023452E+03  0.33114334162E+03 -0.95194675820E+03  0.11065743201E+04  0.50400001928E-02 0.  1.
       -1    1    3    3    0  502  0.45678023452E+03 -0.33114334162E+03  0.91594885896E+03  0.10757631745E+04  0.50400001928E-02 0. -1.
</event>
<event>
 5   0  0.1571391E-06  0.3297367E+04  0.7818609E-02  0.8163566E-01
        1   -1    0    0  501    0  0.00000000000E+00  0.00000000000E+00  0.13492505328E+04  0.13492505328E+04  0.50400001928E-02 0.  1.
       -1   -1    0    0    0  501  0.00000000000E+00  0.00000000000E+00 -0.20145682606E+04  0.20145682606E+04  0.50400001928E-02 0. -1.
    10030    2    1    2    0    0  0.00000000000E+00  0.00000000000E+00 -0.66531772782E+03  0.33638187934E+04  0.32973670096E+04 0.  0.
        1    1    3    3  502    0  0.71163450038E+03  0.13840840214E+04  0.22240660747E+03  0.15721249758E+04  0.50400001928E-02 0.  1.
       -1    1    3    3    0  502 -0.71163450038E+03 -0.13840840214E+04 -0.88772433529E+03  0.17916938176E+04  0.50400001928E-02 0. -1.
</event>
<event>
 5   0  0.1663538E-06  0.1741669E+04  0.7818609E-02  0.8737949E-01
        1   -1    0    0  501    0  0.00000000000E+00  0.00000000000E+00  0.12295420582E+04  0.12295420582E+04  0.50400001928E-02 0. -1.
       -1   -1    0    0    0  501  0.00000000000E+00  0.00000000000E+00 -0.61677655969E+03  0.61677655971E+03  0.50400001928E-02 0.  1.
    10030    2    1    2    0    0  0.00000000000E+00  0.00000000000E+00  0.61276549851E+03  0.18463186179E+04  0.17416689934E+04 0.  0.
        2    1    3    3  502    0 -0.57995201275E+03  0.61251006119E+03  0.76953605517E+02  0.84701521212E+03  0.25500000920E-02 0.  1.
       -2    1    3    3    0  502  0.57995201275E+03 -0.61251006119E+03  0.53581189299E+03  0.99930340579E+03  0.25500000920E-02 0. -1.
</event>
<event>
 5   0  0.1550164E-06  0.2008882E+04  0.7818609E-02  0.8602479E-01
       -1   -1    0    0    0  501  0.00000000000E+00  0.00000000000E+00  0.11917544383E+04  0.11917544384E+04  0.50400001928E-02 0. -1.
        1   -1    0    0  501    0  0.00000000000E+00  0.00000000000E+00 -0.84656808812E+03  0.84656808813E+03  0.50400001928E-02 0.  1.
    10030    2    1    2    0    0  0.00000000000E+00  0.00000000000E+00  0.34518635022E+03  0.20383225265E+04  0.20088815559E+04 0.  0.
        4    1    3    3  502    0  0.13221552134E+03  0.42545629801E+03  0.10860116783E+04  0.11738470871E+04  0.12699999809E+01 0. -1.
       -4    1    3    3    0  502 -0.13221552134E+03 -0.42545629801E+03 -0.74082532810E+03  0.86447543936E+03  0.12699999809E+01 0.  1.
</event>
<event>
 5   0  0.2722449E-06  0.1702869E+04  0.7818609E-02  0.8759730E-01
       -2   -1    0    0    0  501  0.00000000000E+00  0.00000000000E+00  0.15694405061E+04  0.15694405061E+04  0.25500000920E-02 0. -1.
        2   -1    0    0  501    0  0.00000000000E+00  0.00000000000E+00 -0.46191048122E+03  0.46191048122E+03  0.25500000920E-02 0.  1.
    10030    2    1    2    0    0  0.00000000000E+00  0.00000000000E+00  0.11075300248E+04  0.20313509873E+04  0.17028693660E+04 0.  0.
        2    1    3    3  502    0  0.23556410347E+03  0.62652031923E+03  0.11815096950E+04  0.13579334728E+04  0.25500000920E-02 0. -1.
       -2    1    3    3    0  502 -0.23556410347E+03 -0.62652031923E+03 -0.73979670106E+02  0.67341751450E+03  0.25500000920E-02 0.  1.
</event>
<event>
 5   0  0.4400349E-06  0.3150309E+04  0.7818609E-02  0.8202065E-01
       -2   -1    0    0    0  501  0.00000000000E+00  0.00000000000E+00  0.13055582478E+04  0.13055582478E+04  0.25500000920E-02 0. -1.
        2   -1    0    0  501    0  0.00000000000E+00  0.00000000000E+00 -0.19004217345E+04  0.19004217345E+04  0.25500000920E-02 0.  1.
    10030    2    1    2    0    0  0.00000000000E+00  0.00000000000E+00 -0.59486348669E+03  0.32059799823E+04  0.31503087275E+04 0.  0.
        5    1    3    3  502    0  0.35769675497E+03  0.30269735456E+03 -0.18278409601E+04  0.18869545099E+04  0.46999998093E+01 0.  1.
       -5    1    3    3    0  502 -0.35769675497E+03 -0.30269735456E+03  0.12329774734E+04  0.13190254724E+04  0.46999998093E+01 0. -1.
</event>
<event>
 5   0  0.1654257E-06  0.2294328E+04  0.7818609E-02  0.8480161E-01
        1   -1    0    0  501    0  0.00000000000E+00  0.00000000000E+00  0.74796864716E+03  0.74796864718E+03  0.50400001928E-02 0. -1.
       -1   -1    0    0    0  501  0.00000000000E+00  0.00000000000E+00 -0.17594127750E+04  0.17594127750E+04  0.50400001928E-02 0.  1.
    10030    2    1    2    0    0  0.00000000000E+00  0.00000000000E+00 -0.10114441278E+04  0.25073814222E+04  0.22943283053E+04 0.  0.
        3    1    3    3  502    0 -0.10724634426E+04 -0.10587228608E+01 -0.60716150516E+02  0.10741812779E+04  0.10100000352E+00 0. -1.
       -3    1    3    3    0  502  0.10724634426E+04  0.10587228608E+01 -0.95072797732E+03  0.14332001443E+04  0.10100000352E+00 0.  1.
</event>
<event>
 5   0  0.4173467E-06  0.2712544E+04  0.7818609E-02  0.8330946E-01
       -2   -1    0    0    0  501  0.00000000000E+00  0.00000000000E+00  0.98627950362E+03  0.98627950362E+03  0.25500000920E-02 0. -1.
        2   -1    0    0  501    0  0.00000000000E+00  0.00000000000E+00 -0.18650639609E+04  0.18650639609E+04  0.25500000920E-02 0.  1.
    10030    2    1    2    0    0  0.00000000000E+00  0.00000000000E+00 -0.87878445732E+03  0.28513434646E+04  0.27125444569E+04 0.  0.
        4    1    3    3  502    0  0.33299407082E+03  0.39714547265E+03 -0.17568656057E+04  0.18317172126E+04  0.12699999809E+01 0.  1.
       -4    1    3    3    0  502 -0.33299407082E+03 -0.39714547265E+03  0.87808114837E+03  0.10196262519E+04  0.12699999809E+01 0. -1.
</event>
<event>
 5   0  0.4173467E-06  0.3423999E+04  0.7818609E-02  0.8132041E-01
        2   -1    0    0  501    0  0.00000000000E+00  0.00000000000E+00  0.20804263258E+04  0.20804263258E+04  0.25500000920E-02 0.  1.
       -2   -1    0    0    0  501  0.00000000000E+00  0.00000000000E+00 -0.14088180167E+04  0.14088180167E+04  0.25500000920E-02 0. -1.
    10030    2    1    2    0    0  0.00000000000E+00  0.00000000000E+00  0.67160830908E+03  0.34892443425E+04  0.34239988844E+04 0.  0.
        4    1    3    3  502    0  0.11144842949E+04 -0.10921055763E+04 -0.38201212112E+03  0.16064571911E+04  0.12699999809E+01 0. -1.
       -4    1    3    3    0  502 -0.11144842949E+04  0.10921055763E+04  0.10536204302E+04  0.18827871513E+04  0.12699999809E+01 0.  1.
</event>
<event>
 5   0  0.2722449E-06  0.3495571E+04  0.7818609E-02  0.8114840E-01
        2   -1    0    0  501    0  0.00000000000E+00  0.00000000000E+00  0.22434717987E+04  0.22434717987E+04  0.25500000920E-02 0.  1.
       -2   -1    0    0    0  501  0.00000000000E+00  0.00000000000E+00 -0.13616192220E+04  0.13616192220E+04  0.25500000920E-02 0. -1.
    10030    2    1    2    0    0  0.00000000000E+00  0.00000000000E+00  0.88185257668E+03  0.36050910207E+04  0.34955710979E+04 0.  0.
        2    1    3    3  502    0 -0.30936365169E+03 -0.10977288328E+04  0.18068228890E+04  0.21366617448E+04  0.25500000920E-02 0.  1.
       -2    1    3    3    0  502  0.30936365169E+03  0.10977288328E+04 -0.92497031236E+03  0.14684292758E+04  0.25500000920E-02 0. -1.
</event>
<event>
 5   0  0.4400349E-06  0.3339294E+04  0.7818609E-02  0.8152968E-01
       -2   -1    0    0    0  501  0.00000000000E+00  0.00000000000E+00  0.23850620038E+04  0.23850620038E+04  0.25500000920E-02 0. -1.
        2   -1    0    0  501    0  0.00000000000E+00  0.00000000000E+00 -0.11688252266E+04  0.11688252266E+04  0.25500000920E-02 0.  1.
    10030    2    1    2    0    0  0.00000000000E+00  0.00000000000E+00  0.12162367772E+04  0.35538872304E+04  0.33392937200E+04 0.  0.
        5    1    3    3  502    0  0.12614094320E+04 -0.57030966289E+03  0.16015336002E+04  0.21169172939E+04  0.46999998093E+01 0. -1.
       -5    1    3    3    0  502 -0.12614094320E+04  0.57030966289E+03 -0.38529682298E+03  0.14369699365E+04  0.46999998093E+01 0.  1.
</event>
<event>
 5   0  0.1562618E-06  0.3069462E+04  0.7818609E-02  0.8224169E-01
        1   -1    0    0  501    0  0.00000000000E+00  0.00000000000E+00  0.16197757446E+04  0.16197757446E+04  0.50400001928E-02 0. -1.
       -1   -1    0    0    0  501  0.00000000000E+00  0.00000000000E+00 -0.14541514135E+04  0.14541514136E+04  0.50400001928E-02 0.  1.
    10030    2    1    2    0    0  0.00000000000E+00  0.00000000000E+00  0.16562433106E+03  0.30739271582E+04  0.30694619650E+04 0.  0.
        2    1    3    3  502    0 -0.61678922165E+03 -0.44581616254E+02  0.14894845352E+04  0.16127556061E+04  0.25500000920E-02 0. -1.
       -2    1    3    3    0  502  0.61678922165E+03  0.44581616254E+02 -0.13238602041E+04  0.14611715521E+04  0.25500000920E-02 0.  1.
</event>
<event>
 5   0  0.4189587E-06  0.3352904E+04  0.7818609E-02  0.8149563E-01
        2   -1    0    0  501    0  0.00000000000E+00  0.00000000000E+00  0.23634529615E+04  0.23634529615E+04  0.25500000920E-02 0.  1.
       -2   -1    0    0    0  501  0.00000000000E+00  0.00000000000E+00 -0.11891463028E+04  0.11891463028E+04  0.25500000920E-02 0. -1.
    10030    2    1    2    0    0  0.00000000000E+00  0.00000000000E+00  0.11743066587E+04  0.35525992643E+04  0.33529040255E+04 0.  0.
        1    1    3    3  502    0 -0.88508615570E+03 -0.14029807560E+04  0.84399277811E+03  0.18611975484E+04  0.50400001928E-02 0.  1.
       -1    1    3    3    0  502  0.88508615570E+03  0.14029807560E+04  0.33031388056E+03  0.16914017159E+04  0.50400001928E-02 0. -1.
</event>
<event>
 5   0  0.1550164E-06  0.3388624E+04  0.7818609E-02  0.8140704E-01
        1   -1    0    0  501    0  0.00000000000E+00  0.00000000000E+00  0.21678234602E+04  0.21678234602E+04  0.50400001928E-02 0.  1.
       -1   -1    0    0    0  501  0.00000000000E+00  0.00000000000E+00 -0.13242279588E+04  0.13242279588E+04  0.50400001928E-02 0. -1.
    10030    2    1    2    0    0  0.00000000000E+00  0.00000000000E+00  0.84359550144E+03  0.34920514190E+04  0.33886235765E+04 0.  0.
        4    1    3    3  502    0 -0.12048149229E+04  0.64471888126E+03 -0.61050013555E+03  0.14966474076E+04  0.12699999809E+01 0. -1.
       -4    1    3    3    0  502  0.12048149229E+04 -0.64471888126E+03  0.14540956370E+04  0.19954040114E+04  0.12699999809E+01 0.  1.
</event>
<event>
 5   0  0.4400349E-06  0.3358819E+04  0.7818609E-02  0.8148088E-01
        2   -1    0    0  501    0  0.00000000000E+00  0.00000000000E+00  0.15073769794E+04  0.15073769794E+04  0.25500000920E-02 0.  1.
       -2   -1    0    0    0  501  0.00000000000E+00  0.00000000000E+00 -0.18710751503E+04  0.18710751503E+04  0.25500000920E-02 0. -1.
    10030    2    1    2    0    0  0.00000000000E+00  0.00000000000E+00 -0.36369817085E+03  0.33784521297E+04  0.33588186067E+04 0.  0.
        5    1    3    3  502    0  0.13589112106E+04  0.30241161970E+03 -0.11266485052E+04  0.17909359034E+04  0.46999998093E+01 0. -1.
       -5    1    3    3    0  502 -0.13589112106E+04 -0.30241161970E+03  0.76295033432E+03  0.15875162262E+04  0.46999998093E+01 0.  1.
</event>
<event>
 5   0  0.1571391E-06  0.3278857E+04  0.7818609E-02  0.8168296E-01
        1   -1    0    0  501    0  0.00000000000E+00  0.00000000000E+00  0.17098614842E+04  0.17098614842E+04  0.50400001928E-02 0.  1.
       -1   -1    0    0    0  501  0.00000000000E+00  0.00000000000E+00 -0.15718968258E+04  0.15718968258E+04  0.50400001928E-02 0. -1.
    10030    2    1    2    0    0  0.00000000000E+00  0.00000000000E+00  0.13796465839E+03  0.32817583100E+04  0.32788570201E+04 0.  0.
        1    1    3    3  502    0 -0.46839828175E+03  0.13999000245E+04  0.78278152485E+03  0.16708871729E+04  0.50400001928E-02 0. -1.
       -1    1    3    3    0  502  0.46839828175E+03 -0.13999000245E+04 -0.64481686646E+03  0.16108711371E+04  0.50400001928E-02 0.  1.
</event>
<event>
 5   0  0.2101998E-06  0.3432524E+04  0.7818609E-02  0.8129970E-01
        1   -1    0    0  501    0  0.00000000000E+00  0.00000000000E+00  0.23288668212E+04  0.23288668212E+04  0.50400001928E-02 0.  1.
       -1   -1    0    0    0  501  0.00000000000E+00  0.00000000000E+00 -0.12648017713E+04  0.12648017713E+04  0.50400001928E-02 0. -1.
    10030    2    1    2    0    0  0.00000000000E+00  0.00000000000E+00  0.10640650500E+04  0.35936685925E+04  0.34325237832E+04 0.  0.
        5    1    3    3  502    0 -0.86145589213E+03  0.98094395432E+03 -0.63435016371E+03  0.14514749449E+04  0.46999998093E+01 0. -1.
       -5    1    3    3    0  502  0.86145589213E+03 -0.98094395432E+03  0.16984152137E+04  0.21421936476E+04  0.46999998093E+01 0.  1.
</event>
<event>
 5   0  0.4400349E-06  0.3449335E+04  0.7818609E-02  0.8125903E-01
        2   -1    0    0  501    0  0.00000000000E+00  0.00000000000E+00  0.23727197965E+04  0.23727197965E+04  0.25500000920E-02 0.  1.
       -2   -1    0    0    0  501  0.00000000000E+00  0.00000000000E+00 -0.12536151536E+04  0.12536151536E+04  0.25500000920E-02 0. -1.
    10030    2    1    2    0    0  0.00000000000E+00  0.00000000000E+00  0.11191046429E+04  0.36263349501E+04  0.34493347139E+04 0.  0.
        5    1    3    3  502    0  0.59845165887E+03 -0.12852244377E+04 -0.47293744189E+03  0.14945361010E+04  0.46999998093E+01 0.  1.
       -5    1    3    3    0  502 -0.59845165887E+03  0.12852244377E+04  0.15920420848E+04  0.21317988491E+04  0.46999998093E+01 0. -1.
</event>
<event>
 5   0  0.4173467E-06  0.1823330E+04  0.7818609E-02  0.8693990E-01
        2   -1    0    0  501    0  0.00000000000E+00  0.00000000000E+00  0.12730065461E+04  0.12730065461E+04  0.25500000920E-02 0.  1.
       -2   -1    0    0    0  501  0.00000000000E+00  0.00000000000E+00 -0.65288994019E+03  0.65288994020E+03  0.25500000920E-02 0. -1.
    10030    2    1    2    0    0  0.00000000000E+00  0.00000000000E+00  0.62011660588E+03  0.19258964863E+04  0.18233301048E+04 0.  0.
        4    1    3    3  502    0 -0.48246629536E+03 -0.14279059899E+03  0.11130661479E+04  0.12215075701E+04  0.12699999809E+01 0.  1.
       -4    1    3    3    0  502  0.48246629536E+03  0.14279059899E+03 -0.49294954204E+03  0.70438891616E+03  0.12699999809E+01 0. -1.
</event>
<event>
 5   0  0.4344980E-06  0.1935773E+04  0.7818609E-02  0.8637252E-01
        2   -1    0    0  501    0  0.00000000000E+00  0.00000000000E+00  0.11042955333E+04  0.11042955333E+04  0.25500000920E-02 0.  1.
       -2   -1    0    0    0  501  0.00000000000E+00  0.00000000000E+00 -0.84832723376E+03  0.84832723376E+03  0.25500000920E-02 0. -1.
    10030    2    1    2    0    0  0.00000000000E+00  0.00000000000E+00  0.25596829954E+03  0.19526227671E+04  0.19357726881E+04 0.  0.
        3    1    3    3  502    0 -0.34737861578E+03  0.69362501893E+03 -0.45586011894E+03  0.89977554303E+03  0.10100000352E+00 0. -1.
       -3    1    3    3    0  502  0.34737861578E+03 -0.69362501893E+03  0.71182841848E+03  0.10528472240E+04  0.10100000352E+00 0.  1.
</event>
<event>
 5   0  0.1571391E-06  0.2877006E+04  0.7818609E-02  0.8279752E-01
       -1   -1    0    0    0  501  0.00000000000E+00  0.00000000000E+00  0.11429410753E+04  0.11429410753E+04  0.50400001928E-02 0.  1.
        1   -1    0    0  501    0  0.00000000000E+00  0.00000000000E+00 -0.18104971811E+04  0.18104971811E+04  0.50400001928E-02 0. -1.
    10030    2    1    2    0    0  0.00000000000E+00  0.00000000000E+00 -0.66755610581E+03  0.29534382565E+04  0.28770064964E+04 0.  0.
        1    1    3    3  502    0 -0.18544558845E+03  0.67660558603E+03  0.95541379892E+03  0.11853272597E+04  0.50400001928E-02 0.  1.
       -1    1    3    3    0  502  0.18544558845E+03 -0.67660558603E+03 -0.16229699047E+04  0.17681109968E+04  0.50400001928E-02 0. -1.
</event>
<event>
 5   0  0.1562618E-06  0.2966788E+04  0.7818609E-02  0.8253279E-01
        1   -1    0    0  501    0  0.00000000000E+00  0.00000000000E+00  0.22288300775E+04  0.22288300775E+04  0.50400001928E-02 0.  1.
       -1   -1    0    0    0  501  0.00000000000E+00  0.00000000000E+00 -0.98727051322E+03  0.98727051323E+03  0.50400001928E-02 0. -1.
    10030    2    1    2    0    0  0.00000000000E+00  0.00000000000E+00  0.12415595643E+04  0.32161005908E+04  0.29667883069E+04 0.  0.
        2    1    3    3  502    0  0.73648079229E+02 -0.86192552201E+03  0.19270833251E+04  0.21123422514E+04  0.25500000920E-02 0.  1.
       -2    1    3    3    0  502 -0.73648079229E+02  0.86192552201E+03 -0.68552376082E+03  0.11037583394E+04  0.25500000920E-02 0. -1.
</event>
<event>
 5   0  0.1401125E-06  0.3434156E+04  0.7818609E-02  0.8129574E-01
        3   -1    0    0  501    0  0.00000000000E+00  0.00000000000E+00  0.25028269455E+04  0.25028269475E+04  0.10100000352E+00 0.  1.
       -3   -1    0    0    0  501  0.00000000000E+00  0.00000000000E+00 -0.11780105478E+04  0.11780105521E+04  0.10100000352E+00 0. -1.
    10030    2    1    2    0    0  0.00000000000E+00  0.00000000000E+00  0.13248163977E+04  0.36808374996E+04  0.34341558222E+04 0.  0.
        5    1    3    3  502    0  0.16110177793E+03 -0.17088607669E+04  0.61241486589E+03  0.18224250222E+04  0.46999998093E+01 0.  1.
       -5    1    3    3    0  502 -0.16110177793E+03  0.17088607669E+04  0.71240153179E+03  0.18584124774E+04  0.46999998093E+01 0. -1.
</event>
<event>
 5   0  0.1550164E-06  0.2068471E+04  0.7818609E-02  0.8575261E-01
       -1   -1    0    0    0  501  0.00000000000E+00  0.00000000000E+00  0.17400193683E+04  0.17400193683E+04  0.50400001928E-02 0.  1.
        1   -1    0    0  501    0  0.00000000000E+00  0.00000000000E+00 -0.61473080803E+03  0.61473080805E+03  0.50400001928E-02 0. -1.
    10030    2    1    2    0    0  0.00000000000E+00  0.00000000000E+00  0.11252885602E+04  0.23547501763E+04  0.20684714282E+04 0.  0.
        4    1    3    3  502    0  0.34123072698E+03  0.10266846204E+02 -0.54873964153E+03  0.64626668199E+03  0.12699999809E+01 0. -1.
       -4    1    3    3    0  502 -0.34123072698E+03 -0.10266846204E+02  0.16740282018E+04  0.17084834943E+04  0.12699999809E+01 0.  1.
</event>
<event>
 5   0  0.1562618E-06  0.3431253E+04  0.7818609E-02  0.8130278E-01
        1   -1    0    0  501    0  0.00000000000E+00  0.00000000000E+00  0.28608337045E+04  0.28608337045E+04  0.50400001928E-02 0.  1.
       -1   -1    0    0    0  501  0.00000000000E+00  0.00000000000E+00 -0.10288520657E+04  0.10288520657E+04  0.50400001928E-02 0. -1.
    10030    2    1    2    0    0  0.00000000000E+00  0.00000000000E+00  0.18319816388E+04  0.38896857702E+04  0.34312532209E+04 0.  0.
        2    1    3    3  502    0 -0.86545087934E+01 -0.16530636449E+04  0.39566692983E+03  0.16997784073E+04  0.25500000920E-02 0. -1.
       -2    1    3    3    0  502  0.86545087934E+01  0.16530636449E+04  0.14363147089E+04  0.21899073628E+04  0.25500000920E-02 0.  1.
</event>
<event>
 5   0  0.1654257E-06  0.3446937E+04  0.7818609E-02  0.8126482E-01
        1   -1    0    0  501    0  0.00000000000E+00  0.00000000000E+00  0.17486129634E+04  0.17486129634E+04  0.50400001928E-02 0.  1.
       -1   -1    0    0    0  501  0.00000000000E+00  0.00000000000E+00 -0.16986855796E+04  0.16986855796E+04  0.50400001928E-02 0. -1.
    10030    2    1    2    0    0  0.00000000000E+00  0.00000000000E+00  0.49927383791E+02  0.34472985430E+04  0.34469369738E+04 0.  0.
        3    1    3    3  502    0  0.13136989208E+04  0.35201107592E+03  0.10836714295E+04  0.17389825845E+04  0.10100000352E+00 0.  1.
       -3    1    3    3    0  502 -0.13136989208E+04 -0.35201107592E+03 -0.10337440457E+04  0.17083159585E+04  0.10100000352E+00 0. -1.
</event>
<event>
 5   0  0.4173467E-06  0.1862846E+04  0.7818609E-02  0.8673574E-01
       -2   -1    0    0    0  501  0.00000000000E+00  0.00000000000E+00  0.83287558721E+03  0.83287558721E+03  0.25500000920E-02 0. -1.
        2   -1    0    0  501    0  0.00000000000E+00  0.00000000000E+00 -0.10416311479E+04  0.10416311479E+04  0.25500000920E-02 0.  1.
    10030    2    1    2    0    0  0.00000000000E+00  0.00000000000E+00 -0.20875556073E+03  0.18745067352E+04  0.18628463748E+04 0.  0.
        4    1    3    3  502    0  0.35752379360E+03 -0.78588172203E+03 -0.45601354737E+03  0.97641349453E+03  0.12699999809E+01 0.  1.
       -4    1    3    3    0  502 -0.35752379360E+03  0.78588172203E+03  0.24725798664E+03  0.89809324063E+03  0.12699999809E+01 0. -1.
</event>
<event>
 5   0  0.2101998E-06  0.2356898E+04  0.7818609E-02  0.8455819E-01
       -1   -1    0    0    0  501  0.00000000000E+00  0.00000000000E+00  0.75924658145E+03  0.75924658146E+03  0.50400001928E-02 0. -1.
        1   -1    0    0  501    0  0.00000000000E+00  0.00000000000E+00 -0.18291054419E+04  0.18291054419E+04  0.50400001928E-02 0.  1.
    10030    2    1    2    0    0  0.00000000000E+00  0.00000000000E+00 -0.10698588604E+04  0.25883520234E+04  0.23568980070E+04 0.  0.
        5    1    3    3  502    0 -0.46687279208E+03  0.85085508245E+03  0.19913958522E+03  0.99075892109E+03  0.46999998093E+01 0. -1.
       -5    1    3    3    0  502  0.46687279208E+03 -0.85085508245E+03 -0.12689984457E+04  0.15975931023E+04  0.46999998093E+01 0.  1.
</event>
<event>
 5   0  0.2722449E-06  0.2911295E+04  0.7818609E-02  0.8269525E-01
       -2   -1    0    0    0  501  0.00000000000E+00  0.00000000000E+00  0.65248518107E+03  0.65248518107E+03  0.25500000920E-02 0. -1.
        2   -1    0    0  501    0  0.00000000000E+00  0.00000000000E+00 -0.32474445078E+04  0.32474445078E+04  0.25500000920E-02 0.  1.
    10030    2    1    2    0    0  0.00000000000E+00  0.00000000000E+00 -0.25949593268E+04  0.38999296889E+04  0.29112948444E+04 0.  0.
        2    1    3    3  502    0 -0.99323942057E+03  0.66028568055E+03 -0.17958118393E+03  0.12061306431E+04  0.25500000920E-02 0. -1.
       -2    1    3    3    0  502  0.99323942057E+03 -0.66028568055E+03 -0.24153781428E+04  0.26937990459E+04  0.25500000920E-02 0.  1.
</event>
<event>
 5   0  0.1562618E-06  0.3321797E+04  0.7818609E-02  0.8157371E-01
       -1   -1    0    0    0  501  0.00000000000E+00  0.00000000000E+00  0.26884128525E+04  0.26884128525E+04  0.50400001928E-02 0. -1.
        1   -1    0    0  501    0  0.00000000000E+00  0.00000000000E+00 -0.10261011356E+04  0.10261011356E+04  0.50400001928E-02 0.  1.
    10030    2    1    2    0    0  0.00000000000E+00  0.00000000000E+00  0.16623117168E+04  0.37145139881E+04  0.33217967915E+04 0.  0.
        2    1    3    3  502    0  0.10202845241E+03  0.61917589421E+03  0.25507488872E+04  0.26268057558E+04  0.25500000920E-02 0. -1.
       -2    1    3    3    0  502 -0.10202845241E+03 -0.61917589421E+03 -0.88843717034E+03  0.10877082324E+04  0.25500000920E-02 0.  1.
</event>
<event>
 5   0  0.4344980E-06  0.3379439E+04  0.7818609E-02  0.8142971E-01
       -2   -1    0    0    0  501  0.00000000000E+00  0.00000000000E+00  0.19284189165E+04  0.19284189165E+04  0.25500000920E-02 0.  1.
        2   -1    0    0  501    0  0.00000000000E+00  0.00000000000E+00 -0.14805660655E+04  0.14805660655E+04  0.25500000920E-02 0. -1.
    10030    2    1    2    0    0  0.00000000000E+00  0.00000000000E+00  0.44785285098E+03  0.34089849820E+04  0.33794387746E+04 0.  0.
        3    1    3    3  502    0  0.62267460813E+03  0.29880694230E+03  0.17795317749E+04  0.19088589797E+04  0.10100000352E+00 0.  1.
       -3    1    3    3    0  502 -0.62267460813E+03 -0.29880694230E+03 -0.13316789239E+04  0.15001260023E+04  0.10100000352E+00 0. -1.
</event>
<event>
 5   0  0.1550164E-06  0.3246637E+04  0.7818609E-02  0.8176608E-01
        1   -1    0    0  501    0  0.00000000000E+00  0.00000000000E+00  0.18769995165E+04  0.18769995165E+04  0.50400001928E-02 0.  1.
       -1   -1    0    0    0  501  0.00000000000E+00  0.00000000000E+00 -0.14039232483E+04  0.14039232483E+04  0.50400001928E-02 0. -1.
    10030    2    1    2    0    0  0.00000000000E+00  0.00000000000E+00  0.47307626814E+03  0.32809227648E+04  0.32466371884E+04 0.  0.
        4    1    3    3  502    0  0.28251214631E+03 -0.15035518852E+04 -0.31203908798E+03  0.15613620303E+04  0.12699999809E+01 0. -1.
       -4    1    3    3    0  502 -0.28251214631E+03  0.15035518852E+04  0.78511535612E+03  0.17195607345E+04  0.12699999809E+01 0.  1.
</event>
<event>
 5   0  0.4189587E-06  0.3197807E+04  0.7818609E-02  0.8189396E-01
       -2   -1    0    0    0  501  0.00000000000E+00  0.00000000000E+00  0.10019605705E+04  0.10019605705E+04  0.25500000920E-02 0.  1.
        2   -1    0    0  501    0  0.00000000000E+00  0.00000000000E+00 -0.25514906624E+04  0.25514906624E+04  0.25500000920E-02 0. -1.
    10030    2    1    2    0    0  0.00000000000E+00  0.00000000000E+00 -0.15495300919E+04  0.35534512329E+04  0.31978073986E+04 0.  0.
        1    1    3    3  502    0 -0.10786277974E+04 -0.39709856582E+03  0.46031812138E+03  0.12381510284E+04  0.50400001928E-02 0.  1.
       -1    1    3    3    0  502  0.10786277974E+04  0.39709856582E+03 -0.20098482133E+04  0.23153002044E+04  0.50400001928E-02 0. -1.
</event>
<event>
 5   0  0.1654257E-06  0.1891559E+04  0.7818609E-02  0.8659070E-01
       -1   -1    0    0    0  501  0.00000000000E+00  0.00000000000E+00  0.70136722769E+03  0.70136722771E+03  0.50400001928E-02 0.  1.
        1   -1    0    0  501    0  0.00000000000E+00  0.00000000000E+00 -0.12753638887E+04  0.12753638887E+04  0.50400001928E-02 0. -1.
    10030    2    1    2    0    0  0.00000000000E+00  0.00000000000E+00 -0.57399666096E+03  0.19767311164E+04  0.18915585478E+04 0.  0.
        3    1    3    3  502    0  0.23038357833E+03 -0.56599318992E+02 -0.12437657812E+04  0.12661885345E+04  0.10100000352E+00 0. -1.
       -3    1    3    3    0  502 -0.23038357833E+03  0.56599318992E+02  0.66976912025E+03  0.71054258192E+03  0.10100000352E+00 0.  1.
</event>
<event>
 5   0  0.2101998E-06  0.3380866E+04  0.7818609E-02  0.8142618E-01
        1   -1    0    0  501    0  0.00000000000E+00  0.00000000000E+00  0.99522276804E+03  0.99522276805E+03  0.50400001928E-02 0.  1.
       -1   -1    0    0    0  501  0.00000000000E+00  0.00000000000E+00 -0.28712805110E+04  0.28712805110E+04  0.50400001928E-02 0. -1.
    10030    2    1    2    0    0  0.00000000000E+00  0.00000000000E+00 -0.18760577430E+04  0.38665032791E+04  0.33808660062E+04 0.  0.
        5    1    3    3  502    0  0.14937759862E+03 -0.15630078956E+04 -0.22178122449E+03  0.15857226587E+04  0.46999998093E+01 0.  1.
       -5    1    3    3    0  502 -0.14937759862E+03  0.15630078956E+04 -0.16542765185E+04  0.22807806204E+04  0.46999998093E+01 0. -1.
</event>
<event>
 5   0  0.1571391E-06  0.3440859E+04  0.7818609E-02  0.8127950E-01
        1   -1    0    0  501    0  0.00000000000E+00  0.00000000000E+00  0.10516844434E+04  0.10516844434E+04  0.50400001928E-02 0. -1.
       -1   -1    0    0    0  501  0.00000000000E+00  0.00000000000E+00 -0.28144165990E+04  0.28144165990E+04  0.50400001928E-02 0.  1.
    10030    2    1    2    0    0  0.00000000000E+00  0.00000000000E+00 -0.17627321557E+04  0.38661010424E+04  0.34408592847E+04 0.  0.
        1    1    3    3  502    0 -0.14649229623E+04  0.85058162302E+03 -0.12191709678E+04  0.20870712091E+04  0.50400001928E-02 0. -1.
       -1    1    3    3    0  502  0.14649229623E+04 -0.85058162302E+03 -0.54356118788E+03  0.17790298333E+04  0.50400001928E-02 0.  1.
</event>
<event>
 5   0  0.4344980E-06  0.1837666E+04  0.7818609E-02  0.8686522E-01
        2   -1    0    0  501    0  0.00000000000E+00  0.00000000000E+00  0.90283016626E+03  0.90283016626E+03  0.25500000920E-02 0.  1.
       -2   -1    0    0    0  501  0.00000000000E+00  0.00000000000E+00 -0.93511975459E+03  0.93511975460E+03  0.25500000920E-02 0. -1.
    10030    2    1    2    0    0  0.00000000000E+00  0.00000000000E+00 -0.32289588335E+02  0.18379499209E+04  0.18376662630E+04 0.  0.
        3    1    3    3  502    0 -0.60303613099E+03 -0.65243235922E+03  0.21827089403E+03  0.91485668387E+03  0.10100000352E+00 0.  1.
       -3    1    3    3    0  502  0.60303613099E+03  0.65243235922E+03 -0.25056048237E+03  0.92309323699E+03  0.10100000352E+00 0. -1.
</event>
<event>
 5   0  0.4189587E-06  0.3377320E+04  0.7818609E-02  0.8143495E-01
        2   -1    0    0  501    0  0.00000000000E+00  0.00000000000E+00  0.14319630237E+04  0.14319630237E+04  0.25500000920E-02 0.  1.
       -2   -1    0    0    0  501  0.00000000000E+00  0.00000000000E+00 -0.19913731512E+04  0.19913731512E+04  0.25500000920E-02 0. -1.
    10030    2    1    2    0    0  0.00000000000E+00  0.00000000000E+00 -0.55941012756E+03  0.34233361749E+04  0.33773200730E+04 0.  0.
        1    1    3    3  502    0  0.15533303630E+04  0.70047484203E+02  0.38792755217E+03  0.16025697028E+04  0.50400001928E-02 0.  1.
       -1    1    3    3    0  502 -0.15533303630E+04 -0.70047484203E+02 -0.94733767973E+03  0.18207664721E+04  0.50400001928E-02 0. -1.
</event>
<event>
 5   0  0.4173467E-06  0.2041821E+04  0.7818609E-02  0.8587314E-01
        2   -1    0    0  501    0  0.00000000000E+00  0.00000000000E+00  0.69921660317E+03  0.69921660318E+03  0.25500000920E-02 0.  1.
       -2   -1    0    0    0  501  0.00000000000E+00  0.00000000000E+00 -0.14906088380E+04  0.14906088380E+04  0.25500000920E-02 0. -1.
    10030    2    1    2    0    0  0.00000000000E+00  0.00000000000E+00 -0.79139223482E+03  0.21898254412E+04  0.20418211953E+04 0.  0.
        4    1    3    3  502    0 -0.19532807361E+03  0.58569006037E+03  0.47630254754E+03  0.77977665575E+03  0.12699999809E+01 0.  1.
       -4    1    3    3    0  502  0.19532807361E+03 -0.58569006037E+03 -0.12676947824E+04  0.14100487854E+04  0.12699999809E+01 0. -1.
</event>
<event>
 5   0  0.4400349E-06  0.2767089E+04  0.7818609E-02  0.8313559E-01
       -2   -1    0    0    0  501  0.00000000000E+00  0.00000000000E+00  0.96112368188E+03  0.96112368188E+03  0.25500000920E-02 0. -1.
        2   -1    0    0  501    0  0.00000000000E+00  0.00000000000E+00 -0.19916223702E+04  0.19916223702E+04  0.25500000920E-02 0.  1.
    10030    2    1    2    0    0  0.00000000000E+00  0.00000000000E+00 -0.10304986883E+04  0.29527460521E+04  0.27670890303E+04 0.  0.
        5    1    3    3  502    0  0.67336053701E+02  0.17907748007E+03 -0.19774301726E+04  0.19866693398E+04  0.46999998093E+01 0.  1.
       -5    1    3    3    0  502 -0.67336053701E+02 -0.17907748007E+03  0.94693148433E+03  0.96607671228E+03  0.46999998093E+01 0. -1.
</event>
<event>
 5   0  0.4400349E-06  0.3336630E+04  0.7818609E-02  0.8153637E-01
        2   -1    0    0  501    0  0.00000000000E+00  0.00000000000E+00  0.30147203025E+04  0.30147203025E+04  0.25500000920E-02 0.  1.
       -2   -1    0    0    0  501  0.00000000000E+00  0.00000000000E+00 -0.92322799245E+03  0.92322799245E+03  0.25500000920E-02 0. -1.
    10030    2    1    2    0    0  0.00000000000E+00  0.00000000000E+00  0.20914923101E+04  0.39379482950E+04  0.33366295405E+04 0.  0.
        5    1    3    3  502    0  0.97490459529E+03 -0.57565833514E+03 -0.40040819953E+03  0.12009039533E+04  0.46999998093E+01 0. -1.
       -5    1    3    3    0  502 -0.97490459529E+03  0.57565833514E+03  0.24919005096E+04  0.27370443417E+04  0.46999998093E+01 0.  1.
</event>
<event>
 5   0  0.2722449E-06  0.1885237E+04  0.7818609E-02  0.8662240E-01
        2   -1    0    0  501    0  0.00000000000E+00  0.00000000000E+00  0.10171118733E+04  0.10171118733E+04  0.25500000920E-02 0. -1.
       -2   -1    0    0    0  501  0.00000000000E+00  0.00000000000E+00 -0.87358058725E+03  0.87358058726E+03  0.25500000920E-02 0.  1.
    10030    2    1    2    0    0  0.00000000000E+00  0.00000000000E+00  0.14353128609E+03  0.18906924606E+04  0.18852365237E+04 0.  0.
        2    1    3    3  502    0  0.88332644135E+03 -0.29978929927E+02  0.40037967723E+03  0.97029285485E+03  0.25500000920E-02 0.  1.
       -2    1    3    3    0  502 -0.88332644135E+03  0.29978929927E+02 -0.25684839114E+03  0.92039960575E+03  0.25500000920E-02 0. -1.
</event>
<event>
 5   0  0.2101998E-06  0.3354463E+04  0.7818609E-02  0.8149174E-01
        1   -1    0    0  501    0  0.00000000000E+00  0.00000000000E+00  0.27029222448E+04  0.27029222448E+04  0.50400001928E-02 0.  1.
       -1   -1    0    0    0  501  0.00000000000E+00  0.00000000000E+00 -0.10407643769E+04  0.10407643769E+04  0.50400001928E-02 0. -1.
    10030    2    1    2    0    0  0.00000000000E+00  0.00000000000E+00  0.16621578680E+04  0.37436866217E+04  0.33544628100E+04 0.  0.
        5    1    3    3  502    0  0.55013999557E+03 -0.15839993791E+04  0.78969464891E+03  0.18534691193E+04  0.46999998093E+01 0. -1.
       -5    1    3    3    0  502 -0.55013999557E+03  0.15839993791E+04  0.87246321905E+03  0.18902175024E+04  0.46999998093E+01 0.  1.
</event>
<event>
 5   0  0.1550164E-06  0.3340139E+04  0.7818609E-02  0.8152757E-01
        1   -1    0    0  501    0  0.00000000000E+00  0.00000000000E+00  0.19276066416E+04  0.19276066416E+04  0.50400001928E-02 0.  1.
       -1   -1    0    0    0  501  0.00000000000E+00  0.00000000000E+00 -0.14469402057E+04  0.14469402057E+04  0.50400001928E-02 0. -1.
    10030    2    1    2    0    0  0.00000000000E+00  0.00000000000E+00  0.48066643587E+03  0.33745468473E+04  0.33401386501E+04 0.  0.
        4    1    3    3  502    0  0.73941476975E+03 -0.10716972375E+04 -0.81631880720E+03  0.15367651670E+04  0.12699999809E+01 0. -1.
       -4    1    3    3    0  502 -0.73941476975E+03  0.10716972375E+04  0.12969852431E+04  0.18377816803E+04  0.12699999809E+01 0.  1.
</event>
<event>
 5   0  0.1654257E-06  0.3305766E+04  0.7818609E-02  0.8161430E-01
        1   -1    0    0  501    0  0.00000000000E+00  0.00000000000E+00  0.78834272967E+03  0.78834272968E+03  0.50400001928E-02 0.  1.
       -1   -1    0    0    0  501  0.00000000000E+00  0.00000000000E+00 -0.34655258646E+04  0.34655258646E+04  0.50400001928E-02 0. -1.
    10030    2    1    2    0    0  0.00000000000E+00  0.00000000000E+00 -0.26771831349E+04  0.42538685943E+04  0.33057659445E+04 0.  0.
        3    1    3    3  502    0  0.45480017322E+03 -0.15833800787E+04 -0.11655348361E+04  0.20180205984E+04  0.10100000352E+00 0.  1.
       -3    1    3    3    0  502 -0.45480017322E+03  0.15833800787E+04 -0.15116482988E+04  0.22358479959E+04  0.10100000352E+00 0. -1.
</event>
<event>
 5   0  0.1654257E-06  0.2190188E+04  0.7818609E-02  0.8522523E-01
        1   -1    0    0  501    0  0.00000000000E+00  0.00000000000E+00  0.81937103576E+03  0.81937103577E+03  0.50400001928E-02 0.  1.
       -1   -1    0    0    0  501  0.00000000000E+00  0.00000000000E+00 -0.14635987236E+04  0.14635987236E+04  0.50400001928E-02 0. -1.
    10030    2    1    2    0    0  0.00000000000E+00  0.00000000000E+00 -0.64422768784E+03  0.22829697594E+04  0.21901875738E+04 0.  0.
        3    1    3    3  502    0 -0.94523240082E+03  0.28876047987E+02  0.25348583704E+03  0.97905730041E+03  0.10100000352E+00 0.  1.
       -3    1    3    3    0  502  0.94523240082E+03 -0.28876047987E+02 -0.89771352489E+03  0.13039124590E+04  0.10100000352E+00 0. -1.
</event>
<event>
 5   0  0.2722449E-06  0.2732049E+04  0.7818609E-02  0.8324681E-01
        2   -1    0    0  501    0  0.00000000000E+00  0.00000000000E+00  0.15024265443E+04  0.15024265443E+04  0.25500000920E-02 0. -1.
       -2   -1    0    0    0  501  0.00000000000E+00  0.00000000000E+00 -0.12420056477E+04  0.12420056477E+04  0.25500000920E-02 0.  1.
    10030    2    1    2    0    0  0.00000000000E+00  0.00000000000E+00  0.26042089654E+03  0.27444321920E+04  0.27320485013E+04 0.  0.
        2    1    3    3  502    0 -0.62683912493E+03 -0.25956927197E+03  0.13212147223E+04  0.14852312405E+04  0.25500000920E-02 0. -1.
       -2    1    3    3    0  502  0.62683912493E+03  0.25956927197E+03 -0.10607938257E+04  0.12592009515E+04  0.25500000920E-02 0.  1.
</event>
<event>
 5   0  0.2722449E-06  0.2966117E+04  0.7818609E-02  0.8253473E-01
        2   -1    0    0  501    0  0.00000000000E+00  0.00000000000E+00  0.28691126278E+04  0.28691126278E+04  0.25500000920E-02 0.  1.
       -2   -1    0    0    0  501  0.00000000000E+00  0.00000000000E+00 -0.76660027389E+03  0.76660027389E+03  0.25500000920E-02 0. -1.
    10030    2    1    2    0    0  0.00000000000E+00  0.00000000000E+00  0.21025123539E+04  0.36357129017E+04  0.29661170080E+04 0.  0.
        2    1    3    3  502    0  0.31116860533E+03 -0.53078269153E+03 -0.60278039744E+03  0.86133638847E+03  0.25500000920E-02 0. -1.
       -2    1    3    3    0  502 -0.31116860533E+03  0.53078269153E+03  0.27052927513E+04  0.27743765132E+04  0.25500000920E-02 0.  1.
</event>
<event>
 5   0  0.1550164E-06  0.3178827E+04  0.7818609E-02  0.8194431E-01
        1   -1    0    0  501    0  0.00000000000E+00  0.00000000000E+00  0.22269402663E+04  0.22269402663E+04  0.50400001928E-02 0. -1.
       -1   -1    0    0    0  501  0.00000000000E+00  0.00000000000E+00 -0.11343974803E+04  0.11343974803E+04  0.50400001928E-02 0.  1.
    10030    2    1    2    0    0  0.00000000000E+00  0.00000000000E+00  0.10925427860E+04  0.33613377467E+04  0.31788270963E+04 0.  0.
        4    1    3    3  502    0  0.18464987356E+03 -0.14932474749E+03 -0.11155321772E+04  0.11405293101E+04  0.12699999809E+01 0.  1.
       -4    1    3    3    0  502 -0.18464987356E+03  0.14932474749E+03  0.22080749632E+04  0.22208084365E+04  0.12699999809E+01 0. -1.
</event>
<event>
 5   0  0.1571391E-06  0.3372728E+04  0.7818609E-02  0.8144632E-01
        1   -1    0    0  501    0  0.00000000000E+00  0.00000000000E+00  0.89704523634E+03  0.89704523635E+03  0.50400001928E-02 0. -1.
       -1   -1    0    0    0  501  0.00000000000E+00  0.00000000000E+00 -0.31702115265E+04  0.31702115265E+04  0.50400001928E-02 0.  1.
    10030    2    1    2    0    0  0.00000000000E+00  0.00000000000E+00 -0.22731662901E+04  0.40672567628E+04  0.33727277673E+04 0.  0.
        1    1    3    3  502    0  0.77644967163E+03 -0.45697219243E+03  0.58249477198E+03  0.10728456723E+04  0.50400001928E-02 0. -1.
       -1    1    3    3    0  502 -0.77644967163E+03  0.45697219243E+03 -0.28556610621E+04  0.29944110905E+04  0.50400001928E-02 0.  1.
</event>
<event>
 5   0  0.1550164E-06  0.2465683E+04  0.7818609E-02  0.8415314E-01
       -1   -1    0    0    0  501  0.00000000000E+00  0.00000000000E+00  0.12727972499E+04  0.12727972499E+04  0.50400001928E-02 0. -1.
        1   -1    0    0  501    0  0.00000000000E+00  0.00000000000E+00 -0.11941403946E+04  0.11941403946E+04  0.50400001928E-02 0.  1.
    10030    2    1    2    0    0  0.00000000000E+00  0.00000000000E+00  0.78656855325E+02  0.24669376445E+04  0.24656833618E+04 0.  0.
        4    1    3    3  502    0 -0.73267063182E+03  0.68326284129E+03 -0.67953733639E+03  0.12105482103E+04  0.12699999809E+01 0.  1.
       -4    1    3    3    0  502  0.73267063182E+03 -0.68326284129E+03  0.75819419172E+03  0.12563894342E+04  0.12699999809E+01 0. -1.
</event>
<event>
 5   0  0.1654257E-06  0.3631130E+04  0.7818609E-02  0.8083398E-01
       -1   -1    0    0    0  501  0.00000000000E+00  0.00000000000E+00  0.18446939543E+04  0.18446939543E+04  0.50400001928E-02 0.  1.
        1   -1    0    0  501    0  0.00000000000E+00  0.00000000000E+00 -0.17868955401E+04  0.17868955401E+04  0.50400001928E-02 0. -1.
    10030    2    1    2    0    0  0.00000000000E+00  0.00000000000E+00  0.57798414172E+02  0.36315894944E+04  0.36311295211E+04 0.  0.
        3    1    3    3  502    0  0.35431253074E+03 -0.38720967611E+03 -0.17093677623E+04  0.17881294303E+04  0.10100000352E+00 0. -1.
       -3    1    3    3    0  502 -0.35431253074E+03  0.38720967611E+03  0.17671661764E+04  0.18434600641E+04  0.10100000352E+00 0.  1.
</event>
<event>
 5   0  0.4173467E-06  0.3669761E+04  0.7818609E-02  0.8074696E-01
       -2   -1    0    0    0  501  0.00000000000E+00  0.00000000000E+00  0.19468854878E+04  0.19468854878E+04  0.25500000920E-02 0. -1.
        2   -1    0    0  501    0  0.00000000000E+00  0.00000000000E+00 -0.17293193311E+04  0.17293193311E+04  0.25500000920E-02 0.  1.
    10030    2    1    2    0    0  0.00000000000E+00  0.00000000000E+00  0.21756615663E+03  0.36762048189E+04  0.36697611418E+04 0.  0.
        4    1    3    3  502    0  0.11355630464E+04  0.87694415320E+03 -0.10370131183E+04  0.17702915863E+04  0.12699999809E+01 0.  1.
       -4    1    3    3    0  502 -0.11355630464E+04 -0.87694415320E+03  0.12545792750E+04  0.19059132326E+04  0.12699999809E+01 0. -1.
</event>
<event>
 5   0  0.4189587E-06  0.2845755E+04  0.7818609E-02  0.8289202E-01
       -2   -1    0    0    0  501  0.00000000000E+00  0.00000000000E+00  0.15615772494E+04  0.15615772494E+04  0.25500000920E-02 0.  1.
        2   -1    0    0  501    0  0.00000000000E+00  0.00000000000E+00 -0.12964973079E+04  0.12964973079E+04  0.25500000920E-02 0. -1.
    10030    2    1    2    0    0  0.00000000000E+00  0.00000000000E+00  0.26507994142E+03  0.28580745573E+04  0.28457552249E+04 0.  0.
        1    1    3    3  502    0  0.53744371957E+03 -0.92870888035E+03 -0.80597568223E+03  0.13419920777E+04  0.50400001928E-02 0. -1.
       -1    1    3    3    0  502 -0.53744371957E+03  0.92870888035E+03  0.10710556236E+04  0.15160824797E+04  0.50400001928E-02 0.  1.
</event>
<event>
 5   0  0.4189587E-06  0.3194911E+04  0.7818609E-02  0.8190163E-01
       -2   -1    0    0    0  501  0.00000000000E+00  0.00000000000E+00  0.13651105802E+04  0.13651105802E+04  0.25500000920E-02 0. -1.
        2   -1    0    0  501    0  0.00000000000E+00  0.00000000000E+00 -0.18693455359E+04  0.18693455359E+04  0.25500000920E-02 0.  1.
    10030    2    1    2    0    0  0.00000000000E+00  0.00000000000E+00 -0.50423495566E+03  0.32344561161E+04  0.31949105584E+04 0.  0.
        1    1    3    3  502    0 -0.50362941064E+03 -0.26436233806E+03 -0.17633546855E+04  0.18528221113E+04  0.50400001928E-02 0.  1.
       -1    1    3    3    0  502  0.50362941064E+03  0.26436233806E+03  0.12591197299E+04  0.13816340048E+04  0.50400001928E-02 0. -1.
</event>
<event>
 5   0  0.4344980E-06  0.3431215E+04  0.7818609E-02  0.8130287E-01
       -2   -1    0    0    0  501  0.00000000000E+00  0.00000000000E+00  0.10302975173E+04  0.10302975173E+04  0.25500000920E-02 0. -1.
        2   -1    0    0  501    0  0.00000000000E+00  0.00000000000E+00 -0.28567560598E+04  0.28567560598E+04  0.25500000920E-02 0.  1.
    10030    2    1    2    0    0  0.00000000000E+00  0.00000000000E+00 -0.18264585426E+04  0.38870535771E+04  0.34312147563E+04 0.  0.
        3    1    3    3  502    0 -0.86026597137E+03  0.82725923345E+03  0.48293415416E+03  0.12874939954E+04  0.10100000352E+00 0. -1.
       -3    1    3    3    0  502  0.86026597137E+03 -0.82725923345E+03 -0.23093926967E+04  0.25995595817E+04  0.10100000352E+00 0.  1.
</event>
<event>
 5   0  0.4344980E-06  0.3202413E+04  0.7818609E-02  0.8188180E-01
        2   -1    0    0  501    0  0.00000000000E+00  0.00000000000E+00  0.15198269221E+04  0.15198269221E+04  0.25500000920E-02 0. -1.
       -2   -1    0    0    0  501  0.00000000000E+00  0.00000000000E+00 -0.16869431595E+04  0.16869431595E+04  0.25500000920E-02 0.  1.
    10030    2    1    2    0    0  0.00000000000E+00  0.00000000000E+00 -0.16711623743E+03  0.32067700816E+04  0.32024126092E+04 0.  0.
        3    1    3    3  502    0 -0.41251046301E+03 -0.16296684505E+03 -0.16242023943E+04  0.16836735143E+04  0.10100000352E+00 0.  1.
       -3    1    3    3    0  502  0.41251046301E+03  0.16296684505E+03  0.14570861569E+04  0.15230965674E+04  0.10100000352E+00 0. -1.
</event>
<event>
 5   0  0.4400349E-06  0.3377509E+04  0.7818609E-02  0.8143448E-01
       -2   -1    0    0    0  501  0.00000000000E+00  0.00000000000E+00  0.15316427345E+04  0.15316427345E+04  0.25500000920E-02 0.  1.
        2   -1    0    0  501    0  0.00000000000E+00  0.00000000000E+00 -0.18619829025E+04  0.18619829025E+04  0.25500000920E-02 0. -1.
    10030    2    1    2    0    0  0.00000000000E+00  0.00000000000E+00 -0.33034016801E+03  0.33936256369E+04  0.33775094874E+04 0.  0.
        5    1    3    3  502    0 -0.12097713757E+04 -0.85110079456E+03  0.65354995107E+03  0.16171174888E+04  0.46999998093E+01 0.  1.
       -5    1    3    3    0  502  0.12097713757E+04  0.85110079456E+03 -0.98389011909E+03  0.17765081482E+04  0.46999998093E+01 0. -1.
</event>
<event>
 5   0  0.1571391E-06  0.3481941E+04  0.7818609E-02  0.8118083E-01
       -1   -1    0    0    0  501  0.00000000000E+00  0.00000000000E+00  0.15072628617E+04  0.15072628617E+04  0.50400001928E-02 0. -1.
        1   -1    0    0  501    0  0.00000000000E+00  0.00000000000E+00 -0.20109155566E+04  0.20109155566E+04  0.50400001928E-02 0.  1.
    10030    2    1    2    0    0  0.00000000000E+00  0.00000000000E+00 -0.50365269495E+03  0.35181784183E+04  0.34819410314E+04 0.  0.
        1    1    3    3  502    0 -0.52175074354E+03  0.37675635553E+03 -0.18863171192E+04  0.19930783888E+04  0.50400001928E-02 0.  1.
       -1    1    3    3    0  502  0.52175074354E+03 -0.37675635553E+03  0.13826644242E+04  0.15251000295E+04  0.50400001928E-02 0. -1.
</event>
<event>
 5   0  0.4173467E-06  0.3231789E+04  0.7818609E-02  0.8180472E-01
       -2   -1    0    0    0  501  0.00000000000E+00  0.00000000000E+00  0.14978750409E+04  0.14978750409E+04  0.25500000920E-02 0.  1.
        2   -1    0    0  501    0  0.00000000000E+00  0.00000000000E+00 -0.17432129165E+04  0.17432129165E+04  0.25500000920E-02 0. -1.
    10030    2    1    2    0    0  0.00000000000E+00  0.00000000000E+00 -0.24533787552E+03  0.32410879574E+04  0.32317890517E+04 0.  0.
        4    1    3    3  502    0 -0.71011825590E+03 -0.71927241541E+03  0.11417095234E+04  0.15248353989E+04  0.12699999809E+01 0.  1.
       -4    1    3    3    0  502  0.71011825590E+03  0.71927241541E+03 -0.13870473989E+04  0.17162525585E+04  0.12699999809E+01 0. -1.
</event>
<event>
 5   0  0.1654257E-06  0.3386023E+04  0.7818609E-02  0.8141345E-01
        1   -1    0    0  501    0  0.00000000000E+00  0.00000000000E+00  0.17483348084E+04  0.17483348084E+04  0.50400001928E-02 0. -1.
       -1   -1    0    0    0  501  0.00000000000E+00  0.00000000000E+00 -0.16394387864E+04  0.16394387864E+04  0.50400001928E-02 0.  1.
    10030    2    1    2    0    0  0.00000000000E+00  0.00000000000E+00  0.10889602200E+03  0.33877735948E+04  0.33860229748E+04 0.  0.
        3    1    3    3  502    0 -0.78523437065E+03  0.66112279150E+03  0.14014767034E+04  0.17371854601E+04  0.10100000352E+00 0. -1.
       -3    1    3    3    0  502  0.78523437065E+03 -0.66112279150E+03 -0.12925806814E+04  0.16505881347E+04  0.10100000352E+00 0.  1.
</event>
<event>
 5   0  0.1562618E-06  0.3487067E+04  0.7818609E-02  0.8116862E-01
        1   -1    0    0  501    0  0.00000000000E+00  0.00000000000E+00  0.19150925449E+04  0.19150925450E+04  0.50400001928E-02 0.  1.
       -1   -1    0    0    0  501  0.00000000000E+00  0.00000000000E+00 -0.15873432720E+04  0.15873432720E+04  0.50400001928E-02 0. -1.
    10030    2    1    2    0    0  0.00000000000E+00  0.00000000000E+00  0.32774927294E+03  0.35024358170E+04  0.34870671152E+04 0.  0.
        2    1    3    3  502    0  0.23926365258E+03  0.96425210320E+03 -0.12752276612E+04  0.16165502782E+04  0.25500000920E-02 0. -1.
       -2    1    3    3    0  502 -0.23926365258E+03 -0.96425210320E+03  0.16029769342E+04  0.18858855388E+04  0.25500000920E-02 0.  1.
</event>
<event>
 5   0  0.1550164E-06  0.2268408E+04  0.7818609E-02  0.8490483E-01
       -1   -1    0    0    0  501  0.00000000000E+00  0.00000000000E+00  0.69330726237E+03  0.69330726239E+03  0.50400001928E-02 0. -1.
        1   -1    0    0  501    0  0.00000000000E+00  0.00000000000E+00 -0.18554810743E+04  0.18554810743E+04  0.50400001928E-02 0.  1.
    10030    2    1    2    0    0  0.00000000000E+00  0.00000000000E+00 -0.11621738120E+04  0.25487883367E+04  0.22684078152E+04 0.  0.
        4    1    3    3  502    0  0.19239009901E+03 -0.10512549197E+04 -0.10078576929E+04  0.14689893119E+04  0.12699999809E+01 0.  1.
       -4    1    3    3    0  502 -0.19239009901E+03  0.10512549197E+04 -0.15431611907E+03  0.10797990248E+04  0.12699999809E+01 0. -1.
</event>
<event>
 5   0  0.4173467E-06  0.3355293E+04  0.7818609E-02  0.8148967E-01
       -2   -1    0    0    0  501  0.00000000000E+00  0.00000000000E+00  0.26196397076E+04  0.26196397076E+04  0.25500000920E-02 0.  1.
        2   -1    0    0  501    0  0.00000000000E+00  0.00000000000E+00 -0.10743832782E+04  0.10743832782E+04  0.25500000920E-02 0. -1.
    10030    2    1    2    0    0  0.00000000000E+00  0.00000000000E+00  0.15452564294E+04  0.36940229858E+04  0.33552925934E+04 0.  0.
        4    1    3    3  502    0 -0.10366725163E+04  0.10028481720E+03 -0.67534550906E+03  0.12413058125E+04  0.12699999809E+01 0. -1.
       -4    1    3    3    0  502  0.10366725163E+04 -0.10028481720E+03  0.22206019385E+04  0.24527171734E+04  0.12699999809E+01 0.  1.
</event>
<event>
 5   0  0.2101998E-06  0.3364812E+04  0.7818609E-02  0.8146597E-01
        1   -1    0    0  501    0  0.00000000000E+00  0.00000000000E+00  0.12783842243E+04  0.12783842243E+04  0.50400001928E-02 0. -1.
       -1   -1    0    0    0  501  0.00000000000E+00  0.00000000000E+00 -0.22141148023E+04  0.22141148023E+04  0.50400001928E-02 0.  1.
    10030    2    1    2    0    0  0.00000000000E+00  0.00000000000E+00 -0.93573057797E+03  0.34924990266E+04  0.33648116941E+04 0.  0.
        5    1    3    3  502    0 -0.39529360686E+03 -0.14288401215E+04 -0.12934261998E+04  0.19674385766E+04  0.46999998093E+01 0.  1.
       -5    1    3    3    0  502  0.39529360686E+03  0.14288401215E+04  0.35769562181E+03  0.15250604500E+04  0.46999998093E+01 0. -1.
</event>
<event>
 5   0  0.1654257E-06  0.3235809E+04  0.7818609E-02  0.8179424E-01
       -1   -1    0    0    0  501  0.00000000000E+00  0.00000000000E+00  0.17616664612E+04  0.17616664612E+04  0.50400001928E-02 0. -1.
        1   -1    0    0  501    0  0.00000000000E+00  0.00000000000E+00 -0.14858747286E+04  0.14858747286E+04  0.50400001928E-02 0.  1.
    10030    2    1    2    0    0  0.00000000000E+00  0.00000000000E+00  0.27579173256E+03  0.32475411898E+04  0.32358094350E+04 0.  0.
        3    1    3    3  502    0 -0.89883294734E+03 -0.12795655116E+04 -0.27885306215E+03  0.15883789240E+04  0.10100000352E+00 0. -1.
       -3    1    3    3    0  502  0.89883294734E+03  0.12795655116E+04  0.55464479471E+03  0.16591622658E+04  0.10100000352E+00 0.  1.
</event>
<event>
 5   0  0.2101998E-06  0.3488692E+04  0.7818609E-02  0.8116475E-01
        1   -1    0    0  501    0  0.00000000000E+00  0.00000000000E+00  0.21173529496E+04  0.21173529496E+04  0.50400001928E-02 0. -1.
       -1   -1    0    0    0  501  0.00000000000E+00  0.00000000000E+00 -0.14370500996E+04  0.14370500996E+04  0.50400001928E-02 0.  1.
    10030    2    1    2    0    0  0.00000000000E+00  0.00000000000E+00  0.68030284996E+03  0.35544030492E+04  0.34886915983E+04 0.  0.
        5    1    3    3  502    0 -0.17752133613E+02  0.16296387796E+04  0.97370208100E+03  0.18984613567E+04  0.46999998093E+01 0. -1.
       -5    1    3    3    0  502  0.17752133613E+02 -0.16296387796E+04 -0.29339923104E+03  0.16559416925E+04  0.46999998093E+01 0.  1.
</event>
<event>
 5   0  0.4344980E-06  0.3388324E+04  0.7818609E-02  0.8140778E-01
        2   -1    0    0  501    0  0.00000000000E+00  0.00000000000E+00  0.33754845276E+04  0.33754845276E+04  0.25500000920E-02 0. -1.
       -2   -1    0    0    0  501  0.00000000000E+00  0.00000000000E+00 -0.85030329083E+03  0.85030329084E+03  0.25500000920E-02 0.  1.
    10030    2    1    2    0    0  0.00000000000E+00  0.00000000000E+00  0.25251812368E+04  0.42257878185E+04  0.33883244249E+04 0.  0.
        3    1    3    3  502    0  0.91998669099E+03 -0.97926991662E+02 -0.50742131286E+03  0.10551974252E+04  0.10100000352E+00 0.  1.
       -3    1    3    3    0  502 -0.91998669099E+03  0.97926991662E+02  0.30326025497E+04  0.31705903932E+04  0.10100000352E+00 0. -1.
</event>
<event>
 5   0  0.4189587E-06  0.3420990E+04  0.7818609E-02  0.8132774E-01
        2   -1    0    0  501    0  0.00000000000E+00  0.00000000000E+00  0.20741763375E+04  0.20741763375E+04  0.25500000920E-02 0.  1.
       -2   -1    0    0    0  501  0.00000000000E+00  0.00000000000E+00 -0.14105806146E+04  0.14105806146E+04  0.25500000920E-02 0. -1.
    10030    2    1    2    0    0  0.00000000000E+00  0.00000000000E+00  0.66359572293E+03  0.34847569521E+04  0.34209898760E+04 0.  0.
        1    1    3    3  502    0 -0.14763739562E+03  0.17035460588E+04  0.37651323105E+03  0.17508935399E+04  0.50400001928E-02 0. -1.
       -1    1    3    3    0  502  0.14763739562E+03 -0.17035460588E+04  0.28708249188E+03  0.17338634122E+04  0.50400001928E-02 0.  1.
</event>
<event>
 5   0  0.4400349E-06  0.1951442E+04  0.7818609E-02  0.8629666E-01
        2   -1    0    0  501    0  0.00000000000E+00  0.00000000000E+00  0.69509862418E+03  0.69509862418E+03  0.25500000920E-02 0. -1.
       -2   -1    0    0    0  501  0.00000000000E+00  0.00000000000E+00 -0.13696350794E+04  0.13696350794E+04  0.25500000920E-02 0.  1.
    10030    2    1    2    0    0  0.00000000000E+00  0.00000000000E+00 -0.67453645521E+03  0.20647337036E+04  0.19514419892E+04 0.  0.
        5    1    3    3  502    0  0.30085608957E+03  0.71997104270E+03 -0.95705453054E+03  0.12348474211E+04  0.46999998093E+01 0.  1.
       -5    1    3    3    0  502 -0.30085608957E+03 -0.71997104270E+03  0.28251807533E+03  0.82988628248E+03  0.46999998093E+01 0. -1.
</event>
<event>
 5   0  0.4400349E-06  0.2983470E+04  0.7818609E-02  0.8248467E-01
       -2   -1    0    0    0  501  0.00000000000E+00  0.00000000000E+00  0.15650402283E+04  0.15650402283E+04  0.25500000920E-02 0.  1.
        2   -1    0    0  501    0  0.00000000000E+00  0.00000000000E+00 -0.14218633679E+04  0.14218633679E+04  0.25500000920E-02 0. -1.
    10030    2    1    2    0    0  0.00000000000E+00  0.00000000000E+00  0.14317686038E+03  0.29869035962E+04  0.29834700400E+04 0.  0.
        5    1    3    3  502    0 -0.28899147003E+03 -0.12787212127E+04 -0.64099420317E+03  0.14592942363E+04  0.46999998093E+01 0. -1.
       -5    1    3    3    0  502  0.28899147003E+03  0.12787212127E+04  0.78417106355E+03  0.15276093599E+04  0.46999998093E+01 0.  1.
</event>
<event>
 5   0  0.4189587E-06  0.1822070E+04  0.7818609E-02  0.8694650E-01
       -2   -1    0    0    0  501  0.00000000000E+00  0.00000000000E+00  0.52071924131E+03  0.52071924131E+03  0.25500000920E-02 0. -1.
        2   -1    0    0  501    0  0.00000000000E+00  0.00000000000E+00 -0.15939206048E+04  0.15939206048E+04  0.25500000920E-02 0.  1.
    10030    2    1    2    0    0  0.00000000000E+00  0.00000000000E+00 -0.10732013635E+04  0.21146398462E+04  0.18220703917E+04 0.  0.
        1    1    3    3  502    0  0.69115533498E+03 -0.42602191911E+03 -0.10162330961E+04  0.13007382820E+04  0.50400001928E-02 0.  1.
       -1    1    3    3    0  502 -0.69115533498E+03  0.42602191911E+03 -0.56968267456E+02  0.81390156417E+03  0.50400001928E-02 0. -1.
</event>
<event>
 5   0  0.1401125E-06  0.3327380E+04  0.7818609E-02  0.8155963E-01
       -3   -1    0    0    0  501  0.00000000000E+00  0.00000000000E+00  0.17996106698E+04  0.17996106726E+04  0.10100000352E+00 0.  1.
        3   -1    0    0  501    0  0.00000000000E+00  0.00000000000E+00 -0.15380354456E+04  0.15380354490E+04  0.10100000352E+00 0. -1.
    10030    2    1    2    0    0  0.00000000000E+00  0.00000000000E+00  0.26157522412E+03  0.33376461215E+04  0.33273803562E+04 0.  0.
        1    1    3    3  502    0 -0.12835133053E+02  0.14480964427E+04  0.95228745378E+03  0.17332049627E+04  0.50400001928E-02 0. -1.
       -1    1    3    3    0  502  0.12835133053E+02 -0.14480964427E+04 -0.69071222965E+03  0.16044411589E+04  0.50400001928E-02 0.  1.
</event>
<event>
 5   0  0.4189587E-06  0.3421649E+04  0.7818609E-02  0.8132613E-01
        2   -1    0    0  501    0  0.00000000000E+00  0.00000000000E+00  0.21789350103E+04  0.21789350103E+04  0.25500000920E-02 0.  1.
       -2   -1    0    0    0  501  0.00000000000E+00  0.00000000000E+00 -0.13432801842E+04  0.13432801842E+04  0.25500000920E-02 0. -1.
    10030    2    1    2    0    0  0.00000000000E+00  0.00000000000E+00  0.83565482608E+03  0.35222151946E+04  0.34216488552E+04 0.  0.
        1    1    3    3  502    0  0.13842901403E+04  0.73583104147E+03  0.11229518951E+04  0.19284002367E+04  0.50400001928E-02 0. -1.
       -1    1    3    3    0  502 -0.13842901403E+04 -0.73583104147E+03 -0.28729706901E+03  0.15938149579E+04  0.50400001928E-02 0.  1.
</event>
<event>
 5   0  0.4344980E-06  0.3365958E+04  0.7818609E-02  0.8146312E-01
        2   -1    0    0  501    0  0.00000000000E+00  0.00000000000E+00  0.23161492672E+04  0.23161492672E+04  0.25500000920E-02 0.  1.
       -2   -1    0    0    0  501  0.00000000000E+00  0.00000000000E+00 -0.12228999136E+04  0.12228999136E+04  0.25500000920E-02 0. -1.
    10030    2    1    2    0    0  0.00000000000E+00  0.00000000000E+00  0.10932493536E+04  0.35390491808E+04  0.33659582522E+04 0.  0.
        3    1    3    3  502    0 -0.13657199608E+04  0.74356350161E+03 -0.13016986379E+03  0.15604556693E+04  0.10100000352E+00 0. -1.
       -3    1    3    3    0  502  0.13657199608E+04 -0.74356350161E+03  0.12234192174E+04  0.19785935115E+04  0.10100000352E+00 0.  1.
</event>
<event>
 5   0  0.1550164E-06  0.2920937E+04  0.7818609E-02  0.8266675E-01
       -1   -1    0    0    0  501  0.00000000000E+00  0.00000000000E+00  0.10826251279E+04  0.10826251279E+04  0.50400001928E-02 0.  1.
        1   -1    0    0  501    0  0.00000000000E+00  0.00000000000E+00 -0.19701814778E+04  0.19701814778E+04  0.50400001928E-02 0. -1.
    10030    2    1    2    0    0  0.00000000000E+00  0.00000000000E+00 -0.88755634994E+03  0.30528066057E+04  0.29209368185E+04 0.  0.
        4    1    3    3  502    0 -0.78193289935E+02 -0.52470693465E+03  0.97836417576E+03  0.11129373887E+04  0.12699999809E+01 0.  1.
       -4    1    3    3    0  502  0.78193289935E+02  0.52470693465E+03 -0.18659205257E+04  0.19398692170E+04  0.12699999809E+01 0. -1.
</event>
<event>
 5   0  0.1562618E-06  0.3453243E+04  0.7818609E-02  0.8124961E-01
       -1   -1    0    0    0  501  0.00000000000E+00  0.00000000000E+00  0.17130814930E+04  0.17130814930E+04  0.50400001928E-02 0.  1.
        1   -1    0    0  501    0  0.00000000000E+00  0.00000000000E+00 -0.17402683011E+04  0.17402683011E+04  0.50400001928E-02 0. -1.
    10030    2    1    2    0    0  0.00000000000E+00  0.00000000000E+00 -0.27186808109E+02  0.34533497941E+04  0.34532427772E+04 0.  0.
        2    1    3    3  502    0  0.14840083618E+04 -0.79525058636E+03 -0.39638079652E+03  0.17296884254E+04  0.25500000920E-02 0. -1.
       -2    1    3    3    0  502 -0.14840083618E+04  0.79525058636E+03  0.36919398841E+03  0.17236613688E+04  0.25500000920E-02 0.  1.
</event>
<event>
 5   0  0.1571391E-06  0.3390771E+04  0.7818609E-02  0.8140175E-01
       -1   -1    0    0    0  501  0.00000000000E+00  0.00000000000E+00  0.92208501459E+03  0.92208501460E+03  0.50400001928E-02 0. -1.
        1   -1    0    0  501    0  0.00000000000E+00  0.00000000000E+00 -0.31172095596E+04  0.31172095596E+04  0.50400001928E-02 0.  1.
    10030    2    1    2    0    0  0.00000000000E+00  0.00000000000E+00 -0.21951245450E+04  0.40392945742E+04  0.33907711349E+04 0.  0.
        1    1    3    3  502    0  0.57809373996E+03 -0.74130041751E+02  0.79899334832E+03  0.98897826364E+03  0.50400001928E-02 0. -1.
       -1    1    3    3    0  502 -0.57809373996E+03  0.74130041751E+02 -0.29941178933E+04  0.30503163106E+04  0.50400001928E-02 0.  1.
</event>
<event>
 5   0  0.4344980E-06  0.1703271E+04  0.7818609E-02  0.8759501E-01
        2   -1    0    0  501    0  0.00000000000E+00  0.00000000000E+00  0.38279803797E+03  0.38279803797E+03  0.25500000920E-02 0.  1.
       -2   -1    0    0    0  501  0.00000000000E+00  0.00000000000E+00 -0.18946878292E+04  0.18946878292E+04  0.25500000920E-02 0. -1.
    10030    2    1    2    0    0  0.00000000000E+00  0.00000000000E+00 -0.15118897913E+04  0.22774858672E+04  0.17032707167E+04 0.  0.
        3    1    3    3  502    0  0.59102124270E+03  0.15879967096E+03  0.35966560652E+02  0.61303919002E+03  0.10100000352E+00 0.  1.
       -3    1    3    3    0  502 -0.59102124270E+03 -0.15879967096E+03 -0.15478563519E+04  0.16644466772E+04  0.10100000352E+00 0. -1.
</event>
<event>
 5   0  0.1571391E-06  0.3359034E+04  0.7818609E-02  0.8148034E-01
        1   -1    0    0  501    0  0.00000000000E+00  0.00000000000E+00  0.15050718952E+04  0.15050718952E+04  0.50400001928E-02 0. -1.
       -1   -1    0    0    0  501  0.00000000000E+00  0.00000000000E+00 -0.18741816163E+04  0.18741816163E+04  0.50400001928E-02 0.  1.
    10030    2    1    2    0    0  0.00000000000E+00  0.00000000000E+00 -0.36910972112E+03  0.33792535116E+04  0.33590344311E+04 0.  0.
        1    1    3    3  502    0  0.10877865775E+04  0.54355858120E+02 -0.14707433250E+04  0.18301147848E+04  0.50400001928E-02 0.  1.
       -1    1    3    3    0  502 -0.10877865775E+04 -0.54355858120E+02  0.11016336039E+04  0.15491387268E+04  0.50400001928E-02 0. -1.
</event>
<event>
 5   0  0.1401125E-06  0.3411644E+04  0.7818609E-02  0.8135055E-01
       -3   -1    0    0    0  501  0.00000000000E+00  0.00000000000E+00  0.15203695196E+04  0.15203695229E+04  0.10100000352E+00 0.  1.
        3   -1    0    0  501    0  0.00000000000E+00  0.00000000000E+00 -0.19138952623E+04  0.19138952650E+04  0.10100000352E+00 0. -1.
    10030    2    1    2    0    0  0.00000000000E+00  0.00000000000E+00 -0.39352574278E+03  0.34342647879E+04  0.34116436103E+04 0.  0.
        5    1    3    3  502    0  0.24918415386E+02 -0.70443066250E+03 -0.17604339442E+04  0.18963104301E+04  0.46999998093E+01 0. -1.
       -5    1    3    3    0  502 -0.24918415386E+02  0.70443066250E+03  0.13669082014E+04  0.15379543578E+04  0.46999998093E+01 0.  1.
</event>
<event>
 5   0  0.4400349E-06  0.3384080E+04  0.7818609E-02  0.8141825E-01
       -2   -1    0    0    0  501  0.00000000000E+00  0.00000000000E+00  0.11022521298E+04  0.11022521298E+04  0.25500000920E-02 0.  1.
        2   -1    0    0  501    0  0.00000000000E+00  0.00000000000E+00 -0.25974084361E+04  0.25974084361E+04  0.25500000920E-02 0. -1.
    10030    2    1    2    0    0  0.00000000000E+00  0.00000000000E+00 -0.14951563063E+04  0.36996605658E+04  0.33840797748E+04 0.  0.
        5    1    3    3  502    0 -0.59836529102E+03 -0.14996035223E+04 -0.13008612426E+04  0.20734304445E+04  0.46999998093E+01 0. -1.
       -5    1    3    3    0  502  0.59836529102E+03  0.14996035223E+04 -0.19429506369E+03  0.16262301213E+04  0.46999998093E+01 0.  1.
</event>
<event>
 5   0  0.4173467E-06  0.3383045E+04  0.7818609E-02  0.8142080E-01
        2   -1    0    0  501    0  0.00000000000E+00  0.00000000000E+00  0.16065332525E+04  0.16065332525E+04  0.25500000920E-02 0.  1.
       -2   -1    0    0    0  501  0.00000000000E+00  0.00000000000E+00 -0.17810077612E+04  0.17810077612E+04  0.25500000920E-02 0. -1.
    10030    2    1    2    0    0  0.00000000000E+00  0.00000000000E+00 -0.17447450871E+03  0.33875410137E+04  0.33830448956E+04 0.  0.
        4    1    3    3  502    0 -0.75164126532E+03  0.13560596982E+04 -0.76443783791E+03  0.17286495647E+04  0.12699999809E+01 0. -1.
       -4    1    3    3    0  502  0.75164126532E+03 -0.13560596982E+04  0.58996332919E+03  0.16588914490E+04  0.12699999809E+01 0.  1.
</event>
<event>
 5   0  0.4173467E-06  0.3349101E+04  0.7818609E-02  0.8150513E-01
       -2   -1    0    0    0  501  0.00000000000E+00  0.00000000000E+00  0.10772198069E+04  0.10772198069E+04  0.25500000920E-02 0. -1.
        2   -1    0    0  501    0  0.00000000000E+00  0.00000000000E+00 -0.26031074549E+04  0.26031074549E+04  0.25500000920E-02 0.  1.
    10030    2    1    2    0    0  0.00000000000E+00  0.00000000000E+00 -0.15258876479E+04  0.36803272618E+04  0.33491007211E+04 0.  0.
        4    1    3    3  502    0 -0.33631538823E+03 -0.12466345741E+03 -0.25603992653E+04  0.25854003614E+04  0.12699999809E+01 0.  1.
       -4    1    3    3    0  502  0.33631538823E+03  0.12466345741E+03  0.10345116173E+04  0.10949269004E+04  0.12699999809E+01 0. -1.
</event>
<event>
 5   0  0.4400349E-06  0.2886959E+04  0.7818609E-02  0.8276768E-01
        2   -1    0    0  501    0  0.00000000000E+00  0.00000000000E+00  0.18623079005E+04  0.18623079005E+04  0.25500000920E-02 0.  1.
       -2   -1    0    0    0  501  0.00000000000E+00  0.00000000000E+00 -0.11188442889E+04  0.11188442889E+04  0.25500000920E-02 0. -1.
    10030    2    1    2    0    0  0.00000000000E+00  0.00000000000E+00  0.74346361167E+03  0.29811521894E+04  0.28869586479E+04 0.  0.
        5    1    3    3  502    0 -0.56639751659E+03  0.54399131704E+03  0.16223955142E+04  0.18024766280E+04  0.46999998093E+01 0.  1.
       -5    1    3    3    0  502  0.56639751659E+03 -0.54399131704E+03 -0.87893190256E+03  0.11786755614E+04  0.46999998093E+01 0. -1.
</event>
<event>
 5   0  0.1550164E-06  0.3153723E+04  0.7818609E-02  0.8201147E-01
       -1   -1    0    0    0  501  0.00000000000E+00  0.00000000000E+00  0.30284432453E+04  0.30284432453E+04  0.50400001928E-02 0. -1.
        1   -1    0    0  501    0  0.00000000000E+00  0.00000000000E+00 -0.82104644959E+03  0.82104644961E+03  0.50400001928E-02 0.  1.
    10030    2    1    2    0    0  0.00000000000E+00  0.00000000000E+00  0.22073967957E+04  0.38494896949E+04  0.31537232436E+04 0.  0.
        4    1    3    3  502    0  0.22194952228E+03  0.14837475072E+04  0.51107295710E+03  0.15849181165E+04  0.12699999809E+01 0.  1.
       -4    1    3    3    0  502 -0.22194952228E+03 -0.14837475072E+04  0.16963238386E+04  0.22645715784E+04  0.12699999809E+01 0. -1.
</event>
<event>
 5   0  0.4173467E-06  0.3642705E+04  0.7818609E-02  0.8080779E-01
        2   -1    0    0  501    0  0.00000000000E+00  0.00000000000E+00  0.15104981779E+04  0.15104981779E+04  0.25500000920E-02 0. -1.
       -2   -1    0    0    0  501  0.00000000000E+00  0.00000000000E+00 -0.21961793223E+04  0.21961793223E+04  0.25500000920E-02 0.  1.
    10030    2    1    2    0    0  0.00000000000E+00  0.00000000000E+00 -0.68568114435E+03  0.37066775002E+04  0.36427049645E+04 0.  0.
        4    1    3    3  502    0 -0.56745361598E+03 -0.12475806852E+04 -0.15634322028E+04  0.20791303562E+04  0.12699999809E+01 0.  1.
       -4    1    3    3    0  502  0.56745361598E+03  0.12475806852E+04  0.87775105849E+03  0.16275471440E+04  0.12699999809E+01 0. -1.
</event>
<event>
 5   0  0.1550164E-06  0.3384837E+04  0.7818609E-02  0.8141638E-01
       -1   -1    0    0    0  501  0.00000000000E+00  0.00000000000E+00  0.16372153127E+04  0.16372153127E+04  0.50400001928E-02 0.  1.
        1   -1    0    0  501    0  0.00000000000E+00  0.00000000000E+00 -0.17494829823E+04  0.17494829823E+04  0.50400001928E-02 0. -1.
    10030    2    1    2    0    0  0.00000000000E+00  0.00000000000E+00 -0.11226766958E+03  0.33866982950E+04  0.33848369697E+04 0.  0.
        4    1    3    3  502    0 -0.11778732341E+04 -0.27949886643E+03 -0.12394818564E+04  0.17325766526E+04  0.12699999809E+01 0. -1.
       -4    1    3    3    0  502  0.11778732341E+04  0.27949886643E+03  0.11272141868E+04  0.16541216424E+04  0.12699999809E+01 0.  1.
</event>
<event>
 5   0  0.1562618E-06  0.2020133E+04  0.7818609E-02  0.8597265E-01
        1   -1    0    0  501    0  0.00000000000E+00  0.00000000000E+00  0.13493537514E+04  0.13493537515E+04  0.50400001928E-02 0.  1.
       -1   -1    0    0    0  501  0.00000000000E+00  0.00000000000E+00 -0.75609125824E+03  0.75609125826E+03  0.50400001928E-02 0. -1.
    10030    2    1    2    0    0  0.00000000000E+00  0.00000000000E+00  0.59326249320E+03  0.21054450097E+04  0.20201332389E+04 0.  0.
        2    1    3    3  502    0  0.28555057844E+03 -0.92866801877E+03  0.87959518427E+01  0.97161761548E+03  0.25500000920E-02 0.  1.
       -2    1    3    3    0  502 -0.28555057844E+03  0.92866801877E+03  0.58446654136E+03  0.11338273942E+04  0.25500000920E-02 0. -1.
</event>
<event>
 5   0  0.4400349E-06  0.1716970E+04  0.7818609E-02  0.8751744E-01
        2   -1    0    0  501    0  0.00000000000E+00  0.00000000000E+00  0.14723983540E+04  0.14723983540E+04  0.25500000920E-02 0.  1.
       -2   -1    0    0    0  501  0.00000000000E+00  0.00000000000E+00 -0.50054171665E+03  0.50054171666E+03  0.25500000920E-02 0. -1.
    10030    2    1    2    0    0  0.00000000000E+00  0.00000000000E+00  0.97185663730E+03  0.19729400706E+04  0.17169703547E+04 0.  0.
        5    1    3    3  502    0  0.10443750627E+03  0.16689189663E+03  0.14460926386E+04  0.14594403405E+04  0.46999998093E+01 0.  1.
       -5    1    3    3    0  502 -0.10443750627E+03 -0.16689189663E+03 -0.47423600134E+03  0.51349973013E+03  0.46999998093E+01 0. -1.
</event>
<event>
 5   0  0.1550164E-06  0.1684062E+04  0.7818609E-02  0.8770507E-01
       -1   -1    0    0    0  501  0.00000000000E+00  0.00000000000E+00  0.29033751485E+03  0.29033751490E+03  0.50400001928E-02 0. -1.
        1   -1    0    0  501    0  0.00000000000E+00  0.00000000000E+00 -0.24420426792E+04  0.24420426793E+04  0.50400001928E-02 0.  1.
    10030    2    1    2    0    0  0.00000000000E+00  0.00000000000E+00 -0.21517051644E+04  0.27323801942E+04  0.16840624724E+04 0.  0.
        4    1    3    3  502    0  0.61330129844E+03  0.47029400674E+03 -0.16181151457E+04  0.17932130863E+04  0.12699999809E+01 0.  1.
       -4    1    3    3    0  502 -0.61330129844E+03 -0.47029400674E+03 -0.53359001874E+03  0.93916710783E+03  0.12699999809E+01 0. -1.
</event>
<event>
 5   0  0.1550164E-06  0.3386959E+04  0.7818609E-02  0.8141114E-01
       -1   -1    0    0    0  501  0.00000000000E+00  0.00000000000E+00  0.15257801848E+04  0.15257801848E+04  0.50400001928E-02 0.  1.
        1   -1    0    0  501    0  0.00000000000E+00  0.00000000000E+00 -0.18796105903E+04  0.18796105903E+04  0.50400001928E-02 0. -1.
    10030    2    1    2    0    0  0.00000000000E+00  0.00000000000E+00 -0.35383040551E+03  0.34053907751E+04  0.33869588682E+04 0.  0.
        4    1    3    3  502    0 -0.11590489086E+04  0.10332018797E+04 -0.85658990801E+03  0.17733156460E+04  0.12699999809E+01 0.  1.
       -4    1    3    3    0  502  0.11590489086E+04 -0.10332018797E+04  0.50275950250E+03  0.16320751291E+04  0.12699999809E+01 0. -1.
</event>
<event>
 5   0  0.4173467E-06  0.2793994E+04  0.7818609E-02  0.8305135E-01
       -2   -1    0    0    0  501  0.00000000000E+00  0.00000000000E+00  0.12894599916E+04  0.12894599916E+04  0.25500000920E-02 0. -1.
        2   -1    0    0  501    0  0.00000000000E+00  0.00000000000E+00 -0.15135021700E+04  0.15135021700E+04  0.25500000920E-02 0.  1.
    10030    2    1    2    0    0  0.00000000000E+00  0.00000000000E+00 -0.22404217842E+03  0.28029621617E+04  0.27939939123E+04 0.  0.
        4    1    3    3  502    0  0.46257105092E+03  0.18809143109E+03  0.11968692495E+04  0.12968608163E+04  0.12699999809E+01 0. -1.
       -4    1    3    3    0  502 -0.46257105092E+03 -0.18809143109E+03 -0.14209114279E+04  0.15061013453E+04  0.12699999809E+01 0.  1.
</event>
<event>
 5   0  0.2722449E-06  0.3227589E+04  0.7818609E-02  0.8181569E-01
        2   -1    0    0  501    0  0.00000000000E+00  0.00000000000E+00  0.18490514612E+04  0.18490514612E+04  0.25500000920E-02 0. -1.
       -2   -1    0    0    0  501  0.00000000000E+00  0.00000000000E+00 -0.14084695112E+04  0.14084695112E+04  0.25500000920E-02 0.  1.
    10030    2    1    2    0    0  0.00000000000E+00  0.00000000000E+00  0.44058194996E+03  0.32575209724E+04  0.32275889501E+04 0.  0.
        2    1    3    3  502    0  0.28413077344E+03  0.89275805262E+03  0.15464726693E+04  0.18081274716E+04  0.25500000920E-02 0. -1.
       -2    1    3    3    0  502 -0.28413077344E+03 -0.89275805262E+03 -0.11058907193E+04  0.14493935007E+04  0.25500000920E-02 0.  1.
</event>
<event>
 5   0  0.1654257E-06  0.3384290E+04  0.7818609E-02  0.8141773E-01
       -1   -1    0    0    0  501  0.00000000000E+00  0.00000000000E+00  0.22395694040E+04  0.22395694040E+04  0.50400001928E-02 0. -1.
        1   -1    0    0  501    0  0.00000000000E+00  0.00000000000E+00 -0.12785290586E+04  0.12785290586E+04  0.50400001928E-02 0.  1.
    10030    2    1    2    0    0  0.00000000000E+00  0.00000000000E+00  0.96104034540E+03  0.35180984626E+04  0.33842899177E+04 0.  0.
        3    1    3    3  502    0 -0.89080946413E+03  0.50173509048E+03  0.18821919257E+04  0.21419444572E+04  0.10100000352E+00 0. -1.
       -3    1    3    3    0  502  0.89080946413E+03 -0.50173509048E+03 -0.92115158031E+03  0.13761540054E+04  0.10100000352E+00 0.  1.
</event>
<event>
 5   0  0.2722449E-06  0.3382594E+04  0.7818609E-02  0.8142192E-01
       -2   -1    0    0    0  501  0.00000000000E+00  0.00000000000E+00  0.23669983872E+04  0.23669983872E+04  0.25500000920E-02 0.  1.
        2   -1    0    0  501    0  0.00000000000E+00  0.00000000000E+00 -0.12084864162E+04  0.12084864162E+04  0.25500000920E-02 0. -1.
    10030    2    1    2    0    0  0.00000000000E+00  0.00000000000E+00  0.11585119710E+04  0.35754848034E+04  0.33825939148E+04 0.  0.
        2    1    3    3  502    0 -0.68424207808E+03 -0.81715616274E+03  0.19673646656E+04  0.22375109258E+04  0.25500000920E-02 0.  1.
       -2    1    3    3    0  502  0.68424207808E+03  0.81715616274E+03 -0.80885269452E+03  0.13379738776E+04  0.25500000920E-02 0. -1.
</event>
<event>
 5   0  0.2101998E-06  0.3409978E+04  0.7818609E-02  0.8135462E-01
        1   -1    0    0  501    0  0.00000000000E+00  0.00000000000E+00  0.13122955258E+04  0.13122955258E+04  0.50400001928E-02 0. -1.
       -1   -1    0    0    0  501  0.00000000000E+00  0.00000000000E+00 -0.22151933086E+04  0.22151933086E+04  0.50400001928E-02 0.  1.
    10030    2    1    2    0    0  0.00000000000E+00  0.00000000000E+00 -0.90289778281E+03  0.35274888344E+04  0.34099784561E+04 0.  0.
        5    1    3    3  502    0  0.10848445868E+04  0.13144051913E+04 -0.50231021592E+03  0.17767629069E+04  0.46999998093E+01 0.  1.
       -5    1    3    3    0  502 -0.10848445868E+04 -0.13144051913E+04 -0.40058756688E+03  0.17507259275E+04  0.46999998093E+01 0. -1.
</event>
<event>
 5   0  0.4173467E-06  0.3491180E+04  0.7818609E-02  0.8115883E-01
        2   -1    0    0  501    0  0.00000000000E+00  0.00000000000E+00  0.19340056743E+04  0.19340056743E+04  0.25500000920E-02 0. -1.
       -2   -1    0    0    0  501  0.00000000000E+00  0.00000000000E+00 -0.15755301254E+04  0.15755301255E+04  0.25500000920E-02 0.  1.
    10030    2    1    2    0    0  0.00000000000E+00  0.00000000000E+00  0.35847554886E+03  0.35095357998E+04  0.34911798594E+04 0.  0.
        4    1    3    3  502    0 -0.34271039002E+03  0.38644380163E+02 -0.15409398032E+04  0.15790632949E+04  0.12699999809E+01 0.  1.
       -4    1    3    3    0  502  0.34271039002E+03 -0.38644380163E+02  0.18994153520E+04  0.19304725048E+04  0.12699999809E+01 0. -1.
</event>
<event>
 5   0  0.2722449E-06  0.2031038E+04  0.7818609E-02  0.8592245E-01
       -2   -1    0    0    0  501  0.00000000000E+00  0.00000000000E+00  0.59584828087E+03  0.59584828088E+03  0.25500000920E-02 0.  1.
        2   -1    0    0  501    0  0.00000000000E+00  0.00000000000E+00 -0.17307739946E+04  0.17307739946E+04  0.25500000920E-02 0. -1.
    10030    2    1    2    0    0  0.00000000000E+00  0.00000000000E+00 -0.11349257137E+04  0.23266222754E+04  0.20310378719E+04 0.  0.
        2    1    3    3  502    0  0.87701348218E+03  0.22928877318E+03 -0.10918529896E+04  0.14191085020E+04  0.25500000920E-02 0. -1.
       -2    1    3    3    0  502 -0.87701348218E+03 -0.22928877318E+03 -0.43072724052E+02  0.90751377345E+03  0.25500000920E-02 0.  1.
</event>
<event>
 5   0  0.1654257E-06  0.2940711E+04  0.7818609E-02  0.8260867E-01
       -1   -1    0    0    0  501  0.00000000000E+00  0.00000000000E+00  0.10592922824E+04  0.10592922824E+04  0.50400001928E-02 0.  1.
        1   -1    0    0  501    0  0.00000000000E+00  0.00000000000E+00 -0.20409342806E+04  0.20409342806E+04  0.50400001928E-02 0. -1.
    10030    2    1    2    0    0  0.00000000000E+00  0.00000000000E+00 -0.98164199817E+03  0.31002265631E+04  0.29407114326E+04 0.  0.
        3    1    3    3  502    0 -0.56254354517E+03 -0.54864518556E+03  0.81936226300E+03  0.11352626604E+04  0.10100000352E+00 0.  1.
       -3    1    3    3    0  502  0.56254354517E+03  0.54864518556E+03 -0.18010042612E+04  0.19649639027E+04  0.10100000352E+00 0. -1.
</event>
<event>
 5   0  0.4173467E-06  0.3361975E+04  0.7818609E-02  0.8147302E-01
       -2   -1    0    0    0  501  0.00000000000E+00  0.00000000000E+00  0.23032048406E+04  0.23032048406E+04  0.25500000920E-02 0.  1.
        2   -1    0    0  501    0  0.00000000000E+00  0.00000000000E+00 -0.12268641167E+04  0.12268641167E+04  0.25500000920E-02 0. -1.
    10030    2    1    2    0    0  0.00000000000E+00  0.00000000000E+00  0.10763407238E+04  0.35300689573E+04  0.33619752363E+04 0.  0.
        4    1    3    3  502    0  0.49636567546E+03 -0.90096097625E+03  0.19341583523E+04  0.21906801933E+04  0.12699999809E+01 0.  1.
       -4    1    3    3    0  502 -0.49636567546E+03  0.90096097625E+03 -0.85781762846E+03  0.13393887640E+04  0.12699999809E+01 0. -1.
</event>
<event>
 5   0  0.4400349E-06  0.3388927E+04  0.7818609E-02  0.8140629E-01
       -2   -1    0    0    0  501  0.00000000000E+00  0.00000000000E+00  0.17210275043E+04  0.17210275043E+04  0.25500000920E-02 0. -1.
        2   -1    0    0  501    0  0.00000000000E+00  0.00000000000E+00 -0.16683095591E+04  0.16683095591E+04  0.25500000920E-02 0.  1.
    10030    2    1    2    0    0  0.00000000000E+00  0.00000000000E+00  0.52717945232E+02  0.33893370634E+04  0.33889270496E+04 0.  0.
        5    1    3    3  502    0  0.78860228672E+03 -0.59290053416E+03  0.14041177217E+04  0.17160982712E+04  0.46999998093E+01 0. -1.
       -5    1    3    3    0  502 -0.78860228672E+03  0.59290053416E+03 -0.13513997764E+04  0.16732387922E+04  0.46999998093E+01 0.  1.
</event>
<event>
 5   0  0.4189587E-06  0.3358512E+04  0.7818609E-02  0.8148165E-01
        2   -1    0    0  501    0  0.00000000000E+00  0.00000000000E+00  0.24842544759E+04  0.24842544759E+04  0.25500000920E-02 0. -1.
       -2   -1    0    0    0  501  0.00000000000E+00  0.00000000000E+00 -0.11351095493E+04  0.11351095493E+04  0.25500000920E-02 0.  1.
    10030    2    1    2    0    0  0.00000000000E+00  0.00000000000E+00  0.13491449266E+04  0.36193640252E+04  0.33585121578E+04 0.  0.
        1    1    3    3  502    0 -0.72146689945E+03 -0.15162898380E+04  0.69166697712E+03  0.18160541201E+04  0.50400001928E-02 0.  1.
       -1    1    3    3    0  502  0.72146689945E+03  0.15162898380E+04  0.65747794949E+03  0.18033099051E+04  0.50400001928E-02 0. -1.
</event>
<event>
 5   0  0.1550164E-06  0.1716451E+04  0.7818609E-02  0.8752037E-01
        1   -1    0    0  501    0  0.00000000000E+00  0.00000000000E+00  0.15802240832E+04  0.15802240832E+04  0.50400001928E-02 0.  1.
       -1   -1    0    0    0  501  0.00000000000E+00  0.00000000000E+00 -0.46610566861E+03  0.46610566864E+03  0.50400001928E-02 0. -1.
    10030    2    1    2    0    0  0.00000000000E+00  0.00000000000E+00  0.11141184146E+04  0.20463297519E+04  0.17164514592E+04 0.  0.
        4    1    3    3  502    0 -0.78598600322E+03  0.29827149898E+03  0.76289665738E+03  0.11352324903E+04  0.12699999809E+01 0. -1.
       -4    1    3    3    0  502  0.78598600322E+03 -0.29827149898E+03  0.35122175724E+03  0.91109726156E+03  0.12699999809E+01 0.  1.
</event>
<event>
 5   0  0.4173467E-06  0.3398446E+04  0.7818609E-02  0.8138288E-01
        2   -1    0    0  501    0  0.00000000000E+00  0.00000000000E+00  0.19377955417E+04  0.19377955417E+04  0.25500000920E-02 0.  1.
       -2   -1    0    0    0  501  0.00000000000E+00  0.00000000000E+00 -0.14900220669E+04  0.14900220669E+04  0.25500000920E-02 0. -1.
    10030    2    1    2    0    0  0.00000000000E+00  0.00000000000E+00  0.44777347479E+03  0.34278176087E+04  0.33984455967E+04 0.  0.
        4    1    3    3  502    0  0.14399544151E+04  0.27860481030E+03 -0.64158939323E+03  0.16008522481E+04  0.12699999809E+01 0. -1.
       -4    1    3    3    0  502 -0.14399544151E+04 -0.27860481030E+03  0.10893628680E+04  0.18269653606E+04  0.12699999809E+01 0.  1.
</event>
<event>
 5   0  0.1562618E-06  0.3419329E+04  0.7818609E-02  0.8133179E-01
       -1   -1    0    0    0  501  0.00000000000E+00  0.00000000000E+00  0.12681816741E+04  0.12681816741E+04  0.50400001928E-02 0.  1.
        1   -1    0    0  501    0  0.00000000000E+00  0.00000000000E+00 -0.23048372516E+04  0.23048372516E+04  0.50400001928E-02 0. -1.
    10030    2    1    2    0    0  0.00000000000E+00  0.00000000000E+00 -0.10366555775E+04  0.35730189257E+04  0.34193288021E+04 0.  0.
        2    1    3    3  502    0 -0.11148820726E+04 -0.10073991918E+04 -0.13705445468E+04  0.20337668309E+04  0.25500000920E-02 0. -1.
       -2    1    3    3    0  502  0.11148820726E+04  0.10073991918E+04  0.33388896932E+03  0.15392520948E+04  0.25500000920E-02 0.  1.
</event>
<event>
 5   0  0.4189587E-06  0.3390125E+04  0.7818609E-02  0.8140334E-01
       -2   -1    0    0    0  501  0.00000000000E+00  0.00000000000E+00  0.12036057340E+04  0.12036057340E+04  0.25500000920E-02 0. -1.
        2   -1    0    0  501    0  0.00000000000E+00  0.00000000000E+00 -0.23871915623E+04  0.23871915623E+04  0.25500000920E-02 0.  1.
    10030    2    1    2    0    0  0.00000000000E+00  0.00000000000E+00 -0.11835858283E+04  0.35907972963E+04  0.33901253384E+04 0.  0.
        1    1    3    3  502    0 -0.11894724282E+04  0.24196274579E+03  0.66139267663E+03  0.13823280727E+04  0.50400001928E-02 0. -1.
       -1    1    3    3    0  502  0.11894724282E+04 -0.24196274579E+03 -0.18449785049E+04  0.22084692236E+04  0.50400001928E-02 0.  1.
</event>
<event>
 5   0  0.1550164E-06  0.3059372E+04  0.7818609E-02  0.8226977E-01
       -1   -1    0    0    0  501  0.00000000000E+00  0.00000000000E+00  0.14890164757E+04  0.14890164757E+04  0.50400001928E-02 0. -1.
        1   -1    0    0  501    0  0.00000000000E+00  0.00000000000E+00 -0.15714666047E+04  0.15714666047E+04  0.50400001928E-02 0.  1.
    10030    2    1    2    0    0  0.00000000000E+00  0.00000000000E+00 -0.82450128935E+02  0.30604830804E+04  0.30593722659E+04 0.  0.
        4    1    3    3  502    0  0.11223236874E+04 -0.98069382280E+03  0.30323586929E+03  0.15209616822E+04  0.12699999809E+01 0. -1.
       -4    1    3    3    0  502 -0.11223236874E+04  0.98069382280E+03 -0.38568599822E+03  0.15395213982E+04  0.12699999809E+01 0.  1.
</event>
<event>
 5   0  0.1550164E-06  0.3232049E+04  0.7818609E-02  0.8180404E-01
       -1   -1    0    0    0  501  0.00000000000E+00  0.00000000000E+00  0.12346046381E+04  0.12346046381E+04  0.50400001928E-02 0. -1.
        1   -1    0    0  501    0  0.00000000000E+00  0.00000000000E+00 -0.21152805124E+04  0.21152805124E+04  0.50400001928E-02 0.  1.
    10030    2    1    2    0    0  0.00000000000E+00  0.00000000000E+00 -0.88067587430E+03  0.33498851505E+04  0.32320489671E+04 0.  0.
        4    1    3    3  502    0  0.13390128976E+04 -0.28467142030E+02 -0.13776127268E+04  0.19213496184E+04  0.12699999809E+01 0.  1.
       -4    1    3    3    0  502 -0.13390128976E+04  0.28467142030E+02  0.49693685249E+03  0.14285355321E+04  0.12699999809E+01 0. -1.
</event>
<event>
 5   0  0.4189587E-06  0.3784579E+04  0.7818609E-02  0.8049472E-01
        2   -1    0    0  501    0  0.00000000000E+00  0.00000000000E+00  0.13086720147E+04  0.13086720147E+04  0.25500000920E-02 0.  1.
       -2   -1    0    0    0  501  0.00000000000E+00  0.00000000000E+00 -0.27361776730E+04  0.27361776730E+04  0.25500000920E-02 0. -1.
    10030    2    1    2    0    0  0.00000000000E+00  0.00000000000E+00 -0.14275056582E+04  0.40448496877E+04  0.37845787865E+04 0.  0.
        1    1    3    3  502    0  0.16355627414E+04  0.38184123602E+03 -0.16454193060E+04  0.23512279565E+04  0.50400001928E-02 0. -1.
       -1    1    3    3    0  502 -0.16355627414E+04 -0.38184123602E+03  0.21791364777E+03  0.16936217312E+04  0.50400001928E-02 0.  1.
</event>
<event>
 5   0  0.4173467E-06  0.3004384E+04  0.7818609E-02  0.8242480E-01
       -2   -1    0    0    0  501  0.00000000000E+00  0.00000000000E+00  0.18041169212E+04  0.18041169212E+04  0.25500000920E-02 0.  1.
        2   -1    0    0  501    0  0.00000000000E+00  0.00000000000E+00 -0.12507950698E+04  0.12507950698E+04  0.25500000920E-02 0. -1.
    10030    2    1    2    0    0  0.00000000000E+00  0.00000000000E+00  0.55332185141E+03  0.30549119911E+04  0.30043838307E+04 0.  0.
        4    1    3    3  502    0  0.30669477960E+02  0.72487625209E+03 -0.10608290319E+04  0.12852027255E+04  0.12699999809E+01 0. -1.
       -4    1    3    3    0  502 -0.30669477960E+02 -0.72487625209E+03  0.16141508833E+04  0.17697092656E+04  0.12699999809E+01 0.  1.
</event>
<event>
 5   0  0.2101998E-06  0.2146495E+04  0.7818609E-02  0.8541034E-01
       -1   -1    0    0    0  501  0.00000000000E+00  0.00000000000E+00  0.68554182987E+03  0.68554182989E+03  0.50400001928E-02 0. -1.
        1   -1    0    0  501    0  0.00000000000E+00  0.00000000000E+00 -0.16802183622E+04  0.16802183622E+04  0.50400001928E-02 0.  1.
    10030    2    1    2    0    0  0.00000000000E+00  0.00000000000E+00 -0.99467653231E+03  0.23657601921E+04  0.21464947898E+04 0.  0.
        5    1    3    3  502    0 -0.37436645663E+03 -0.30562871153E+02 -0.16053988805E+04  0.16487607433E+04  0.46999998093E+01 0.  1.
       -5    1    3    3    0  502  0.37436645663E+03  0.30562871153E+02  0.61072234823E+03  0.71699944880E+03  0.46999998093E+01 0. -1.
</event>
<event>
 5   0  0.4173467E-06  0.3413166E+04  0.7818609E-02  0.8134682E-01
       -2   -1    0    0    0  501  0.00000000000E+00  0.00000000000E+00  0.18794827120E+04  0.18794827120E+04  0.25500000920E-02 0. -1.
        2   -1    0    0  501    0  0.00000000000E+00  0.00000000000E+00 -0.15495890699E+04  0.15495890699E+04  0.25500000920E-02 0.  1.
    10030    2    1    2    0    0  0.00000000000E+00  0.00000000000E+00  0.32989364211E+03  0.34290717819E+04  0.34131661943E+04 0.  0.
        4    1    3    3  502    0 -0.13242847160E+04 -0.60602836616E+03  0.10587125791E+04  0.18005205713E+04  0.12699999809E+01 0. -1.
       -4    1    3    3    0  502  0.13242847160E+04  0.60602836616E+03 -0.72881893696E+03  0.16285512106E+04  0.12699999809E+01 0.  1.
</event>
<event>
 5   0  0.4189587E-06  0.3097693E+04  0.7818609E-02  0.8216371E-01
        2   -1    0    0  501    0  0.00000000000E+00  0.00000000000E+00  0.19676835283E+04  0.19676835283E+04  0.25500000920E-02 0.  1.
       -2   -1    0    0    0  501  0.00000000000E+00  0.00000000000E+00 -0.12191622776E+04  0.12191622776E+04  0.25500000920E-02 0. -1.
    10030    2    1    2    0    0  0.00000000000E+00  0.00000000000E+00  0.74852125068E+03  0.31868458060E+04  0.30976930333E+04 0.  0.
        1    1    3    3  502    0 -0.68863495003E+03  0.11963168382E+04 -0.34847751327E+03  0.14236673238E+04  0.50400001928E-02 0. -1.
       -1    1    3    3    0  502  0.68863495003E+03 -0.11963168382E+04  0.10969987640E+04  0.17631784821E+04  0.50400001928E-02 0.  1.
</event>
<event>
 5   0  0.1550164E-06  0.3532550E+04  0.7818609E-02  0.8106119E-01
        1   -1    0    0  501    0  0.00000000000E+00  0.00000000000E+00  0.20696265917E+04  0.20696265917E+04  0.50400001928E-02 0. -1.
       -1   -1    0    0    0  501  0.00000000000E+00  0.00000000000E+00 -0.15073865751E+04  0.15073865751E+04  0.50400001928E-02 0.  1.
    10030    2    1    2    0    0  0.00000000000E+00  0.00000000000E+00  0.56224001665E+03  0.35770131668E+04  0.35325499797E+04 0.  0.
        4    1    3    3  502    0  0.78567414772E+03 -0.46818841834E+03 -0.12489388766E+04  0.15480097519E+04  0.12699999809E+01 0.  1.
       -4    1    3    3    0  502 -0.78567414772E+03  0.46818841834E+03  0.18111788933E+04  0.20290034149E+04  0.12699999809E+01 0. -1.
</event>
<event>
 5   0  0.1550164E-06  0.3125751E+04  0.7818609E-02  0.8208706E-01
        1   -1    0    0  501    0  0.00000000000E+00  0.00000000000E+00  0.28002422240E+04  0.28002422240E+04  0.50400001928E-02 0. -1.
       -1   -1    0    0    0  501  0.00000000000E+00  0.00000000000E+00 -0.87227438811E+03  0.87227438812E+03  0.50400001928E-02 0.  1.
    10030    2    1    2    0    0  0.00000000000E+00  0.00000000000E+00  0.19279678359E+04  0.36725166121E+04  0.31257508362E+04 0.  0.
        4    1    3    3  502    0 -0.92103772702E+03 -0.12013725798E+04  0.14205006911E+04  0.20759167605E+04  0.12699999809E+01 0.  1.
       -4    1    3    3    0  502  0.92103772702E+03  0.12013725798E+04  0.50746714473E+03  0.15965998516E+04  0.12699999809E+01 0. -1.
</event>
<event>
 5   0  0.1571391E-06  0.3683786E+04  0.7818609E-02  0.8071564E-01
       -1   -1    0    0    0  501  0.00000000000E+00  0.00000000000E+00  0.21137397169E+04  0.21137397169E+04  0.50400001928E-02 0.  1.
        1   -1    0    0  501    0  0.00000000000E+00  0.00000000000E+00 -0.16050086263E+04  0.16050086264E+04  0.50400001928E-02 0. -1.
    10030    2    1    2    0    0  0.00000000000E+00  0.00000000000E+00  0.50873109057E+03  0.37187483433E+04  0.36837863562E+04 0.  0.
        1    1    3    3  502    0 -0.15424114455E+04 -0.13435773329E+03  0.12615750249E+04  0.19971621394E+04  0.50400001928E-02 0.  1.
       -1    1    3    3    0  502  0.15424114455E+04  0.13435773329E+03 -0.75284393430E+03  0.17215862038E+04  0.50400001928E-02 0. -1.
</event>
<event>
 5   0  0.1654257E-06  0.3460499E+04  0.7818609E-02  0.8123215E-01
       -1   -1    0    0    0  501  0.00000000000E+00  0.00000000000E+00  0.10482840326E+04  0.10482840326E+04  0.50400001928E-02 0. -1.
        1   -1    0    0  501    0  0.00000000000E+00  0.00000000000E+00 -0.28558705386E+04  0.28558705386E+04  0.50400001928E-02 0.  1.
    10030    2    1    2    0    0  0.00000000000E+00  0.00000000000E+00 -0.18075865061E+04  0.39041545712E+04  0.34604990881E+04 0.  0.
        3    1    3    3  502    0  0.33473774009E+03  0.12891746400E+04 -0.21498057788E+04  0.25289692572E+04  0.10100000352E+00 0.  1.
       -3    1    3    3    0  502 -0.33473774009E+03 -0.12891746400E+04  0.34221927270E+03  0.13751853140E+04  0.10100000352E+00 0. -1.
</event>
<event>
 5   0  0.1654257E-06  0.2300630E+04  0.7818609E-02  0.8477673E-01
        1   -1    0    0  501    0  0.00000000000E+00  0.00000000000E+00  0.20019295446E+04  0.20019295446E+04  0.50400001928E-02 0. -1.
       -1   -1    0    0    0  501  0.00000000000E+00  0.00000000000E+00 -0.66097444276E+03  0.66097444278E+03  0.50400001928E-02 0.  1.
    10030    2    1    2    0    0  0.00000000000E+00  0.00000000000E+00  0.13409551018E+04  0.26629039874E+04  0.23006297096E+04 0.  0.
        3    1    3    3  502    0  0.61421537178E+03 -0.72624747541E+03 -0.78331728764E+02  0.95437507742E+03  0.10100000352E+00 0.  1.
       -3    1    3    3    0  502 -0.61421537178E+03  0.72624747541E+03  0.14192868306E+04  0.17085289099E+04  0.10100000352E+00 0. -1.
</event>
<event>
 5   0  0.4173467E-06  0.3424593E+04  0.7818609E-02  0.8131897E-01
        2   -1    0    0  501    0  0.00000000000E+00  0.00000000000E+00  0.27041987736E+04  0.27041987736E+04  0.25500000920E-02 0. -1.
       -2   -1    0    0    0  501  0.00000000000E+00  0.00000000000E+00 -0.10842245736E+04  0.10842245736E+04  0.25500000920E-02 0.  1.
    10030    2    1    2    0    0  0.00000000000E+00  0.00000000000E+00  0.16199742000E+04  0.37884233471E+04  0.34245926836E+04 0.  0.
        4    1    3    3  502    0  0.10728623075E+04  0.12000103881E+04  0.14558825782E+04  0.21704041459E+04  0.12699999809E+01 0. -1.
       -4    1    3    3    0  502 -0.10728623075E+04 -0.12000103881E+04  0.16409162181E+03  0.16180192012E+04  0.12699999809E+01 0.  1.
</event>
<event>
 5   0  0.4189587E-06  0.1816843E+04  0.7818609E-02  0.8697394E-01
       -2   -1    0    0    0  501  0.00000000000E+00  0.00000000000E+00  0.13086207163E+04  0.13086207163E+04  0.25500000920E-02 0. -1.
        2   -1    0    0  501    0  0.00000000000E+00  0.00000000000E+00 -0.63061010725E+03  0.63061010726E+03  0.25500000920E-02 0.  1.
    10030    2    1    2    0    0  0.00000000000E+00  0.00000000000E+00  0.67801060908E+03  0.19392308236E+04  0.18168428114E+04 0.  0.
        1    1    3    3  502    0 -0.12962951576E+03 -0.85271338272E+03  0.34656092212E+02  0.86320621475E+03  0.50400001928E-02 0.  1.
       -1    1    3    3    0  502  0.12962951576E+03  0.85271338272E+03  0.64335451687E+03  0.10760246088E+04  0.50400001928E-02 0. -1.
</event>
<event>
 5   0  0.1562618E-06  0.2445629E+04  0.7818609E-02  0.8422615E-01
       -1   -1    0    0    0  501  0.00000000000E+00  0.00000000000E+00  0.25903432386E+04  0.25903432386E+04  0.50400001928E-02 0.  1.
        1   -1    0    0  501    0  0.00000000000E+00  0.00000000000E+00 -0.57725003660E+03  0.57725003662E+03  0.50400001928E-02 0. -1.
    10030    2    1    2    0    0  0.00000000000E+00  0.00000000000E+00  0.20130932020E+04  0.31675932752E+04  0.24456293499E+04 0.  0.
        2    1    3    3  502    0  0.54163382776E+03 -0.19296037703E+03  0.24043339886E+04  0.24721292117E+04  0.25500000920E-02 0.  1.
       -2    1    3    3    0  502 -0.54163382776E+03  0.19296037703E+03 -0.39124078665E+03  0.69546406350E+03  0.25500000920E-02 0. -1.
</event>
<event>
 5   0  0.4344980E-06  0.2192990E+04  0.7818609E-02  0.8521351E-01
       -2   -1    0    0    0  501  0.00000000000E+00  0.00000000000E+00  0.48559711769E+03  0.48559711770E+03  0.25500000920E-02 0. -1.
        2   -1    0    0  501    0  0.00000000000E+00  0.00000000000E+00 -0.24759241704E+04  0.24759241704E+04  0.25500000920E-02 0.  1.
    10030    2    1    2    0    0  0.00000000000E+00  0.00000000000E+00 -0.19903270527E+04  0.29615212881E+04  0.21929903245E+04 0.  0.
        3    1    3    3  502    0 -0.34941872778E+03 -0.76864455026E+03 -0.19398927452E+04  0.21156776137E+04  0.10100000352E+00 0.  1.
       -3    1    3    3    0  502  0.34941872778E+03  0.76864455026E+03 -0.50434307505E+02  0.84584367441E+03  0.10100000352E+00 0. -1.
</event>
<event>
 5   0  0.1401125E-06  0.3589235E+04  0.7818609E-02  0.8092962E-01
       -4   -1    0    0    0  501  0.00000000000E+00  0.00000000000E+00  0.18928681709E+04  0.18928685969E+04  0.12699999809E+01 0.  1.
        4   -1    0    0  501    0  0.00000000000E+00  0.00000000000E+00 -0.17014658544E+04  0.17014663284E+04  0.12699999809E+01 0. -1.
    10030    2    1    2    0    0  0.00000000000E+00  0.00000000000E+00  0.19140231650E+03  0.35943349253E+04  0.35892351147E+04 0.  0.
        3    1    3    3  502    0  0.16014622756E+03 -0.85505305012E+01  0.18856782005E+04  0.18924857231E+04  0.10100000352E+00 0.  1.
       -3    1    3    3    0  502 -0.16014622756E+03  0.85505305012E+01 -0.16942758840E+04  0.17018492022E+04  0.10100000352E+00 0. -1.
</event>
<event>
 5   0  0.2722449E-06  0.3402366E+04  0.7818609E-02  0.8137326E-01
       -2   -1    0    0    0  501  0.00000000000E+00  0.00000000000E+00  0.10335459577E+04  0.10335459577E+04  0.25500000920E-02 0.  1.
        2   -1    0    0  501    0  0.00000000000E+00  0.00000000000E+00 -0.28000925997E+04  0.28000925997E+04  0.25500000920E-02 0. -1.
    10030    2    1    2    0    0  0.00000000000E+00  0.00000000000E+00 -0.17665466420E+04  0.38336385573E+04  0.34023664632E+04 0.  0.
        2    1    3    3  502    0 -0.38901374768E+03 -0.12581331496E+04 -0.20967192875E+04  0.24759770775E+04  0.25500000920E-02 0. -1.
       -2    1    3    3    0  502  0.38901374768E+03  0.12581331496E+04  0.33017264549E+03  0.13576614798E+04  0.25500000920E-02 0.  1.
</event>
<event>
 5   0  0.4189587E-06  0.3312035E+04  0.7818609E-02  0.8159840E-01
       -2   -1    0    0    0  501  0.00000000000E+00  0.00000000000E+00  0.16517894715E+04  0.16517894715E+04  0.25500000920E-02 0. -1.
        2   -1    0    0  501    0  0.00000000000E+00  0.00000000000E+00 -0.16602560360E+04  0.16602560360E+04  0.25500000920E-02 0.  1.
    10030    2    1    2    0    0  0.00000000000E+00  0.00000000000E+00 -0.84665645393E+01  0.33120455075E+04  0.33120346859E+04 0.  0.
        1    1    3    3  502    0 -0.35869093190E+03  0.48043636309E+03  0.15394411420E+04  0.16520766669E+04  0.50400001928E-02 0. -1.
       -1    1    3    3    0  502  0.35869093190E+03 -0.48043636309E+03 -0.15479077066E+04  0.16599688406E+04  0.50400001928E-02 0.  1.
</event>
<event>
 5   0  0.1401125E-06  0.3438891E+04  0.7818609E-02  0.8128427E-01
        3   -1    0    0  501    0  0.00000000000E+00  0.00000000000E+00  0.19271041578E+04  0.19271041604E+04  0.10100000352E+00 0.  1.
       -3   -1    0    0    0  501  0.00000000000E+00  0.00000000000E+00 -0.15341631361E+04  0.15341631394E+04  0.10100000352E+00 0. -1.
    10030    2    1    2    0    0  0.00000000000E+00  0.00000000000E+00  0.39294102167E+03  0.34612672999E+04  0.34388906169E+04 0.  0.
        1    1    3    3  502    0  0.11101673305E+04  0.10820277042E+04  0.94510921119E+03  0.18156229993E+04  0.50400001928E-02 0.  1.
       -1    1    3    3    0  502 -0.11101673305E+04 -0.10820277042E+04 -0.55216818951E+03  0.16456443006E+04  0.50400001928E-02 0. -1.
</event>
<event>
 5   0  0.4173467E-06  0.2215159E+04  0.7818609E-02  0.8512145E-01
        2   -1    0    0  501    0  0.00000000000E+00  0.00000000000E+00  0.18931127692E+04  0.18931127692E+04  0.25500000920E-02 0. -1.
       -2   -1    0    0    0  501  0.00000000000E+00  0.00000000000E+00 -0.64799721918E+03  0.64799721918E+03  0.25500000920E-02 0.  1.
    10030    2    1    2    0    0  0.00000000000E+00  0.00000000000E+00  0.12451155500E+04  0.25411099884E+04  0.22151585136E+04 0.  0.
        4    1    3    3  502    0 -0.29668080043E+03  0.10602958424E+04  0.76061346586E+03  0.13382007428E+04  0.12699999809E+01 0. -1.
       -4    1    3    3    0  502  0.29668080043E+03 -0.10602958424E+04  0.48450208418E+03  0.12029092456E+04  0.12699999809E+01 0.  1.
</event>
<event>
 5   0  0.4173467E-06  0.3303525E+04  0.7818609E-02  0.8161999E-01
       -2   -1    0    0    0  501  0.00000000000E+00  0.00000000000E+00  0.18416596674E+04  0.18416596674E+04  0.25500000920E-02 0.  1.
        2   -1    0    0  501    0  0.00000000000E+00  0.00000000000E+00 -0.14814459216E+04  0.14814459216E+04  0.25500000920E-02 0. -1.
    10030    2    1    2    0    0  0.00000000000E+00  0.00000000000E+00  0.36021374582E+03  0.33231055890E+04  0.33035249073E+04 0.  0.
        4    1    3    3  502    0 -0.11824927090E+04  0.64360221921E+03 -0.78254221831E+03  0.15572047906E+04  0.12699999809E+01 0. -1.
       -4    1    3    3    0  502  0.11824927090E+04 -0.64360221921E+03  0.11427559641E+04  0.17659007984E+04  0.12699999809E+01 0.  1.
</event>
<event>
 5   0  0.2101998E-06  0.2344291E+04  0.7818609E-02  0.8460660E-01
       -1   -1    0    0    0  501  0.00000000000E+00  0.00000000000E+00  0.14437582701E+04  0.14437582701E+04  0.50400001928E-02 0.  1.
        1   -1    0    0  501    0  0.00000000000E+00  0.00000000000E+00 -0.95163105891E+03  0.95163105892E+03  0.50400001928E-02 0. -1.
    10030    2    1    2    0    0  0.00000000000E+00  0.00000000000E+00  0.49212721117E+03  0.23953893290E+04  0.23442911179E+04 0.  0.
        5    1    3    3  502    0 -0.86847558191E+03  0.76013004936E+03  0.37017867166E+02  0.11547466998E+04  0.46999998093E+01 0.  1.
       -5    1    3    3    0  502  0.86847558191E+03 -0.76013004936E+03  0.45510934400E+03  0.12406426292E+04  0.46999998093E+01 0. -1.
</event>
<event>
 5   0  0.1562618E-06  0.3018237E+04  0.7818609E-02  0.8238542E-01
       -1   -1    0    0    0  501  0.00000000000E+00  0.00000000000E+00  0.15856729213E+04  0.15856729213E+04  0.50400001928E-02 0. -1.
        1   -1    0    0  501    0  0.00000000000E+00  0.00000000000E+00 -0.14362601452E+04  0.14362601452E+04  0.50400001928E-02 0.  1.
    10030    2    1    2    0    0  0.00000000000E+00  0.00000000000E+00  0.14941277603E+03  0.30219330665E+04  0.30182371148E+04 0.  0.
        2    1    3    3  502    0  0.60144873261E+03  0.75425704063E+03 -0.10872294905E+04  0.14535171916E+04  0.25500000920E-02 0.  1.
       -2    1    3    3    0  502 -0.60144873261E+03 -0.75425704063E+03  0.12366422665E+04  0.15684158749E+04  0.25500000920E-02 0. -1.
</event>
<event>
 5   0  0.2101998E-06  0.2626455E+04  0.7818609E-02  0.8359270E-01
       -1   -1    0    0    0  501  0.00000000000E+00  0.00000000000E+00  0.15083843281E+04  0.15083843281E+04  0.50400001928E-02 0. -1.
        1   -1    0    0  501    0  0.00000000000E+00  0.00000000000E+00 -0.11433202734E+04  0.11433202734E+04  0.50400001928E-02 0.  1.
    10030    2    1    2    0    0  0.00000000000E+00  0.00000000000E+00  0.36506405471E+03  0.26517046014E+04  0.26264549357E+04 0.  0.
        5    1    3    3  502    0  0.61542920984E+03  0.33789763889E+03  0.13029831450E+04  0.14801064465E+04  0.46999998093E+01 0. -1.
       -5    1    3    3    0  502 -0.61542920984E+03 -0.33789763889E+03 -0.93791909032E+03  0.11715981550E+04  0.46999998093E+01 0.  1.
</event>
<event>
 5   0  0.4189587E-06  0.3365120E+04  0.7818609E-02  0.8146520E-01
        2   -1    0    0  501    0  0.00000000000E+00  0.00000000000E+00  0.18563430185E+04  0.18563430185E+04  0.25500000920E-02 0.  1.
       -2   -1    0    0    0  501  0.00000000000E+00  0.00000000000E+00 -0.15250460292E+04  0.15250460292E+04  0.25500000920E-02 0. -1.
    10030    2    1    2    0    0  0.00000000000E+00  0.00000000000E+00  0.33129698922E+03  0.33813890477E+04  0.33651202351E+04 0.  0.
        1    1    3    3  502    0  0.20387792403E+03 -0.47887347649E+03  0.17734222374E+04  0.18482187226E+04  0.50400001928E-02 0.  1.
       -1    1    3    3    0  502 -0.20387792403E+03  0.47887347649E+03 -0.14421252482E+04  0.15331703251E+04  0.50400001928E-02 0. -1.
</event>
<event>
 5   0  0.2722449E-06  0.2066441E+04  0.7818609E-02  0.8576172E-01
        2   -1    0    0  501    0  0.00000000000E+00  0.00000000000E+00  0.22248346153E+04  0.22248346153E+04  0.25500000920E-02 0.  1.
       -2   -1    0    0    0  501  0.00000000000E+00  0.00000000000E+00 -0.47983105113E+03  0.47983105113E+03  0.25500000920E-02 0. -1.
    10030    2    1    2    0    0  0.00000000000E+00  0.00000000000E+00  0.17450035641E+04  0.27046656664E+04  0.20664411262E+04 0.  0.
        2    1    3    3  502    0 -0.59545427575E+03 -0.83813895233E+03  0.73837136843E+03  0.12657942075E+04  0.25500000920E-02 0. -1.
       -2    1    3    3    0  502  0.59545427575E+03  0.83813895233E+03  0.10066321957E+04  0.14388714589E+04  0.25500000920E-02 0.  1.
</event>
<event>
 5   0  0.4344980E-06  0.2170102E+04  0.7818609E-02  0.8530976E-01
        2   -1    0    0  501    0  0.00000000000E+00  0.00000000000E+00  0.11044529490E+04  0.11044529490E+04  0.25500000920E-02 0. -1.
       -2   -1    0    0    0  501  0.00000000000E+00  0.00000000000E+00 -0.10659899037E+04  0.10659899037E+04  0.25500000920E-02 0.  1.
    10030    2    1    2    0    0  0.00000000000E+00  0.00000000000E+00  0.38463045261E+02  0.21704428527E+04  0.21701020186E+04 0.  0.
        3    1    3    3  502    0 -0.42612014235E+03 -0.68152710041E+03 -0.70977123142E+03  0.10723025578E+04  0.10100000352E+00 0.  1.
       -3    1    3    3    0  502  0.42612014235E+03  0.68152710041E+03  0.74823427668E+03  0.10981402949E+04  0.10100000352E+00 0. -1.
</event>
<event>
 5   0  0.1550164E-06  0.3189340E+04  0.7818609E-02  0.8191638E-01
       -1   -1    0    0    0  501  0.00000000000E+00  0.00000000000E+00  0.18699352998E+04  0.18699352998E+04  0.50400001928E-02 0. -1.
        1   -1    0    0  501    0  0.00000000000E+00  0.00000000000E+00 -0.13599257353E+04  0.13599257354E+04  0.50400001928E-02 0.  1.
    10030    2    1    2    0    0  0.00000000000E+00  0.00000000000E+00  0.51000956440E+03  0.32298610351E+04  0.31893404570E+04 0.  0.
        4    1    3    3  502    0  0.66853683233E+03 -0.14474460635E+04  0.22412272755E+03  0.16100541024E+04  0.12699999809E+01 0.  1.
       -4    1    3    3    0  502 -0.66853683233E+03  0.14474460635E+04  0.28588683685E+03  0.16198069327E+04  0.12699999809E+01 0. -1.
</event>
<event>
 5   0  0.1571391E-06  0.2770675E+04  0.7818609E-02  0.8312431E-01
       -1   -1    0    0    0  501  0.00000000000E+00  0.00000000000E+00  0.93077122942E+03  0.93077122943E+03  0.50400001928E-02 0.  1.
        1   -1    0    0  501    0  0.00000000000E+00  0.00000000000E+00 -0.20619030832E+04  0.20619030832E+04  0.50400001928E-02 0. -1.
    10030    2    1    2    0    0  0.00000000000E+00  0.00000000000E+00 -0.11311318538E+04  0.29926743127E+04  0.27706750569E+04 0.  0.
        1    1    3    3  502    0  0.13478789924E+04  0.23408377984E+03 -0.32994255893E+03  0.14072793207E+04  0.50400001928E-02 0. -1.
       -1    1    3    3    0  502 -0.13478789924E+04 -0.23408377984E+03 -0.80118929487E+03  0.15853949920E+04  0.50400001928E-02 0.  1.
</event>
<event>
 5   0  0.2722449E-06  0.2359491E+04  0.7818609E-02  0.8454827E-01
       -2   -1    0    0    0  501  0.00000000000E+00  0.00000000000E+00  0.10368026434E+04  0.10368026434E+04  0.25500000920E-02 0. -1.
        2   -1    0    0  501    0  0.00000000000E+00  0.00000000000E+00 -0.13423961118E+04  0.13423961118E+04  0.25500000920E-02 0.  1.
    10030    2    1    2    0    0  0.00000000000E+00  0.00000000000E+00 -0.30559346840E+03  0.23791987553E+04  0.23594913327E+04 0.  0.
        2    1    3    3  502    0 -0.37042255398E+03 -0.90159986200E+02 -0.12785706651E+04  0.13341981252E+04  0.25500000920E-02 0.  1.
       -2    1    3    3    0  502  0.37042255398E+03  0.90159986200E+02  0.97297719670E+03  0.10450006301E+04  0.25500000920E-02 0. -1.
</event>
<event>
 5   0  0.1401125E-06  0.1927266E+04  0.7818609E-02  0.8641402E-01
        3   -1    0    0  501    0  0.00000000000E+00  0.00000000000E+00  0.84331302049E+03  0.84331302654E+03  0.10100000352E+00 0. -1.
       -3   -1    0    0    0  501  0.00000000000E+00  0.00000000000E+00 -0.11011201585E+04  0.11011201631E+04  0.10100000352E+00 0.  1.
    10030    2    1    2    0    0  0.00000000000E+00  0.00000000000E+00 -0.25780713801E+03  0.19444331897E+04  0.19272664343E+04 0.  0.
        4    1    3    3  502    0 -0.92283921140E+02 -0.90398742322E+03  0.19469907513E+03  0.92931099542E+03  0.12699999809E+01 0. -1.
       -4    1    3    3    0  502  0.92283921140E+02  0.90398742322E+03 -0.45250621314E+03  0.10151221943E+04  0.12699999809E+01 0.  1.
</event>
<event>
 5   0  0.1550164E-06  0.1985418E+04  0.7818609E-02  0.8613469E-01
       -1   -1    0    0    0  501  0.00000000000E+00  0.00000000000E+00  0.69878452193E+03  0.69878452195E+03  0.50400001928E-02 0. -1.
        1   -1    0    0  501    0  0.00000000000E+00  0.00000000000E+00 -0.14102645632E+04  0.14102645632E+04  0.50400001928E-02 0.  1.
    10030    2    1    2    0    0  0.00000000000E+00  0.00000000000E+00 -0.71148004130E+03  0.21090490852E+04  0.19854178892E+04 0.  0.
        4    1    3    3  502    0  0.18067733021E+03 -0.77778111417E+03 -0.98228251824E+03  0.12658863763E+04  0.12699999809E+01 0.  1.
       -4    1    3    3    0  502 -0.18067733021E+03  0.77778111417E+03  0.27080247694E+03  0.84316270887E+03  0.12699999809E+01 0. -1.
</event>
<event>
 5   0  0.2722449E-06  0.2814429E+04  0.7818609E-02  0.8298803E-01
        2   -1    0    0  501    0  0.00000000000E+00  0.00000000000E+00  0.19900439502E+04  0.19900439502E+04  0.25500000920E-02 0.  1.
       -2   -1    0    0    0  501  0.00000000000E+00  0.00000000000E+00 -0.99508014261E+03  0.99508014262E+03  0.25500000920E-02 0. -1.
    10030    2    1    2    0    0  0.00000000000E+00  0.00000000000E+00  0.99496380758E+03  0.29851240928E+04  0.28144294042E+04 0.  0.
        2    1    3    3  502    0 -0.21474906318E+03  0.52115924874E+03 -0.87011042908E+03  0.10367334669E+04  0.25500000920E-02 0. -1.
       -2    1    3    3    0  502  0.21474906318E+03 -0.52115924874E+03  0.18650742367E+04  0.19483906259E+04  0.25500000920E-02 0.  1.
</event>
<event>
 5   0  0.2101998E-06  0.3503702E+04  0.7818609E-02  0.8112913E-01
       -1   -1    0    0    0  501  0.00000000000E+00  0.00000000000E+00  0.16307664826E+04  0.16307664826E+04  0.50400001928E-02 0.  1.
        1   -1    0    0  501    0  0.00000000000E+00  0.00000000000E+00 -0.18819263035E+04  0.18819263035E+04  0.50400001928E-02 0. -1.
    10030    2    1    2    0    0  0.00000000000E+00  0.00000000000E+00 -0.25115982085E+03  0.35126927861E+04  0.35037022353E+04 0.  0.
        5    1    3    3  502    0 -0.47685575950E+02  0.16997355958E+04  0.29691006630E+03  0.17261380847E+04  0.46999998093E+01 0.  1.
       -5    1    3    3    0  502  0.47685575950E+02 -0.16997355958E+04 -0.54806988715E+03  0.17865547014E+04  0.46999998093E+01 0. -1.
</event>
<event>
 5   0  0.4344980E-06  0.2359852E+04  0.7818609E-02  0.8454689E-01
        2   -1    0    0  501    0  0.00000000000E+00  0.00000000000E+00  0.12370914146E+04  0.12370914146E+04  0.25500000920E-02 0.  1.
       -2   -1    0    0    0  501  0.00000000000E+00  0.00000000000E+00 -0.11254024277E+04  0.11254024277E+04  0.25500000920E-02 0. -1.
    10030    2    1    2    0    0  0.00000000000E+00  0.00000000000E+00  0.11168898689E+03  0.23624938423E+04  0.23598522676E+04 0.  0.
        3    1    3    3  502    0 -0.10048304031E+04  0.11168251876E+03  0.66485804540E+03  0.12100385757E+04  0.10100000352E+00 0.  1.
       -3    1    3    3    0  502  0.10048304031E+04 -0.11168251876E+03 -0.55316905851E+03  0.11524552666E+04  0.10100000352E+00 0. -1.
</event>
<event>
 5   0  0.4189587E-06  0.2793440E+04  0.7818609E-02  0.8305308E-01
        2   -1    0    0  501    0  0.00000000000E+00  0.00000000000E+00  0.16243467477E+04  0.16243467477E+04  0.25500000920E-02 0. -1.
       -2   -1    0    0    0  501  0.00000000000E+00  0.00000000000E+00 -0.12009918231E+04  0.12009918231E+04  0.25500000920E-02 0.  1.
    10030    2    1    2    0    0  0.00000000000E+00  0.00000000000E+00  0.42335492456E+03  0.28253385708E+04  0.27934402889E+04 0.  0.
        1    1    3    3  502    0  0.13886015817E+04 -0.48192442088E+02  0.67606879129E+02  0.13910814334E+04  0.50400001928E-02 0.  1.
       -1    1    3    3    0  502 -0.13886015817E+04  0.48192442088E+02  0.35574804543E+03  0.14342571374E+04  0.50400001928E-02 0. -1.
</event>
<event>
 5   0  0.1571391E-06  0.3349809E+04  0.7818609E-02  0.8150336E-01
        1   -1    0    0  501    0  0.00000000000E+00  0.00000000000E+00  0.27095678196E+04  0.27095678196E+04  0.50400001928E-02 0. -1.
       -1   -1    0    0    0  501  0.00000000000E+00  0.00000000000E+00 -0.10353328457E+04  0.10353328457E+04  0.50400001928E-02 0.  1.
    10030    2    1    2    0    0  0.00000000000E+00  0.00000000000E+00  0.16742349739E+04  0.37449006653E+04  0.33498086879E+04 0.  0.
        1    1    3    3  502    0 -0.11177116218E+04 -0.18694735614E+03  0.22158999523E+04  0.24888634317E+04  0.50400001928E-02 0. -1.
       -1    1    3    3    0  502  0.11177116218E+04  0.18694735614E+03 -0.54166497834E+03  0.12560372336E+04  0.50400001928E-02 0.  1.
</event>
<event>
 5   0  0.1562618E-06  0.3397581E+04  0.7818609E-02  0.8138500E-01
       -1   -1    0    0    0  501  0.00000000000E+00  0.00000000000E+00  0.17363141362E+04  0.17363141362E+04  0.50400001928E-02 0. -1.
        1   -1    0    0  501    0  0.00000000000E+00  0.00000000000E+00 -0.16620779363E+04  0.16620779363E+04  0.50400001928E-02 0.  1.
    10030    2    1    2    0    0  0.00000000000E+00  0.00000000000E+00  0.74236199887E+02  0.33983920726E+04  0.33975811492E+04 0.  0.
        2    1    3    3  502    0  0.53084919797E+03 -0.15045021605E+03 -0.15699555419E+04  0.16640903046E+04  0.25500000920E-02 0.  1.
       -2    1    3    3    0  502 -0.53084919797E+03  0.15045021605E+03  0.16441917418E+04  0.17343017679E+04  0.25500000920E-02 0. -1.
</event>
<event>
 5   0  0.1550164E-06  0.1791177E+04  0.7818609E-02  0.8711005E-01
        1   -1    0    0  501    0  0.00000000000E+00  0.00000000000E+00  0.21164918475E+04  0.21164918475E+04  0.50400001928E-02 0.  1.
       -1   -1    0    0    0  501  0.00000000000E+00  0.00000000000E+00 -0.37896632963E+03  0.37896632966E+03  0.50400001928E-02 0. -1.
    10030    2    1    2    0    0  0.00000000000E+00  0.00000000000E+00  0.17375255179E+04  0.24954581772E+04  0.17911774308E+04 0.  0.
        4    1    3    3  502    0 -0.72081645872E+03  0.42764372907E+03  0.42902948111E+03  0.94155373439E+03  0.12699999809E+01 0.  1.
       -4    1    3    3    0  502  0.72081645872E+03 -0.42764372907E+03  0.13084960368E+04  0.15539044428E+04  0.12699999809E+01 0. -1.
</event>
<event>
 5   0  0.1562618E-06  0.3337761E+04  0.7818609E-02  0.8153353E-01
        1   -1    0    0  501    0  0.00000000000E+00  0.00000000000E+00  0.17850693887E+04  0.17850693887E+04  0.50400001928E-02 0.  1.
       -1   -1    0    0    0  501  0.00000000000E+00  0.00000000000E+00 -0.15602540481E+04  0.15602540481E+04  0.50400001928E-02 0. -1.
    10030    2    1    2    0    0  0.00000000000E+00  0.00000000000E+00  0.22481534059E+03  0.33453234368E+04  0.33377607703E+04 0.  0.
        2    1    3    3  502    0  0.29537442663E+03  0.95786923630E+03  0.14497480874E+04  0.17625348344E+04  0.25500000920E-02 0.  1.
       -2    1    3    3    0  502 -0.29537442663E+03 -0.95786923630E+03 -0.12249327468E+04  0.15827886024E+04  0.25500000920E-02 0. -1.
</event>
<event>
 5   0  0.1571391E-06  0.3554690E+04  0.7818609E-02  0.8100950E-01
       -1   -1    0    0    0  501  0.00000000000E+00  0.00000000000E+00  0.14188760187E+04  0.14188760187E+04  0.50400001928E-02 0.  1.
        1   -1    0    0  501    0  0.00000000000E+00  0.00000000000E+00 -0.22263783169E+04  0.22263783169E+04  0.50400001928E-02 0. -1.
    10030    2    1    2    0    0  0.00000000000E+00  0.00000000000E+00 -0.80750229828E+03  0.36452543356E+04  0.35546897487E+04 0.  0.
        1    1    3    3  502    0  0.12975099242E+04 -0.81604092326E+02 -0.16465535388E+04  0.20979346480E+04  0.50400001928E-02 0. -1.
       -1    1    3    3    0  502 -0.12975099242E+04  0.81604092326E+02  0.83905124050E+03  0.15473196876E+04  0.50400001928E-02 0.  1.
</event>
<event>
 5   0  0.4344980E-06  0.3367983E+04  0.7818609E-02  0.8145809E-01
        2   -1    0    0  501    0  0.00000000000E+00  0.00000000000E+00  0.15192922967E+04  0.15192922967E+04  0.25500000920E-02 0. -1.
       -2   -1    0    0    0  501  0.00000000000E+00  0.00000000000E+00 -0.18665453920E+04  0.18665453920E+04  0.25500000920E-02 0.  1.
    10030    2    1    2    0    0  0.00000000000E+00  0.00000000000E+00 -0.34725309523E+03  0.33858376887E+04  0.33679833940E+04 0.  0.
        3    1    3    3  502    0 -0.11731326664E+04 -0.10001723645E+04 -0.85489373574E+03  0.17627899255E+04  0.10100000352E+00 0.  1.
       -3    1    3    3    0  502  0.11731326664E+04  0.10001723645E+04  0.50764064051E+03  0.16230477632E+04  0.10100000352E+00 0. -1.
</event>
<event>
 5   0  0.2722449E-06  0.2746685E+04  0.7818609E-02  0.8320014E-01
        2   -1    0    0  501    0  0.00000000000E+00  0.00000000000E+00  0.14975652813E+04  0.14975652813E+04  0.25500000920E-02 0.  1.
       -2   -1    0    0    0  501  0.00000000000E+00  0.00000000000E+00 -0.12594240560E+04  0.12594240560E+04  0.25500000920E-02 0. -1.
    10030    2    1    2    0    0  0.00000000000E+00  0.00000000000E+00  0.23814122531E+03  0.27569893374E+04  0.27466850863E+04 0.  0.
        2    1    3    3  502    0 -0.10625997330E+04  0.95178132172E+02 -0.74898161481E+03  0.13035146830E+04  0.25500000920E-02 0. -1.
       -2    1    3    3    0  502  0.10625997330E+04 -0.95178132172E+02  0.98712284013E+03  0.14534746544E+04  0.25500000920E-02 0.  1.
</event>
<event>
 5   0  0.1562618E-06  0.3359729E+04  0.7818609E-02  0.8147862E-01
       -1   -1    0    0    0  501  0.00000000000E+00  0.00000000000E+00  0.13263378409E+04  0.13263378409E+04  0.50400001928E-02 0.  1.
        1   -1    0    0  501    0  0.00000000000E+00  0.00000000000E+00 -0.21276207852E+04  0.21276207852E+04  0.50400001928E-02 0. -1.
    10030    2    1    2    0    0  0.00000000000E+00  0.00000000000E+00 -0.80128294430E+03  0.34539586262E+04  0.33597285358E+04 0.  0.
        2    1    3    3  502    0  0.13037566776E+04  0.72538286193E+03  0.39300955561E+03  0.15428604220E+04  0.25500000920E-02 0.  1.
       -2    1    3    3    0  502 -0.13037566776E+04 -0.72538286193E+03 -0.11942924999E+04  0.19110982042E+04  0.25500000920E-02 0. -1.
</event>
<event>
 5   0  0.1550164E-06  0.3157545E+04  0.7818609E-02  0.8200120E-01
       -1   -1    0    0    0  501  0.00000000000E+00  0.00000000000E+00  0.27973403560E+04  0.27973403560E+04  0.50400001928E-02 0. -1.
        1   -1    0    0  501    0  0.00000000000E+00  0.00000000000E+00 -0.89103312381E+03  0.89103312383E+03  0.50400001928E-02 0.  1.
    10030    2    1    2    0    0  0.00000000000E+00  0.00000000000E+00  0.19063072322E+04  0.36883734799E+04  0.31575451958E+04 0.  0.
        4    1    3    3  502    0  0.15451851505E+04  0.59880952458E+02  0.58129967335E+03  0.16519969131E+04  0.12699999809E+01 0.  1.
       -4    1    3    3    0  502 -0.15451851505E+04 -0.59880952458E+02  0.13250075589E+04  0.20363765668E+04  0.12699999809E+01 0. -1.
</event>
<event>
 5   0  0.1571391E-06  0.3364975E+04  0.7818609E-02  0.8146556E-01
       -1   -1    0    0    0  501  0.00000000000E+00  0.00000000000E+00  0.21503897711E+04  0.21503897711E+04  0.50400001928E-02 0. -1.
        1   -1    0    0  501    0  0.00000000000E+00  0.00000000000E+00 -0.13163959594E+04  0.13163959594E+04  0.50400001928E-02 0.  1.
    10030    2    1    2    0    0  0.00000000000E+00  0.00000000000E+00  0.83399381168E+03  0.34667857305E+04  0.33649751297E+04 0.  0.
        1    1    3    3  502    0 -0.92462845298E+03  0.62731128206E+03 -0.87895994449E+03  0.14216285748E+04  0.50400001928E-02 0.  1.
       -1    1    3    3    0  502  0.92462845298E+03 -0.62731128206E+03  0.17129537562E+04  0.20451571557E+04  0.50400001928E-02 0. -1.
</event>
<event>
 5   0  0.1571391E-06  0.3440125E+04  0.7818609E-02  0.8128128E-01
        1   -1    0    0  501    0  0.00000000000E+00  0.00000000000E+00  0.18278444630E+04  0.18278444630E+04  0.50400001928E-02 0.  1.
       -1   -1    0    0    0  501  0.00000000000E+00  0.00000000000E+00 -0.16186360753E+04  0.16186360753E+04  0.50400001928E-02 0. -1.
    10030    2    1    2    0    0  0.00000000000E+00  0.00000000000E+00  0.20920838768E+03  0.34464805383E+04  0.34401249907E+04 0.  0.
        1    1    3    3  502    0  0.55948006839E+03 -0.14122686207E+04 -0.70379073957E+03  0.16741690504E+04  0.50400001928E-02 0. -1.
       -1    1    3    3    0  502 -0.55948006839E+03  0.14122686207E+04  0.91299912726E+03  0.17723114880E+04  0.50400001928E-02 0.  1.
</event>
<event>
 5   0  0.1562618E-06  0.4269567E+04  0.7818609E-02  0.7952269E-01
       -1   -1    0    0    0  501  0.00000000000E+00  0.00000000000E+00  0.18614782912E+04  0.18614782912E+04  0.50400001928E-02 0.  1.
        1   -1    0    0  501    0  0.00000000000E+00  0.00000000000E+00 -0.24482163389E+04  0.24482163389E+04  0.50400001928E-02 0. -1.
    10030    2    1    2    0    0  0.00000000000E+00  0.00000000000E+00 -0.58673804771E+03  0.43096946301E+04  0.42695674568E+04 0.  0.
        2    1    3    3  502    0 -0.11048620858E+04 -0.16202501866E+04 -0.11447238398E+04  0.22707539640E+04  0.25500000920E-02 0. -1.
       -2    1    3    3    0  502  0.11048620858E+04  0.16202501866E+04  0.55798579207E+03  0.20389406661E+04  0.25500000920E-02 0.  1.
</event>
<event>
 5   0  0.1550164E-06  0.2366098E+04  0.7818609E-02  0.8452306E-01
       -1   -1    0    0    0  501  0.00000000000E+00  0.00000000000E+00  0.13359044556E+04  0.13359044556E+04  0.50400001928E-02 0.  1.
        1   -1    0    0  501    0  0.00000000000E+00  0.00000000000E+00 -0.10476837686E+04  0.10476837686E+04  0.50400001928E-02 0. -1.
    10030    2    1    2    0    0  0.00000000000E+00  0.00000000000E+00  0.28822068705E+03  0.23835882242E+04  0.23660984042E+04 0.  0.
        4    1    3    3  502    0 -0.71072147619E+03 -0.32308221309E+03 -0.75133388959E+03  0.10835180477E+04  0.12699999809E+01 0. -1.
       -4    1    3    3    0  502  0.71072147619E+03  0.32308221309E+03  0.10395545766E+04  0.13000701765E+04  0.12699999809E+01 0.  1.
</event>
<event>
 5   0  0.1654257E-06  0.3428310E+04  0.7818609E-02  0.8130993E-01
        1   -1    0    0  501    0  0.00000000000E+00  0.00000000000E+00  0.99964628788E+03  0.99964628789E+03  0.50400001928E-02 0. -1.
       -1   -1    0    0    0  501  0.00000000000E+00  0.00000000000E+00 -0.29393678906E+04  0.29393678906E+04  0.50400001928E-02 0.  1.
    10030    2    1    2    0    0  0.00000000000E+00  0.00000000000E+00 -0.19397216027E+04  0.39390141785E+04  0.34283104880E+04 0.  0.
        3    1    3    3  502    0 -0.17093246129E+03  0.11795627331E+04 -0.23853494113E+04  0.26665479504E+04  0.10100000352E+00 0.  1.
       -3    1    3    3    0  502  0.17093246129E+03 -0.11795627331E+04  0.44562780857E+03  0.12724662281E+04  0.10100000352E+00 0. -1.
</event>
<event>
 5   0  0.2722449E-06  0.2287894E+04  0.7818609E-02  0.8482710E-01
       -2   -1    0    0    0  501  0.00000000000E+00  0.00000000000E+00  0.70871161284E+03  0.70871161285E+03  0.25500000920E-02 0. -1.
        2   -1    0    0  501    0  0.00000000000E+00  0.00000000000E+00 -0.18464699982E+04  0.18464699982E+04  0.25500000920E-02 0.  1.
    10030    2    1    2    0    0  0.00000000000E+00  0.00000000000E+00 -0.11377583853E+04  0.25551816110E+04  0.22878939927E+04 0.  0.
        2    1    3    3  502    0  0.36650663305E+03  0.96926114328E+03 -0.27684115508E+02  0.10366101901E+04  0.25500000920E-02 0. -1.
       -2    1    3    3    0  502 -0.36650663305E+03 -0.96926114328E+03 -0.11100742698E+04  0.15185714209E+04  0.25500000920E-02 0.  1.
</event>
<event>
 5   0  0.2101998E-06  0.3522340E+04  0.7818609E-02  0.8108516E-01
        1   -1    0    0  501    0  0.00000000000E+00  0.00000000000E+00  0.25374100470E+04  0.25374100470E+04  0.50400001928E-02 0. -1.
       -1   -1    0    0    0  501  0.00000000000E+00  0.00000000000E+00 -0.12223961903E+04  0.12223961903E+04  0.50400001928E-02 0.  1.
    10030    2    1    2    0    0  0.00000000000E+00  0.00000000000E+00  0.13150138567E+04  0.37598062372E+04  0.35223403439E+04 0.  0.
        5    1    3    3  502    0  0.11954626754E+04 -0.50883022050E+03 -0.61162418412E+03  0.14360172124E+04  0.46999998093E+01 0.  1.
       -5    1    3    3    0  502 -0.11954626754E+04  0.50883022050E+03  0.19266380408E+04  0.23237890249E+04  0.46999998093E+01 0. -1.
</event>
<event>
 5   0  0.4189587E-06  0.2953834E+04  0.7818609E-02  0.8257038E-01
       -2   -1    0    0    0  501  0.00000000000E+00  0.00000000000E+00  0.93165562514E+03  0.93165562514E+03  0.25500000920E-02 0.  1.
        2   -1    0    0  501    0  0.00000000000E+00  0.00000000000E+00 -0.23412977616E+04  0.23412977616E+04  0.25500000920E-02 0. -1.
    10030    2    1    2    0    0  0.00000000000E+00  0.00000000000E+00 -0.14096421364E+04  0.32729533867E+04  0.29538335970E+04 0.  0.
        1    1    3    3  502    0 -0.96693140716E+03  0.90265128465E+03 -0.14327150319E+04  0.19499764230E+04  0.50400001928E-02 0. -1.
       -1    1    3    3    0  502  0.96693140716E+03 -0.90265128465E+03  0.23072895450E+02  0.13229769637E+04  0.50400001928E-02 0.  1.
</event>
<event>
 5   0  0.1654257E-06  0.2392707E+04  0.7818609E-02  0.8442239E-01
        1   -1    0    0  501    0  0.00000000000E+00  0.00000000000E+00  0.69579751349E+03  0.69579751351E+03  0.50400001928E-02 0. -1.
       -1   -1    0    0    0  501  0.00000000000E+00  0.00000000000E+00 -0.20570087370E+04  0.20570087370E+04  0.50400001928E-02 0.  1.
    10030    2    1    2    0    0  0.00000000000E+00  0.00000000000E+00 -0.13612112235E+04  0.27528062505E+04  0.23927068892E+04 0.  0.
        3    1    3    3  502    0  0.77907300520E+03  0.60344798069E+03 -0.14610452578E+04  0.17623159389E+04  0.10100000352E+00 0.  1.
       -3    1    3    3    0  502 -0.77907300520E+03 -0.60344798069E+03  0.99834034312E+02  0.99049031163E+03  0.10100000352E+00 0. -1.
</event>
<event>
 5   0  0.4173467E-06  0.3406175E+04  0.7818609E-02  0.8136392E-01
       -2   -1    0    0    0  501  0.00000000000E+00  0.00000000000E+00  0.11803935465E+04  0.11803935465E+04  0.25500000920E-02 0.  1.
        2   -1    0    0  501    0  0.00000000000E+00  0.00000000000E+00 -0.24572370529E+04  0.24572370529E+04  0.25500000920E-02 0. -1.
    10030    2    1    2    0    0  0.00000000000E+00  0.00000000000E+00 -0.12768435064E+04  0.36376305995E+04  0.34061748397E+04 0.  0.
        4    1    3    3  502    0 -0.16924875938E+02  0.14016853662E+04 -0.16713563358E+04  0.21813853239E+04  0.12699999809E+01 0.  1.
       -4    1    3    3    0  502  0.16924875938E+02 -0.14016853662E+04  0.39451282940E+03  0.14562452756E+04  0.12699999809E+01 0. -1.
</event>
<event>
 5   0  0.1571391E-06  0.2745907E+04  0.7818609E-02  0.8320261E-01
       -1   -1    0    0    0  501  0.00000000000E+00  0.00000000000E+00  0.14878402612E+04  0.14878402612E+04  0.50400001928E-02 0. -1.
        1   -1    0    0  501    0  0.00000000000E+00  0.00000000000E+00 -0.12669383508E+04  0.12669383508E+04  0.50400001928E-02 0.  1.
    10030    2    1    2    0    0  0.00000000000E+00  0.00000000000E+00  0.22090191039E+03  0.27547786121E+04  0.27459074179E+04 0.  0.
        1    1    3    3  502    0 -0.12277662558E+04  0.53416796789E+03 -0.19426786363E+03  0.13529543228E+04  0.50400001928E-02 0.  1.
       -1    1    3    3    0  502  0.12277662558E+04 -0.53416796789E+03  0.41516977402E+03  0.14018242893E+04  0.50400001928E-02 0. -1.
</event>
<event>
 5   0  0.4400349E-06  0.3386282E+04  0.7818609E-02  0.8141281E-01
       -2   -1    0    0    0  501  0.00000000000E+00  0.00000000000E+00  0.23265620600E+04  0.23265620600E+04  0.25500000920E-02 0.  1.
        2   -1    0    0  501    0  0.00000000000E+00  0.00000000000E+00 -0.12321729716E+04  0.12321729716E+04  0.25500000920E-02 0. -1.
    10030    2    1    2    0    0  0.00000000000E+00  0.00000000000E+00  0.10943890884E+04  0.35587350316E+04  0.33862822606E+04 0.  0.
        5    1    3    3  502    0 -0.90092610800E+03 -0.11272631190E+04 -0.38352258013E+03  0.14931515834E+04  0.46999998093E+01 0.  1.
       -5    1    3    3    0  502  0.90092610800E+03  0.11272631190E+04  0.14779116685E+04  0.20655834482E+04  0.46999998093E+01 0. -1.
</event>
<event>
 5   0  0.4400349E-06  0.3285490E+04  0.7818609E-02  0.8166597E-01
        2   -1    0    0  501    0  0.00000000000E+00  0.00000000000E+00  0.29659803579E+04  0.29659803579E+04  0.25500000920E-02 0. -1.
       -2   -1    0    0    0  501  0.00000000000E+00  0.00000000000E+00 -0.90985483381E+03  0.90985483381E+03  0.25500000920E-02 0.  1.
    10030    2    1    2    0    0  0.00000000000E+00  0.00000000000E+00  0.20561255240E+04  0.38758351917E+04  0.32854902621E+04 0.  0.
        5    1    3    3  502    0  0.84602877503E+03  0.22182043203E+03 -0.61234092362E+03  0.10676855759E+04  0.46999998093E+01 0.  1.
       -5    1    3    3    0  502 -0.84602877503E+03 -0.22182043203E+03  0.26684664477E+04  0.28081496158E+04  0.46999998093E+01 0. -1.
</event>
<event>
 5   0  0.4189587E-06  0.3398854E+04  0.7818609E-02  0.8138188E-01
        2   -1    0    0  501    0  0.00000000000E+00  0.00000000000E+00  0.17228706860E+04  0.17228706860E+04  0.25500000920E-02 0.  1.
       -2   -1    0    0    0  501  0.00000000000E+00  0.00000000000E+00 -0.16763021020E+04  0.16763021020E+04  0.25500000920E-02 0. -1.
    10030    2    1    2    0    0  0.00000000000E+00  0.00000000000E+00  0.46568584068E+02  0.33991727880E+04  0.33988537788E+04 0.  0.
        1    1    3    3  502    0 -0.11229236950E+04 -0.53032754561E+03 -0.11369309770E+04  0.16836914732E+04  0.50400001928E-02 0. -1.
       -1    1    3    3    0  502  0.11229236950E+04  0.53032754561E+03  0.11834995611E+04  0.17154813148E+04  0.50400001928E-02 0.  1.
</event>
<event>
 5   0  0.2722449E-06  0.1846128E+04  0.7818609E-02  0.8682147E-01
       -2   -1    0    0    0  501  0.00000000000E+00  0.00000000000E+00  0.32162762110E+03  0.32162762111E+03  0.25500000920E-02 0. -1.
        2   -1    0    0  501    0  0.00000000000E+00  0.00000000000E+00 -0.26491729069E+04  0.26491729069E+04  0.25500000920E-02 0.  1.
    10030    2    1    2    0    0  0.00000000000E+00  0.00000000000E+00 -0.23275452858E+04  0.29708005280E+04  0.18461280345E+04 0.  0.
        2    1    3    3  502    0  0.17516442861E+03 -0.90303874799E+03 -0.12872274136E+04  0.15821238800E+04  0.25500000920E-02 0.  1.
       -2    1    3    3    0  502 -0.17516442861E+03  0.90303874799E+03 -0.10403178722E+04  0.13886766480E+04  0.25500000920E-02 0. -1.
</event>
<event>
 5   0  0.4400349E-06  0.3435712E+04  0.7818609E-02  0.8129197E-01
        2   -1    0    0  501    0  0.00000000000E+00  0.00000000000E+00  0.19765518882E+04  0.19765518882E+04  0.25500000920E-02 0. -1.
       -2   -1    0    0    0  501  0.00000000000E+00  0.00000000000E+00 -0.14930190344E+04  0.14930190344E+04  0.25500000920E-02 0.  1.
    10030    2    1    2    0    0  0.00000000000E+00  0.00000000000E+00  0.48353285379E+03  0.34695709226E+04  0.34357122065E+04 0.  0.
        5    1    3    3  502    0 -0.33415221307E+03  0.13097981976E+04  0.13122976724E+04  0.18839788456E+04  0.46999998093E+01 0. -1.
       -5    1    3    3    0  502  0.33415221307E+03 -0.13097981976E+04 -0.82876481858E+03  0.15855920769E+04  0.46999998093E+01 0.  1.
</event>
<event>
 5   0  0.4400349E-06  0.3375134E+04  0.7818609E-02  0.8144036E-01
       -2   -1    0    0    0  501  0.00000000000E+00  0.00000000000E+00  0.15512785492E+04  0.15512785492E+04  0.25500000920E-02 0. -1.
        2   -1    0    0  501    0  0.00000000000E+00  0.00000000000E+00 -0.18358293687E+04  0.18358293687E+04  0.25500000920E-02 0.  1.
    10030    2    1    2    0    0  0.00000000000E+00  0.00000000000E+00 -0.28455081950E+03  0.33871079179E+04  0.33751342016E+04 0.  0.
        5    1    3    3  502    0  0.53065567003E+03  0.53014341539E+03  0.13747796572E+04  0.15661062150E+04  0.46999998093E+01 0. -1.
       -5    1    3    3    0  502 -0.53065567003E+03 -0.53014341539E+03 -0.16593304767E+04  0.18210017029E+04  0.46999998093E+01 0.  1.
</event>
<event>
 5   0  0.4344980E-06  0.1947244E+04  0.7818609E-02  0.8631691E-01
        2   -1    0    0  501    0  0.00000000000E+00  0.00000000000E+00  0.12492118030E+04  0.12492118030E+04  0.25500000920E-02 0. -1.
       -2   -1    0    0    0  501  0.00000000000E+00  0.00000000000E+00 -0.75883018648E+03  0.75883018648E+03  0.25500000920E-02 0.  1.
    10030    2    1    2    0    0  0.00000000000E+00  0.00000000000E+00  0.49038161654E+03  0.20080419895E+04  0.19472438219E+04 0.  0.
        3    1    3    3  502    0 -0.96271581089E+02 -0.70392295908E+03  0.93168145796E+03  0.11716680839E+04  0.10100000352E+00 0. -1.
       -3    1    3    3    0  502  0.96271581089E+02  0.70392295908E+03 -0.44129984142E+03  0.83637390555E+03  0.10100000352E+00 0.  1.
</event>
<event>
 5   0  0.4344980E-06  0.3296289E+04  0.7818609E-02  0.8163840E-01
       -2   -1    0    0    0  501  0.00000000000E+00  0.00000000000E+00  0.29134261257E+04  0.29134261257E+04  0.25500000920E-02 0. -1.
        2   -1    0    0  501    0  0.00000000000E+00  0.00000000000E+00 -0.93236613426E+03  0.93236613426E+03  0.25500000920E-02 0.  1.
    10030    2    1    2    0    0  0.00000000000E+00  0.00000000000E+00  0.19810599915E+04  0.38457922600E+04  0.32962887339E+04 0.  0.
        3    1    3    3  502    0  0.17579597200E+03 -0.13225858119E+03 -0.91515944399E+03  0.94122971383E+03  0.10100000352E+00 0.  1.
       -3    1    3    3    0  502 -0.17579597200E+03  0.13225858119E+03  0.28962194354E+04  0.29045625462E+04  0.10100000352E+00 0. -1.
</event>
<event>
 5   0  0.4173467E-06  0.3480975E+04  0.7818609E-02  0.8118313E-01
       -2   -1    0    0    0  501  0.00000000000E+00  0.00000000000E+00  0.15561156479E+04  0.15561156479E+04  0.25500000920E-02 0. -1.
        2   -1    0    0  501    0  0.00000000000E+00  0.00000000000E+00 -0.19467041200E+04  0.19467041200E+04  0.25500000920E-02 0.  1.
    10030    2    1    2    0    0  0.00000000000E+00  0.00000000000E+00 -0.39058847206E+03  0.35028197679E+04  0.34809750030E+04 0.  0.
        4    1    3    3  502    0  0.37886337405E+03  0.14487272022E+04  0.69737316566E+03  0.16518713351E+04  0.12699999809E+01 0. -1.
       -4    1    3    3    0  502 -0.37886337405E+03 -0.14487272022E+04 -0.10879616377E+04  0.18509484328E+04  0.12699999809E+01 0.  1.
</event>
<event>
 5   0  0.2101998E-06  0.3437899E+04  0.7818609E-02  0.8128667E-01
        1   -1    0    0  501    0  0.00000000000E+00  0.00000000000E+00  0.22184923689E+04  0.22184923689E+04  0.50400001928E-02 0. -1.
       -1   -1    0    0    0  501  0.00000000000E+00  0.00000000000E+00 -0.13318896250E+04  0.13318896250E+04  0.50400001928E-02 0.  1.
    10030    2    1    2    0    0  0.00000000000E+00  0.00000000000E+00  0.88660274391E+03  0.35503819940E+04  0.34378987591E+04 0.  0.
        5    1    3    3  502    0  0.14543996481E+04 -0.98424387500E+02 -0.49743622381E+03  0.15402696462E+04  0.46999998093E+01 0.  1.
       -5    1    3    3    0  502 -0.14543996481E+04  0.98424387500E+02  0.13840389677E+04  0.20101123477E+04  0.46999998093E+01 0. -1.
</event>
<event>
 5   0  0.1571391E-06  0.3409638E+04  0.7818609E-02  0.8135545E-01
       -1   -1    0    0    0  501  0.00000000000E+00  0.00000000000E+00  0.15249203196E+04  0.15249203196E+04  0.50400001928E-02 0. -1.
        1   -1    0    0  501    0  0.00000000000E+00  0.00000000000E+00 -0.19059408160E+04  0.19059408160E+04  0.50400001928E-02 0.  1.
    10030    2    1    2    0    0  0.00000000000E+00  0.00000000000E+00 -0.38102049631E+03  0.34308611356E+04  0.34096380326E+04 0.  0.
        1    1    3    3  502    0 -0.64057188088E+03  0.12682830382E+04 -0.11384642943E+04  0.18207073210E+04  0.50400001928E-02 0.  1.
       -1    1    3    3    0  502  0.64057188088E+03 -0.12682830382E+04  0.75744379798E+03  0.16101538146E+04  0.50400001928E-02 0. -1.
</event>
<event>
 5   0  0.2722449E-06  0.3358367E+04  0.7818609E-02  0.8148201E-01
        2   -1    0    0  501    0  0.00000000000E+00  0.00000000000E+00  0.23060757801E+04  0.23060757801E+04  0.25500000920E-02 0.  1.
       -2   -1    0    0    0  501  0.00000000000E+00  0.00000000000E+00 -0.12227076461E+04  0.12227076461E+04  0.25500000920E-02 0. -1.
    10030    2    1    2    0    0  0.00000000000E+00  0.00000000000E+00  0.10833681340E+04  0.35287834262E+04  0.33583665606E+04 0.  0.
        2    1    3    3  502    0 -0.57190341454E+03 -0.15239384035E+04  0.97516494454E+03  0.18974742270E+04  0.25500000920E-02 0.  1.
       -2    1    3    3    0  502  0.57190341454E+03  0.15239384035E+04  0.10820318949E+03  0.16313091992E+04  0.25500000920E-02 0. -1.
</event>
<event>
 5   0  0.4400349E-06  0.2713727E+04  0.7818609E-02  0.8330565E-01
       -2   -1    0    0    0  501  0.00000000000E+00  0.00000000000E+00  0.96061203793E+03  0.96061203793E+03  0.25500000920E-02 0. -1.
        2   -1    0    0  501    0  0.00000000000E+00  0.00000000000E+00 -0.19165677983E+04  0.19165677983E+04  0.25500000920E-02 0.  1.
    10030    2    1    2    0    0  0.00000000000E+00  0.00000000000E+00 -0.95595576036E+03  0.28771798362E+04  0.27137266617E+04 0.  0.
        5    1    3    3  502    0  0.13394067145E+04  0.12740561155E+03 -0.29186723116E+03  0.13767538296E+04  0.46999998093E+01 0. -1.
       -5    1    3    3    0  502 -0.13394067145E+04 -0.12740561155E+03 -0.66408852920E+03  0.15004260066E+04  0.46999998093E+01 0.  1.
</event>
<event>
 5   0  0.4189587E-06  0.1774037E+04  0.7818609E-02  0.8720229E-01
       -2   -1    0    0    0  501  0.00000000000E+00  0.00000000000E+00  0.90316905985E+03  0.90316905985E+03  0.25500000920E-02 0.  1.
        2   -1    0    0  501    0  0.00000000000E+00  0.00000000000E+00 -0.87115677563E+03  0.87115677564E+03  0.25500000920E-02 0. -1.
    10030    2    1    2    0    0  0.00000000000E+00  0.00000000000E+00  0.32012284217E+02  0.17743258355E+04  0.17740370301E+04 0.  0.
        1    1    3    3  502    0  0.71868294460E+03 -0.94076548801E+02  0.52740755553E+03  0.89638959250E+03  0.50400001928E-02 0.  1.
       -1    1    3    3    0  502 -0.71868294460E+03  0.94076548801E+02 -0.49539527131E+03  0.87793624299E+03  0.50400001928E-02 0. -1.
</event>
<event>
 5   0  0.4400349E-06  0.3381190E+04  0.7818609E-02  0.8142538E-01
       -2   -1    0    0    0  501  0.00000000000E+00  0.00000000000E+00  0.16033334956E+04  0.16033334956E+04  0.25500000920E-02 0. -1.
        2   -1    0    0  501    0  0.00000000000E+00  0.00000000000E+00 -0.17826056409E+04  0.17826056409E+04  0.25500000920E-02 0.  1.
    10030    2    1    2    0    0  0.00000000000E+00  0.00000000000E+00 -0.17927214525E+03  0.33859391365E+04  0.33811899287E+04 0.  0.
        5    1    3    3  502    0 -0.15877520459E+04 -0.33046179284E+03 -0.56772438072E+03  0.17182824617E+04  0.46999998093E+01 0. -1.
       -5    1    3    3    0  502  0.15877520459E+04  0.33046179284E+03  0.38845223547E+03  0.16676566748E+04  0.46999998093E+01 0.  1.
</event>
<event>
 5   0  0.1654257E-06  0.3502785E+04  0.7818609E-02  0.8113130E-01
        1   -1    0    0  501    0  0.00000000000E+00  0.00000000000E+00  0.17268256691E+04  0.17268256691E+04  0.50400001928E-02 0. -1.
       -1   -1    0    0    0  501  0.00000000000E+00  0.00000000000E+00 -0.17763089166E+04  0.17763089166E+04  0.50400001928E-02 0.  1.
    10030    2    1    2    0    0  0.00000000000E+00  0.00000000000E+00 -0.49483247568E+02  0.35031345857E+04  0.35027850824E+04 0.  0.
        3    1    3    3  502    0 -0.50748590930E+03 -0.16466686236E+04  0.28884399447E+03  0.17471377643E+04  0.10100000352E+00 0. -1.
       -3    1    3    3    0  502  0.50748590930E+03  0.16466686236E+04 -0.33832724204E+03  0.17559968214E+04  0.10100000352E+00 0.  1.
</event>
<event>
 5   0  0.2101998E-06  0.1896980E+04  0.7818609E-02  0.8656361E-01
        1   -1    0    0  501    0  0.00000000000E+00  0.00000000000E+00  0.16632713068E+04  0.16632713068E+04  0.50400001928E-02 0. -1.
       -1   -1    0    0    0  501  0.00000000000E+00  0.00000000000E+00 -0.54088197808E+03  0.54088197810E+03  0.50400001928E-02 0.  1.
    10030    2    1    2    0    0  0.00000000000E+00  0.00000000000E+00  0.11223893287E+04  0.22041532849E+04  0.18969802050E+04 0.  0.
        5    1    3    3  502    0 -0.92143388843E+03  0.96483754602E+02  0.32517217353E+03  0.98189029840E+03  0.46999998093E+01 0. -1.
       -5    1    3    3    0  502  0.92143388843E+03 -0.96483754602E+02  0.79721715519E+03  0.12222629865E+04  0.46999998093E+01 0.  1.
</event>
<event>
 5   0  0.4173467E-06  0.3373715E+04  0.7818609E-02  0.8144388E-01
        2   -1    0    0  501    0  0.00000000000E+00  0.00000000000E+00  0.21679089760E+04  0.21679089760E+04  0.25500000920E-02 0.  1.
       -2   -1    0    0    0  501  0.00000000000E+00  0.00000000000E+00 -0.13125497023E+04  0.13125497023E+04  0.25500000920E-02 0. -1.
    10030    2    1    2    0    0  0.00000000000E+00  0.00000000000E+00  0.85535927376E+03  0.34804586783E+04  0.33737150330E+04 0.  0.
        4    1    3    3  502    0 -0.46946115201E+03  0.51992394989E+03 -0.11553990990E+04  0.13511711135E+04  0.12699999809E+01 0. -1.
       -4    1    3    3    0  502  0.46946115201E+03 -0.51992394989E+03  0.20107583728E+04  0.21292875648E+04  0.12699999809E+01 0.  1.
</event>
<event>
 5   0  0.4173467E-06  0.3223881E+04  0.7818609E-02  0.8182539E-01
       -2   -1    0    0    0  501  0.00000000000E+00  0.00000000000E+00  0.10750530394E+04  0.10750530394E+04  0.25500000920E-02 0. -1.
        2   -1    0    0  501    0  0.00000000000E+00  0.00000000000E+00 -0.24169518827E+04  0.24169518827E+04  0.25500000920E-02 0.  1.
    10030    2    1    2    0    0  0.00000000000E+00  0.00000000000E+00 -0.13418988433E+04  0.34920049221E+04  0.32238805608E+04 0.  0.
        4    1    3    3  502    0 -0.66565043760E+03 -0.14482223479E+04 -0.41028733798E+03  0.16458358930E+04  0.12699999809E+01 0.  1.
       -4    1    3    3    0  502  0.66565043760E+03  0.14482223479E+04 -0.93161150530E+03  0.18461690290E+04  0.12699999809E+01 0. -1.
</event>
<event>
 5   0  0.4400349E-06  0.2111661E+04  0.7818609E-02  0.8556124E-01
       -2   -1    0    0    0  501  0.00000000000E+00  0.00000000000E+00  0.10405800693E+04  0.10405800693E+04  0.25500000920E-02 0.  1.
        2   -1    0    0  501    0  0.00000000000E+00  0.00000000000E+00 -0.10713040757E+04  0.10713040757E+04  0.25500000920E-02 0. -1.
    10030    2    1    2    0    0  0.00000000000E+00  0.00000000000E+00 -0.30724006480E+02  0.21118841450E+04  0.21116606444E+04 0.  0.
        5    1    3    3  502    0  0.97767569601E+03  0.34636795704E+03  0.18197854856E+03  0.10530711326E+04  0.46999998093E+01 0.  1.
       -5    1    3    3    0  502 -0.97767569601E+03 -0.34636795704E+03 -0.21270255504E+03  0.10588130124E+04  0.46999998093E+01 0. -1.
</event>
<event>
 5   0  0.1562618E-06  0.3252223E+04  0.7818609E-02  0.8175160E-01
       -1   -1    0    0    0  501  0.00000000000E+00  0.00000000000E+00  0.11701526477E+04  0.11701526477E+04  0.50400001928E-02 0. -1.
        1   -1    0    0  501    0  0.00000000000E+00  0.00000000000E+00 -0.22597384058E+04  0.22597384058E+04  0.50400001928E-02 0.  1.
    10030    2    1    2    0    0  0.00000000000E+00  0.00000000000E+00 -0.10895857581E+04  0.34298910535E+04  0.32522231649E+04 0.  0.
        2    1    3    3  502    0 -0.68873515122E+03 -0.63599229038E+03 -0.19460606280E+04  0.21600912643E+04  0.25500000920E-02 0.  1.
       -2    1    3    3    0  502  0.68873515122E+03  0.63599229038E+03  0.85647486989E+03  0.12697997892E+04  0.25500000920E-02 0. -1.
</event>
<event>
 5   0  0.4344980E-06  0.3421447E+04  0.7818609E-02  0.8132663E-01
       -2   -1    0    0    0  501  0.00000000000E+00  0.00000000000E+00  0.20771727295E+04  0.20771727295E+04  0.25500000920E-02 0.  1.
        2   -1    0    0  501    0  0.00000000000E+00  0.00000000000E+00 -0.14089219596E+04  0.14089219596E+04  0.25500000920E-02 0. -1.
    10030    2    1    2    0    0  0.00000000000E+00  0.00000000000E+00  0.66825076983E+03  0.34860946891E+04  0.34214466370E+04 0.  0.
        3    1    3    3  502    0 -0.65649530804E+03 -0.16721883131E+03 -0.12664240051E+04  0.14362374448E+04  0.10100000352E+00 0. -1.
       -3    1    3    3    0  502  0.65649530804E+03  0.16721883131E+03  0.19346747749E+04  0.20498572443E+04  0.10100000352E+00 0.  1.
</event>
<event>
 5   0  0.1550164E-06  0.2778800E+04  0.7818609E-02  0.8309880E-01
       -1   -1    0    0    0  501  0.00000000000E+00  0.00000000000E+00  0.26638670266E+04  0.26638670266E+04  0.50400001928E-02 0. -1.
        1   -1    0    0  501    0  0.00000000000E+00  0.00000000000E+00 -0.72467311664E+03  0.72467311666E+03  0.50400001928E-02 0.  1.
    10030    2    1    2    0    0  0.00000000000E+00  0.00000000000E+00  0.19391939100E+04  0.33885401433E+04  0.27788003315E+04 0.  0.
        4    1    3    3  502    0 -0.11272750361E+03  0.12455925989E+04  0.23164518376E+03  0.12719549979E+04  0.12699999809E+01 0.  1.
       -4    1    3    3    0  502  0.11272750361E+03 -0.12455925989E+04  0.17075487262E+04  0.21165851454E+04  0.12699999809E+01 0. -1.
</event>
<event>
 5   0  0.4344980E-06  0.3373854E+04  0.7818609E-02  0.8144353E-01
        2   -1    0    0  501    0  0.00000000000E+00  0.00000000000E+00  0.24435101702E+04  0.24435101702E+04  0.25500000920E-02 0. -1.
       -2   -1    0    0    0  501  0.00000000000E+00  0.00000000000E+00 -0.11646040929E+04  0.11646040929E+04  0.25500000920E-02 0.  1.
    10030    2    1    2    0    0  0.00000000000E+00  0.00000000000E+00  0.12789060773E+04  0.36081142631E+04  0.33738535506E+04 0.  0.
        3    1    3    3  502    0 -0.12753692889E+04  0.10469734826E+04  0.26438547793E+03  0.16711133975E+04  0.10100000352E+00 0.  1.
       -3    1    3    3    0  502  0.12753692889E+04 -0.10469734826E+04  0.10145205994E+04  0.19370008655E+04  0.10100000352E+00 0. -1.
</event>
<event>
 5   0  0.1401125E-06  0.2813967E+04  0.7818609E-02  0.8298945E-01
       -4   -1    0    0    0  501  0.00000000000E+00  0.00000000000E+00  0.84277255562E+03  0.84277351252E+03  0.12699999809E+01 0.  1.
        4   -1    0    0  501    0  0.00000000000E+00  0.00000000000E+00 -0.23489146706E+04  0.23489150140E+04  0.12699999809E+01 0. -1.
    10030    2    1    2    0    0  0.00000000000E+00  0.00000000000E+00 -0.15061421150E+04  0.31916885265E+04  0.28139672314E+04 0.  0.
        1    1    3    3  502    0  0.68757576502E+03  0.20086387329E+03  0.62047090740E+03  0.94767656676E+03  0.50400001928E-02 0.  1.
       -1    1    3    3    0  502 -0.68757576502E+03 -0.20086387329E+03 -0.21266130224E+04  0.22440119597E+04  0.50400001928E-02 0. -1.
</event>
<event>
 5   0  0.4189587E-06  0.3405998E+04  0.7818609E-02  0.8136436E-01
       -2   -1    0    0    0  501  0.00000000000E+00  0.00000000000E+00  0.19500843730E+04  0.19500843730E+04  0.25500000920E-02 0.  1.
        2   -1    0    0  501    0  0.00000000000E+00  0.00000000000E+00 -0.14872209463E+04  0.14872209463E+04  0.25500000920E-02 0. -1.
    10030    2    1    2    0    0  0.00000000000E+00  0.00000000000E+00  0.46286342671E+03  0.34373053193E+04  0.34059984302E+04 0.  0.
        1    1    3    3  502    0 -0.80059275917E+03 -0.10499315563E+04 -0.85404826898E+03  0.15724832224E+04  0.50400001928E-02 0.  1.
       -1    1    3    3    0  502  0.80059275917E+03  0.10499315563E+04  0.13169116957E+04  0.18648220969E+04  0.50400001928E-02 0. -1.
</event>
<event>
 5   0  0.2722449E-06  0.3689465E+04  0.7818609E-02  0.8070300E-01
        2   -1    0    0  501    0  0.00000000000E+00  0.00000000000E+00  0.28122122601E+04  0.28122122601E+04  0.25500000920E-02 0. -1.
       -2   -1    0    0    0  501  0.00000000000E+00  0.00000000000E+00 -0.12100931452E+04  0.12100931452E+04  0.25500000920E-02 0.  1.
    10030    2    1    2    0    0  0.00000000000E+00  0.00000000000E+00  0.16021191149E+04  0.40223054053E+04  0.36894654240E+04 0.  0.
        2    1    3    3  502    0  0.15104955743E+04  0.56854670224E+03  0.17750765197E+04  0.23991121031E+04  0.25500000920E-02 0. -1.
       -2    1    3    3    0  502 -0.15104955743E+04 -0.56854670224E+03 -0.17295740474E+03  0.16231933022E+04  0.25500000920E-02 0.  1.
</event>
<event>
 5   0  0.2101998E-06  0.2108029E+04  0.7818609E-02  0.8557715E-01
        1   -1    0    0  501    0  0.00000000000E+00  0.00000000000E+00  0.99661016877E+03  0.99661016878E+03  0.50400001928E-02 0.  1.
       -1   -1    0    0    0  501  0.00000000000E+00  0.00000000000E+00 -0.11147253758E+04  0.11147253758E+04  0.50400001928E-02 0. -1.
    10030    2    1    2    0    0  0.00000000000E+00  0.00000000000E+00 -0.11811520705E+03  0.21113355446E+04  0.21080290747E+04 0.  0.
        5    1    3    3  502    0 -0.35337035495E+03  0.11407419724E+03  0.92891804020E+03  0.10003970940E+04  0.46999998093E+01 0.  1.
       -5    1    3    3    0  502  0.35337035495E+03 -0.11407419724E+03 -0.10470332473E+04  0.11109384506E+04  0.46999998093E+01 0. -1.
</event>
<event>
 5   0  0.1550164E-06  0.1789666E+04  0.7818609E-02  0.8711815E-01
        1   -1    0    0  501    0  0.00000000000E+00  0.00000000000E+00  0.88269672728E+03  0.88269672730E+03  0.50400001928E-02 0.  1.
       -1   -1    0    0    0  501  0.00000000000E+00  0.00000000000E+00 -0.90713567332E+03  0.90713567333E+03  0.50400001928E-02 0. -1.
    10030    2    1    2    0    0  0.00000000000E+00  0.00000000000E+00 -0.24438946032E+02  0.17898324006E+04  0.17896655442E+04 0.  0.
        4    1    3    3  502    0  0.66844916402E+03  0.10888020764E+03  0.57268109595E+03  0.88692978023E+03  0.12699999809E+01 0.  1.
       -4    1    3    3    0  502 -0.66844916402E+03 -0.10888020764E+03 -0.59712004198E+03  0.90290262040E+03  0.12699999809E+01 0. -1.
</event>
<event>
 5   0  0.1401125E-06  0.3194989E+04  0.7818609E-02  0.8190142E-01
        3   -1    0    0  501    0  0.00000000000E+00  0.00000000000E+00  0.24045792564E+04  0.24045792585E+04  0.10100000352E+00 0. -1.
       -3   -1    0    0    0  501  0.00000000000E+00  0.00000000000E+00 -0.10613035220E+04  0.10613035269E+04  0.10100000352E+00 0.  1.
    10030    2    1    2    0    0  0.00000000000E+00  0.00000000000E+00  0.13432757344E+04  0.34658827854E+04  0.31949888550E+04 0.  0.
        3    1    3    3  502    0  0.42680456379E+03 -0.10571850877E+04 -0.54225104265E+03  0.12624732269E+04  0.10100000352E+00 0.  1.
       -3    1    3    3    0  502 -0.42680456379E+03  0.10571850877E+04  0.18855267770E+04  0.22034095585E+04  0.10100000352E+00 0. -1.
</event>
<event>
 5   0  0.2722449E-06  0.3426134E+04  0.7818609E-02  0.8131522E-01
        2   -1    0    0  501    0  0.00000000000E+00  0.00000000000E+00  0.14484354254E+04  0.14484354254E+04  0.25500000920E-02 0. -1.
       -2   -1    0    0    0  501  0.00000000000E+00  0.00000000000E+00 -0.20260466227E+04  0.20260466227E+04  0.25500000920E-02 0.  1.
    10030    2    1    2    0    0  0.00000000000E+00  0.00000000000E+00 -0.57761119728E+03  0.34744820482E+04  0.34261335070E+04 0.  0.
        2    1    3    3  502    0  0.13397337883E+04 -0.10335544200E+04 -0.17682236900E+02  0.16921684385E+04  0.25500000920E-02 0. -1.
       -2    1    3    3    0  502 -0.13397337883E+04  0.10335544200E+04 -0.55992896038E+03  0.17823136097E+04  0.25500000920E-02 0.  1.
</event>
<event>
 5   0  0.4400349E-06  0.2171871E+04  0.7818609E-02  0.8530228E-01
       -2   -1    0    0    0  501  0.00000000000E+00  0.00000000000E+00  0.51627358446E+03  0.51627358447E+03  0.25500000920E-02 0.  1.
        2   -1    0    0  501    0  0.00000000000E+00  0.00000000000E+00 -0.22841683566E+04  0.22841683566E+04  0.25500000920E-02 0. -1.
    10030    2    1    2    0    0  0.00000000000E+00  0.00000000000E+00 -0.17678947721E+04  0.28004419410E+04  0.21718708847E+04 0.  0.
        5    1    3    3  502    0  0.44090014355E+03 -0.19550051076E+03 -0.21384757322E+04  0.21921938631E+04  0.46999998093E+01 0. -1.
       -5    1    3    3    0  502 -0.44090014355E+03  0.19550051076E+03  0.37058096010E+03  0.60824807791E+03  0.46999998093E+01 0.  1.
</event>
<event>
 5   0  0.1550164E-06  0.3439935E+04  0.7818609E-02  0.8128174E-01
        1   -1    0    0  501    0  0.00000000000E+00  0.00000000000E+00  0.22303690151E+04  0.22303690151E+04  0.50400001928E-02 0. -1.
       -1   -1    0    0    0  501  0.00000000000E+00  0.00000000000E+00 -0.13263670673E+04  0.13263670673E+04  0.50400001928E-02 0.  1.
    10030    2    1    2    0    0  0.00000000000E+00  0.00000000000E+00  0.90400194781E+03  0.35567360823E+04  0.34399348886E+04 0.  0.
        4    1    3    3  502    0 -0.28394052299E+03 -0.11075005406E+04 -0.87658294695E+03  0.14406869694E+04  0.12699999809E+01 0.  1.
       -4    1    3    3    0  502  0.28394052299E+03  0.11075005406E+04  0.17805848948E+04  0.21160491129E+04  0.12699999809E+01 0. -1.
</event>
<event>
 5   0  0.4173467E-06  0.3376250E+04  0.7818609E-02  0.8143760E-01
        2   -1    0    0  501    0  0.00000000000E+00  0.00000000000E+00  0.22680587169E+04  0.22680587169E+04  0.25500000920E-02 0.  1.
       -2   -1    0    0    0  501  0.00000000000E+00  0.00000000000E+00 -0.12564781215E+04  0.12564781215E+04  0.25500000920E-02 0. -1.
    10030    2    1    2    0    0  0.00000000000E+00  0.00000000000E+00  0.10115805954E+04  0.35245368384E+04  0.33762500832E+04 0.  0.
        4    1    3    3  502    0  0.71638954948E+03 -0.28604512072E+03  0.20733157349E+04  0.22121653525E+04  0.12699999809E+01 0.  1.
       -4    1    3    3    0  502 -0.71638954948E+03  0.28604512072E+03 -0.10617351394E+04  0.13123714859E+04  0.12699999809E+01 0. -1.
</event>
<event>
 5   0  0.1401125E-06  0.3132160E+04  0.7818609E-02  0.8206967E-01
       -3   -1    0    0    0  501  0.00000000000E+00  0.00000000000E+00  0.15235079483E+04  0.15235079517E+04  0.10100000352E+00 0. -1.
        3   -1    0    0  501    0  0.00000000000E+00  0.00000000000E+00 -0.16098420344E+04  0.16098420376E+04  0.10100000352E+00 0.  1.
    10030    2    1    2    0    0  0.00000000000E+00  0.00000000000E+00 -0.86334086127E+02  0.31333499893E+04  0.31321603696E+04 0.  0.
        1    1    3    3  502    0  0.20937379156E+03 -0.14774302276E+04 -0.51871027550E+03  0.15797777730E+04  0.50400001928E-02 0.  1.
       -1    1    3    3    0  502 -0.20937379156E+03  0.14774302276E+04  0.43237618938E+03  0.15535722163E+04  0.50400001928E-02 0. -1.
</event>
<event>
 5   0  0.1654257E-06  0.3362472E+04  0.7818609E-02  0.8147179E-01
       -1   -1    0    0    0  501  0.00000000000E+00  0.00000000000E+00  0.15230343541E+04  0.15230343541E+04  0.50400001928E-02 0.  1.
        1   -1    0    0  501    0  0.00000000000E+00  0.00000000000E+00 -0.18558707290E+04  0.18558707290E+04  0.50400001928E-02 0. -1.
    10030    2    1    2    0    0  0.00000000000E+00  0.00000000000E+00 -0.33283637489E+03  0.33789050830E+04  0.33624722315E+04 0.  0.
        3    1    3    3  502    0 -0.12386176721E+03  0.16489217337E+04 -0.47166288180E+03  0.17195204289E+04  0.10100000352E+00 0.  1.
       -3    1    3    3    0  502  0.12386176721E+03 -0.16489217337E+04  0.13882650691E+03  0.16593846541E+04  0.10100000352E+00 0. -1.
</event>
<event>
 5   0  0.1562618E-06  0.2931023E+04  0.7818609E-02  0.8263707E-01
        1   -1    0    0  501    0  0.00000000000E+00  0.00000000000E+00  0.90457909129E+03  0.90457909131E+03  0.50400001928E-02 0. -1.
       -1   -1    0    0    0  501  0.00000000000E+00  0.00000000000E+00 -0.23742799586E+04  0.23742799586E+04  0.50400001928E-02 0.  1.
    10030    2    1    2    0    0  0.00000000000E+00  0.00000000000E+00 -0.14697008673E+04  0.32788590499E+04  0.29310230347E+04 0.  0.
        2    1    3    3  502    0 -0.10979271672E+04  0.88439363145E+03 -0.11824987439E+04  0.18400813675E+04  0.25500000920E-02 0.  1.
       -2    1    3    3    0  502  0.10979271672E+04 -0.88439363145E+03 -0.28720212344E+03  0.14387776824E+04  0.25500000920E-02 0. -1.
</event>
<event>
 5   0  0.1562618E-06  0.2081657E+04  0.7818609E-02  0.8569367E-01
       -1   -1    0    0    0  501  0.00000000000E+00  0.00000000000E+00  0.14549793106E+04  0.14549793106E+04  0.50400001928E-02 0. -1.
        1   -1    0    0  501    0  0.00000000000E+00  0.00000000000E+00 -0.74456302031E+03  0.74456302033E+03  0.50400001928E-02 0.  1.
    10030    2    1    2    0    0  0.00000000000E+00  0.00000000000E+00  0.71041629033E+03  0.21995423310E+04  0.20816568306E+04 0.  0.
        2    1    3    3  502    0 -0.39750266421E+03 -0.79931498530E+03 -0.21027285501E+03  0.91713002749E+03  0.25500000920E-02 0.  1.
       -2    1    3    3    0  502  0.39750266421E+03  0.79931498530E+03  0.92068914534E+03  0.12824123035E+04  0.25500000920E-02 0. -1.
</event>
<event>
 5   0  0.1571391E-06  0.3411470E+04  0.7818609E-02  0.8135097E-01
        1   -1    0    0  501    0  0.00000000000E+00  0.00000000000E+00  0.16813115816E+04  0.16813115816E+04  0.50400001928E-02 0. -1.
       -1   -1    0    0    0  501  0.00000000000E+00  0.00000000000E+00 -0.17305131356E+04  0.17305131356E+04  0.50400001928E-02 0.  1.
    10030    2    1    2    0    0  0.00000000000E+00  0.00000000000E+00 -0.49201553998E+02  0.34118247172E+04  0.34114699336E+04 0.  0.
        1    1    3    3  502    0 -0.42826056514E+03 -0.14847896386E+04  0.69764078534E+03  0.16954969914E+04  0.50400001928E-02 0. -1.
       -1    1    3    3    0  502  0.42826056514E+03  0.14847896386E+04 -0.74684233934E+03  0.17163277258E+04  0.50400001928E-02 0.  1.
</event>
<event>
 5   0  0.2101998E-06  0.2896169E+04  0.7818609E-02  0.8274018E-01
        1   -1    0    0  501    0  0.00000000000E+00  0.00000000000E+00  0.12373784733E+04  0.12373784733E+04  0.50400001928E-02 0.  1.
       -1   -1    0    0    0  501  0.00000000000E+00  0.00000000000E+00 -0.16946706587E+04  0.16946706587E+04  0.50400001928E-02 0. -1.
    10030    2    1    2    0    0  0.00000000000E+00  0.00000000000E+00 -0.45729218537E+03  0.29320491320E+04  0.28961691887E+04 0.  0.
        5    1    3    3  502    0  0.20854529987E+03 -0.10515433503E+04  0.75690921307E+03  0.13123140655E+04  0.46999998093E+01 0. -1.
       -5    1    3    3    0  502 -0.20854529987E+03  0.10515433503E+04 -0.12142013984E+04  0.16197350665E+04  0.46999998093E+01 0.  1.
</event>
<event>
 5   0  0.1562618E-06  0.3312474E+04  0.7818609E-02  0.8159729E-01
       -1   -1    0    0    0  501  0.00000000000E+00  0.00000000000E+00  0.15912706397E+04  0.15912706397E+04  0.50400001928E-02 0. -1.
        1   -1    0    0  501    0  0.00000000000E+00  0.00000000000E+00 -0.17238554570E+04  0.17238554570E+04  0.50400001928E-02 0.  1.
    10030    2    1    2    0    0  0.00000000000E+00  0.00000000000E+00 -0.13258481731E+03  0.33151260967E+04  0.33124737438E+04 0.  0.
        2    1    3    3  502    0 -0.15984680852E+04 -0.69565025527E+02 -0.49463168239E+03  0.16746940059E+04  0.25500000920E-02 0. -1.
       -2    1    3    3    0  502  0.15984680852E+04  0.69565025527E+02  0.36204686508E+03  0.16404320908E+04  0.25500000920E-02 0.  1.
</event>
<event>
 5   0  0.2722449E-06  0.3379221E+04  0.7818609E-02  0.8143025E-01
       -2   -1    0    0    0  501  0.00000000000E+00  0.00000000000E+00  0.10736291137E+04  0.10736291137E+04  0.25500000920E-02 0. -1.
        2   -1    0    0  501    0  0.00000000000E+00  0.00000000000E+00 -0.26590037451E+04  0.26590037451E+04  0.25500000920E-02 0.  1.
    10030    2    1    2    0    0  0.00000000000E+00  0.00000000000E+00 -0.15853746314E+04  0.37326328588E+04  0.33792211139E+04 0.  0.
        2    1    3    3  502    0  0.52983047732E+03  0.14004479139E+04 -0.16573789990E+04  0.22335800502E+04  0.25500000920E-02 0.  1.
       -2    1    3    3    0  502 -0.52983047732E+03 -0.14004479139E+04  0.72004367548E+02  0.14990528087E+04  0.25500000920E-02 0. -1.
</event>
<event>
 5   0  0.2722449E-06  0.3257569E+04  0.7818609E-02  0.8173777E-01
       -2   -1    0    0    0  501  0.00000000000E+00  0.00000000000E+00  0.13090904446E+04  0.13090904446E+04  0.25500000920E-02 0. -1.
        2   -1    0    0  501    0  0.00000000000E+00  0.00000000000E+00 -0.20265517326E+04  0.20265517326E+04  0.25500000920E-02 0.  1.
    10030    2    1    2    0    0  0.00000000000E+00  0.00000000000E+00 -0.71746128806E+03  0.33356421772E+04  0.32575693445E+04 0.  0.
        2    1    3    3  502    0 -0.10554390213E+04  0.87765810924E+03 -0.12565013306E+04  0.18609220505E+04  0.25500000920E-02 0.  1.
       -2    1    3    3    0  502  0.10554390213E+04 -0.87765810924E+03  0.53904004250E+03  0.14747201266E+04  0.25500000920E-02 0. -1.
</event>
<event>
 5   0  0.4173467E-06  0.3328116E+04  0.7818609E-02  0.8155778E-01
        2   -1    0    0  501    0  0.00000000000E+00  0.00000000000E+00  0.21234600551E+04  0.21234600551E+04  0.25500000920E-02 0. -1.
       -2   -1    0    0    0  501  0.00000000000E+00  0.00000000000E+00 -0.13040461129E+04  0.13040461129E+04  0.25500000920E-02 0.  1.
    10030    2    1    2    0    0  0.00000000000E+00  0.00000000000E+00  0.81941394224E+03  0.34275061680E+04  0.33281164827E+04 0.  0.
        4    1    3    3  502    0  0.30395052116E+03 -0.16336983081E+04  0.31914841678E+03  0.16921032493E+04  0.12699999809E+01 0. -1.
       -4    1    3    3    0  502 -0.30395052116E+03  0.16336983081E+04  0.50026552546E+03  0.17354029187E+04  0.12699999809E+01 0.  1.
</event>
<event>
 5   0  0.1562618E-06  0.3419817E+04  0.7818609E-02  0.8133060E-01
        1   -1    0    0  501    0  0.00000000000E+00  0.00000000000E+00  0.20434558426E+04  0.20434558426E+04  0.50400001928E-02 0. -1.
       -1   -1    0    0    0  501  0.00000000000E+00  0.00000000000E+00 -0.14308051413E+04  0.14308051413E+04  0.50400001928E-02 0.  1.
    10030    2    1    2    0    0  0.00000000000E+00  0.00000000000E+00  0.61265070134E+03  0.34742609839E+04  0.34198170276E+04 0.  0.
        2    1    3    3  502    0  0.62717333782E+03  0.14461032714E+04 -0.36696690284E+03  0.16184022291E+04  0.25500000920E-02 0.  1.
       -2    1    3    3    0  502 -0.62717333782E+03 -0.14461032714E+04  0.97961760417E+03  0.18558587548E+04  0.25500000920E-02 0. -1.
</event>
<event>
 5   0  0.1562618E-06  0.3593463E+04  0.7818609E-02  0.8091991E-01
       -1   -1    0    0    0  501  0.00000000000E+00  0.00000000000E+00  0.11828803148E+04  0.11828803148E+04  0.50400001928E-02 0.  1.
        1   -1    0    0  501    0  0.00000000000E+00  0.00000000000E+00 -0.27291382504E+04  0.27291382504E+04  0.50400001928E-02 0. -1.
    10030    2    1    2    0    0  0.00000000000E+00  0.00000000000E+00 -0.15462579356E+04  0.39120185653E+04  0.35934629053E+04 0.  0.
        2    1    3    3  502    0  0.16608203325E+04 -0.68244531788E+03 -0.70267628907E+03  0.19281622743E+04  0.25500000920E-02 0.  1.
       -2    1    3    3    0  502 -0.16608203325E+04  0.68244531788E+03 -0.84358164653E+03  0.19838562910E+04  0.25500000920E-02 0. -1.
</event>
<event>
 5   0  0.4344980E-06  0.1999273E+04  0.7818609E-02  0.8606961E-01
        2   -1    0    0  501    0  0.00000000000E+00  0.00000000000E+00  0.18126978552E+04  0.18126978552E+04  0.25500000920E-02 0.  1.
       -2   -1    0    0    0  501  0.00000000000E+00  0.00000000000E+00 -0.55126296467E+03  0.55126296468E+03  0.25500000920E-02 0. -1.
    10030    2    1    2    0    0  0.00000000000E+00  0.00000000000E+00  0.12614348905E+04  0.23639608198E+04  0.19992730616E+04 0.  0.
        3    1    3    3  502    0  0.81330100662E+01 -0.99101854693E+03  0.78528915409E+03  0.12644615344E+04  0.10100000352E+00 0.  1.
       -3    1    3    3    0  502 -0.81330100662E+01  0.99101854693E+03  0.47614573640E+03  0.10994992855E+04  0.10100000352E+00 0. -1.
</event>
<event>
 5   0  0.2101998E-06  0.1908479E+04  0.7818609E-02  0.8650647E-01
       -1   -1    0    0    0  501  0.00000000000E+00  0.00000000000E+00  0.23795174570E+04  0.23795174570E+04  0.50400001928E-02 0.  1.
        1   -1    0    0  501    0  0.00000000000E+00  0.00000000000E+00 -0.38267118503E+03  0.38267118507E+03  0.50400001928E-02 0. -1.
    10030    2    1    2    0    0  0.00000000000E+00  0.00000000000E+00  0.19968462719E+04  0.27621886421E+04  0.19084787294E+04 0.  0.
        5    1    3    3  502    0  0.25510989367E+03 -0.21895519390E+03 -0.29410214488E+03  0.44669967137E+03  0.46999998093E+01 0. -1.
       -5    1    3    3    0  502 -0.25510989367E+03  0.21895519390E+03  0.22909484168E+04  0.23154889707E+04  0.46999998093E+01 0.  1.
</event>
<event>
 5   0  0.2101998E-06  0.1848577E+04  0.7818609E-02  0.8680885E-01
       -1   -1    0    0    0  501  0.00000000000E+00  0.00000000000E+00  0.10039552155E+04  0.10039552155E+04  0.50400001928E-02 0. -1.
        1   -1    0    0  501    0  0.00000000000E+00  0.00000000000E+00 -0.85094380620E+03  0.85094380622E+03  0.50400001928E-02 0.  1.
    10030    2    1    2    0    0  0.00000000000E+00  0.00000000000E+00  0.15301140925E+03  0.18548990217E+04  0.18485772608E+04 0.  0.
        5    1    3    3  502    0  0.64192625107E+03  0.63965439570E+03  0.25895249269E+03  0.94249962399E+03  0.46999998093E+01 0.  1.
       -5    1    3    3    0  502 -0.64192625107E+03 -0.63965439570E+03 -0.10594108344E+03  0.91239939769E+03  0.46999998093E+01 0. -1.
</event>
<event>
 5   0  0.2722449E-06  0.3444009E+04  0.7818609E-02  0.8127189E-01
       -2   -1    0    0    0  501  0.00000000000E+00  0.00000000000E+00  0.11941735339E+04  0.11941735339E+04  0.25500000920E-02 0.  1.
        2   -1    0    0  501    0  0.00000000000E+00  0.00000000000E+00 -0.24831401569E+04  0.24831401569E+04  0.25500000920E-02 0. -1.
    10030    2    1    2    0    0  0.00000000000E+00  0.00000000000E+00 -0.12889666230E+04  0.36773136909E+04  0.34440094404E+04 0.  0.
        2    1    3    3  502    0  0.77032497819E+03  0.13297611971E+04  0.18508756211E+03  0.15478768746E+04  0.25500000920E-02 0.  1.
       -2    1    3    3    0  502 -0.77032497819E+03 -0.13297611971E+04 -0.14740541852E+04  0.21294368162E+04  0.25500000920E-02 0. -1.
</event>
<event>
 5   0  0.1654257E-06  0.1739748E+04  0.7818609E-02  0.8739014E-01
        1   -1    0    0  501    0  0.00000000000E+00  0.00000000000E+00  0.56255709027E+03  0.56255709029E+03  0.50400001928E-02 0. -1.
       -1   -1    0    0    0  501  0.00000000000E+00  0.00000000000E+00 -0.13450741566E+04  0.13450741566E+04  0.50400001928E-02 0.  1.
    10030    2    1    2    0    0  0.00000000000E+00  0.00000000000E+00 -0.78251706633E+03  0.19076312469E+04  0.17397482620E+04 0.  0.
        3    1    3    3  502    0 -0.49457672944E+03  0.65710534564E+03 -0.80565325245E+02  0.82636817364E+03  0.10100000352E+00 0. -1.
       -3    1    3    3    0  502  0.49457672944E+03 -0.65710534564E+03 -0.70195174109E+03  0.10812630733E+04  0.10100000352E+00 0.  1.
</event>
<event>
 5   0  0.4344980E-06  0.3506672E+04  0.7818609E-02  0.8112211E-01
        2   -1    0    0  501    0  0.00000000000E+00  0.00000000000E+00  0.27258568680E+04  0.27258568680E+04  0.25500000920E-02 0. -1.
       -2   -1    0    0    0  501  0.00000000000E+00  0.00000000000E+00 -0.11277876636E+04  0.11277876636E+04  0.25500000920E-02 0.  1.
    10030    2    1    2    0    0  0.00000000000E+00  0.00000000000E+00  0.15980692044E+04  0.38536445316E+04  0.35066723534E+04 0.  0.
        3    1    3    3  502    0 -0.36556312723E+03  0.13881307364E+04  0.19054527092E+04  0.23856431793E+04  0.10100000352E+00 0. -1.
       -3    1    3    3    0  502  0.36556312723E+03 -0.13881307364E+04 -0.30738350479E+03  0.14680013524E+04  0.10100000352E+00 0.  1.
</event>
<event>
 5   0  0.1401125E-06  0.3374387E+04  0.7818609E-02  0.8144221E-01
        3   -1    0    0  501    0  0.00000000000E+00  0.00000000000E+00  0.26527839591E+04  0.26527839611E+04  0.10100000352E+00 0.  1.
       -3   -1    0    0    0  501  0.00000000000E+00  0.00000000000E+00 -0.10730699053E+04  0.10730699100E+04  0.10100000352E+00 0. -1.
    10030    2    1    2    0    0  0.00000000000E+00  0.00000000000E+00  0.15797140539E+04  0.37258538711E+04  0.33743874372E+04 0.  0.
        3    1    3    3  502    0 -0.51140388058E+02  0.90151434165E+03  0.23635343314E+04  0.25301458443E+04  0.10100000352E+00 0.  1.
       -3    1    3    3    0  502  0.51140388058E+02 -0.90151434165E+03 -0.78382027757E+03  0.11957080267E+04  0.10100000352E+00 0. -1.
</event>
<event>
 5   0  0.4173467E-06  0.2963744E+04  0.7818609E-02  0.8254160E-01
        2   -1    0    0  501    0  0.00000000000E+00  0.00000000000E+00  0.15332587898E+04  0.15332587898E+04  0.25500000920E-02 0. -1.
       -2   -1    0    0    0  501  0.00000000000E+00  0.00000000000E+00 -0.14322072836E+04  0.14322072836E+04  0.25500000920E-02 0.  1.
    10030    2    1    2    0    0  0.00000000000E+00  0.00000000000E+00  0.10105150613E+03  0.29654660734E+04  0.29637438529E+04 0.  0.
        4    1    3    3  502    0  0.62642836702E+03  0.12605937239E+04  0.51386476879E+03  0.14985218214E+04  0.12699999809E+01 0. -1.
       -4    1    3    3    0  502 -0.62642836702E+03 -0.12605937239E+04 -0.41281326266E+03  0.14669442520E+04  0.12699999809E+01 0.  1.
</event>
<event>
 5   0  0.2722449E-06  0.2781473E+04  0.7818609E-02  0.8309043E-01
       -2   -1    0    0    0  501  0.00000000000E+00  0.00000000000E+00  0.92806069927E+03  0.92806069927E+03  0.25500000920E-02 0.  1.
        2   -1    0    0  501    0  0.00000000000E+00  0.00000000000E+00 -0.20840747877E+04  0.20840747877E+04  0.25500000920E-02 0. -1.
    10030    2    1    2    0    0  0.00000000000E+00  0.00000000000E+00 -0.11560140884E+04  0.30121354869E+04  0.27814729226E+04 0.  0.
        2    1    3    3  502    0  0.79811804513E+03 -0.36792512505E+03  0.58924017096E+03  0.10580951236E+04  0.25500000920E-02 0.  1.
       -2    1    3    3    0  502 -0.79811804513E+03  0.36792512505E+03 -0.17452542594E+04  0.19540403633E+04  0.25500000920E-02 0. -1.
</event>
<event>
 5   0  0.1562618E-06  0.1681720E+04  0.7818609E-02  0.8771859E-01
       -1   -1    0    0    0  501  0.00000000000E+00  0.00000000000E+00  0.13076759485E+04  0.13076759485E+04  0.50400001928E-02 0. -1.
        1   -1    0    0  501    0  0.00000000000E+00  0.00000000000E+00 -0.54068877937E+03  0.54068877939E+03  0.50400001928E-02 0.  1.
    10030    2    1    2    0    0  0.00000000000E+00  0.00000000000E+00  0.76698716910E+03  0.18483647279E+04  0.16817202055E+04 0.  0.
        2    1    3    3  502    0  0.79640445090E+03  0.22588596909E+02  0.88012804359E+02  0.80157129930E+03  0.25500000920E-02 0.  1.
       -2    1    3    3    0  502 -0.79640445090E+03 -0.22588596909E+02  0.67897436475E+03  0.10467934286E+04  0.25500000920E-02 0. -1.
</event>
<event>
 5   0  0.4173467E-06  0.3398934E+04  0.7818609E-02  0.8138168E-01
       -2   -1    0    0    0  501  0.00000000000E+00  0.00000000000E+00  0.96073520663E+03  0.96073520663E+03  0.25500000920E-02 0. -1.
        2   -1    0    0  501    0  0.00000000000E+00  0.00000000000E+00 -0.30062271171E+04  0.30062271171E+04  0.25500000920E-02 0.  1.
    10030    2    1    2    0    0  0.00000000000E+00  0.00000000000E+00 -0.20454919105E+04  0.39669623238E+04  0.33989340862E+04 0.  0.
        4    1    3    3  502    0 -0.84280138199E+03 -0.10158621711E+03 -0.27410506026E+04  0.28694936745E+04  0.12699999809E+01 0.  1.
       -4    1    3    3    0  502  0.84280138199E+03  0.10158621711E+03  0.69555869213E+03  0.10974686493E+04  0.12699999809E+01 0. -1.
</event>
<event>
 5   0  0.1571391E-06  0.3453551E+04  0.7818609E-02  0.8124887E-01
        1   -1    0    0  501    0  0.00000000000E+00  0.00000000000E+00  0.18381965154E+04  0.18381965154E+04  0.50400001928E-02 0. -1.
       -1   -1    0    0    0  501  0.00000000000E+00  0.00000000000E+00 -0.16221084467E+04  0.16221084467E+04  0.50400001928E-02 0.  1.
    10030    2    1    2    0    0  0.00000000000E+00  0.00000000000E+00  0.21608806869E+03  0.34603049622E+04  0.34535512705E+04 0.  0.
        1    1    3    3  502    0  0.64783377391E+03  0.29509883522E+03  0.16843281723E+04  0.18285877921E+04  0.50400001928E-02 0. -1.
       -1    1    3    3    0  502 -0.64783377391E+03 -0.29509883522E+03 -0.14682401037E+04  0.16317171701E+04  0.50400001928E-02 0.  1.
</event>
<event>
 5   0  0.2101998E-06  0.2011500E+04  0.7818609E-02  0.8601263E-01
       -1   -1    0    0    0  501  0.00000000000E+00  0.00000000000E+00  0.15557649908E+04  0.15557649908E+04  0.50400001928E-02 0. -1.
        1   -1    0    0  501    0  0.00000000000E+00  0.00000000000E+00 -0.65018392450E+03  0.65018392452E+03  0.50400001928E-02 0.  1.
    10030    2    1    2    0    0  0.00000000000E+00  0.00000000000E+00  0.90558106630E+03  0.22059489153E+04  0.20115003230E+04 0.  0.
        5    1    3    3  502    0 -0.14678048920E+03 -0.38177382753E+03  0.14604226762E+04  0.15166252835E+04  0.46999998093E+01 0. -1.
       -5    1    3    3    0  502  0.14678048920E+03  0.38177382753E+03 -0.55484160986E+03  0.68932363185E+03  0.46999998093E+01 0.  1.
</event>
<event>
 5   0  0.4173467E-06  0.3382860E+04  0.7818609E-02  0.8142126E-01
        2   -1    0    0  501    0  0.00000000000E+00  0.00000000000E+00  0.21584448693E+04  0.21584448693E+04  0.25500000920E-02 0. -1.
       -2   -1    0    0    0  501  0.00000000000E+00  0.00000000000E+00 -0.13254615011E+04  0.13254615011E+04  0.25500000920E-02 0.  1.
    10030    2    1    2    0    0  0.00000000000E+00  0.00000000000E+00  0.83298336823E+03  0.34839063705E+04  0.33828600779E+04 0.  0.
        4    1    3    3  502    0 -0.14970130499E+04 -0.70859295957E+03  0.63046770532E+02  0.16574463979E+04  0.12699999809E+01 0. -1.
       -4    1    3    3    0  502  0.14970130499E+04  0.70859295957E+03  0.76993659770E+03  0.18264599725E+04  0.12699999809E+01 0.  1.
</event>
<event>
 5   0  0.1654257E-06  0.3320760E+04  0.7818609E-02  0.8157633E-01
        1   -1    0    0  501    0  0.00000000000E+00  0.00000000000E+00  0.11729699803E+04  0.11729699803E+04  0.50400001928E-02 0.  1.
       -1   -1    0    0    0  501  0.00000000000E+00  0.00000000000E+00 -0.23503265079E+04  0.23503265079E+04  0.50400001928E-02 0. -1.
    10030    2    1    2    0    0  0.00000000000E+00  0.00000000000E+00 -0.11773565277E+04  0.35232964882E+04  0.33207604175E+04 0.  0.
        3    1    3    3  502    0 -0.10591258594E+04 -0.12146438507E+04 -0.16460675959E+03  0.16199390932E+04  0.10100000352E+00 0. -1.
       -3    1    3    3    0  502  0.10591258594E+04  0.12146438507E+04 -0.10127497681E+04  0.19033573950E+04  0.10100000352E+00 0.  1.
</event>
<event>
 5   0  0.1654257E-06  0.3359152E+04  0.7818609E-02  0.8148005E-01
       -1   -1    0    0    0  501  0.00000000000E+00  0.00000000000E+00  0.17225558511E+04  0.17225558511E+04  0.50400001928E-02 0.  1.
        1   -1    0    0  501    0  0.00000000000E+00  0.00000000000E+00 -0.16376686660E+04  0.16376686660E+04  0.50400001928E-02 0. -1.
    10030    2    1    2    0    0  0.00000000000E+00  0.00000000000E+00  0.84887185170E+02  0.33602245171E+04  0.33591521209E+04 0.  0.
        3    1    3    3  502    0  0.30316363915E+03  0.14742469338E+04  0.78810998057E+03  0.16989495477E+04  0.10100000352E+00 0.  1.
       -3    1    3    3    0  502 -0.30316363915E+03 -0.14742469338E+04 -0.70322279540E+03  0.16612749694E+04  0.10100000352E+00 0. -1.
</event>
<event>
 5   0  0.1550164E-06  0.3321055E+04  0.7818609E-02  0.8157559E-01
        1   -1    0    0  501    0  0.00000000000E+00  0.00000000000E+00  0.21485869916E+04  0.21485869916E+04  0.50400001928E-02 0.  1.
       -1   -1    0    0    0  501  0.00000000000E+00  0.00000000000E+00 -0.12833322289E+04  0.12833322290E+04  0.50400001928E-02 0. -1.
    10030    2    1    2    0    0  0.00000000000E+00  0.00000000000E+00  0.86525476265E+03  0.34319192206E+04  0.33210546114E+04 0.  0.
        4    1    3    3  502    0  0.15339448812E+04  0.61399693211E+03  0.60358951846E+03  0.17590625489E+04  0.12699999809E+01 0. -1.
       -4    1    3    3    0  502 -0.15339448812E+04 -0.61399693211E+03  0.26166524420E+03  0.16728566717E+04  0.12699999809E+01 0.  1.
</event>
<event>
 5   0  0.4344980E-06  0.3441951E+04  0.7818609E-02  0.8127686E-01
       -2   -1    0    0    0  501  0.00000000000E+00  0.00000000000E+00  0.13281427213E+04  0.13281427213E+04  0.25500000920E-02 0.  1.
        2   -1    0    0  501    0  0.00000000000E+00  0.00000000000E+00 -0.22299983957E+04  0.22299983957E+04  0.25500000920E-02 0. -1.
    10030    2    1    2    0    0  0.00000000000E+00  0.00000000000E+00 -0.90185567437E+03  0.35581411170E+04  0.34419506898E+04 0.  0.
        3    1    3    3  502    0 -0.59152132400E+02 -0.96969955654E+03 -0.19194234059E+04  0.21512792534E+04  0.10100000352E+00 0. -1.
       -3    1    3    3    0  502  0.59152132400E+02  0.96969955654E+03  0.10175677316E+04  0.14068618636E+04  0.10100000352E+00 0.  1.
</event>
<event>
 5   0  0.4173467E-06  0.2067005E+04  0.7818609E-02  0.8575919E-01
        2   -1    0    0  501    0  0.00000000000E+00  0.00000000000E+00  0.11173755019E+04  0.11173755019E+04  0.25500000920E-02 0. -1.
       -2   -1    0    0    0  501  0.00000000000E+00  0.00000000000E+00 -0.95592487147E+03  0.95592487147E+03  0.25500000920E-02 0.  1.
    10030    2    1    2    0    0  0.00000000000E+00  0.00000000000E+00  0.16145063042E+03  0.20733003734E+04  0.20670046280E+04 0.  0.
        4    1    3    3  502    0  0.66705580254E+03 -0.29977989940E+03  0.81321939830E+03  0.10936904656E+04  0.12699999809E+01 0. -1.
       -4    1    3    3    0  502 -0.66705580254E+03  0.29977989940E+03 -0.65176876787E+03  0.97960990780E+03  0.12699999809E+01 0.  1.
</event>
<event>
 5   0  0.1562618E-06  0.3390459E+04  0.7818609E-02  0.8140252E-01
        1   -1    0    0  501    0  0.00000000000E+00  0.00000000000E+00  0.21253844193E+04  0.21253844194E+04  0.50400001928E-02 0. -1.
       -1   -1    0    0    0  501  0.00000000000E+00  0.00000000000E+00 -0.13521331723E+04  0.13521331723E+04  0.50400001928E-02 0.  1.
    10030    2    1    2    0    0  0.00000000000E+00  0.00000000000E+00  0.77325124709E+03  0.34775175916E+04  0.33904588346E+04 0.  0.
        2    1    3    3  502    0  0.14186861007E+04 -0.64410312993E+03 -0.29855746055E+03  0.15864033698E+04  0.25500000920E-02 0.  1.
       -2    1    3    3    0  502 -0.14186861007E+04  0.64410312993E+03  0.10718087076E+04  0.18911142219E+04  0.25500000920E-02 0. -1.
</event>
<event>
 5   0  0.1654257E-06  0.3297542E+04  0.7818609E-02  0.8163521E-01
        1   -1    0    0  501    0  0.00000000000E+00  0.00000000000E+00  0.17028991718E+04  0.17028991718E+04  0.50400001928E-02 0. -1.
       -1   -1    0    0    0  501  0.00000000000E+00  0.00000000000E+00 -0.15963629388E+04  0.15963629388E+04  0.50400001928E-02 0.  1.
    10030    2    1    2    0    0  0.00000000000E+00  0.00000000000E+00  0.10653623303E+03  0.32992621106E+04  0.32975415851E+04 0.  0.
        3    1    3    3  502    0  0.18817101491E+03 -0.16197554366E+04  0.29717617819E+03  0.16575070728E+04  0.10100000352E+00 0. -1.
       -3    1    3    3    0  502 -0.18817101491E+03  0.16197554366E+04 -0.19063994516E+03  0.16417550378E+04  0.10100000352E+00 0.  1.
</event>
<event>
 5   0  0.4344980E-06  0.2118640E+04  0.7818609E-02  0.8553076E-01
        2   -1    0    0  501    0  0.00000000000E+00  0.00000000000E+00  0.11056009970E+04  0.11056009970E+04  0.25500000920E-02 0. -1.
       -2   -1    0    0    0  501  0.00000000000E+00  0.00000000000E+00 -0.10149763450E+04  0.10149763451E+04  0.25500000920E-02 0.  1.
    10030    2    1    2    0    0  0.00000000000E+00  0.00000000000E+00  0.90624651989E+02  0.21205773421E+04  0.21186399968E+04 0.  0.
        3    1    3    3  502    0  0.30289344595E+03  0.53335695550E+03  0.90978304132E+03  0.10972325524E+04  0.10100000352E+00 0. -1.
       -3    1    3    3    0  502 -0.30289344595E+03 -0.53335695550E+03 -0.81915838933E+03  0.10233447897E+04  0.10100000352E+00 0.  1.
</event>
<event>
 5   0  0.4189587E-06  0.3360219E+04  0.7818609E-02  0.8147740E-01
       -2   -1    0    0    0  501  0.00000000000E+00  0.00000000000E+00  0.15165217344E+04  0.15165217344E+04  0.25500000920E-02 0. -1.
        2   -1    0    0  501    0  0.00000000000E+00  0.00000000000E+00 -0.18613432271E+04  0.18613432271E+04  0.25500000920E-02 0.  1.
    10030    2    1    2    0    0  0.00000000000E+00  0.00000000000E+00 -0.34482149264E+03  0.33778649615E+04  0.33602187185E+04 0.  0.
        1    1    3    3  502    0 -0.42594519234E+03 -0.42976396683E+03  0.14031878752E+04  0.15280911580E+04  0.50400001928E-02 0. -1.
       -1    1    3    3    0  502  0.42594519234E+03  0.42976396683E+03 -0.17480093678E+04  0.18497738035E+04  0.50400001928E-02 0.  1.
</event>
<event>
 5   0  0.2101998E-06  0.3434416E+04  0.7818609E-02  0.8129511E-01
        1   -1    0    0  501    0  0.00000000000E+00  0.00000000000E+00  0.21728400389E+04  0.21728400389E+04  0.50400001928E-02 0.  1.
       -1   -1    0    0    0  501  0.00000000000E+00  0.00000000000E+00 -0.13571196466E+04  0.13571196466E+04  0.50400001928E-02 0. -1.
    10030    2    1    2    0    0  0.00000000000E+00  0.00000000000E+00  0.81572039228E+03  0.35299596855E+04  0.34344163438E+04 0.  0.
        5    1    3    3  502    0 -0.11903259101E+04 -0.10906934343E+04  0.10091950377E+04  0.19039392464E+04  0.46999998093E+01 0. -1.
       -5    1    3    3    0  502  0.11903259101E+04  0.10906934343E+04 -0.19347464546E+03  0.16260204391E+04  0.46999998093E+01 0.  1.
</event>
<event>
 5   0  0.1401125E-06  0.3207312E+04  0.7818609E-02  0.8186889E-01
       -4   -1    0    0    0  501  0.00000000000E+00  0.00000000000E+00  0.15309771001E+04  0.15309776269E+04  0.12699999809E+01 0.  1.
        4   -1    0    0  501    0  0.00000000000E+00  0.00000000000E+00 -0.16797842760E+04  0.16797847561E+04  0.12699999809E+01 0. -1.
    10030    2    1    2    0    0  0.00000000000E+00  0.00000000000E+00 -0.14880717587E+03  0.32107623830E+04  0.32073121932E+04 0.  0.
        4    1    3    3  502    0  0.82154345131E+03  0.35637172216E+03  0.12573570719E+04  0.15436589215E+04  0.12699999809E+01 0.  1.
       -4    1    3    3    0  502 -0.82154345131E+03 -0.35637172216E+03 -0.14061642478E+04  0.16671034615E+04  0.12699999809E+01 0. -1.
</event>
<event>
 5   0  0.2101998E-06  0.3405738E+04  0.7818609E-02  0.8136499E-01
       -1   -1    0    0    0  501  0.00000000000E+00  0.00000000000E+00  0.19096958966E+04  0.19096958966E+04  0.50400001928E-02 0.  1.
        1   -1    0    0  501    0  0.00000000000E+00  0.00000000000E+00 -0.15184421762E+04  0.15184421762E+04  0.50400001928E-02 0. -1.
    10030    2    1    2    0    0  0.00000000000E+00  0.00000000000E+00  0.39125372036E+03  0.34281380728E+04  0.34057379776E+04 0.  0.
        5    1    3    3  502    0 -0.28439140477E+03  0.16288412805E+04  0.60541419592E+03  0.17608381035E+04  0.46999998093E+01 0. -1.
       -5    1    3    3    0  502  0.28439140477E+03 -0.16288412805E+04 -0.21416047557E+03  0.16672999693E+04  0.46999998093E+01 0.  1.
</event>
<event>
 5   0  0.1562618E-06  0.2308945E+04  0.7818609E-02  0.8474403E-01
       -1   -1    0    0    0  501  0.00000000000E+00  0.00000000000E+00  0.64158554539E+03  0.64158554541E+03  0.50400001928E-02 0.  1.
        1   -1    0    0  501    0  0.00000000000E+00  0.00000000000E+00 -0.20773633303E+04  0.20773633303E+04  0.50400001928E-02 0. -1.
    10030    2    1    2    0    0  0.00000000000E+00  0.00000000000E+00 -0.14357777849E+04  0.27189488757E+04  0.23089445946E+04 0.  0.
        2    1    3    3  502    0 -0.90069613523E+02 -0.35669580317E+03 -0.20064896244E+04  0.20399375098E+04  0.25500000920E-02 0. -1.
       -2    1    3    3    0  502  0.90069613523E+02  0.35669580317E+03  0.57071183947E+03  0.67901136588E+03  0.25500000920E-02 0.  1.
</event>
<event>
 5   0  0.2101998E-06  0.2566408E+04  0.7818609E-02  0.8379702E-01
        1   -1    0    0  501    0  0.00000000000E+00  0.00000000000E+00  0.16375950162E+04  0.16375950162E+04  0.50400001928E-02 0. -1.
       -1   -1    0    0    0  501  0.00000000000E+00  0.00000000000E+00 -0.10055062216E+04  0.10055062216E+04  0.50400001928E-02 0.  1.
    10030    2    1    2    0    0  0.00000000000E+00  0.00000000000E+00  0.63208879465E+03  0.26431012378E+04  0.25664075882E+04 0.  0.
        5    1    3    3  502    0 -0.11238446395E+04 -0.32627787963E+03 -0.22609506577E+03  0.11918997849E+04  0.46999998093E+01 0.  1.
       -5    1    3    3    0  502  0.11238446395E+04  0.32627787963E+03  0.85818386042E+03  0.14512014529E+04  0.46999998093E+01 0. -1.
</event>
<event>
 5   0  0.4400349E-06  0.3292754E+04  0.7818609E-02  0.8164742E-01
        2   -1    0    0  501    0  0.00000000000E+00  0.00000000000E+00  0.12315310375E+04  0.12315310375E+04  0.25500000920E-02 0. -1.
       -2   -1    0    0    0  501  0.00000000000E+00  0.00000000000E+00 -0.22009657640E+04  0.22009657640E+04  0.25500000920E-02 0.  1.
    10030    2    1    2    0    0  0.00000000000E+00  0.00000000000E+00 -0.96943472654E+03  0.34324968015E+04  0.32927542580E+04 0.  0.
        5    1    3    3  502    0  0.17165139711E+02  0.58895038646E+03  0.11178542607E+04  0.12636365925E+04  0.46999998093E+01 0. -1.
       -5    1    3    3    0  502 -0.17165139711E+02 -0.58895038646E+03 -0.20872889873E+04  0.21688602090E+04  0.46999998093E+01 0.  1.
</event>
<event>
 5   0  0.4344980E-06  0.1686149E+04  0.7818609E-02  0.8769304E-01
        2   -1    0    0  501    0  0.00000000000E+00  0.00000000000E+00  0.17067212587E+04  0.17067212587E+04  0.25500000920E-02 0. -1.
       -2   -1    0    0    0  501  0.00000000000E+00  0.00000000000E+00 -0.41645606036E+03  0.41645606037E+03  0.25500000920E-02 0.  1.
    10030    2    1    2    0    0  0.00000000000E+00  0.00000000000E+00  0.12902651983E+04  0.21231773190E+04  0.16861487616E+04 0.  0.
        3    1    3    3  502    0 -0.52652158106E+03  0.93153261341E+02 -0.17563344432E+03  0.56280513713E+03  0.10100000352E+00 0.  1.
       -3    1    3    3    0  502  0.52652158106E+03 -0.93153261341E+02  0.14658986426E+04  0.15603721819E+04  0.10100000352E+00 0. -1.
</event>
<event>
 5   0  0.2722449E-06  0.3292393E+04  0.7818609E-02  0.8164834E-01
        2   -1    0    0  501    0  0.00000000000E+00  0.00000000000E+00  0.16520415660E+04  0.16520415660E+04  0.25500000920E-02 0. -1.
       -2   -1    0    0    0  501  0.00000000000E+00  0.00000000000E+00 -0.16403721959E+04  0.16403721959E+04  0.25500000920E-02 0.  1.
    10030    2    1    2    0    0  0.00000000000E+00  0.00000000000E+00  0.11669370041E+02  0.32924137619E+04  0.32923930819E+04 0.  0.
        2    1    3    3  502    0  0.59812370044E+02  0.13244026220E+04 -0.97005218870E+03  0.16427480250E+04  0.25500000920E-02 0.  1.
       -2    1    3    3    0  502 -0.59812370044E+02 -0.13244026220E+04  0.98172155874E+03  0.16496657370E+04  0.25500000920E-02 0. -1.
</event>
<event>
 5   0  0.4173467E-06  0.2080635E+04  0.7818609E-02  0.8569822E-01
       -2   -1    0    0    0  501  0.00000000000E+00  0.00000000000E+00  0.70075934934E+03  0.70075934934E+03  0.25500000920E-02 0.  1.
        2   -1    0    0  501    0  0.00000000000E+00  0.00000000000E+00 -0.15444115924E+04  0.15444115924E+04  0.25500000920E-02 0. -1.
    10030    2    1    2    0    0  0.00000000000E+00  0.00000000000E+00 -0.84365224305E+03  0.22451709417E+04  0.20806353478E+04 0.  0.
        4    1    3    3  502    0  0.74766623841E+03 -0.24331829455E+03  0.31325646437E+03  0.84636860876E+03  0.12699999809E+01 0.  1.
       -4    1    3    3    0  502 -0.74766623841E+03  0.24331829455E+03 -0.11569087074E+04  0.13988023330E+04  0.12699999809E+01 0. -1.
</event>
<event>
 5   0  0.1562618E-06  0.2035209E+04  0.7818609E-02  0.8590334E-01
       -1   -1    0    0    0  501  0.00000000000E+00  0.00000000000E+00  0.66274803020E+03  0.66274803022E+03  0.50400001928E-02 0.  1.
        1   -1    0    0  501    0  0.00000000000E+00  0.00000000000E+00 -0.15624625422E+04  0.15624625422E+04  0.50400001928E-02 0. -1.
    10030    2    1    2    0    0  0.00000000000E+00  0.00000000000E+00 -0.89971451200E+03  0.22252105724E+04  0.20352090528E+04 0.  0.
        2    1    3    3  502    0 -0.82245744738E+02 -0.66331379929E+03  0.38909009877E+03  0.77339554164E+03  0.25500000920E-02 0.  1.
       -2    1    3    3    0  502  0.82245744738E+02  0.66331379929E+03 -0.12888046108E+04  0.14518150308E+04  0.25500000920E-02 0. -1.
</event>
<event>
 5   0  0.4173467E-06  0.2364259E+04  0.7818609E-02  0.8453007E-01
       -2   -1    0    0    0  501  0.00000000000E+00  0.00000000000E+00  0.15417176517E+04  0.15417176517E+04  0.25500000920E-02 0.  1.
        2   -1    0    0  501    0  0.00000000000E+00  0.00000000000E+00 -0.90641120257E+03  0.90641120258E+03  0.25500000920E-02 0. -1.
    10030    2    1    2    0    0  0.00000000000E+00  0.00000000000E+00  0.63530644916E+03  0.24481288543E+04  0.23642589966E+04 0.  0.
        4    1    3    3  502    0  0.49775833134E+03 -0.10718601055E+04  0.34659274414E+03  0.12315744336E+04  0.12699999809E+01 0.  1.
       -4    1    3    3    0  502 -0.49775833134E+03  0.10718601055E+04  0.28871370502E+03  0.12165544207E+04  0.12699999809E+01 0. -1.
</event>
<event>
 5   0  0.1550164E-06  0.3388172E+04  0.7818609E-02  0.8140815E-01
        1   -1    0    0  501    0  0.00000000000E+00  0.00000000000E+00  0.16277047083E+04  0.16277047083E+04  0.50400001928E-02 0. -1.
       -1   -1    0    0    0  501  0.00000000000E+00  0.00000000000E+00 -0.17631743030E+04  0.17631743031E+04  0.50400001928E-02 0.  1.
    10030    2    1    2    0    0  0.00000000000E+00  0.00000000000E+00 -0.13546959478E+03  0.33908790113E+04  0.33881718460E+04 0.  0.
        4    1    3    3  502    0  0.15523756076E+04 -0.60586962375E+03 -0.37290050961E+03  0.17076312339E+04  0.12699999809E+01 0.  1.
       -4    1    3    3    0  502 -0.15523756076E+04  0.60586962375E+03  0.23743091483E+03  0.16832477774E+04  0.12699999809E+01 0. -1.
</event>
<event>
 5   0  0.1562618E-06  0.3289965E+04  0.7818609E-02  0.8165453E-01
        1   -1    0    0  501    0  0.00000000000E+00  0.00000000000E+00  0.11559508261E+04  0.11559508261E+04  0.50400001928E-02 0.  1.
       -1   -1    0    0    0  501  0.00000000000E+00  0.00000000000E+00 -0.23409024483E+04  0.23409024483E+04  0.50400001928E-02 0. -1.
    10030    2    1    2    0    0  0.00000000000E+00  0.00000000000E+00 -0.11849516222E+04  0.34968532745E+04  0.32899654217E+04 0.  0.
        2    1    3    3  502    0  0.82393047428E+03  0.80700919986E+03 -0.18392003028E+04  0.21708945228E+04  0.25500000920E-02 0. -1.
       -2    1    3    3    0  502 -0.82393047428E+03 -0.80700919986E+03  0.65424868062E+03  0.13259587517E+04  0.25500000920E-02 0.  1.
</event>
<event>
 5   0  0.4189587E-06  0.3388518E+04  0.7818609E-02  0.8140730E-01
       -2   -1    0    0    0  501  0.00000000000E+00  0.00000000000E+00  0.14003298586E+04  0.14003298586E+04  0.25500000920E-02 0.  1.
        2   -1    0    0  501    0  0.00000000000E+00  0.00000000000E+00 -0.20498841998E+04  0.20498841998E+04  0.25500000920E-02 0. -1.
    10030    2    1    2    0    0  0.00000000000E+00  0.00000000000E+00 -0.64955434129E+03  0.34502140584E+04  0.33885182907E+04 0.  0.
        1    1    3    3  502    0 -0.61025616901E+03 -0.94110127597E+03  0.96815761680E+03  0.14816927396E+04  0.50400001928E-02 0.  1.
       -1    1    3    3    0  502  0.61025616901E+03  0.94110127597E+03 -0.16177119581E+04  0.19685213189E+04  0.50400001928E-02 0. -1.
</event>
<event>
 5   0  0.1654257E-06  0.3450958E+04  0.7818609E-02  0.8125512E-01
       -1   -1    0    0    0  501  0.00000000000E+00  0.00000000000E+00  0.21532983391E+04  0.21532983391E+04  0.50400001928E-02 0. -1.
        1   -1    0    0  501    0  0.00000000000E+00  0.00000000000E+00 -0.13826590319E+04  0.13826590320E+04  0.50400001928E-02 0.  1.
    10030    2    1    2    0    0  0.00000000000E+00  0.00000000000E+00  0.77063930716E+03  0.35359573711E+04  0.34509577784E+04 0.  0.
        3    1    3    3  502    0 -0.17025028671E+04  0.26505979132E+03  0.29082735778E+03  0.17473846937E+04  0.10100000352E+00 0.  1.
       -3    1    3    3    0  502  0.17025028671E+04 -0.26505979132E+03  0.47981194938E+03  0.17885726774E+04  0.10100000352E+00 0. -1.
</event>
<event>
 5   0  0.4344980E-06  0.1857044E+04  0.7818609E-02  0.8676539E-01
        2   -1    0    0  501    0  0.00000000000E+00  0.00000000000E+00  0.25289080277E+04  0.25289080277E+04  0.25500000920E-02 0.  1.
       -2   -1    0    0    0  501  0.00000000000E+00  0.00000000000E+00 -0.34091893957E+03  0.34091893958E+03  0.25500000920E-02 0. -1.
    10030    2    1    2    0    0  0.00000000000E+00  0.00000000000E+00  0.21879890882E+04  0.28698269673E+04  0.18570435031E+04 0.  0.
        3    1    3    3  502    0 -0.87509161211E+03 -0.19121872392E+03  0.14719094669E+04  0.17230401675E+04  0.10100000352E+00 0.  1.
       -3    1    3    3    0  502  0.87509161211E+03  0.19121872392E+03  0.71607962126E+03  0.11467867998E+04  0.10100000352E+00 0. -1.
</event>
<event>
 5   0  0.1550164E-06  0.3379935E+04  0.7818609E-02  0.8142849E-01
       -1   -1    0    0    0  501  0.00000000000E+00  0.00000000000E+00  0.14815574136E+04  0.14815574136E+04  0.50400001928E-02 0.  1.
        1   -1    0    0  501    0  0.00000000000E+00  0.00000000000E+00 -0.19276947169E+04  0.19276947169E+04  0.50400001928E-02 0. -1.
    10030    2    1    2    0    0  0.00000000000E+00  0.00000000000E+00 -0.44613730331E+03  0.34092521305E+04  0.33799351467E+04 0.  0.
        4    1    3    3  502    0 -0.19573746918E+03  0.15909025497E+04 -0.76316117405E+03  0.17753029798E+04  0.12699999809E+01 0. -1.
       -4    1    3    3    0  502  0.19573746918E+03 -0.15909025497E+04  0.31702387075E+03  0.16339491507E+04  0.12699999809E+01 0.  1.
</event>
<event>
 5   0  0.2101998E-06  0.2587554E+04  0.7818609E-02  0.8372441E-01
       -1   -1    0    0    0  501  0.00000000000E+00  0.00000000000E+00  0.76399519283E+03  0.76399519285E+03  0.50400001928E-02 0.  1.
        1   -1    0    0  501    0  0.00000000000E+00  0.00000000000E+00 -0.21909290205E+04  0.21909290205E+04  0.50400001928E-02 0. -1.
    10030    2    1    2    0    0  0.00000000000E+00  0.00000000000E+00 -0.14269338277E+04  0.29549242134E+04  0.25875542426E+04 0.  0.
        5    1    3    3  502    0 -0.86674162224E+03  0.13209012511E+03  0.37300062784E+03  0.95280659068E+03  0.46999998093E+01 0.  1.
       -5    1    3    3    0  502  0.86674162224E+03 -0.13209012511E+03 -0.17999344555E+04  0.20021176227E+04  0.46999998093E+01 0. -1.
</event>
<event>
 5   0  0.4344980E-06  0.3557276E+04  0.7818609E-02  0.8100349E-01
       -2   -1    0    0    0  501  0.00000000000E+00  0.00000000000E+00  0.15079185231E+04  0.15079185231E+04  0.25500000920E-02 0. -1.
        2   -1    0    0  501    0  0.00000000000E+00  0.00000000000E+00 -0.20979599185E+04  0.20979599185E+04  0.25500000920E-02 0.  1.
    10030    2    1    2    0    0  0.00000000000E+00  0.00000000000E+00 -0.59004139540E+03  0.36058784416E+04  0.35572757115E+04 0.  0.
        3    1    3    3  502    0  0.11121618629E+04 -0.96181723446E+03 -0.13094720350E+04  0.19689371301E+04  0.10100000352E+00 0.  1.
       -3    1    3    3    0  502 -0.11121618629E+04  0.96181723446E+03  0.71943063959E+03  0.16369413115E+04  0.10100000352E+00 0. -1.
</event>
<event>
 5   0  0.1550164E-06  0.3391693E+04  0.7818609E-02  0.8139948E-01
       -1   -1    0    0    0  501  0.00000000000E+00  0.00000000000E+00  0.26026347937E+04  0.26026347937E+04  0.50400001928E-02 0.  1.
        1   -1    0    0  501    0  0.00000000000E+00  0.00000000000E+00 -0.11049940932E+04  0.11049940932E+04  0.50400001928E-02 0. -1.
    10030    2    1    2    0    0  0.00000000000E+00  0.00000000000E+00  0.14976407006E+04  0.37076288869E+04  0.33916934259E+04 0.  0.
        4    1    3    3  502    0 -0.10146954507E+04  0.10235440974E+04 -0.22809420183E+03  0.14592045624E+04  0.12699999809E+01 0. -1.
       -4    1    3    3    0  502  0.10146954507E+04 -0.10235440974E+04  0.17257349024E+04  0.22484243246E+04  0.12699999809E+01 0.  1.
</event>
<event>
 5   0  0.4400349E-06  0.3845221E+04  0.7818609E-02  0.8036520E-01
        2   -1    0    0  501    0  0.00000000000E+00  0.00000000000E+00  0.18132615881E+04  0.18132615881E+04  0.25500000920E-02 0.  1.
       -2   -1    0    0    0  501  0.00000000000E+00  0.00000000000E+00 -0.20385535639E+04  0.20385535639E+04  0.25500000920E-02 0. -1.
    10030    2    1    2    0    0  0.00000000000E+00  0.00000000000E+00 -0.22529197573E+03  0.38518151520E+04  0.38452208637E+04 0.  0.
        5    1    3    3  502    0 -0.61537312075E+03 -0.12911569289E+03 -0.19326420620E+04  0.20323588192E+04  0.46999998093E+01 0. -1.
       -5    1    3    3    0  502  0.61537312075E+03  0.12911569289E+03  0.17073500863E+04  0.18194563328E+04  0.46999998093E+01 0.  1.
</event>
<event>
 5   0  0.1401125E-06  0.2320420E+04  0.7818609E-02  0.8469913E-01
        4   -1    0    0  501    0  0.00000000000E+00  0.00000000000E+00  0.10588416668E+04  0.10588424284E+04  0.12699999809E+01 0. -1.
       -4   -1    0    0    0  501  0.00000000000E+00  0.00000000000E+00 -0.12712807808E+04  0.12712814151E+04  0.12699999809E+01 0.  1.
    10030    2    1    2    0    0  0.00000000000E+00  0.00000000000E+00 -0.21243911400E+03  0.23301238435E+04  0.23204195200E+04 0.  0.
        1    1    3    3  502    0  0.51669317927E+03  0.93344319503E+03  0.35153623884E+03  0.11233279873E+04  0.50400001928E-02 0. -1.
       -1    1    3    3    0  502 -0.51669317927E+03 -0.93344319503E+03 -0.56397535284E+03  0.12067958562E+04  0.50400001928E-02 0.  1.
</event>
<event>
 5   0  0.1571391E-06  0.2779797E+04  0.7818609E-02  0.8309568E-01
        1   -1    0    0  501    0  0.00000000000E+00  0.00000000000E+00  0.24425961786E+04  0.24425961786E+04  0.50400001928E-02 0.  1.
       -1   -1    0    0    0  501  0.00000000000E+00  0.00000000000E+00 -0.79088731712E+03  0.79088731714E+03  0.50400001928E-02 0. -1.
    10030    2    1    2    0    0  0.00000000000E+00  0.00000000000E+00  0.16517088614E+04  0.32334834957E+04  0.27797973584E+04 0.  0.
        1    1    3    3  502    0 -0.97157481006E+03  0.74972904470E+03  0.66851324035E+02  0.12290322826E+04  0.50400001928E-02 0. -1.
       -1    1    3    3    0  502  0.97157481006E+03 -0.74972904470E+03  0.15848575374E+04  0.20044512132E+04  0.50400001928E-02 0.  1.
</event>
<event>
 5   0  0.1654257E-06  0.3257568E+04  0.7818609E-02  0.8173777E-01
        1   -1    0    0  501    0  0.00000000000E+00  0.00000000000E+00  0.25600053432E+04  0.25600053432E+04  0.50400001928E-02 0. -1.
       -1   -1    0    0    0  501  0.00000000000E+00  0.00000000000E+00 -0.10363015808E+04  0.10363015808E+04  0.50400001928E-02 0.  1.
    10030    2    1    2    0    0  0.00000000000E+00  0.00000000000E+00  0.15237037624E+04  0.35963069240E+04  0.32575681629E+04 0.  0.
        3    1    3    3  502    0  0.15798938781E+04 -0.13014641230E+03  0.34887462685E+03  0.16231809111E+04  0.10100000352E+00 0.  1.
       -3    1    3    3    0  502 -0.15798938781E+04  0.13014641230E+03  0.11748291356E+04  0.19731260129E+04  0.10100000352E+00 0. -1.
</event>
<event>
 5   0  0.2722449E-06  0.3398135E+04  0.7818609E-02  0.8138364E-01
        2   -1    0    0  501    0  0.00000000000E+00  0.00000000000E+00  0.21786512771E+04  0.21786512771E+04  0.25500000920E-02 0.  1.
       -2   -1    0    0    0  501  0.00000000000E+00  0.00000000000E+00 -0.13250537436E+04  0.13250537436E+04  0.25500000920E-02 0. -1.
    10030    2    1    2    0    0  0.00000000000E+00  0.00000000000E+00  0.85359753349E+03  0.35037050207E+04  0.33981348006E+04 0.  0.
        2    1    3    3  502    0 -0.18110146252E+03 -0.13934360900E+04  0.14116530807E+04  0.19917897221E+04  0.25500000920E-02 0.  1.
       -2    1    3    3    0  502  0.18110146252E+03  0.13934360900E+04 -0.55805554721E+03  0.15119152987E+04  0.25500000920E-02 0. -1.
</event>
<event>
 5   0  0.4189587E-06  0.3381040E+04  0.7818609E-02  0.8142575E-01
       -2   -1    0    0    0  501  0.00000000000E+00  0.00000000000E+00  0.99309349483E+03  0.99309349483E+03  0.25500000920E-02 0.  1.
        2   -1    0    0  501    0  0.00000000000E+00  0.00000000000E+00 -0.28777332628E+04  0.28777332628E+04  0.25500000920E-02 0. -1.
    10030    2    1    2    0    0  0.00000000000E+00  0.00000000000E+00 -0.18846397680E+04  0.38708267577E+04  0.33810401850E+04 0.  0.
        1    1    3    3  502    0  0.53268874639E+03  0.16005389737E+04 -0.81495744125E+03  0.18734027698E+04  0.50400001928E-02 0.  1.
       -1    1    3    3    0  502 -0.53268874639E+03 -0.16005389737E+04 -0.10696823268E+04  0.19974239878E+04  0.50400001928E-02 0. -1.
</event>
<event>
 5   0  0.1550164E-06  0.2208362E+04  0.7818609E-02  0.8514956E-01
        1   -1    0    0  501    0  0.00000000000E+00  0.00000000000E+00  0.99028781504E+03  0.99028781505E+03  0.50400001928E-02 0. -1.
       -1   -1    0    0    0  501  0.00000000000E+00  0.00000000000E+00 -0.12311733781E+04  0.12311733781E+04  0.50400001928E-02 0.  1.
    10030    2    1    2    0    0  0.00000000000E+00  0.00000000000E+00 -0.24088556310E+03  0.22214611932E+04  0.22083622842E+04 0.  0.
        4    1    3    3  502    0  0.10902800264E+04  0.17456072129E+03 -0.12616866214E+03  0.11113514861E+04  0.12699999809E+01 0.  1.
       -4    1    3    3    0  502 -0.10902800264E+04 -0.17456072129E+03 -0.11471690097E+03  0.11101097071E+04  0.12699999809E+01 0. -1.
</event>
<event>
 5   0  0.1571391E-06  0.3283230E+04  0.7818609E-02  0.8167176E-01
        1   -1    0    0  501    0  0.00000000000E+00  0.00000000000E+00  0.13069090544E+04  0.13069090544E+04  0.50400001928E-02 0.  1.
       -1   -1    0    0    0  501  0.00000000000E+00  0.00000000000E+00 -0.20620406825E+04  0.20620406825E+04  0.50400001928E-02 0. -1.
    10030    2    1    2    0    0  0.00000000000E+00  0.00000000000E+00 -0.75513162817E+03  0.33689497369E+04  0.32832298966E+04 0.  0.
        1    1    3    3  502    0  0.14885526067E+04 -0.68457991357E+03 -0.48251577402E+03  0.17079988271E+04  0.50400001928E-02 0. -1.
       -1    1    3    3    0  502 -0.14885526067E+04  0.68457991357E+03 -0.27261585415E+03  0.16609509099E+04  0.50400001928E-02 0.  1.
</event>
<event>
 5   0  0.1571391E-06  0.3355972E+04  0.7818609E-02  0.8148798E-01
        1   -1    0    0  501    0  0.00000000000E+00  0.00000000000E+00  0.94833701610E+03  0.94833701612E+03  0.50400001928E-02 0. -1.
       -1   -1    0    0    0  501  0.00000000000E+00  0.00000000000E+00 -0.29690252325E+04  0.29690252325E+04  0.50400001928E-02 0.  1.
    10030    2    1    2    0    0  0.00000000000E+00  0.00000000000E+00 -0.20206882164E+04  0.39173622486E+04  0.33559717101E+04 0.  0.
        1    1    3    3  502    0  0.24518498083E+03  0.57658786967E+03 -0.28273577144E+04  0.28959490485E+04  0.50400001928E-02 0.  1.
       -1    1    3    3    0  502 -0.24518498083E+03 -0.57658786967E+03  0.80666949803E+03  0.10214132001E+04  0.50400001928E-02 0. -1.
</event>
<event>
 5   0  0.1562618E-06  0.2515266E+04  0.7818609E-02  0.8397567E-01
        1   -1    0    0  501    0  0.00000000000E+00  0.00000000000E+00  0.14169365854E+04  0.14169365854E+04  0.50400001928E-02 0. -1.
       -1   -1    0    0    0  501  0.00000000000E+00  0.00000000000E+00 -0.11162392594E+04  0.11162392595E+04  0.50400001928E-02 0.  1.
    10030    2    1    2    0    0  0.00000000000E+00  0.00000000000E+00  0.30069732592E+03  0.25331758448E+04  0.25152655882E+04 0.  0.
        2    1    3    3  502    0 -0.80248034310E+02  0.26262774381E+03  0.13863721605E+04  0.14133084753E+04  0.25500000920E-02 0. -1.
       -2    1    3    3    0  502  0.80248034310E+02 -0.26262774381E+03 -0.10856748346E+04  0.11198673695E+04  0.25500000920E-02 0.  1.
</event>
<event>
 5   0  0.4173467E-06  0.3401943E+04  0.7818609E-02  0.8137430E-01
       -2   -1    0    0    0  501  0.00000000000E+00  0.00000000000E+00  0.33558654128E+04  0.33558654128E+04  0.25500000920E-02 0.  1.
        2   -1    0    0  501    0  0.00000000000E+00  0.00000000000E+00 -0.86216335105E+03  0.86216335105E+03  0.25500000920E-02 0. -1.
    10030    2    1    2    0    0  0.00000000000E+00  0.00000000000E+00  0.24937020617E+04  0.42180287638E+04  0.34019430741E+04 0.  0.
        4    1    3    3  502    0  0.14684014222E+04  0.21981136744E+03  0.22758706056E+04  0.27173715977E+04  0.12699999809E+01 0.  1.
       -4    1    3    3    0  502 -0.14684014222E+04 -0.21981136744E+03  0.21783145615E+03  0.15006571661E+04  0.12699999809E+01 0. -1.
</event>
<event>
 5   0  0.4189587E-06  0.2673811E+04  0.7818609E-02  0.8343553E-01
       -2   -1    0    0    0  501  0.00000000000E+00  0.00000000000E+00  0.14619363724E+04  0.14619363724E+04  0.25500000920E-02 0. -1.
        2   -1    0    0  501    0  0.00000000000E+00  0.00000000000E+00 -0.12225681211E+04  0.12225681211E+04  0.25500000920E-02 0.  1.
    10030    2    1    2    0    0  0.00000000000E+00  0.00000000000E+00  0.23936825135E+03  0.26845044935E+04  0.26738113651E+04 0.  0.
        1    1    3    3  502    0 -0.81004455054E+03  0.82178093010E+03 -0.55816089155E+03  0.12818110827E+04  0.50400001928E-02 0.  1.
       -1    1    3    3    0  502  0.81004455054E+03 -0.82178093010E+03  0.79752914290E+03  0.14026934108E+04  0.50400001928E-02 0. -1.
</event>
<event>
 5   0  0.1654257E-06  0.1870636E+04  0.7818609E-02  0.8669612E-01
        1   -1    0    0  501    0  0.00000000000E+00  0.00000000000E+00  0.94479500632E+03  0.94479500633E+03  0.50400001928E-02 0.  1.
       -1   -1    0    0    0  501  0.00000000000E+00  0.00000000000E+00 -0.92593589081E+03  0.92593589083E+03  0.50400001928E-02 0. -1.
    10030    2    1    2    0    0  0.00000000000E+00  0.00000000000E+00  0.18859115504E+02  0.18707308972E+04  0.18706358340E+04 0.  0.
        3    1    3    3  502    0 -0.31188557441E+02 -0.48365661720E+03  0.80942217514E+03  0.94343029275E+03  0.10100000352E+00 0.  1.
       -3    1    3    3    0  502  0.31188557441E+02  0.48365661720E+03 -0.79056305963E+03  0.92730060441E+03  0.10100000352E+00 0. -1.
</event>
<event>
 5   0  0.2722449E-06  0.3386972E+04  0.7818609E-02  0.8141111E-01
       -2   -1    0    0    0  501  0.00000000000E+00  0.00000000000E+00  0.21177937354E+04  0.21177937354E+04  0.25500000920E-02 0.  1.
        2   -1    0    0  501    0  0.00000000000E+00  0.00000000000E+00 -0.13541896895E+04  0.13541896895E+04  0.25500000920E-02 0. -1.
    10030    2    1    2    0    0  0.00000000000E+00  0.00000000000E+00  0.76360404587E+03  0.34719834249E+04  0.33869717689E+04 0.  0.
        2    1    3    3  502    0 -0.57874287659E+03  0.56411442333E+03  0.19073507103E+04  0.20715103504E+04  0.25500000920E-02 0.  1.
       -2    1    3    3    0  502  0.57874287659E+03 -0.56411442333E+03 -0.11437466644E+04  0.14004730744E+04  0.25500000920E-02 0. -1.
</event>
<event>
 5   0  0.1654257E-06  0.3411163E+04  0.7818609E-02  0.8135172E-01
        1   -1    0    0  501    0  0.00000000000E+00  0.00000000000E+00  0.17826459428E+04  0.17826459428E+04  0.50400001928E-02 0.  1.
       -1   -1    0    0    0  501  0.00000000000E+00  0.00000000000E+00 -0.16318489953E+04  0.16318489953E+04  0.50400001928E-02 0. -1.
    10030    2    1    2    0    0  0.00000000000E+00  0.00000000000E+00  0.15079694757E+03  0.34144949381E+04  0.34111634325E+04 0.  0.
        3    1    3    3  502    0  0.61731556327E+03  0.60930036548E+03 -0.13946009271E+04  0.16423267629E+04  0.10100000352E+00 0. -1.
       -3    1    3    3    0  502 -0.61731556327E+03 -0.60930036548E+03  0.15453978747E+04  0.17721681752E+04  0.10100000352E+00 0.  1.
</event>
<event>
 5   0  0.1654257E-06  0.1826132E+04  0.7818609E-02  0.8692525E-01
        1   -1    0    0  501    0  0.00000000000E+00  0.00000000000E+00  0.93038170798E+03  0.93038170799E+03  0.50400001928E-02 0.  1.
       -1   -1    0    0    0  501  0.00000000000E+00  0.00000000000E+00 -0.89607225638E+03  0.89607225640E+03  0.50400001928E-02 0. -1.
    10030    2    1    2    0    0  0.00000000000E+00  0.00000000000E+00  0.34309451600E+02  0.18264539644E+04  0.18261316890E+04 0.  0.
        3    1    3    3  502    0 -0.58997968095E+03 -0.19711821645E+03  0.68567197488E+03  0.92578490079E+03  0.10100000352E+00 0.  1.
       -3    1    3    3    0  502  0.58997968095E+03  0.19711821645E+03 -0.65136252328E+03  0.90066906360E+03  0.10100000352E+00 0. -1.
</event>
<event>
 5   0  0.4344980E-06  0.3378966E+04  0.7818609E-02  0.8143088E-01
        2   -1    0    0  501    0  0.00000000000E+00  0.00000000000E+00  0.25938904351E+04  0.25938904351E+04  0.25500000920E-02 0. -1.
       -2   -1    0    0    0  501  0.00000000000E+00  0.00000000000E+00 -0.11004138517E+04  0.11004138517E+04  0.25500000920E-02 0.  1.
    10030    2    1    2    0    0  0.00000000000E+00  0.00000000000E+00  0.14934765834E+04  0.36943042868E+04  0.33789660931E+04 0.  0.
        3    1    3    3  502    0  0.60868494376E+03 -0.31757119651E+03 -0.94102379765E+03  0.11648496141E+04  0.10100000352E+00 0.  1.
       -3    1    3    3    0  502 -0.60868494376E+03  0.31757119651E+03  0.24345003811E+04  0.25294546727E+04  0.10100000352E+00 0. -1.
</event>
<event>
 5   0  0.1550164E-06  0.3330991E+04  0.7818609E-02  0.8155054E-01
       -1   -1    0    0    0  501  0.00000000000E+00  0.00000000000E+00  0.16962441451E+04  0.16962441452E+04  0.50400001928E-02 0. -1.
        1   -1    0    0  501    0  0.00000000000E+00  0.00000000000E+00 -0.16353043232E+04  0.16353043232E+04  0.50400001928E-02 0.  1.
    10030    2    1    2    0    0  0.00000000000E+00  0.00000000000E+00  0.60939821906E+02  0.33315484684E+04  0.33309910740E+04 0.  0.
        4    1    3    3  502    0 -0.12006517349E+04 -0.95589250680E+03 -0.61661493365E+03  0.16539379258E+04  0.12699999809E+01 0. -1.
       -4    1    3    3    0  502  0.12006517349E+04  0.95589250680E+03  0.67755475555E+03  0.16776105426E+04  0.12699999809E+01 0.  1.
</event>
<event>
 5   0  0.1654257E-06  0.3341888E+04  0.7818609E-02  0.8152318E-01
       -1   -1    0    0    0  501  0.00000000000E+00  0.00000000000E+00  0.18785167799E+04  0.18785167800E+04  0.50400001928E-02 0. -1.
        1   -1    0    0  501    0  0.00000000000E+00  0.00000000000E+00 -0.14863076179E+04  0.14863076180E+04  0.50400001928E-02 0.  1.
    10030    2    1    2    0    0  0.00000000000E+00  0.00000000000E+00  0.39220916200E+03  0.33648243979E+04  0.33418879697E+04 0.  0.
        3    1    3    3  502    0  0.10530099891E+04 -0.21447586572E+03 -0.10922177941E+04  0.15322433404E+04  0.10100000352E+00 0.  1.
       -3    1    3    3    0  502 -0.10530099891E+04  0.21447586572E+03  0.14844269561E+04  0.18325810575E+04  0.10100000352E+00 0. -1.
</event>
<event>
 5   0  0.2722449E-06  0.3430468E+04  0.7818609E-02  0.8130469E-01
       -2   -1    0    0    0  501  0.00000000000E+00  0.00000000000E+00  0.17287983323E+04  0.17287983323E+04  0.25500000920E-02 0.  1.
        2   -1    0    0  501    0  0.00000000000E+00  0.00000000000E+00 -0.17017758624E+04  0.17017758624E+04  0.25500000920E-02 0. -1.
    10030    2    1    2    0    0  0.00000000000E+00  0.00000000000E+00  0.27022469950E+02  0.34305741947E+04  0.34304677657E+04 0.  0.
        2    1    3    3  502    0 -0.35287070080E+03  0.72535297084E+03 -0.15002637778E+04  0.17033631635E+04  0.25500000920E-02 0. -1.
       -2    1    3    3    0  502  0.35287070080E+03 -0.72535297084E+03  0.15272862477E+04  0.17272110312E+04  0.25500000920E-02 0.  1.
</event>
<event>
 5   0  0.1550164E-06  0.2504241E+04  0.7818609E-02  0.8401476E-01
        1   -1    0    0  501    0  0.00000000000E+00  0.00000000000E+00  0.16987320431E+04  0.16987320431E+04  0.50400001928E-02 0. -1.
       -1   -1    0    0    0  501  0.00000000000E+00  0.00000000000E+00 -0.92292736125E+03  0.92292736127E+03  0.50400001928E-02 0.  1.
    10030    2    1    2    0    0  0.00000000000E+00  0.00000000000E+00  0.77580468181E+03  0.26216594043E+04  0.25042414277E+04 0.  0.
        4    1    3    3  502    0  0.98730291476E+03 -0.71563239902E+03  0.68568233666E+03  0.13989491255E+04  0.12699999809E+01 0. -1.
       -4    1    3    3    0  502 -0.98730291476E+03  0.71563239902E+03  0.90122345157E+02  0.12227102789E+04  0.12699999809E+01 0.  1.
</event>
<event>
 5   0  0.4173467E-06  0.3245022E+04  0.7818609E-02  0.8177027E-01
       -2   -1    0    0    0  501  0.00000000000E+00  0.00000000000E+00  0.28319059624E+04  0.28319059624E+04  0.25500000920E-02 0.  1.
        2   -1    0    0  501    0  0.00000000000E+00  0.00000000000E+00 -0.92960050532E+03  0.92960050532E+03  0.25500000920E-02 0. -1.
    10030    2    1    2    0    0  0.00000000000E+00  0.00000000000E+00  0.19023054571E+04  0.37615064677E+04  0.32450215492E+04 0.  0.
        4    1    3    3  502    0  0.19615074489E+02 -0.38927687222E+03 -0.87452536804E+03  0.95745363680E+03  0.12699999809E+01 0. -1.
       -4    1    3    3    0  502 -0.19615074489E+02  0.38927687222E+03  0.27768308251E+04  0.28040528309E+04  0.12699999809E+01 0.  1.
</event>
<event>
 5   0  0.4400349E-06  0.3350111E+04  0.7818609E-02  0.8150260E-01
       -2   -1    0    0    0  501  0.00000000000E+00  0.00000000000E+00  0.93047287613E+03  0.93047287614E+03  0.25500000920E-02 0.  1.
        2   -1    0    0  501    0  0.00000000000E+00  0.00000000000E+00 -0.30154683831E+04  0.30154683831E+04  0.25500000920E-02 0. -1.
    10030    2    1    2    0    0  0.00000000000E+00  0.00000000000E+00 -0.20849955070E+04  0.39459412592E+04  0.33501113649E+04 0.  0.
        5    1    3    3  502    0  0.15263618012E+03 -0.12222511174E+04  0.29455763680E+03  0.12664840658E+04  0.46999998093E+01 0.  1.
       -5    1    3    3    0  502 -0.15263618012E+03  0.12222511174E+04 -0.23795531438E+04  0.26794571934E+04  0.46999998093E+01 0. -1.
</event>
<event>
 5   0  0.1550164E-06  0.3381904E+04  0.7818609E-02  0.8142362E-01
       -1   -1    0    0    0  501  0.00000000000E+00  0.00000000000E+00  0.27844754787E+04  0.27844754787E+04  0.50400001928E-02 0. -1.
        1   -1    0    0  501    0  0.00000000000E+00  0.00000000000E+00 -0.10268785674E+04  0.10268785674E+04  0.50400001928E-02 0.  1.
    10030    2    1    2    0    0  0.00000000000E+00  0.00000000000E+00  0.17575969113E+04  0.38113540461E+04  0.33819037186E+04 0.  0.
        4    1    3    3  502    0 -0.14703471775E+04 -0.27628682296E+03 -0.93494671723E+01  0.14961097073E+04  0.12699999809E+01 0.  1.
       -4    1    3    3    0  502  0.14703471775E+04  0.27628682296E+03  0.17669463785E+04  0.23152443388E+04  0.12699999809E+01 0. -1.
</event>
<event>
 5   0  0.4189587E-06  0.2609221E+04  0.7818609E-02  0.8365076E-01
        2   -1    0    0  501    0  0.00000000000E+00  0.00000000000E+00  0.95712644732E+03  0.95712644732E+03  0.25500000920E-02 0.  1.
       -2   -1    0    0    0  501  0.00000000000E+00  0.00000000000E+00 -0.17782485001E+04  0.17782485001E+04  0.25500000920E-02 0. -1.
    10030    2    1    2    0    0  0.00000000000E+00  0.00000000000E+00 -0.82112205282E+03  0.27353749475E+04  0.26092210864E+04 0.  0.
        1    1    3    3  502    0 -0.77649737015E+03 -0.77454255024E+03 -0.11512213174E+04  0.15900235374E+04  0.50400001928E-02 0. -1.
       -1    1    3    3    0  502  0.77649737015E+03  0.77454255024E+03  0.33009926456E+03  0.11453514100E+04  0.50400001928E-02 0.  1.
</event>
<event>
 5   0  0.1571391E-06  0.3458748E+04  0.7818609E-02  0.8123636E-01
        1   -1    0    0  501    0  0.00000000000E+00  0.00000000000E+00  0.21360902083E+04  0.21360902083E+04  0.50400001928E-02 0.  1.
       -1   -1    0    0    0  501  0.00000000000E+00  0.00000000000E+00 -0.14000974651E+04  0.14000974651E+04  0.50400001928E-02 0. -1.
    10030    2    1    2    0    0  0.00000000000E+00  0.00000000000E+00  0.73599274325E+03  0.35361876734E+04  0.34587480312E+04 0.  0.
        1    1    3    3  502    0 -0.36699401578E+03  0.55775254274E+03 -0.12630151549E+04  0.14286286390E+04  0.50400001928E-02 0. -1.
       -1    1    3    3    0  502  0.36699401578E+03 -0.55775254274E+03  0.19990078982E+04  0.21075590344E+04  0.50400001928E-02 0.  1.
</event>
<event>
 5   0  0.2722449E-06  0.3629915E+04  0.7818609E-02  0.8083674E-01
       -2   -1    0    0    0  501  0.00000000000E+00  0.00000000000E+00  0.19428325971E+04  0.19428325971E+04  0.25500000920E-02 0.  1.
        2   -1    0    0  501    0  0.00000000000E+00  0.00000000000E+00 -0.16954985554E+04  0.16954985554E+04  0.25500000920E-02 0. -1.
    10030    2    1    2    0    0  0.00000000000E+00  0.00000000000E+00  0.24733404172E+03  0.36383311525E+04  0.36299145233E+04 0.  0.
        2    1    3    3  502    0  0.70140895385E+03 -0.15159077012E+04  0.83532682737E+03  0.18675442666E+04  0.25500000920E-02 0. -1.
       -2    1    3    3    0  502 -0.70140895385E+03  0.15159077012E+04 -0.58799278565E+03  0.17707868859E+04  0.25500000920E-02 0.  1.
</event>
<event>
 5   0  0.4189587E-06  0.2886665E+04  0.7818609E-02  0.8276856E-01
       -2   -1    0    0    0  501  0.00000000000E+00  0.00000000000E+00  0.88641288224E+03  0.88641288224E+03  0.25500000920E-02 0. -1.
        2   -1    0    0  501    0  0.00000000000E+00  0.00000000000E+00 -0.23501561487E+04  0.23501561487E+04  0.25500000920E-02 0.  1.
    10030    2    1    2    0    0  0.00000000000E+00  0.00000000000E+00 -0.14637432664E+04  0.32365690309E+04  0.28866649861E+04 0.  0.
        1    1    3    3  502    0  0.30892026384E+02  0.71207126328E+03 -0.21390772700E+04  0.22546954048E+04  0.50400001928E-02 0.  1.
       -1    1    3    3    0  502 -0.30892026384E+02 -0.71207126328E+03  0.67533400357E+03  0.98187362613E+03  0.50400001928E-02 0. -1.
</event>
<event>
 5   0  0.2722449E-06  0.3388254E+04  0.7818609E-02  0.8140795E-01
        2   -1    0    0  501    0  0.00000000000E+00  0.00000000000E+00  0.14281506877E+04  0.14281506877E+04  0.25500000920E-02 0.  1.
       -2   -1    0    0    0  501  0.00000000000E+00  0.00000000000E+00 -0.20096378680E+04  0.20096378680E+04  0.25500000920E-02 0. -1.
    10030    2    1    2    0    0  0.00000000000E+00  0.00000000000E+00 -0.58148718031E+03  0.34377885558E+04  0.33882536524E+04 0.  0.
        2    1    3    3  502    0 -0.12916946037E+03 -0.16785387140E+04 -0.48295640890E+03  0.17514062513E+04  0.25500000920E-02 0. -1.
       -2    1    3    3    0  502  0.12916946037E+03  0.16785387140E+04 -0.98530771411E+02  0.16863823045E+04  0.25500000920E-02 0.  1.
</event>
<event>
 5   0  0.2722449E-06  0.3399021E+04  0.7818609E-02  0.8138147E-01
       -2   -1    0    0    0  501  0.00000000000E+00  0.00000000000E+00  0.18510230154E+04  0.18510230154E+04  0.25500000920E-02 0. -1.
        2   -1    0    0  501    0  0.00000000000E+00  0.00000000000E+00 -0.15603999289E+04  0.15603999289E+04  0.25500000920E-02 0.  1.
    10030    2    1    2    0    0  0.00000000000E+00  0.00000000000E+00  0.29062308647E+03  0.34114229443E+04  0.33990211424E+04 0.  0.
        2    1    3    3  502    0 -0.12758783218E+04 -0.85805976929E+03 -0.58134956333E+03  0.16438063677E+04  0.25500000920E-02 0. -1.
       -2    1    3    3    0  502  0.12758783218E+04  0.85805976929E+03  0.87197264979E+03  0.17676165766E+04  0.25500000920E-02 0.  1.
</event>
<event>
 5   0  0.2101998E-06  0.3421977E+04  0.7818609E-02  0.8132534E-01
        1   -1    0    0  501    0  0.00000000000E+00  0.00000000000E+00  0.22499204401E+04  0.22499204401E+04  0.50400001928E-02 0.  1.
       -1   -1    0    0    0  501  0.00000000000E+00  0.00000000000E+00 -0.13011486611E+04  0.13011486611E+04  0.50400001928E-02 0. -1.
    10030    2    1    2    0    0  0.00000000000E+00  0.00000000000E+00  0.94877177895E+03  0.35510691012E+04  0.34219766033E+04 0.  0.
        5    1    3    3  502    0  0.11539221635E+04 -0.12380257613E+04  0.73529620018E+03  0.18452443570E+04  0.46999998093E+01 0. -1.
       -5    1    3    3    0  502 -0.11539221635E+04  0.12380257613E+04  0.21347557877E+03  0.17058247442E+04  0.46999998093E+01 0.  1.
</event>
<event>
 5   0  0.1550164E-06  0.1905988E+04  0.7818609E-02  0.8651882E-01
        1   -1    0    0  501    0  0.00000000000E+00  0.00000000000E+00  0.10504164854E+04  0.10504164854E+04  0.50400001928E-02 0.  1.
       -1   -1    0    0    0  501  0.00000000000E+00  0.00000000000E+00 -0.86460675745E+03  0.86460675746E+03  0.50400001928E-02 0. -1.
    10030    2    1    2    0    0  0.00000000000E+00  0.00000000000E+00  0.18580972792E+03  0.19150232428E+04  0.19059876090E+04 0.  0.
        4    1    3    3  502    0 -0.88983295911E+03 -0.27704141855E+03 -0.10713931831E+03  0.93810185435E+03  0.12699999809E+01 0.  1.
       -4    1    3    3    0  502  0.88983295911E+03  0.27704141855E+03  0.29294904624E+03  0.97692138849E+03  0.12699999809E+01 0. -1.
</event>
<event>
 5   0  0.2722449E-06  0.2471664E+04  0.7818609E-02  0.8413150E-01
        2   -1    0    0  501    0  0.00000000000E+00  0.00000000000E+00  0.17638532755E+04  0.17638532755E+04  0.25500000920E-02 0. -1.
       -2   -1    0    0    0  501  0.00000000000E+00  0.00000000000E+00 -0.86587757265E+03  0.86587757265E+03  0.25500000920E-02 0.  1.
    10030    2    1    2    0    0  0.00000000000E+00  0.00000000000E+00  0.89797570282E+03  0.26297308481E+04  0.24716642108E+04 0.  0.
        2    1    3    3  502    0 -0.22898027007E+03  0.43104353205E+03 -0.75898395451E+03  0.90237859782E+03  0.25500000920E-02 0.  1.
       -2    1    3    3    0  502  0.22898027007E+03 -0.43104353205E+03  0.16569596573E+04  0.17273522503E+04  0.25500000920E-02 0. -1.
</event>
<event>
 5   0  0.2722449E-06  0.3128375E+04  0.7818609E-02  0.8207993E-01
       -2   -1    0    0    0  501  0.00000000000E+00  0.00000000000E+00  0.12336712379E+04  0.12336712379E+04  0.25500000920E-02 0.  1.
        2   -1    0    0  501    0  0.00000000000E+00  0.00000000000E+00 -0.19832536694E+04  0.19832536694E+04  0.25500000920E-02 0. -1.
    10030    2    1    2    0    0  0.00000000000E+00  0.00000000000E+00 -0.74958243157E+03  0.32169249073E+04  0.31283753032E+04 0.  0.
        2    1    3    3  502    0 -0.13214892012E+04 -0.42085871835E+03 -0.11186101810E+04  0.17817812735E+04  0.25500000920E-02 0. -1.
       -2    1    3    3    0  502  0.13214892012E+04  0.42085871835E+03  0.36902774947E+03  0.14351436337E+04  0.25500000920E-02 0.  1.
</event>
<event>
 5   0  0.1401125E-06  0.3394789E+04  0.7818609E-02  0.8139187E-01
       -3   -1    0    0    0  501  0.00000000000E+00  0.00000000000E+00  0.17007647624E+04  0.17007647654E+04  0.10100000352E+00 0.  1.
        3   -1    0    0  501    0  0.00000000000E+00  0.00000000000E+00 -0.16940304728E+04  0.16940304758E+04  0.10100000352E+00 0. -1.
    10030    2    1    2    0    0  0.00000000000E+00  0.00000000000E+00  0.67342896214E+01  0.33947952412E+04  0.33947885617E+04 0.  0.
        4    1    3    3  502    0 -0.71196442231E+03 -0.75552306287E+03  0.13462909667E+04  0.17000615921E+04  0.12699999809E+01 0. -1.
       -4    1    3    3    0  502  0.71196442231E+03  0.75552306287E+03 -0.13395566771E+04  0.16947336490E+04  0.12699999809E+01 0.  1.
</event>
<event>
 5   0  0.4189587E-06  0.3385392E+04  0.7818609E-02  0.8141501E-01
       -2   -1    0    0    0  501  0.00000000000E+00  0.00000000000E+00  0.12717452364E+04  0.12717452364E+04  0.25500000920E-02 0.  1.
        2   -1    0    0  501    0  0.00000000000E+00  0.00000000000E+00 -0.22529823633E+04  0.22529823633E+04  0.25500000920E-02 0. -1.
    10030    2    1    2    0    0  0.00000000000E+00  0.00000000000E+00 -0.98123712692E+03  0.35247275996E+04  0.33853919053E+04 0.  0.
        1    1    3    3  502    0  0.40807395122E+03  0.95436556666E+03 -0.18827684156E+04  0.21499197407E+04  0.50400001928E-02 0. -1.
       -1    1    3    3    0  502 -0.40807395122E+03 -0.95436556666E+03  0.90153128871E+03  0.13748078590E+04  0.50400001928E-02 0.  1.
</event>
<event>
 5   0  0.4400349E-06  0.3366420E+04  0.7818609E-02  0.8146197E-01
       -2   -1    0    0    0  501  0.00000000000E+00  0.00000000000E+00  0.10762970341E+04  0.10762970341E+04  0.25500000920E-02 0. -1.
        2   -1    0    0  501    0  0.00000000000E+00  0.00000000000E+00 -0.26323551072E+04  0.26323551072E+04  0.25500000920E-02 0.  1.
    10030    2    1    2    0    0  0.00000000000E+00  0.00000000000E+00 -0.15560580731E+04  0.37086521412E+04  0.33664200537E+04 0.  0.
        5    1    3    3  502    0 -0.10647491467E+04  0.99075980545E+03 -0.17114405796E+04  0.22459623071E+04  0.46999998093E+01 0.  1.
       -5    1    3    3    0  502  0.10647491467E+04 -0.99075980545E+03  0.15538250652E+03  0.14626898341E+04  0.46999998093E+01 0. -1.
</event>
<event>
 5   0  0.1550164E-06  0.3273443E+04  0.7818609E-02  0.8169686E-01
       -1   -1    0    0    0  501  0.00000000000E+00  0.00000000000E+00  0.18322784883E+04  0.18322784883E+04  0.50400001928E-02 0. -1.
        1   -1    0    0  501    0  0.00000000000E+00  0.00000000000E+00 -0.14620358635E+04  0.14620358635E+04  0.50400001928E-02 0.  1.
    10030    2    1    2    0    0  0.00000000000E+00  0.00000000000E+00  0.37024262477E+03  0.32943143518E+04  0.32734427515E+04 0.  0.
        4    1    3    3  502    0 -0.15538373745E+04  0.50970676940E+03  0.11654232715E+03  0.16394496955E+04  0.12699999809E+01 0.  1.
       -4    1    3    3    0  502  0.15538373745E+04 -0.50970676940E+03  0.25370029762E+03  0.16548646564E+04  0.12699999809E+01 0. -1.
</event>
<event>
 5   0  0.2722449E-06  0.3370240E+04  0.7818609E-02  0.8145249E-01
        2   -1    0    0  501    0  0.00000000000E+00  0.00000000000E+00  0.18132286652E+04  0.18132286652E+04  0.25500000920E-02 0. -1.
       -2   -1    0    0    0  501  0.00000000000E+00  0.00000000000E+00 -0.15660620355E+04  0.15660620355E+04  0.25500000920E-02 0.  1.
    10030    2    1    2    0    0  0.00000000000E+00  0.00000000000E+00  0.24716662968E+03  0.33792907007E+04  0.33702395014E+04 0.  0.
        2    1    3    3  502    0  0.73741172140E+03 -0.40480937174E+03  0.15876354603E+04  0.17967284238E+04  0.25500000920E-02 0. -1.
       -2    1    3    3    0  502 -0.73741172140E+03  0.40480937174E+03 -0.13404688306E+04  0.15825622768E+04  0.25500000920E-02 0.  1.
</event>
<event>
 5   0  0.4344980E-06  0.2069663E+04  0.7818609E-02  0.8574726E-01
        2   -1    0    0  501    0  0.00000000000E+00  0.00000000000E+00  0.93850751059E+03  0.93850751059E+03  0.25500000920E-02 0.  1.
       -2   -1    0    0    0  501  0.00000000000E+00  0.00000000000E+00 -0.11410416746E+04  0.11410416746E+04  0.25500000920E-02 0. -1.
    10030    2    1    2    0    0  0.00000000000E+00  0.00000000000E+00 -0.20253416402E+03  0.20795491852E+04  0.20696629499E+04 0.  0.
        3    1    3    3  502    0 -0.48409735570E+03  0.57114712005E+03 -0.81904408902E+03  0.11096812662E+04  0.10100000352E+00 0. -1.
       -3    1    3    3    0  502  0.48409735570E+03 -0.57114712005E+03  0.61650992500E+03  0.96986791903E+03  0.10100000352E+00 0.  1.
</event>
<event>
 5   0  0.4400349E-06  0.3339959E+04  0.7818609E-02  0.8152802E-01
        2   -1    0    0  501    0  0.00000000000E+00  0.00000000000E+00  0.32583404760E+04  0.32583404760E+04  0.25500000920E-02 0.  1.
       -2   -1    0    0    0  501  0.00000000000E+00  0.00000000000E+00 -0.85590550301E+03  0.85590550302E+03  0.25500000920E-02 0. -1.
    10030    2    1    2    0    0  0.00000000000E+00  0.00000000000E+00  0.24024349730E+04  0.41142459790E+04  0.33399590082E+04 0.  0.
        5    1    3    3  502    0  0.88760907544E+03  0.10269498787E+04  0.23995331350E+04  0.27568564127E+04  0.46999998093E+01 0.  1.
       -5    1    3    3    0  502 -0.88760907544E+03 -0.10269498787E+04  0.29018380371E+01  0.13573895664E+04  0.46999998093E+01 0. -1.
</event>
<event>
 5   0  0.2101998E-06  0.3407197E+04  0.7818609E-02  0.8136142E-01
        1   -1    0    0  501    0  0.00000000000E+00  0.00000000000E+00  0.19817074312E+04  0.19817074312E+04  0.50400001928E-02 0.  1.
       -1   -1    0    0    0  501  0.00000000000E+00  0.00000000000E+00 -0.14645188923E+04  0.14645188923E+04  0.50400001928E-02 0. -1.
    10030    2    1    2    0    0  0.00000000000E+00  0.00000000000E+00  0.51718853892E+03  0.34462263236E+04  0.34071970722E+04 0.  0.
        5    1    3    3  502    0  0.39937637487E+03  0.82660372543E+03 -0.11929231058E+04  0.15052783245E+04  0.46999998093E+01 0. -1.
       -5    1    3    3    0  502 -0.39937637487E+03 -0.82660372543E+03  0.17101116448E+04  0.19409479991E+04  0.46999998093E+01 0.  1.
</event>
<event>
 5   0  0.4173467E-06  0.1990614E+04  0.7818609E-02  0.8611021E-01
       -2   -1    0    0    0  501  0.00000000000E+00  0.00000000000E+00  0.74721745425E+03  0.74721745425E+03  0.25500000920E-02 0.  1.
        2   -1    0    0  501    0  0.00000000000E+00  0.00000000000E+00 -0.13257672683E+04  0.13257672683E+04  0.25500000920E-02 0. -1.
    10030    2    1    2    0    0  0.00000000000E+00  0.00000000000E+00 -0.57854981407E+03  0.20729847226E+04  0.19906144209E+04 0.  0.
        4    1    3    3  502    0  0.30466003246E+03  0.93548627428E+03 -0.44611412189E+03  0.10802646562E+04  0.12699999809E+01 0. -1.
       -4    1    3    3    0  502 -0.30466003246E+03 -0.93548627428E+03 -0.13243569218E+03  0.99272006639E+03  0.12699999809E+01 0.  1.
</event>
<event>
 5   0  0.1571391E-06  0.3343333E+04  0.7818609E-02  0.8151956E-01
        1   -1    0    0  501    0  0.00000000000E+00  0.00000000000E+00  0.24272184554E+04  0.24272184554E+04  0.50400001928E-02 0.  1.
       -1   -1    0    0    0  501  0.00000000000E+00  0.00000000000E+00 -0.11513049387E+04  0.11513049387E+04  0.50400001928E-02 0. -1.
    10030    2    1    2    0    0  0.00000000000E+00  0.00000000000E+00  0.12759135167E+04  0.35785233941E+04  0.33433328253E+04 0.  0.
        1    1    3    3  502    0  0.45336745685E+03 -0.15950214119E+04  0.41132315217E+03  0.17084560548E+04  0.50400001928E-02 0.  1.
       -1    1    3    3    0  502 -0.45336745685E+03  0.15950214119E+04  0.86459036448E+03  0.18700673394E+04  0.50400001928E-02 0. -1.
</event>
<event>
 5   0  0.4400349E-06  0.3491671E+04  0.7818609E-02  0.8115767E-01
       -2   -1    0    0    0  501  0.00000000000E+00  0.00000000000E+00  0.13818546015E+04  0.13818546015E+04  0.25500000920E-02 0.  1.
        2   -1    0    0  501    0  0.00000000000E+00  0.00000000000E+00 -0.22056888511E+04  0.22056888511E+04  0.25500000920E-02 0. -1.
    10030    2    1    2    0    0  0.00000000000E+00  0.00000000000E+00 -0.82383424953E+03  0.35875434526E+04  0.34916708255E+04 0.  0.
        5    1    3    3  502    0 -0.14765056404E+04 -0.61401659891E+03  0.30791488407E+03  0.16284713555E+04  0.46999998093E+01 0.  1.
       -5    1    3    3    0  502  0.14765056404E+04  0.61401659891E+03 -0.11317491336E+04  0.19590720970E+04  0.46999998093E+01 0. -1.
</event>
<event>
 5   0  0.2722449E-06  0.3383998E+04  0.7818609E-02  0.8141845E-01
       -2   -1    0    0    0  501  0.00000000000E+00  0.00000000000E+00  0.23146213737E+04  0.23146213737E+04  0.25500000920E-02 0. -1.
        2   -1    0    0  501    0  0.00000000000E+00  0.00000000000E+00 -0.12368589599E+04  0.12368589600E+04  0.25500000920E-02 0.  1.
    10030    2    1    2    0    0  0.00000000000E+00  0.00000000000E+00  0.10777624137E+04  0.35514803336E+04  0.33839977452E+04 0.  0.
        2    1    3    3  502    0  0.15727210682E+03 -0.39404251695E+03 -0.11801273711E+04  0.12540752102E+04  0.25500000920E-02 0.  1.
       -2    1    3    3    0  502 -0.15727210682E+03  0.39404251695E+03  0.22578897848E+04  0.22974051234E+04  0.25500000920E-02 0. -1.
</event>
<event>
 5   0  0.4344980E-06  0.1949335E+04  0.7818609E-02  0.8630682E-01
       -2   -1    0    0    0  501  0.00000000000E+00  0.00000000000E+00  0.35695250510E+03  0.35695250511E+03  0.25500000920E-02 0.  1.
        2   -1    0    0  501    0  0.00000000000E+00  0.00000000000E+00 -0.26613529119E+04  0.26613529119E+04  0.25500000920E-02 0. -1.
    10030    2    1    2    0    0  0.00000000000E+00  0.00000000000E+00 -0.23044004068E+04  0.30183054171E+04  0.19493348495E+04 0.  0.
        3    1    3    3  502    0  0.98737248899E+02  0.96768352845E+03 -0.12478508536E+04  0.15821795785E+04  0.10100000352E+00 0.  1.
       -3    1    3    3    0  502 -0.98737248899E+02 -0.96768352845E+03 -0.10565495532E+04  0.14361258386E+04  0.10100000352E+00 0. -1.
</event>
<event>
 5   0  0.1550164E-06  0.2194151E+04  0.7818609E-02  0.8520866E-01
        1   -1    0    0  501    0  0.00000000000E+00  0.00000000000E+00  0.50968667619E+03  0.50968667621E+03  0.50400001928E-02 0.  1.
       -1   -1    0    0    0  501  0.00000000000E+00  0.00000000000E+00 -0.23614017367E+04  0.23614017367E+04  0.50400001928E-02 0. -1.
    10030    2    1    2    0    0  0.00000000000E+00  0.00000000000E+00 -0.18517150605E+04  0.28710884129E+04  0.21941513187E+04 0.  0.
        4    1    3    3  502    0 -0.13800223535E+03  0.10877454713E+04 -0.97373147862E+03  0.14664206193E+04  0.12699999809E+01 0. -1.
       -4    1    3    3    0  502  0.13800223535E+03 -0.10877454713E+04 -0.87798358190E+03  0.14046677936E+04  0.12699999809E+01 0.  1.
</event>
<event>
 5   0  0.4344980E-06  0.3417911E+04  0.7818609E-02  0.8133524E-01
        2   -1    0    0  501    0  0.00000000000E+00  0.00000000000E+00  0.17341261159E+04  0.17341261159E+04  0.25500000920E-02 0.  1.
       -2   -1    0    0    0  501  0.00000000000E+00  0.00000000000E+00 -0.16841498274E+04  0.16841498274E+04  0.25500000920E-02 0. -1.
    10030    2    1    2    0    0  0.00000000000E+00  0.00000000000E+00  0.49976288528E+02  0.34182759434E+04  0.34179105892E+04 0.  0.
        3    1    3    3  502    0  0.15870337793E+04  0.28510366196E+03  0.59123580318E+03  0.17174166937E+04  0.10100000352E+00 0.  1.
       -3    1    3    3    0  502 -0.15870337793E+04 -0.28510366196E+03 -0.54125951465E+03  0.17008592496E+04  0.10100000352E+00 0. -1.
</event>
<event>
 5   0  0.1571391E-06  0.3101187E+04  0.7818609E-02  0.8215412E-01
       -1   -1    0    0    0  501  0.00000000000E+00  0.00000000000E+00  0.11218842559E+04  0.11218842559E+04  0.50400001928E-02 0.  1.
        1   -1    0    0  501    0  0.00000000000E+00  0.00000000000E+00 -0.21431272858E+04  0.21431272858E+04  0.50400001928E-02 0. -1.
    10030    2    1    2    0    0  0.00000000000E+00  0.00000000000E+00 -0.10212430300E+04  0.32650115417E+04  0.31011873599E+04 0.  0.
        1    1    3    3  502    0  0.13123331299E+04 -0.82565703338E+03 -0.53201695101E+03  0.16391979187E+04  0.50400001928E-02 0.  1.
       -1    1    3    3    0  502 -0.13123331299E+04  0.82565703338E+03 -0.48922607895E+03  0.16258136230E+04  0.50400001928E-02 0. -1.
</event>
<event>
 5   0  0.2722449E-06  0.3340765E+04  0.7818609E-02  0.8152600E-01
        2   -1    0    0  501    0  0.00000000000E+00  0.00000000000E+00  0.26701924993E+04  0.26701924993E+04  0.25500000920E-02 0. -1.
       -2   -1    0    0    0  501  0.00000000000E+00  0.00000000000E+00 -0.10449350157E+04  0.10449350157E+04  0.25500000920E-02 0.  1.
    10030    2    1    2    0    0  0.00000000000E+00  0.00000000000E+00  0.16252574835E+04  0.37151275150E+04  0.33407649670E+04 0.  0.
        2    1    3    3  502    0 -0.38698445962E+03  0.11083994222E+04  0.21340015665E+04  0.24356249582E+04  0.25500000920E-02 0. -1.
       -2    1    3    3    0  502  0.38698445962E+03 -0.11083994222E+04 -0.50874408296E+03  0.12795025568E+04  0.25500000920E-02 0.  1.
</event>
<event>
 5   0  0.4189587E-06  0.3360155E+04  0.7818609E-02  0.8147755E-01
        2   -1    0    0  501    0  0.00000000000E+00  0.00000000000E+00  0.21193189865E+04  0.21193189865E+04  0.25500000920E-02 0. -1.
       -2   -1    0    0    0  501  0.00000000000E+00  0.00000000000E+00 -0.13318714170E+04  0.13318714170E+04  0.25500000920E-02 0.  1.
    10030    2    1    2    0    0  0.00000000000E+00  0.00000000000E+00  0.78744756947E+03  0.34511904035E+04  0.33601549855E+04 0.  0.
        1    1    3    3  502    0 -0.10179419371E+04 -0.30776922649E+03 -0.94218092932E+03  0.14207859049E+04  0.50400001928E-02 0.  1.
       -1    1    3    3    0  502  0.10179419371E+04  0.30776922649E+03  0.17296284988E+04  0.20304044986E+04  0.50400001928E-02 0. -1.
</event>
<event>
 5   0  0.4189587E-06  0.2847957E+04  0.7818609E-02  0.8288532E-01
        2   -1    0    0  501    0  0.00000000000E+00  0.00000000000E+00  0.20325004203E+04  0.20325004203E+04  0.25500000920E-02 0. -1.
       -2   -1    0    0    0  501  0.00000000000E+00  0.00000000000E+00 -0.99764517136E+03  0.99764517136E+03  0.25500000920E-02 0.  1.
    10030    2    1    2    0    0  0.00000000000E+00  0.00000000000E+00  0.10348552490E+04  0.30301455917E+04  0.28479566220E+04 0.  0.
        1    1    3    3  502    0 -0.34466617831E+02 -0.11355548111E+04 -0.39600414498E+03  0.12031176001E+04  0.50400001928E-02 0.  1.
       -1    1    3    3    0  502  0.34466617831E+02  0.11355548111E+04  0.14308593939E+04  0.18270279916E+04  0.50400001928E-02 0. -1.
</event>
<event>
 5   0  0.1550164E-06  0.3571612E+04  0.7818609E-02  0.8097025E-01
        1   -1    0    0  501    0  0.00000000000E+00  0.00000000000E+00  0.18107481970E+04  0.18107481970E+04  0.50400001928E-02 0.  1.
       -1   -1    0    0    0  501  0.00000000000E+00  0.00000000000E+00 -0.17612074152E+04  0.17612074152E+04  0.50400001928E-02 0. -1.
    10030    2    1    2    0    0  0.00000000000E+00  0.00000000000E+00  0.49540781799E+02  0.35719556122E+04  0.35716120459E+04 0.  0.
        4    1    3    3  502    0  0.31158471768E+03  0.15932719489E+04  0.76881843434E+03  0.17962972853E+04  0.12699999809E+01 0.  1.
       -4    1    3    3    0  502 -0.31158471768E+03 -0.15932719489E+04 -0.71927765255E+03  0.17756583269E+04  0.12699999809E+01 0. -1.
</event>
<event>
 5   0  0.4189587E-06  0.3507181E+04  0.7818609E-02  0.8112090E-01
        2   -1    0    0  501    0  0.00000000000E+00  0.00000000000E+00  0.22052743747E+04  0.22052743747E+04  0.25500000920E-02 0. -1.
       -2   -1    0    0    0  501  0.00000000000E+00  0.00000000000E+00 -0.13944205229E+04  0.13944205229E+04  0.25500000920E-02 0.  1.
    10030    2    1    2    0    0  0.00000000000E+00  0.00000000000E+00  0.81085385177E+03  0.35996948977E+04  0.35071811170E+04 0.  0.
        1    1    3    3  502    0 -0.12811127443E+04  0.23316816400E+02 -0.82335262284E+03  0.15230571490E+04  0.50400001928E-02 0.  1.
       -1    1    3    3    0  502  0.12811127443E+04 -0.23316816400E+02  0.16342064746E+04  0.20766377487E+04  0.50400001928E-02 0. -1.
</event>
<event>
 5   0  0.1550164E-06  0.3275129E+04  0.7818609E-02  0.8169253E-01
       -1   -1    0    0    0  501  0.00000000000E+00  0.00000000000E+00  0.10166133090E+04  0.10166133090E+04  0.50400001928E-02 0. -1.
        1   -1    0    0  501    0  0.00000000000E+00  0.00000000000E+00 -0.26377942091E+04  0.26377942091E+04  0.50400001928E-02 0.  1.
    10030    2    1    2    0    0  0.00000000000E+00  0.00000000000E+00 -0.16211809001E+04  0.36544075181E+04  0.32751285161E+04 0.  0.
        4    1    3    3  502    0  0.10257821155E+04  0.79489631839E+03  0.30383427059E+03  0.13328188108E+04  0.12699999809E+01 0. -1.
       -4    1    3    3    0  502 -0.10257821155E+04 -0.79489631839E+03 -0.19250151707E+04  0.23215887073E+04  0.12699999809E+01 0.  1.
</event>
<event>
 5   0  0.4344980E-06  0.3384190E+04  0.7818609E-02  0.8141798E-01
        2   -1    0    0  501    0  0.00000000000E+00  0.00000000000E+00  0.26709987421E+04  0.26709987422E+04  0.25500000920E-02 0.  1.
       -2   -1    0    0    0  501  0.00000000000E+00  0.00000000000E+00 -0.10719529919E+04  0.10719529919E+04  0.25500000920E-02 0. -1.
    10030    2    1    2    0    0  0.00000000000E+00  0.00000000000E+00  0.15990457502E+04  0.37429517341E+04  0.33841897660E+04 0.  0.
        3    1    3    3  502    0 -0.57440614254E+03 -0.13058494125E+00 -0.96082262573E+03  0.11194295699E+04  0.10100000352E+00 0. -1.
       -3    1    3    3    0  502  0.57440614254E+03  0.13058494125E+00  0.25598683759E+04  0.26235221642E+04  0.10100000352E+00 0.  1.
</event>
<event>
 5   0  0.1562618E-06  0.2752273E+04  0.7818609E-02  0.8318241E-01
       -1   -1    0    0    0  501  0.00000000000E+00  0.00000000000E+00  0.71086219644E+03  0.71086219645E+03  0.50400001928E-02 0. -1.
        1   -1    0    0  501    0  0.00000000000E+00  0.00000000000E+00 -0.26640215024E+04  0.26640215024E+04  0.50400001928E-02 0.  1.
    10030    2    1    2    0    0  0.00000000000E+00  0.00000000000E+00 -0.19531593059E+04  0.33748836988E+04  0.27522733706E+04 0.  0.
        2    1    3    3  502    0  0.56224429398E+02  0.74685852884E+03  0.43904673049E+03  0.86817099705E+03  0.25500000920E-02 0. -1.
       -2    1    3    3    0  502 -0.56224429398E+02 -0.74685852884E+03 -0.23922060364E+04  0.25067127018E+04  0.25500000920E-02 0.  1.
</event>
<event>
 5   0  0.1654257E-06  0.3052420E+04  0.7818609E-02  0.8228918E-01
        1   -1    0    0  501    0  0.00000000000E+00  0.00000000000E+00  0.17082256482E+04  0.17082256482E+04  0.50400001928E-02 0. -1.
       -1   -1    0    0    0  501  0.00000000000E+00  0.00000000000E+00 -0.13635888957E+04  0.13635888957E+04  0.50400001928E-02 0.  1.
    10030    2    1    2    0    0  0.00000000000E+00  0.00000000000E+00  0.34463675252E+03  0.30718145439E+04  0.30524203676E+04 0.  0.
        3    1    3    3  502    0 -0.29447532008E+03  0.70837556096E+03 -0.11554606988E+04  0.13869394674E+04  0.10100000352E+00 0.  1.
       -3    1    3    3    0  502  0.29447532008E+03 -0.70837556096E+03  0.15000974514E+04  0.16848750765E+04  0.10100000352E+00 0. -1.
</event>
<event>
 5   0  0.4189587E-06  0.3490220E+04  0.7818609E-02  0.8116112E-01
       -2   -1    0    0    0  501  0.00000000000E+00  0.00000000000E+00  0.14073878523E+04  0.14073878523E+04  0.25500000920E-02 0.  1.
        2   -1    0    0  501    0  0.00000000000E+00  0.00000000000E+00 -0.21638726903E+04  0.21638726903E+04  0.25500000920E-02 0. -1.
    10030    2    1    2    0    0  0.00000000000E+00  0.00000000000E+00 -0.75648483802E+03  0.35712605427E+04  0.34902195566E+04 0.  0.
        1    1    3    3  502    0 -0.13203593461E+04 -0.57138833260E+03  0.63240356433E+03  0.15715494576E+04  0.50400001928E-02 0.  1.
       -1    1    3    3    0  502  0.13203593461E+04  0.57138833260E+03 -0.13888884024E+04  0.19997110851E+04  0.50400001928E-02 0. -1.
</event>
<event>
 5   0  0.2722449E-06  0.3466848E+04  0.7818609E-02  0.8121692E-01
       -2   -1    0    0    0  501  0.00000000000E+00  0.00000000000E+00  0.19738251543E+04  0.19738251543E+04  0.25500000920E-02 0.  1.
        2   -1    0    0  501    0  0.00000000000E+00  0.00000000000E+00 -0.15223022918E+04  0.15223022918E+04  0.25500000920E-02 0. -1.
    10030    2    1    2    0    0  0.00000000000E+00  0.00000000000E+00  0.45152286251E+03  0.34961274460E+04  0.34668478801E+04 0.  0.
        2    1    3    3  502    0  0.13762266230E+04 -0.32734797379E+02  0.12880751062E+04  0.18852609273E+04  0.25500000920E-02 0.  1.
       -2    1    3    3    0  502 -0.13762266230E+04  0.32734797379E+02 -0.83655224364E+03  0.16108665187E+04  0.25500000920E-02 0. -1.
</event>
<event>
 5   0  0.4189587E-06  0.1920587E+04  0.7818609E-02  0.8644676E-01
       -2   -1    0    0    0  501  0.00000000000E+00  0.00000000000E+00  0.54941692951E+03  0.54941692951E+03  0.25500000920E-02 0.  1.
        2   -1    0    0  501    0  0.00000000000E+00  0.00000000000E+00 -0.16784400496E+04  0.16784400496E+04  0.25500000920E-02 0. -1.
    10030    2    1    2    0    0  0.00000000000E+00  0.00000000000E+00 -0.11290231201E+04  0.22278569791E+04  0.19205867628E+04 0.  0.
        1    1    3    3  502    0 -0.91951066777E+03  0.12558143234E+03 -0.27826755595E+03  0.96886706880E+03  0.50400001928E-02 0.  1.
       -1    1    3    3    0  502  0.91951066777E+03 -0.12558143234E+03 -0.85075556411E+03  0.12589899103E+04  0.50400001928E-02 0. -1.
</event>
<event>
 5   0  0.1562618E-06  0.3429549E+04  0.7818609E-02  0.8130692E-01
        1   -1    0    0  501    0  0.00000000000E+00  0.00000000000E+00  0.13598474494E+04  0.13598474494E+04  0.50400001928E-02 0.  1.
       -1   -1    0    0    0  501  0.00000000000E+00  0.00000000000E+00 -0.21623394802E+04  0.21623394802E+04  0.50400001928E-02 0. -1.
    10030    2    1    2    0    0  0.00000000000E+00  0.00000000000E+00 -0.80249203079E+03  0.35221869296E+04  0.34295491406E+04 0.  0.
        2    1    3    3  502    0  0.83903180388E+03 -0.91306220951E+03 -0.16176349314E+04  0.20382344658E+04  0.25500000920E-02 0. -1.
       -2    1    3    3    0  502 -0.83903180388E+03  0.91306220951E+03  0.81514290062E+03  0.14839524638E+04  0.25500000920E-02 0.  1.
</event>
<event>
 5   0  0.1562618E-06  0.2196507E+04  0.7818609E-02  0.8519883E-01
       -1   -1    0    0    0  501  0.00000000000E+00  0.00000000000E+00  0.59199069627E+03  0.59199069630E+03  0.50400001928E-02 0.  1.
        1   -1    0    0  501    0  0.00000000000E+00  0.00000000000E+00 -0.20374664028E+04  0.20374664028E+04  0.50400001928E-02 0. -1.
    10030    2    1    2    0    0  0.00000000000E+00  0.00000000000E+00 -0.14454757065E+04  0.26294570991E+04  0.21965073680E+04 0.  0.
        2    1    3    3  502    0  0.64604406479E+03 -0.60764853129E+03 -0.14981383153E+04  0.17409848026E+04  0.25500000920E-02 0. -1.
       -2    1    3    3    0  502 -0.64604406479E+03  0.60764853129E+03  0.52662608763E+02  0.88847229647E+03  0.25500000920E-02 0.  1.
</event>
<event>
 5   0  0.4400349E-06  0.3380508E+04  0.7818609E-02  0.8142707E-01
        2   -1    0    0  501    0  0.00000000000E+00  0.00000000000E+00  0.10618032261E+04  0.10618032261E+04  0.25500000920E-02 0. -1.
       -2   -1    0    0    0  501  0.00000000000E+00  0.00000000000E+00 -0.26906661508E+04  0.26906661508E+04  0.25500000920E-02 0.  1.
    10030    2    1    2    0    0  0.00000000000E+00  0.00000000000E+00 -0.16288629248E+04  0.37524693769E+04  0.33805076537E+04 0.  0.
        5    1    3    3  502    0 -0.45338554469E+03 -0.62325491445E+03  0.85539318424E+03  0.11514012030E+04  0.46999998093E+01 0. -1.
       -5    1    3    3    0  502  0.45338554469E+03  0.62325491445E+03 -0.24842561090E+04  0.26010681740E+04  0.46999998093E+01 0.  1.
</event>
<event>
 5   0  0.1550164E-06  0.3073008E+04  0.7818609E-02  0.8223185E-01
       -1   -1    0    0    0  501  0.00000000000E+00  0.00000000000E+00  0.11634434600E+04  0.11634434600E+04  0.50400001928E-02 0.  1.
        1   -1    0    0  501    0  0.00000000000E+00  0.00000000000E+00 -0.20291870124E+04  0.20291870124E+04  0.50400001928E-02 0. -1.
    10030    2    1    2    0    0  0.00000000000E+00  0.00000000000E+00 -0.86574355234E+03  0.31926304724E+04  0.30730078807E+04 0.  0.
        4    1    3    3  502    0  0.12277772913E+04  0.89047819125E+03 -0.68831738082E+03  0.16655842566E+04  0.12699999809E+01 0. -1.
       -4    1    3    3    0  502 -0.12277772913E+04 -0.89047819125E+03 -0.17742617152E+03  0.15270462158E+04  0.12699999809E+01 0.  1.
</event>
<event>
 5   0  0.4189587E-06  0.3114049E+04  0.7818609E-02  0.8211893E-01
        2   -1    0    0  501    0  0.00000000000E+00  0.00000000000E+00  0.13346917488E+04  0.13346917488E+04  0.25500000920E-02 0. -1.
       -2   -1    0    0    0  501  0.00000000000E+00  0.00000000000E+00 -0.18163936323E+04  0.18163936323E+04  0.25500000920E-02 0.  1.
    10030    2    1    2    0    0  0.00000000000E+00  0.00000000000E+00 -0.48170188349E+03  0.31510853811E+04  0.31140491927E+04 0.  0.
        1    1    3    3  502    0 -0.92111622826E+02  0.74330083215E+03  0.11404278013E+04  0.13643885987E+04  0.50400001928E-02 0. -1.
       -1    1    3    3    0  502  0.92111622826E+02 -0.74330083215E+03 -0.16221296848E+04  0.17866967825E+04  0.50400001928E-02 0.  1.
</event>
<event>
 5   0  0.4400349E-06  0.2172248E+04  0.7818609E-02  0.8530069E-01
       -2   -1    0    0    0  501  0.00000000000E+00  0.00000000000E+00  0.85664628570E+03  0.85664628571E+03  0.25500000920E-02 0.  1.
        2   -1    0    0  501    0  0.00000000000E+00  0.00000000000E+00 -0.13770735413E+04  0.13770735413E+04  0.25500000920E-02 0. -1.
    10030    2    1    2    0    0  0.00000000000E+00  0.00000000000E+00 -0.52042725563E+03  0.22337198270E+04  0.21722476234E+04 0.  0.
        5    1    3    3  502    0  0.26934156040E+03  0.65572402320E+03  0.58594826632E+03  0.91971535356E+03  0.46999998093E+01 0.  1.
       -5    1    3    3    0  502 -0.26934156040E+03 -0.65572402320E+03 -0.11063755220E+04  0.13140044735E+04  0.46999998093E+01 0. -1.
</event>
<event>
 5   0  0.1550164E-06  0.3407374E+04  0.7818609E-02  0.8136099E-01
        1   -1    0    0  501    0  0.00000000000E+00  0.00000000000E+00  0.17377095096E+04  0.17377095096E+04  0.50400001928E-02 0. -1.
       -1   -1    0    0    0  501  0.00000000000E+00  0.00000000000E+00 -0.16703303766E+04  0.16703303766E+04  0.50400001928E-02 0.  1.
    10030    2    1    2    0    0  0.00000000000E+00  0.00000000000E+00  0.67379133027E+02  0.34080398862E+04  0.34073737567E+04 0.  0.
        4    1    3    3  502    0 -0.14057511362E+04 -0.48172048513E+03  0.86713302519E+03  0.17204976545E+04  0.12699999809E+01 0. -1.
       -4    1    3    3    0  502  0.14057511362E+04  0.48172048513E+03 -0.79975389216E+03  0.16875422317E+04  0.12699999809E+01 0.  1.
</event>
<event>
 5   0  0.2101998E-06  0.3354090E+04  0.7818609E-02  0.8149267E-01
        1   -1    0    0  501    0  0.00000000000E+00  0.00000000000E+00  0.14650040518E+04  0.14650040519E+04  0.50400001928E-02 0. -1.
       -1   -1    0    0    0  501  0.00000000000E+00  0.00000000000E+00 -0.19197760248E+04  0.19197760248E+04  0.50400001928E-02 0.  1.
    10030    2    1    2    0    0  0.00000000000E+00  0.00000000000E+00 -0.45477197294E+03  0.33847800766E+04  0.33540898348E+04 0.  0.
        5    1    3    3  502    0  0.14807175081E+03  0.14682387192E+04  0.57665233971E+03  0.15843611302E+04  0.46999998093E+01 0. -1.
       -5    1    3    3    0  502 -0.14807175081E+03 -0.14682387192E+04 -0.10314243126E+04  0.18004189464E+04  0.46999998093E+01 0.  1.
</event>
<event>
 5   0  0.2722449E-06  0.2113713E+04  0.7818609E-02  0.8555226E-01
       -2   -1    0    0    0  501  0.00000000000E+00  0.00000000000E+00  0.16767986167E+04  0.16767986167E+04  0.25500000920E-02 0.  1.
        2   -1    0    0  501    0  0.00000000000E+00  0.00000000000E+00 -0.66611822204E+03  0.66611822205E+03  0.25500000920E-02 0. -1.
    10030    2    1    2    0    0  0.00000000000E+00  0.00000000000E+00  0.10106803946E+04  0.23429168387E+04  0.21137134274E+04 0.  0.
        2    1    3    3  502    0 -0.61485699841E+03 -0.26391136838E+02 -0.44701275569E+03  0.76063527683E+03  0.25500000920E-02 0. -1.
       -2    1    3    3    0  502  0.61485699841E+03  0.26391136838E+02  0.14576931503E+04  0.15822815619E+04  0.25500000920E-02 0.  1.
</event>
<event>
 5   0  0.1654257E-06  0.3350287E+04  0.7818609E-02  0.8150216E-01
        1   -1    0    0  501    0  0.00000000000E+00  0.00000000000E+00  0.10172745809E+04  0.10172745809E+04  0.50400001928E-02 0.  1.
       -1   -1    0    0    0  501  0.00000000000E+00  0.00000000000E+00 -0.27584544296E+04  0.27584544296E+04  0.50400001928E-02 0. -1.
    10030    2    1    2    0    0  0.00000000000E+00  0.00000000000E+00 -0.17411798486E+04  0.37757290105E+04  0.33502868975E+04 0.  0.
        3    1    3    3  502    0 -0.11876565504E+04 -0.13439528416E+03  0.45212741798E+03  0.12778925567E+04  0.10100000352E+00 0.  1.
       -3    1    3    3    0  502  0.11876565504E+04  0.13439528416E+03 -0.21933072666E+04  0.24978364538E+04  0.10100000352E+00 0. -1.
</event>
<event>
 5   0  0.2722449E-06  0.3346019E+04  0.7818609E-02  0.8151284E-01
       -2   -1    0    0    0  501  0.00000000000E+00  0.00000000000E+00  0.16654684552E+04  0.16654684552E+04  0.25500000920E-02 0. -1.
        2   -1    0    0  501    0  0.00000000000E+00  0.00000000000E+00 -0.16805846369E+04  0.16805846369E+04  0.25500000920E-02 0.  1.
    10030    2    1    2    0    0  0.00000000000E+00  0.00000000000E+00 -0.15116181745E+02  0.33460530921E+04  0.33460189474E+04 0.  0.
        2    1    3    3  502    0 -0.18198007622E+02 -0.11123663508E+04  0.12419628164E+04  0.16673816909E+04  0.25500000920E-02 0. -1.
       -2    1    3    3    0  502  0.18198007622E+02  0.11123663508E+04 -0.12570789981E+04  0.16786714012E+04  0.25500000920E-02 0.  1.
</event>
<event>
 5   0  0.1562618E-06  0.1834683E+04  0.7818609E-02  0.8688070E-01
       -1   -1    0    0    0  501  0.00000000000E+00  0.00000000000E+00  0.33790774442E+03  0.33790774445E+03  0.50400001928E-02 0.  1.
        1   -1    0    0  501    0  0.00000000000E+00  0.00000000000E+00 -0.24903709073E+04  0.24903709073E+04  0.50400001928E-02 0. -1.
    10030    2    1    2    0    0  0.00000000000E+00  0.00000000000E+00 -0.21524631629E+04  0.28282786518E+04  0.18346832055E+04 0.  0.
        2    1    3    3  502    0 -0.78191104575E+03 -0.82559858032E+02 -0.18047150003E+04  0.19685520684E+04  0.25500000920E-02 0. -1.
       -2    1    3    3    0  502  0.78191104575E+03  0.82559858032E+02 -0.34774816262E+03  0.85972658342E+03  0.25500000920E-02 0.  1.
</event>
<event>
 5   0  0.1550164E-06  0.3382660E+04  0.7818609E-02  0.8142175E-01
        1   -1    0    0  501    0  0.00000000000E+00  0.00000000000E+00  0.17722108380E+04  0.17722108380E+04  0.50400001928E-02 0.  1.
       -1   -1    0    0    0  501  0.00000000000E+00  0.00000000000E+00 -0.16141401140E+04  0.16141401140E+04  0.50400001928E-02 0. -1.
    10030    2    1    2    0    0  0.00000000000E+00  0.00000000000E+00  0.15807072400E+03  0.33863509520E+04  0.33826596661E+04 0.  0.
        4    1    3    3  502    0  0.20098514013E+03 -0.10172092439E+04 -0.12586433076E+04  0.16307342705E+04  0.12699999809E+01 0. -1.
       -4    1    3    3    0  502 -0.20098514013E+03  0.10172092439E+04  0.14167140316E+04  0.17556166815E+04  0.12699999809E+01 0.  1.
</event>
<event>
 5   0  0.2722449E-06  0.3327606E+04  0.7818609E-02  0.8155906E-01
       -2   -1    0    0    0  501  0.00000000000E+00  0.00000000000E+00  0.12259324741E+04  0.12259324741E+04  0.25500000920E-02 0.  1.
        2   -1    0    0  501    0  0.00000000000E+00  0.00000000000E+00 -0.22580691104E+04  0.22580691104E+04  0.25500000920E-02 0. -1.
    10030    2    1    2    0    0  0.00000000000E+00  0.00000000000E+00 -0.10321366363E+04  0.34840015845E+04  0.33276058969E+04 0.  0.
        2    1    3    3  502    0  0.11081681727E+04 -0.75208332106E+03  0.51753506086E+03  0.14357954450E+04  0.25500000920E-02 0.  1.
       -2    1    3    3    0  502 -0.11081681727E+04  0.75208332106E+03 -0.15496716971E+04  0.20482061395E+04  0.25500000920E-02 0. -1.
</event>
<event>
 5   0  0.4173467E-06  0.3411025E+04  0.7818609E-02  0.8135206E-01
       -2   -1    0    0    0  501  0.00000000000E+00  0.00000000000E+00  0.12336983121E+04  0.12336983121E+04  0.25500000920E-02 0. -1.
        2   -1    0    0  501    0  0.00000000000E+00  0.00000000000E+00 -0.23577673561E+04  0.23577673561E+04  0.25500000920E-02 0.  1.
    10030    2    1    2    0    0  0.00000000000E+00  0.00000000000E+00 -0.11240690439E+04  0.35914656682E+04  0.34110254221E+04 0.  0.
        4    1    3    3  502    0 -0.82377361610E+03  0.76431720439E+03 -0.19128627469E+04  0.22185196102E+04  0.12699999809E+01 0.  1.
       -4    1    3    3    0  502  0.82377361610E+03 -0.76431720439E+03  0.78879370295E+03  0.13729460580E+04  0.12699999809E+01 0. -1.
</event>
<event>
 5   0  0.4400349E-06  0.2425362E+04  0.7818609E-02  0.8430069E-01
       -2   -1    0    0    0  501  0.00000000000E+00  0.00000000000E+00  0.81627821482E+03  0.81627821483E+03  0.25500000920E-02 0. -1.
        2   -1    0    0  501    0  0.00000000000E+00  0.00000000000E+00 -0.18015863105E+04  0.18015863106E+04  0.25500000920E-02 0.  1.
    10030    2    1    2    0    0  0.00000000000E+00  0.00000000000E+00 -0.98530809573E+03  0.26178645254E+04  0.24253623708E+04 0.  0.
        5    1    3    3  502    0 -0.60932265857E+03 -0.54706037166E+03  0.47277898242E+03  0.94556396330E+03  0.46999998093E+01 0. -1.
       -5    1    3    3    0  502  0.60932265857E+03  0.54706037166E+03 -0.14580870781E+04  0.16723005621E+04  0.46999998093E+01 0.  1.
</event>
<event>
 5   0  0.1571391E-06  0.1907740E+04  0.7818609E-02  0.8651013E-01
        1   -1    0    0  501    0  0.00000000000E+00  0.00000000000E+00  0.13869838536E+04  0.13869838536E+04  0.50400001928E-02 0. -1.
       -1   -1    0    0    0  501  0.00000000000E+00  0.00000000000E+00 -0.65600456264E+03  0.65600456266E+03  0.50400001928E-02 0.  1.
    10030    2    1    2    0    0  0.00000000000E+00  0.00000000000E+00  0.73097929098E+03  0.20429884163E+04  0.19077397478E+04 0.  0.
        1    1    3    3  502    0  0.89699656165E+03  0.31388228349E+03  0.45342579706E+03  0.10529576786E+04  0.50400001928E-02 0. -1.
       -1    1    3    3    0  502 -0.89699656165E+03 -0.31388228349E+03  0.27755349392E+03  0.99003073766E+03  0.50400001928E-02 0.  1.
</event>
<event>
 5   0  0.1550164E-06  0.2015319E+04  0.7818609E-02  0.8599492E-01
        1   -1    0    0  501    0  0.00000000000E+00  0.00000000000E+00  0.10167745867E+04  0.10167745868E+04  0.50400001928E-02 0.  1.
       -1   -1    0    0    0  501  0.00000000000E+00  0.00000000000E+00 -0.99862579136E+03  0.99862579137E+03  0.50400001928E-02 0. -1.
    10030    2    1    2    0    0  0.00000000000E+00  0.00000000000E+00  0.18148795391E+02  0.20154003781E+04  0.20153186610E+04 0.  0.
        4    1    3    3  502    0  0.69762985249E+03 -0.16021978035E+03  0.71834072137E+03  0.10140871728E+04  0.12699999809E+01 0.  1.
       -4    1    3    3    0  502 -0.69762985249E+03  0.16021978035E+03 -0.70019192598E+03  0.10013132054E+04  0.12699999809E+01 0. -1.
</event>
<event>
 5   0  0.2722449E-06  0.3234580E+04  0.7818609E-02  0.8179744E-01
       -2   -1    0    0    0  501  0.00000000000E+00  0.00000000000E+00  0.14615517485E+04  0.14615517485E+04  0.25500000920E-02 0. -1.
        2   -1    0    0  501    0  0.00000000000E+00  0.00000000000E+00 -0.17896231953E+04  0.17896231953E+04  0.25500000920E-02 0.  1.
    10030    2    1    2    0    0  0.00000000000E+00  0.00000000000E+00 -0.32807144676E+03  0.32511749437E+04  0.32345799790E+04 0.  0.
        2    1    3    3  502    0  0.96203200298E+03 -0.92938514854E+03  0.74967409656E+03  0.15333863114E+04  0.25500000920E-02 0. -1.
       -2    1    3    3    0  502 -0.96203200298E+03  0.92938514854E+03 -0.10777455433E+04  0.17177886323E+04  0.25500000920E-02 0.  1.
</event>
<event>
 5   0  0.1654257E-06  0.3329865E+04  0.7818609E-02  0.8155337E-01
        1   -1    0    0  501    0  0.00000000000E+00  0.00000000000E+00  0.21452963735E+04  0.21452963735E+04  0.50400001928E-02 0.  1.
       -1   -1    0    0    0  501  0.00000000000E+00  0.00000000000E+00 -0.12921295389E+04  0.12921295389E+04  0.50400001928E-02 0. -1.
    10030    2    1    2    0    0  0.00000000000E+00  0.00000000000E+00  0.85316683462E+03  0.34374259123E+04  0.33298653509E+04 0.  0.
        3    1    3    3  502    0  0.36076102303E+02  0.12096560319E+04  0.16069479823E+04  0.20116786594E+04  0.10100000352E+00 0.  1.
       -3    1    3    3    0  502 -0.36076102303E+02 -0.12096560319E+04 -0.75378114763E+03  0.14257472530E+04  0.10100000352E+00 0. -1.
</event>
<event>
 5   0  0.1571391E-06  0.3433792E+04  0.7818609E-02  0.8129662E-01
       -1   -1    0    0    0  501  0.00000000000E+00  0.00000000000E+00  0.11768967045E+04  0.11768967045E+04  0.50400001928E-02 0. -1.
        1   -1    0    0  501    0  0.00000000000E+00  0.00000000000E+00 -0.25046648713E+04  0.25046648713E+04  0.50400001928E-02 0.  1.
    10030    2    1    2    0    0  0.00000000000E+00  0.00000000000E+00 -0.13277681668E+04  0.36815615758E+04  0.34337919756E+04 0.  0.
        1    1    3    3  502    0 -0.99016292584E+03  0.14012951268E+04 -0.72893473748E+03  0.18642415357E+04  0.50400001928E-02 0.  1.
       -1    1    3    3    0  502  0.99016292584E+03 -0.14012951268E+04 -0.59883342936E+03  0.18173200401E+04  0.50400001928E-02 0. -1.
</event>
<event>
 5   0  0.1571391E-06  0.3056866E+04  0.7818609E-02  0.8227676E-01
        1   -1    0    0  501    0  0.00000000000E+00  0.00000000000E+00  0.98312310393E+03  0.98312310394E+03  0.50400001928E-02 0. -1.
       -1   -1    0    0    0  501  0.00000000000E+00  0.00000000000E+00 -0.23762104827E+04  0.23762104827E+04  0.50400001928E-02 0.  1.
    10030    2    1    2    0    0  0.00000000000E+00  0.00000000000E+00 -0.13930873788E+04  0.33593335866E+04  0.30568659934E+04 0.  0.
        1    1    3    3  502    0 -0.14076083664E+04 -0.55950887409E+03 -0.92094406267E+03  0.17727237404E+04  0.50400001928E-02 0.  1.
       -1    1    3    3    0  502  0.14076083664E+04  0.55950887409E+03 -0.47214331610E+03  0.15866098462E+04  0.50400001928E-02 0. -1.
</event>
<event>
 5   0  0.4173467E-06  0.3168236E+04  0.7818609E-02  0.8197257E-01
       -2   -1    0    0    0  501  0.00000000000E+00  0.00000000000E+00  0.14466544449E+04  0.14466544449E+04  0.25500000920E-02 0. -1.
        2   -1    0    0  501    0  0.00000000000E+00  0.00000000000E+00 -0.17346431783E+04  0.17346431783E+04  0.25500000920E-02 0.  1.
    10030    2    1    2    0    0  0.00000000000E+00  0.00000000000E+00 -0.28798873338E+03  0.31812976232E+04  0.31682356378E+04 0.  0.
        4    1    3    3  502    0 -0.64190526723E+03 -0.11825193080E+04  0.69553478070E+03  0.15146499695E+04  0.12699999809E+01 0. -1.
       -4    1    3    3    0  502  0.64190526723E+03  0.11825193080E+04 -0.98352351408E+03  0.16666476537E+04  0.12699999809E+01 0.  1.
</event>
<event>
 5   0  0.4189587E-06  0.3346089E+04  0.7818609E-02  0.8151266E-01
       -2   -1    0    0    0  501  0.00000000000E+00  0.00000000000E+00  0.18226075666E+04  0.18226075666E+04  0.25500000920E-02 0. -1.
        2   -1    0    0  501    0  0.00000000000E+00  0.00000000000E+00 -0.15357543754E+04  0.15357543754E+04  0.25500000920E-02 0.  1.
    10030    2    1    2    0    0  0.00000000000E+00  0.00000000000E+00  0.28685319122E+03  0.33583619420E+04  0.33460887885E+04 0.  0.
        1    1    3    3  502    0  0.81380678808E+03  0.57104372831E+03 -0.12071334680E+04  0.15638234036E+04  0.50400001928E-02 0.  1.
       -1    1    3    3    0  502 -0.81380678808E+03 -0.57104372831E+03  0.14939866592E+04  0.17945385384E+04  0.50400001928E-02 0. -1.
</event>
<event>
 5   0  0.4400349E-06  0.3126141E+04  0.7818609E-02  0.8208600E-01
       -2   -1    0    0    0  501  0.00000000000E+00  0.00000000000E+00  0.10051894624E+04  0.10051894624E+04  0.25500000920E-02 0.  1.
        2   -1    0    0  501    0  0.00000000000E+00  0.00000000000E+00 -0.24305762903E+04  0.24305762903E+04  0.25500000920E-02 0. -1.
    10030    2    1    2    0    0  0.00000000000E+00  0.00000000000E+00 -0.14253868279E+04  0.34357657527E+04  0.31261411833E+04 0.  0.
        5    1    3    3  502    0  0.10936588332E+04  0.10725685140E+04 -0.10544142255E+04  0.18596516634E+04  0.46999998093E+01 0. -1.
       -5    1    3    3    0  502 -0.10936588332E+04 -0.10725685140E+04 -0.37097260246E+03  0.15761140892E+04  0.46999998093E+01 0.  1.
</event>
<event>
 5   0  0.4189587E-06  0.3334147E+04  0.7818609E-02  0.8154261E-01
        2   -1    0    0  501    0  0.00000000000E+00  0.00000000000E+00  0.12343251746E+04  0.12343251746E+04  0.25500000920E-02 0.  1.
       -2   -1    0    0    0  501  0.00000000000E+00  0.00000000000E+00 -0.22515407178E+04  0.22515407178E+04  0.25500000920E-02 0. -1.
    10030    2    1    2    0    0  0.00000000000E+00  0.00000000000E+00 -0.10172155432E+04  0.34858658924E+04  0.33341466012E+04 0.  0.
        1    1    3    3  502    0  0.39884031631E+03  0.15804756684E+04 -0.87402093714E+03  0.18495646880E+04  0.50400001928E-02 0.  1.
       -1    1    3    3    0  502 -0.39884031631E+03 -0.15804756684E+04 -0.14319460611E+03  0.16363012044E+04  0.50400001928E-02 0. -1.
</event>
<event>
 5   0  0.1654257E-06  0.3356321E+04  0.7818609E-02  0.8148711E-01
        1   -1    0    0  501    0  0.00000000000E+00  0.00000000000E+00  0.14973438940E+04  0.14973438940E+04  0.50400001928E-02 0. -1.
       -1   -1    0    0    0  501  0.00000000000E+00  0.00000000000E+00 -0.18808121703E+04  0.18808121703E+04  0.50400001928E-02 0.  1.
    10030    2    1    2    0    0  0.00000000000E+00  0.00000000000E+00 -0.38346827634E+03  0.33781560643E+04  0.33563209733E+04 0.  0.
        3    1    3    3  502    0  0.13106307677E+04 -0.19966512259E+03  0.84384399760E+03  0.15715253332E+04  0.10100000352E+00 0. -1.
       -3    1    3    3    0  502 -0.13106307677E+04  0.19966512259E+03 -0.12273122739E+04  0.18066307311E+04  0.10100000352E+00 0.  1.
</event>
<event>
 5   0  0.4400349E-06  0.3348972E+04  0.7818609E-02  0.8150545E-01
        2   -1    0    0  501    0  0.00000000000E+00  0.00000000000E+00  0.17909160423E+04  0.17909160423E+04  0.25500000920E-02 0.  1.
       -2   -1    0    0    0  501  0.00000000000E+00  0.00000000000E+00 -0.15656252149E+04  0.15656252149E+04  0.25500000920E-02 0. -1.
    10030    2    1    2    0    0  0.00000000000E+00  0.00000000000E+00  0.22529082739E+03  0.33565412572E+04  0.33489719698E+04 0.  0.
        5    1    3    3  502    0  0.30917391802E+03  0.91699479121E+03  0.14822673300E+04  0.17701995611E+04  0.46999998093E+01 0.  1.
       -5    1    3    3    0  502 -0.30917391802E+03 -0.91699479121E+03 -0.12569765026E+04  0.15863416961E+04  0.46999998093E+01 0. -1.
</event>
<event>
 5   0  0.2722449E-06  0.3248260E+04  0.7818609E-02  0.8176187E-01
       -2   -1    0    0    0  501  0.00000000000E+00  0.00000000000E+00  0.29676938410E+04  0.29676938410E+04  0.25500000920E-02 0. -1.
        2   -1    0    0  501    0  0.00000000000E+00  0.00000000000E+00 -0.88883760142E+03  0.88883760143E+03  0.25500000920E-02 0.  1.
    10030    2    1    2    0    0  0.00000000000E+00  0.00000000000E+00  0.20788562396E+04  0.38565314424E+04  0.32482597651E+04 0.  0.
        2    1    3    3  502    0 -0.86225746506E+03  0.72579539491E+03  0.24278284595E+04  0.26766803918E+04  0.25500000920E-02 0. -1.
       -2    1    3    3    0  502  0.86225746506E+03 -0.72579539491E+03 -0.34897221991E+03  0.11798510506E+04  0.25500000920E-02 0.  1.
</event>
<event>
 5   0  0.4344980E-06  0.3441251E+04  0.7818609E-02  0.8127856E-01
        2   -1    0    0  501    0  0.00000000000E+00  0.00000000000E+00  0.17010737406E+04  0.17010737406E+04  0.25500000920E-02 0.  1.
       -2   -1    0    0    0  501  0.00000000000E+00  0.00000000000E+00 -0.17404018374E+04  0.17404018374E+04  0.25500000920E-02 0. -1.
    10030    2    1    2    0    0  0.00000000000E+00  0.00000000000E+00 -0.39328096859E+02  0.34414755780E+04  0.34412508561E+04 0.  0.
        3    1    3    3  502    0  0.31582188866E+03 -0.55985185067E+03  0.15764897673E+04  0.17024974469E+04  0.10100000352E+00 0.  1.
       -3    1    3    3    0  502 -0.31582188866E+03  0.55985185067E+03 -0.16158178642E+04  0.17389781311E+04  0.10100000352E+00 0. -1.
</event>
<event>
 5   0  0.1550164E-06  0.2438200E+04  0.7818609E-02  0.8425339E-01
        1   -1    0    0  501    0  0.00000000000E+00  0.00000000000E+00  0.18592270360E+04  0.18592270360E+04  0.50400001928E-02 0.  1.
       -1   -1    0    0    0  501  0.00000000000E+00  0.00000000000E+00 -0.79936711463E+03  0.79936711465E+03  0.50400001928E-02 0. -1.
    10030    2    1    2    0    0  0.00000000000E+00  0.00000000000E+00  0.10598599213E+04  0.26585941506E+04  0.24382001158E+04 0.  0.
        4    1    3    3  502    0  0.66132385394E+02  0.45847766332E+03 -0.69966691709E+03  0.83911302453E+03  0.12699999809E+01 0. -1.
       -4    1    3    3    0  502 -0.66132385394E+02 -0.45847766332E+03  0.17595268384E+04  0.18194811261E+04  0.12699999809E+01 0.  1.
</event>
<event>
 5   0  0.2722449E-06  0.3365410E+04  0.7818609E-02  0.8146448E-01
       -2   -1    0    0    0  501  0.00000000000E+00  0.00000000000E+00  0.11161418022E+04  0.11161418022E+04  0.25500000920E-02 0. -1.
        2   -1    0    0  501    0  0.00000000000E+00  0.00000000000E+00 -0.25368609085E+04  0.25368609085E+04  0.25500000920E-02 0.  1.
    10030    2    1    2    0    0  0.00000000000E+00  0.00000000000E+00 -0.14207191063E+04  0.36530027106E+04  0.33654102313E+04 0.  0.
        2    1    3    3  502    0  0.10307568865E+04 -0.48214792852E+02 -0.21531221444E+04  0.23876179330E+04  0.25500000920E-02 0.  1.
       -2    1    3    3    0  502 -0.10307568865E+04  0.48214792852E+02  0.73240303809E+03  0.12653847776E+04  0.25500000920E-02 0. -1.
</event>
<event>
 5   0  0.2101998E-06  0.3385404E+04  0.7818609E-02  0.8141498E-01
       -1   -1    0    0    0  501  0.00000000000E+00  0.00000000000E+00  0.14401953494E+04  0.14401953494E+04  0.50400001928E-02 0. -1.
        1   -1    0    0  501    0  0.00000000000E+00  0.00000000000E+00 -0.19894800468E+04  0.19894800468E+04  0.50400001928E-02 0.  1.
    10030    2    1    2    0    0  0.00000000000E+00  0.00000000000E+00 -0.54928469740E+03  0.34296753962E+04  0.33854039116E+04 0.  0.
        5    1    3    3  502    0 -0.34934487610E+03 -0.14574415594E+04  0.52243764810E+03  0.15871801812E+04  0.46999998093E+01 0. -1.
       -5    1    3    3    0  502  0.34934487610E+03  0.14574415594E+04 -0.10717223455E+04  0.18424952150E+04  0.46999998093E+01 0.  1.
</event>
<event>
 5   0  0.1654257E-06  0.2044127E+04  0.7818609E-02  0.8586263E-01
        1   -1    0    0  501    0  0.00000000000E+00  0.00000000000E+00  0.17899610409E+04  0.17899610409E+04  0.50400001928E-02 0. -1.
       -1   -1    0    0    0  501  0.00000000000E+00  0.00000000000E+00 -0.58359598184E+03  0.58359598187E+03  0.50400001928E-02 0.  1.
    10030    2    1    2    0    0  0.00000000000E+00  0.00000000000E+00  0.12063650591E+04  0.23735570228E+04  0.20441272672E+04 0.  0.
        3    1    3    3  502    0  0.41870999951E+03 -0.43391589947E+03  0.15614118072E+04  0.16738004401E+04  0.10100000352E+00 0. -1.
       -3    1    3    3    0  502 -0.41870999951E+03  0.43391589947E+03 -0.35504674809E+03  0.69975658270E+03  0.10100000352E+00 0.  1.
</event>
<event>
 5   0  0.2722449E-06  0.3235179E+04  0.7818609E-02  0.8179588E-01
       -2   -1    0    0    0  501  0.00000000000E+00  0.00000000000E+00  0.84902116010E+03  0.84902116010E+03  0.25500000920E-02 0.  1.
        2   -1    0    0  501    0  0.00000000000E+00  0.00000000000E+00 -0.30818962525E+04  0.30818962525E+04  0.25500000920E-02 0. -1.
    10030    2    1    2    0    0  0.00000000000E+00  0.00000000000E+00 -0.22328750924E+04  0.39309174126E+04  0.32351785927E+04 0.  0.
        2    1    3    3  502    0 -0.76878389049E+03  0.60891447659E+03  0.44659151748E+03  0.10776128681E+04  0.25500000920E-02 0.  1.
       -2    1    3    3    0  502  0.76878389049E+03 -0.60891447659E+03 -0.26794666099E+04  0.28533045445E+04  0.25500000920E-02 0. -1.
</event>
<event>
 5   0  0.1654257E-06  0.3413105E+04  0.7818609E-02  0.8134697E-01
        1   -1    0    0  501    0  0.00000000000E+00  0.00000000000E+00  0.19294399787E+04  0.19294399787E+04  0.50400001928E-02 0. -1.
       -1   -1    0    0    0  501  0.00000000000E+00  0.00000000000E+00 -0.15094130945E+04  0.15094130945E+04  0.50400001928E-02 0.  1.
    10030    2    1    2    0    0  0.00000000000E+00  0.00000000000E+00  0.42002688420E+03  0.34388530732E+04  0.34131053127E+04 0.  0.
        3    1    3    3  502    0  0.44516272793E+03  0.13639822106E+04 -0.72091811235E+03  0.16057211028E+04  0.10100000352E+00 0.  1.
       -3    1    3    3    0  502 -0.44516272793E+03 -0.13639822106E+04  0.11409449966E+04  0.18331319703E+04  0.10100000352E+00 0. -1.
</event>
<event>
 5   0  0.1550164E-06  0.1922034E+04  0.7818609E-02  0.8643966E-01
        1   -1    0    0  501    0  0.00000000000E+00  0.00000000000E+00  0.14242254756E+04  0.14242254756E+04  0.50400001928E-02 0. -1.
       -1   -1    0    0    0  501  0.00000000000E+00  0.00000000000E+00 -0.64846026542E+03  0.64846026544E+03  0.50400001928E-02 0.  1.
    10030    2    1    2    0    0  0.00000000000E+00  0.00000000000E+00  0.77576521015E+03  0.20726857410E+04  0.19220339538E+04 0.  0.
        4    1    3    3  502    0  0.83650891706E+01  0.83805797763E+03  0.89499813386E+03  0.12261461663E+04  0.12699999809E+01 0. -1.
       -4    1    3    3    0  502 -0.83650891706E+01 -0.83805797763E+03 -0.11923292371E+03  0.84653957473E+03  0.12699999809E+01 0.  1.
</event>
<event>
 5   0  0.1654257E-06  0.2418208E+04  0.7818609E-02  0.8432718E-01
       -1   -1    0    0    0  501  0.00000000000E+00  0.00000000000E+00  0.80627082896E+03  0.80627082897E+03  0.50400001928E-02 0.  1.
        1   -1    0    0  501    0  0.00000000000E+00  0.00000000000E+00 -0.18132027516E+04  0.18132027516E+04  0.50400001928E-02 0. -1.
    10030    2    1    2    0    0  0.00000000000E+00  0.00000000000E+00 -0.10069319226E+04  0.26194735806E+04  0.24182080023E+04 0.  0.
        3    1    3    3  502    0  0.44307226506E+03 -0.91073049308E+03  0.21194885213E+03  0.10347296213E+04  0.10100000352E+00 0. -1.
       -3    1    3    3    0  502 -0.44307226506E+03  0.91073049308E+03 -0.12188807748E+04  0.15847439593E+04  0.10100000352E+00 0.  1.
</event>
<event>
 5   0  0.4344980E-06  0.3585133E+04  0.7818609E-02  0.8093906E-01
       -2   -1    0    0    0  501  0.00000000000E+00  0.00000000000E+00  0.11749262266E+04  0.11749262266E+04  0.25500000920E-02 0.  1.
        2   -1    0    0  501    0  0.00000000000E+00  0.00000000000E+00 -0.27348907319E+04  0.27348907319E+04  0.25500000920E-02 0. -1.
    10030    2    1    2    0    0  0.00000000000E+00  0.00000000000E+00 -0.15599645053E+04  0.39098169585E+04  0.35851331065E+04 0.  0.
        3    1    3    3  502    0  0.80930420100E+03  0.17201760682E+03 -0.25141955023E+04  0.26468362965E+04  0.10100000352E+00 0. -1.
       -3    1    3    3    0  502 -0.80930420100E+03 -0.17201760682E+03  0.95423099695E+03  0.12629806620E+04  0.10100000352E+00 0.  1.
</event>
<event>
 5   0  0.1550164E-06  0.3776279E+04  0.7818609E-02  0.8051265E-01
        1   -1    0    0  501    0  0.00000000000E+00  0.00000000000E+00  0.16143694181E+04  0.16143694181E+04  0.50400001928E-02 0.  1.
       -1   -1    0    0    0  501  0.00000000000E+00  0.00000000000E+00 -0.22083363455E+04  0.22083363455E+04  0.50400001928E-02 0. -1.
    10030    2    1    2    0    0  0.00000000000E+00  0.00000000000E+00 -0.59396692744E+03  0.38227057636E+04  0.37762789415E+04 0.  0.
        4    1    3    3  502    0 -0.11586283042E+04 -0.59951676481E+02  0.12109801658E+04  0.16770475025E+04  0.12699999809E+01 0.  1.
       -4    1    3    3    0  502  0.11586283042E+04  0.59951676481E+02 -0.18049470933E+04  0.21456582610E+04  0.12699999809E+01 0. -1.
</event>
<event>
 5   0  0.2101998E-06  0.3327189E+04  0.7818609E-02  0.8156011E-01
       -1   -1    0    0    0  501  0.00000000000E+00  0.00000000000E+00  0.12991093046E+04  0.12991093046E+04  0.50400001928E-02 0. -1.
        1   -1    0    0  501    0  0.00000000000E+00  0.00000000000E+00 -0.21303418533E+04  0.21303418533E+04  0.50400001928E-02 0.  1.
    10030    2    1    2    0    0  0.00000000000E+00  0.00000000000E+00 -0.83123254865E+03  0.34294511579E+04  0.33271891582E+04 0.  0.
        5    1    3    3  502    0  0.78216094264E+03 -0.13586521768E+04  0.15810003766E+03  0.15756678551E+04  0.46999998093E+01 0.  1.
       -5    1    3    3    0  502 -0.78216094264E+03  0.13586521768E+04 -0.98933258631E+03  0.18537833029E+04  0.46999998093E+01 0. -1.
</event>
<event>
 5   0  0.4400349E-06  0.1988932E+04  0.7818609E-02  0.8611813E-01
        2   -1    0    0  501    0  0.00000000000E+00  0.00000000000E+00  0.78604338654E+03  0.78604338654E+03  0.25500000920E-02 0.  1.
       -2   -1    0    0    0  501  0.00000000000E+00  0.00000000000E+00 -0.12581526990E+04  0.12581526990E+04  0.25500000920E-02 0. -1.
    10030    2    1    2    0    0  0.00000000000E+00  0.00000000000E+00 -0.47210931244E+03  0.20441960855E+04  0.19889319830E+04 0.  0.
        5    1    3    3  502    0 -0.46376411294E+03  0.87155363057E+03 -0.11333154259E+03  0.99375500600E+03  0.46999998093E+01 0. -1.
       -5    1    3    3    0  502  0.46376411294E+03 -0.87155363057E+03 -0.35877776984E+03  0.10504410795E+04  0.46999998093E+01 0.  1.
</event>
<event>
 5   0  0.2101998E-06  0.3353541E+04  0.7818609E-02  0.8149404E-01
        1   -1    0    0  501    0  0.00000000000E+00  0.00000000000E+00  0.15951315754E+04  0.15951315754E+04  0.50400001928E-02 0.  1.
       -1   -1    0    0    0  501  0.00000000000E+00  0.00000000000E+00 -0.17625878632E+04  0.17625878632E+04  0.50400001928E-02 0. -1.
    10030    2    1    2    0    0  0.00000000000E+00  0.00000000000E+00 -0.16745628778E+03  0.33577194386E+04  0.33535411463E+04 0.  0.
        5    1    3    3  502    0 -0.10849246538E+04 -0.71297448068E+03  0.97879305598E+03  0.16258696291E+04  0.46999998093E+01 0.  1.
       -5    1    3    3    0  502  0.10849246538E+04  0.71297448068E+03 -0.11462493438E+04  0.17318498095E+04  0.46999998093E+01 0. -1.
</event>
<event>
 5   0  0.4173467E-06  0.3310294E+04  0.7818609E-02  0.8160281E-01
       -2   -1    0    0    0  501  0.00000000000E+00  0.00000000000E+00  0.13093813245E+04  0.13093813245E+04  0.25500000920E-02 0.  1.
        2   -1    0    0  501    0  0.00000000000E+00  0.00000000000E+00 -0.20922187811E+04  0.20922187811E+04  0.25500000920E-02 0. -1.
    10030    2    1    2    0    0  0.00000000000E+00  0.00000000000E+00 -0.78283745655E+03  0.34016001056E+04  0.33102943668E+04 0.  0.
        4    1    3    3  502    0  0.98847955247E+03  0.10697594893E+04 -0.11992536303E+04  0.18867135642E+04  0.12699999809E+01 0. -1.
       -4    1    3    3    0  502 -0.98847955247E+03 -0.10697594893E+04  0.41641617375E+03  0.15148865414E+04  0.12699999809E+01 0.  1.
</event>
<event>
 5   0  0.1562618E-06  0.2369291E+04  0.7818609E-02  0.8451091E-01
        1   -1    0    0  501    0  0.00000000000E+00  0.00000000000E+00  0.71697164594E+03  0.71697164595E+03  0.50400001928E-02 0. -1.
       -1   -1    0    0    0  501  0.00000000000E+00  0.00000000000E+00 -0.19573791781E+04  0.19573791781E+04  0.50400001928E-02 0.  1.
    10030    2    1    2    0    0  0.00000000000E+00  0.00000000000E+00 -0.12404075322E+04  0.26743508241E+04  0.23692913464E+04 0.  0.
        2    1    3    3  502    0  0.53826522685E+03  0.58938266427E+02 -0.18095191568E+04  0.18887992886E+04  0.25500000920E-02 0.  1.
       -2    1    3    3    0  502 -0.53826522685E+03 -0.58938266427E+02  0.56911162461E+03  0.78555153552E+03  0.25500000920E-02 0. -1.
</event>
<event>
 5   0  0.4400349E-06  0.2778774E+04  0.7818609E-02  0.8309889E-01
        2   -1    0    0  501    0  0.00000000000E+00  0.00000000000E+00  0.13948448470E+04  0.13948448470E+04  0.25500000920E-02 0. -1.
       -2   -1    0    0    0  501  0.00000000000E+00  0.00000000000E+00 -0.13839503802E+04  0.13839503802E+04  0.25500000920E-02 0.  1.
    10030    2    1    2    0    0  0.00000000000E+00  0.00000000000E+00  0.10894466819E+02  0.27787952272E+04  0.27787738708E+04 0.  0.
        5    1    3    3  502    0 -0.10907307749E+04 -0.28944624504E+02  0.86559485093E+03  0.13927698843E+04  0.46999998093E+01 0. -1.
       -5    1    3    3    0  502  0.10907307749E+04  0.28944624504E+02 -0.85470038411E+03  0.13860253429E+04  0.46999998093E+01 0.  1.
</event>
<event>
 5   0  0.1571391E-06  0.3506344E+04  0.7818609E-02  0.8112288E-01
        1   -1    0    0  501    0  0.00000000000E+00  0.00000000000E+00  0.20917821125E+04  0.20917821125E+04  0.50400001928E-02 0.  1.
       -1   -1    0    0    0  501  0.00000000000E+00  0.00000000000E+00 -0.14693751518E+04  0.14693751518E+04  0.50400001928E-02 0. -1.
    10030    2    1    2    0    0  0.00000000000E+00  0.00000000000E+00  0.62240696069E+03  0.35611572642E+04  0.35063443407E+04 0.  0.
        1    1    3    3  502    0 -0.73674662687E+03 -0.24522642903E+03  0.19076152929E+04  0.20595940618E+04  0.50400001928E-02 0.  1.
       -1    1    3    3    0  502  0.73674662687E+03  0.24522642903E+03 -0.12852083322E+04  0.15015632024E+04  0.50400001928E-02 0. -1.
</event>
<event>
 5   0  0.4189587E-06  0.1997744E+04  0.7818609E-02  0.8607676E-01
       -2   -1    0    0    0  501  0.00000000000E+00  0.00000000000E+00  0.34861802212E+03  0.34861802213E+03  0.25500000920E-02 0.  1.
        2   -1    0    0  501    0  0.00000000000E+00  0.00000000000E+00 -0.28620011678E+04  0.28620011678E+04  0.25500000920E-02 0. -1.
    10030    2    1    2    0    0  0.00000000000E+00  0.00000000000E+00 -0.25133831456E+04  0.32106191899E+04  0.19977439140E+04 0.  0.
        1    1    3    3  502    0 -0.77743034228E+03  0.21735166039E+03 -0.31120963984E+03  0.86515381368E+03  0.50400001928E-02 0.  1.
       -1    1    3    3    0  502  0.77743034228E+03 -0.21735166039E+03 -0.22021735058E+04  0.23454653762E+04  0.50400001928E-02 0. -1.
</event>
<event>
 5   0  0.4400349E-06  0.2922530E+04  0.7818609E-02  0.8266206E-01
        2   -1    0    0  501    0  0.00000000000E+00  0.00000000000E+00  0.22427618728E+04  0.22427618728E+04  0.25500000920E-02 0.  1.
       -2   -1    0    0    0  501  0.00000000000E+00  0.00000000000E+00 -0.95208266372E+03  0.95208266372E+03  0.25500000920E-02 0. -1.
    10030    2    1    2    0    0  0.00000000000E+00  0.00000000000E+00  0.12906792091E+04  0.31948445365E+04  0.29225295194E+04 0.  0.
        5    1    3    3  502    0  0.14025923259E+04 -0.38344925489E+03  0.48702101446E+03  0.15334634401E+04  0.46999998093E+01 0.  1.
       -5    1    3    3    0  502 -0.14025923259E+04  0.38344925489E+03  0.80365819460E+03  0.16613810964E+04  0.46999998093E+01 0. -1.
</event>
<event>
 5   0  0.1562618E-06  0.3426191E+04  0.7818609E-02  0.8131508E-01
        1   -1    0    0  501    0  0.00000000000E+00  0.00000000000E+00  0.33503929538E+04  0.33503929538E+04  0.50400001928E-02 0.  1.
       -1   -1    0    0    0  501  0.00000000000E+00  0.00000000000E+00 -0.87592592230E+03  0.87592592232E+03  0.50400001928E-02 0. -1.
    10030    2    1    2    0    0  0.00000000000E+00  0.00000000000E+00  0.24744670315E+04  0.42263188761E+04  0.34261909101E+04 0.  0.
        2    1    3    3  502    0  0.14378590195E+03  0.16448001526E+04  0.67377210884E+03  0.17832584732E+04  0.25500000920E-02 0.  1.
       -2    1    3    3    0  502 -0.14378590195E+03 -0.16448001526E+04  0.18006949227E+04  0.24430604029E+04  0.25500000920E-02 0. -1.
</event>
<event>
 5   0  0.4400349E-06  0.3397265E+04  0.7818609E-02  0.8138578E-01
        2   -1    0    0  501    0  0.00000000000E+00  0.00000000000E+00  0.22030945165E+04  0.22030945165E+04  0.25500000920E-02 0.  1.
       -2   -1    0    0    0  501  0.00000000000E+00  0.00000000000E+00 -0.13096815596E+04  0.13096815596E+04  0.25500000920E-02 0. -1.
    10030    2    1    2    0    0  0.00000000000E+00  0.00000000000E+00  0.89341295694E+03  0.35127760761E+04  0.33972649365E+04 0.  0.
        5    1    3    3  502    0 -0.44479260719E+02  0.85976865297E+03 -0.10673727254E+04  0.13713085598E+04  0.46999998093E+01 0. -1.
       -5    1    3    3    0  502  0.44479260719E+02 -0.85976865297E+03  0.19607856823E+04  0.21414675163E+04  0.46999998093E+01 0.  1.
</event>
<event>
 5   0  0.4173467E-06  0.3390932E+04  0.7818609E-02  0.8140136E-01
       -2   -1    0    0    0  501  0.00000000000E+00  0.00000000000E+00  0.15947581990E+04  0.15947581990E+04  0.25500000920E-02 0. -1.
        2   -1    0    0  501    0  0.00000000000E+00  0.00000000000E+00 -0.18025329592E+04  0.18025329592E+04  0.25500000920E-02 0.  1.
    10030    2    1    2    0    0  0.00000000000E+00  0.00000000000E+00 -0.20777476016E+03  0.33972911582E+04  0.33909315626E+04 0.  0.
        4    1    3    3  502    0  0.51901893341E+03  0.28214381548E+03 -0.16960868479E+04  0.17960228268E+04  0.12699999809E+01 0.  1.
       -4    1    3    3    0  502 -0.51901893341E+03 -0.28214381548E+03  0.14883120877E+04  0.16012683314E+04  0.12699999809E+01 0. -1.
</event>
<event>
 5   0  0.4400349E-06  0.2795569E+04  0.7818609E-02  0.8304645E-01
        2   -1    0    0  501    0  0.00000000000E+00  0.00000000000E+00  0.15831277415E+04  0.15831277415E+04  0.25500000920E-02 0.  1.
       -2   -1    0    0    0  501  0.00000000000E+00  0.00000000000E+00 -0.12341403443E+04  0.12341403443E+04  0.25500000920E-02 0. -1.
    10030    2    1    2    0    0  0.00000000000E+00  0.00000000000E+00  0.34898739711E+03  0.28172680858E+04  0.27955692200E+04 0.  0.
        5    1    3    3  502    0 -0.23621827628E+03  0.22314119938E+03 -0.11955394515E+04  0.12389220068E+04  0.46999998093E+01 0. -1.
       -5    1    3    3    0  502  0.23621827628E+03 -0.22314119938E+03  0.15445268486E+04  0.15783460790E+04  0.46999998093E+01 0.  1.
</event>
<event>
 5   0  0.1571391E-06  0.3512965E+04  0.7818609E-02  0.8110724E-01
       -1   -1    0    0    0  501  0.00000000000E+00  0.00000000000E+00  0.14183990384E+04  0.14183990384E+04  0.50400001928E-02 0.  1.
        1   -1    0    0  501    0  0.00000000000E+00  0.00000000000E+00 -0.21751497362E+04  0.21751497362E+04  0.50400001928E-02 0. -1.
    10030    2    1    2    0    0  0.00000000000E+00  0.00000000000E+00 -0.75675069782E+03  0.35935487746E+04  0.35129647275E+04 0.  0.
        1    1    3    3  502    0  0.16502053874E+02  0.46768105569E+03 -0.21102061348E+04  0.21614735295E+04  0.50400001928E-02 0. -1.
       -1    1    3    3    0  502 -0.16502053874E+02 -0.46768105569E+03  0.13534554369E+04  0.14320752450E+04  0.50400001928E-02 0.  1.
</event>
<event>
 5   0  0.1654257E-06  0.3381240E+04  0.7818609E-02  0.8142526E-01
       -1   -1    0    0    0  501  0.00000000000E+00  0.00000000000E+00  0.15467199309E+04  0.15467199309E+04  0.50400001928E-02 0. -1.
        1   -1    0    0  501    0  0.00000000000E+00  0.00000000000E+00 -0.18479079626E+04  0.18479079626E+04  0.50400001928E-02 0.  1.
    10030    2    1    2    0    0  0.00000000000E+00  0.00000000000E+00 -0.30118803168E+03  0.33946278934E+04  0.33812400543E+04 0.  0.
        3    1    3    3  502    0  0.11368946681E+04 -0.11397582782E+04 -0.66898879148E+03  0.17433084731E+04  0.10100000352E+00 0.  1.
       -3    1    3    3    0  502 -0.11368946681E+04  0.11397582782E+04  0.36780075980E+03  0.16513194204E+04  0.10100000352E+00 0. -1.
</event>
<event>
 5   0  0.2722449E-06  0.3314168E+04  0.7818609E-02  0.8159300E-01
       -2   -1    0    0    0  501  0.00000000000E+00  0.00000000000E+00  0.32771553063E+04  0.32771553063E+04  0.25500000920E-02 0.  1.
        2   -1    0    0  501    0  0.00000000000E+00  0.00000000000E+00 -0.83789942774E+03  0.83789942774E+03  0.25500000920E-02 0. -1.
    10030    2    1    2    0    0  0.00000000000E+00  0.00000000000E+00  0.24392558786E+04  0.41150547341E+04  0.33141675008E+04 0.  0.
        2    1    3    3  502    0 -0.36163359585E+03 -0.24439158503E+03  0.32044992064E+04  0.32340873934E+04  0.25500000920E-02 0.  1.
       -2    1    3    3    0  502  0.36163359585E+03  0.24439158503E+03 -0.76524332782E+03  0.88096734063E+03  0.25500000920E-02 0. -1.
</event>
<event>
 5   0  0.1571391E-06  0.3397888E+04  0.7818609E-02  0.8138425E-01
        1   -1    0    0  501    0  0.00000000000E+00  0.00000000000E+00  0.12006873418E+04  0.12006873418E+04  0.50400001928E-02 0. -1.
       -1   -1    0    0    0  501  0.00000000000E+00  0.00000000000E+00 -0.24039654062E+04  0.24039654062E+04  0.50400001928E-02 0.  1.
    10030    2    1    2    0    0  0.00000000000E+00  0.00000000000E+00 -0.12032780644E+04  0.36046527479E+04  0.33978880695E+04 0.  0.
        1    1    3    3  502    0  0.13492625973E+04 -0.56433357901E+03 -0.15187867817E+04  0.21084817365E+04  0.50400001928E-02 0.  1.
       -1    1    3    3    0  502 -0.13492625973E+04  0.56433357901E+03  0.31550871725E+03  0.14961710115E+04  0.50400001928E-02 0. -1.
</event>
<event>
 5   0  0.4400349E-06  0.3431954E+04  0.7818609E-02  0.8130108E-01
        2   -1    0    0  501    0  0.00000000000E+00  0.00000000000E+00  0.24383693082E+04  0.24383693082E+04  0.25500000920E-02 0.  1.
       -2   -1    0    0    0  501  0.00000000000E+00  0.00000000000E+00 -0.12076007070E+04  0.12076007070E+04  0.25500000920E-02 0. -1.
    10030    2    1    2    0    0  0.00000000000E+00  0.00000000000E+00  0.12307686011E+04  0.36459700152E+04  0.34319536713E+04 0.  0.
        5    1    3    3  502    0  0.25021924658E+03 -0.16721572729E+04  0.92663000047E+03  0.19280520907E+04  0.46999998093E+01 0.  1.
       -5    1    3    3    0  502 -0.25021924658E+03  0.16721572729E+04  0.30413860065E+03  0.17179179245E+04  0.46999998093E+01 0. -1.
</event>
<event>
 5   0  0.1571391E-06  0.3408837E+04  0.7818609E-02  0.8135741E-01
        1   -1    0    0  501    0  0.00000000000E+00  0.00000000000E+00  0.27942767468E+04  0.27942767468E+04  0.50400001928E-02 0. -1.
       -1   -1    0    0    0  501  0.00000000000E+00  0.00000000000E+00 -0.10396399804E+04  0.10396399804E+04  0.50400001928E-02 0.  1.
    10030    2    1    2    0    0  0.00000000000E+00  0.00000000000E+00  0.17546367665E+04  0.38339167272E+04  0.34088366474E+04 0.  0.
        1    1    3    3  502    0 -0.49316386578E+03 -0.13292821380E+04 -0.18660225573E+03  0.14300426577E+04  0.50400001928E-02 0.  1.
       -1    1    3    3    0  502  0.49316386578E+03  0.13292821380E+04  0.19412390222E+04  0.24038740695E+04  0.50400001928E-02 0. -1.
</event>
<event>
 5   0  0.2722449E-06  0.3383950E+04  0.7818609E-02  0.8141857E-01
       -2   -1    0    0    0  501  0.00000000000E+00  0.00000000000E+00  0.12934944729E+04  0.12934944729E+04  0.25500000920E-02 0. -1.
        2   -1    0    0  501    0  0.00000000000E+00  0.00000000000E+00 -0.22132136487E+04  0.22132136487E+04  0.25500000920E-02 0.  1.
    10030    2    1    2    0    0  0.00000000000E+00  0.00000000000E+00 -0.91971917584E+03  0.35067081215E+04  0.33839501307E+04 0.  0.
        2    1    3    3  502    0  0.13772673760E+04 -0.97790587041E+03 -0.56146916041E+03  0.17800036333E+04  0.25500000920E-02 0.  1.
       -2    1    3    3    0  502 -0.13772673760E+04  0.97790587041E+03 -0.35825001543E+03  0.17267044883E+04  0.25500000920E-02 0. -1.
</event>
<event>
 5   0  0.1401125E-06  0.3174426E+04  0.7818609E-02  0.8195604E-01
       -3   -1    0    0    0  501  0.00000000000E+00  0.00000000000E+00  0.20614985595E+04  0.20614985620E+04  0.10100000352E+00 0. -1.
        3   -1    0    0  501    0  0.00000000000E+00  0.00000000000E+00 -0.12220452917E+04  0.12220452959E+04  0.10100000352E+00 0.  1.
    10030    2    1    2    0    0  0.00000000000E+00  0.00000000000E+00  0.83945326775E+03  0.32835438579E+04  0.31744256926E+04 0.  0.
        4    1    3    3  502    0 -0.37484184711E+03  0.50311770734E+03 -0.10883359445E+04  0.12562287128E+04  0.12699999809E+01 0.  1.
       -4    1    3    3    0  502  0.37484184711E+03 -0.50311770734E+03  0.19277892123E+04  0.20273151451E+04  0.12699999809E+01 0. -1.
</event>
<event>
 5   0  0.4344980E-06  0.1832759E+04  0.7818609E-02  0.8689070E-01
       -2   -1    0    0    0  501  0.00000000000E+00  0.00000000000E+00  0.59704025394E+03  0.59704025395E+03  0.25500000920E-02 0.  1.
        2   -1    0    0  501    0  0.00000000000E+00  0.00000000000E+00 -0.14065231479E+04  0.14065231479E+04  0.25500000920E-02 0. -1.
    10030    2    1    2    0    0  0.00000000000E+00  0.00000000000E+00 -0.80948289399E+03  0.20035634019E+04  0.18327585083E+04 0.  0.
        3    1    3    3  502    0  0.26390890885E+03 -0.74008810683E+03  0.11077021170E+03  0.79350385509E+03  0.10100000352E+00 0.  1.
       -3    1    3    3    0  502 -0.26390890885E+03  0.74008810683E+03 -0.92025310569E+03  0.12100595468E+04  0.10100000352E+00 0. -1.
</event>
<event>
 5   0  0.1571391E-06  0.2838992E+04  0.7818609E-02  0.8291264E-01
        1   -1    0    0  501    0  0.00000000000E+00  0.00000000000E+00  0.16921144693E+04  0.16921144693E+04  0.50400001928E-02 0. -1.
       -1   -1    0    0    0  501  0.00000000000E+00  0.00000000000E+00 -0.11907990095E+04  0.11907990095E+04  0.50400001928E-02 0.  1.
    10030    2    1    2    0    0  0.00000000000E+00  0.00000000000E+00  0.50131545975E+03  0.28829134788E+04  0.28389915351E+04 0.  0.
        1    1    3    3  502    0  0.59906744374E+03 -0.10667666232E+04 -0.48026653679E+03  0.13143548900E+04  0.50400001928E-02 0.  1.
       -1    1    3    3    0  502 -0.59906744374E+03  0.10667666232E+04  0.98158199654E+03  0.15685585888E+04  0.50400001928E-02 0. -1.
</event>
<event>
 5   0  0.1562618E-06  0.3249466E+04  0.7818609E-02  0.8175874E-01
       -1   -1    0    0    0  501  0.00000000000E+00  0.00000000000E+00  0.12546291246E+04  0.12546291246E+04  0.50400001928E-02 0.  1.
        1   -1    0    0  501    0  0.00000000000E+00  0.00000000000E+00 -0.21040135708E+04  0.21040135708E+04  0.50400001928E-02 0. -1.
    10030    2    1    2    0    0  0.00000000000E+00  0.00000000000E+00 -0.84938444619E+03  0.33586426954E+04  0.32494656204E+04 0.  0.
        2    1    3    3  502    0 -0.14061142090E+04  0.42844329956E+03  0.29068626659E+03  0.14984055977E+04  0.25500000920E-02 0.  1.
       -2    1    3    3    0  502  0.14061142090E+04 -0.42844329956E+03 -0.11400707128E+04  0.18602370977E+04  0.25500000920E-02 0. -1.
</event>
<event>
 5   0  0.4344980E-06  0.3328424E+04  0.7818609E-02  0.8155700E-01
        2   -1    0    0  501    0  0.00000000000E+00  0.00000000000E+00  0.20667209683E+04  0.20667209683E+04  0.25500000920E-02 0. -1.
       -2   -1    0    0    0  501  0.00000000000E+00  0.00000000000E+00 -0.13400946812E+04  0.13400946812E+04  0.25500000920E-02 0.  1.
    10030    2    1    2    0    0  0.00000000000E+00  0.00000000000E+00  0.72662628708E+03  0.34068156496E+04  0.33284241179E+04 0.  0.
        3    1    3    3  502    0  0.85667459429E+03 -0.13056202435E+04 -0.22562188546E+03  0.15777961928E+04  0.10100000352E+00 0.  1.
       -3    1    3    3    0  502 -0.85667459429E+03  0.13056202435E+04  0.95224817254E+03  0.18290194567E+04  0.10100000352E+00 0. -1.
</event>
<event>
 5   0  0.1654257E-06  0.3687167E+04  0.7818609E-02  0.8070812E-01
       -1   -1    0    0    0  501  0.00000000000E+00  0.00000000000E+00  0.14455871298E+04  0.14455871298E+04  0.50400001928E-02 0.  1.
        1   -1    0    0  501    0  0.00000000000E+00  0.00000000000E+00 -0.23511559400E+04  0.23511559400E+04  0.50400001928E-02 0. -1.
    10030    2    1    2    0    0  0.00000000000E+00  0.00000000000E+00 -0.90556881014E+03  0.37967430698E+04  0.36871673502E+04 0.  0.
        3    1    3    3  502    0 -0.13748158471E+04  0.10468624873E+04  0.20877329296E+03  0.17405820805E+04  0.10100000352E+00 0.  1.
       -3    1    3    3    0  502  0.13748158471E+04 -0.10468624873E+04 -0.11143421031E+04  0.20561609893E+04  0.10100000352E+00 0. -1.
</event>
<event>
 5   0  0.4173467E-06  0.3440008E+04  0.7818609E-02  0.8128156E-01
       -2   -1    0    0    0  501  0.00000000000E+00  0.00000000000E+00  0.16538455016E+04  0.16538455016E+04  0.25500000920E-02 0.  1.
        2   -1    0    0  501    0  0.00000000000E+00  0.00000000000E+00 -0.17888089850E+04  0.17888089850E+04  0.25500000920E-02 0. -1.
    10030    2    1    2    0    0  0.00000000000E+00  0.00000000000E+00 -0.13496348339E+03  0.34426544867E+04  0.34400079611E+04 0.  0.
        4    1    3    3  502    0 -0.15900094876E+04  0.65376695527E+03 -0.13861814228E+02  0.17192251642E+04  0.12699999809E+01 0. -1.
       -4    1    3    3    0  502  0.15900094876E+04 -0.65376695527E+03 -0.12110166916E+03  0.17234293225E+04  0.12699999809E+01 0.  1.
</event>
<event>
 5   0  0.1550164E-06  0.3092968E+04  0.7818609E-02  0.8217670E-01
       -1   -1    0    0    0  501  0.00000000000E+00  0.00000000000E+00  0.15189451541E+04  0.15189451541E+04  0.50400001928E-02 0.  1.
        1   -1    0    0  501    0  0.00000000000E+00  0.00000000000E+00 -0.15745219723E+04  0.15745219723E+04  0.50400001928E-02 0. -1.
    10030    2    1    2    0    0  0.00000000000E+00  0.00000000000E+00 -0.55576818180E+02  0.30934671264E+04  0.30929678433E+04 0.  0.
        4    1    3    3  502    0  0.17840052289E+03 -0.87733391733E+03  0.12333946681E+04  0.15240753161E+04  0.12699999809E+01 0.  1.
       -4    1    3    3    0  502 -0.17840052289E+03  0.87733391733E+03 -0.12889714862E+04  0.15693918103E+04  0.12699999809E+01 0. -1.
</event>
<event>
 5   0  0.2722449E-06  0.2683657E+04  0.7818609E-02  0.8340327E-01
        2   -1    0    0  501    0  0.00000000000E+00  0.00000000000E+00  0.14316052146E+04  0.14316052146E+04  0.25500000920E-02 0.  1.
       -2   -1    0    0    0  501  0.00000000000E+00  0.00000000000E+00 -0.12576820138E+04  0.12576820138E+04  0.25500000920E-02 0. -1.
    10030    2    1    2    0    0  0.00000000000E+00  0.00000000000E+00  0.17392320076E+03  0.26892872284E+04  0.26836573024E+04 0.  0.
        2    1    3    3  502    0 -0.43183097654E+03 -0.90517022974E+03 -0.80636409170E+03  0.12868699179E+04  0.25500000920E-02 0. -1.
       -2    1    3    3    0  502  0.43183097654E+03  0.90517022974E+03  0.98028729245E+03  0.14024173105E+04  0.25500000920E-02 0.  1.
</event>
<event>
 5   0  0.1571391E-06  0.2975877E+04  0.7818609E-02  0.8250653E-01
        1   -1    0    0  501    0  0.00000000000E+00  0.00000000000E+00  0.14943763637E+04  0.14943763637E+04  0.50400001928E-02 0. -1.
       -1   -1    0    0    0  501  0.00000000000E+00  0.00000000000E+00 -0.14815286056E+04  0.14815286056E+04  0.50400001928E-02 0.  1.
    10030    2    1    2    0    0  0.00000000000E+00  0.00000000000E+00  0.12847758079E+02  0.29759049692E+04  0.29758772355E+04 0.  0.
        1    1    3    3  502    0 -0.11335021296E+04 -0.86269657201E+03 -0.42356719435E+03  0.14860961010E+04  0.50400001928E-02 0.  1.
       -1    1    3    3    0  502  0.11335021296E+04  0.86269657201E+03  0.43641495243E+03  0.14898088683E+04  0.50400001928E-02 0. -1.
</event>
<event>
 5   0  0.2722449E-06  0.3271135E+04  0.7818609E-02  0.8170279E-01
        2   -1    0    0  501    0  0.00000000000E+00  0.00000000000E+00  0.21111675595E+04  0.21111675595E+04  0.25500000920E-02 0. -1.
       -2   -1    0    0    0  501  0.00000000000E+00  0.00000000000E+00 -0.12671097492E+04  0.12671097492E+04  0.25500000920E-02 0.  1.
    10030    2    1    2    0    0  0.00000000000E+00  0.00000000000E+00  0.84405781029E+03  0.33782773087E+04  0.32711349693E+04 0.  0.
        2    1    3    3  502    0 -0.10982961020E+04 -0.75506859693E+03  0.14010763539E+04  0.19337522755E+04  0.25500000920E-02 0. -1.
       -2    1    3    3    0  502  0.10982961020E+04  0.75506859693E+03 -0.55701854359E+03  0.14445250332E+04  0.25500000920E-02 0.  1.
</event>
<event>
 5   0  0.4189587E-06  0.3282500E+04  0.7818609E-02  0.8167363E-01
       -2   -1    0    0    0  501  0.00000000000E+00  0.00000000000E+00  0.25619385203E+04  0.25619385203E+04  0.25500000920E-02 0.  1.
        2   -1    0    0  501    0  0.00000000000E+00  0.00000000000E+00 -0.10514308722E+04  0.10514308722E+04  0.25500000920E-02 0. -1.
    10030    2    1    2    0    0  0.00000000000E+00  0.00000000000E+00  0.15105076481E+04  0.36133693925E+04  0.32824998114E+04 0.  0.
        1    1    3    3  502    0  0.15798806409E+04  0.37977056977E+02  0.26761624521E+03  0.16028360962E+04  0.50400001928E-02 0.  1.
       -1    1    3    3    0  502 -0.15798806409E+04 -0.37977056977E+02  0.12428914029E+04  0.20105332964E+04  0.50400001928E-02 0. -1.
</event>
<event>
 5   0  0.1654257E-06  0.3443922E+04  0.7818609E-02  0.8127210E-01
       -1   -1    0    0    0  501  0.00000000000E+00  0.00000000000E+00  0.14062586724E+04  0.14062586724E+04  0.50400001928E-02 0.  1.
        1   -1    0    0  501    0  0.00000000000E+00  0.00000000000E+00 -0.21085377221E+04  0.21085377221E+04  0.50400001928E-02 0. -1.
    10030    2    1    2    0    0  0.00000000000E+00  0.00000000000E+00 -0.70227904968E+03  0.35147963945E+04  0.34439218678E+04 0.  0.
        3    1    3    3  502    0 -0.30617509534E+02  0.10230539204E+04 -0.17644019107E+04  0.20397771615E+04  0.10100000352E+00 0. -1.
       -3    1    3    3    0  502  0.30617509534E+02 -0.10230539204E+04  0.10621228610E+04  0.14750192331E+04  0.10100000352E+00 0.  1.
</event>
<event>
 5   0  0.2101998E-06  0.3310107E+04  0.7818609E-02  0.8160328E-01
       -1   -1    0    0    0  501  0.00000000000E+00  0.00000000000E+00  0.11372187753E+04  0.11372187753E+04  0.50400001928E-02 0. -1.
        1   -1    0    0  501    0  0.00000000000E+00  0.00000000000E+00 -0.24086855558E+04  0.24086855558E+04  0.50400001928E-02 0.  1.
    10030    2    1    2    0    0  0.00000000000E+00  0.00000000000E+00 -0.12714667806E+04  0.35459043311E+04  0.33101072115E+04 0.  0.
        5    1    3    3  502    0 -0.34259699060E+03  0.12519867488E+04 -0.17356876922E+04  0.21673664600E+04  0.46999998093E+01 0.  1.
       -5    1    3    3    0  502  0.34259699060E+03 -0.12519867488E+04  0.46422091165E+03  0.13785378711E+04  0.46999998093E+01 0. -1.
</event>
<event>
 5   0  0.1571391E-06  0.3333604E+04  0.7818609E-02  0.8154397E-01
        1   -1    0    0  501    0  0.00000000000E+00  0.00000000000E+00  0.19494701263E+04  0.19494701263E+04  0.50400001928E-02 0.  1.
       -1   -1    0    0    0  501  0.00000000000E+00  0.00000000000E+00 -0.14251203922E+04  0.14251203922E+04  0.50400001928E-02 0. -1.
    10030    2    1    2    0    0  0.00000000000E+00  0.00000000000E+00  0.52434973413E+03  0.33745905185E+04  0.33336044342E+04 0.  0.
        1    1    3    3  502    0 -0.55364831412E+03  0.13909128436E+04 -0.47968229756E+03  0.15720242049E+04  0.50400001928E-02 0. -1.
       -1    1    3    3    0  502  0.55364831412E+03 -0.13909128436E+04  0.10040320317E+04  0.18025663136E+04  0.50400001928E-02 0.  1.
</event>
<event>
 5   0  0.2449165E-06  0.1710486E+04  0.7818609E-02  0.8755406E-01
        1   -1    0    0  501    0  0.00000000000E+00  0.00000000000E+00  0.99941078691E+03  0.99941078692E+03  0.50400001928E-02 0. -1.
       -1   -1    0    0    0  501  0.00000000000E+00  0.00000000000E+00 -0.73187214440E+03  0.73187214442E+03  0.50400001928E-02 0.  1.
    10030    2    1    2    0    0  0.00000000000E+00  0.00000000000E+00  0.26753864251E+03  0.17312829313E+04  0.17104863820E+04 0.  0.
        5    1    3    3  502    0 -0.59909986422E+03  0.42467969353E+03  0.57744267901E+03  0.93420320431E+03  0.46999998093E+01 0. -1.
       -5    1    3    3    0  502  0.59909986422E+03 -0.42467969353E+03 -0.30990403650E+03  0.79707972703E+03  0.46999998093E+01 0.  1.
</event>
<event>
 5   0  0.2722449E-06  0.3418742E+04  0.7818609E-02  0.8133322E-01
       -2   -1    0    0    0  501  0.00000000000E+00  0.00000000000E+00  0.11779514441E+04  0.11779514441E+04  0.25500000920E-02 0.  1.
        2   -1    0    0  501    0  0.00000000000E+00  0.00000000000E+00 -0.24805344692E+04  0.24805344692E+04  0.25500000920E-02 0. -1.
    10030    2    1    2    0    0  0.00000000000E+00  0.00000000000E+00 -0.13025830251E+04  0.36584859133E+04  0.34187419676E+04 0.  0.
        2    1    3    3  502    0 -0.57390351185E+03  0.38451899258E+03 -0.23245014361E+04  0.24249797985E+04  0.25500000920E-02 0. -1.
       -2    1    3    3    0  502  0.57390351185E+03 -0.38451899258E+03  0.10219184110E+04  0.12335061148E+04  0.25500000920E-02 0.  1.
</event>
<event>
 5   0  0.1571391E-06  0.2254255E+04  0.7818609E-02  0.8496179E-01
       -1   -1    0    0    0  501  0.00000000000E+00  0.00000000000E+00  0.10632445829E+04  0.10632445829E+04  0.50400001928E-02 0.  1.
        1   -1    0    0  501    0  0.00000000000E+00  0.00000000000E+00 -0.11948487530E+04  0.11948487530E+04  0.50400001928E-02 0. -1.
    10030    2    1    2    0    0  0.00000000000E+00  0.00000000000E+00 -0.13160417003E+03  0.22580933359E+04  0.22542550557E+04 0.  0.
        1    1    3    3  502    0  0.63473489989E+03  0.61717594807E+03 -0.76457275972E+03  0.11697717935E+04  0.50400001928E-02 0. -1.
       -1    1    3    3    0  502 -0.63473489989E+03 -0.61717594807E+03  0.63296858969E+03  0.10883215424E+04  0.50400001928E-02 0.  1.
</event>
<event>
 5   0  0.4189587E-06  0.3395255E+04  0.7818609E-02  0.8139072E-01
        2   -1    0    0  501    0  0.00000000000E+00  0.00000000000E+00  0.23269120973E+04  0.23269120973E+04  0.25500000920E-02 0. -1.
       -2   -1    0    0    0  501  0.00000000000E+00  0.00000000000E+00 -0.12385249257E+04  0.12385249257E+04  0.25500000920E-02 0.  1.
    10030    2    1    2    0    0  0.00000000000E+00  0.00000000000E+00  0.10883871716E+04  0.35654370230E+04  0.33952547076E+04 0.  0.
        1    1    3    3  502    0  0.69893810775E+03 -0.14153852573E+04  0.12000869588E+04  0.19829368658E+04  0.50400001928E-02 0. -1.
       -1    1    3    3    0  502 -0.69893810775E+03  0.14153852573E+04 -0.11169978719E+03  0.15825001572E+04  0.50400001928E-02 0.  1.
</event>
<event>
 5   0  0.4173467E-06  0.3461560E+04  0.7818609E-02  0.8122961E-01
       -2   -1    0    0    0  501  0.00000000000E+00  0.00000000000E+00  0.13129855873E+04  0.13129855873E+04  0.25500000920E-02 0. -1.
        2   -1    0    0  501    0  0.00000000000E+00  0.00000000000E+00 -0.22815168098E+04  0.22815168098E+04  0.25500000920E-02 0.  1.
    10030    2    1    2    0    0  0.00000000000E+00  0.00000000000E+00 -0.96853122251E+03  0.35945023972E+04  0.34615595841E+04 0.  0.
        4    1    3    3  502    0 -0.12190681012E+04  0.97204631627E+03  0.29598813812E+03  0.15870134426E+04  0.12699999809E+01 0. -1.
       -4    1    3    3    0  502  0.12190681012E+04 -0.97204631627E+03 -0.12645193606E+04  0.20074889545E+04  0.12699999809E+01 0.  1.
</event>
<event>
 5   0  0.1654257E-06  0.3361670E+04  0.7818609E-02  0.8147378E-01
       -1   -1    0    0    0  501  0.00000000000E+00  0.00000000000E+00  0.27510303249E+04  0.27510303249E+04  0.50400001928E-02 0.  1.
        1   -1    0    0  501    0  0.00000000000E+00  0.00000000000E+00 -0.10269630456E+04  0.10269630456E+04  0.50400001928E-02 0. -1.
    10030    2    1    2    0    0  0.00000000000E+00  0.00000000000E+00  0.17240672793E+04  0.37779933705E+04  0.33616701093E+04 0.  0.
        3    1    3    3  502    0  0.13691902236E+04  0.34598701817E+02  0.19570336849E+04  0.23886941605E+04  0.10100000352E+00 0.  1.
       -3    1    3    3    0  502 -0.13691902236E+04 -0.34598701817E+02 -0.23296640552E+03  0.13892992100E+04  0.10100000352E+00 0. -1.
</event>
<event>
 5   0  0.4189587E-06  0.3390153E+04  0.7818609E-02  0.8140327E-01
        2   -1    0    0  501    0  0.00000000000E+00  0.00000000000E+00  0.16532525551E+04  0.16532525551E+04  0.25500000920E-02 0.  1.
       -2   -1    0    0    0  501  0.00000000000E+00  0.00000000000E+00 -0.17379580441E+04  0.17379580441E+04  0.25500000920E-02 0. -1.
    10030    2    1    2    0    0  0.00000000000E+00  0.00000000000E+00 -0.84705489008E+02  0.33912105992E+04  0.33901525494E+04 0.  0.
        1    1    3    3  502    0 -0.11658051047E+04  0.67503448547E+03 -0.10715132243E+04  0.17213116187E+04  0.50400001928E-02 0. -1.
       -1    1    3    3    0  502  0.11658051047E+04 -0.67503448547E+03  0.98680773526E+03  0.16698989805E+04  0.50400001928E-02 0.  1.
</event>
<event>
 5   0  0.4189587E-06  0.3507360E+04  0.7818609E-02  0.8112048E-01
       -2   -1    0    0    0  501  0.00000000000E+00  0.00000000000E+00  0.23666959495E+04  0.23666959495E+04  0.25500000920E-02 0.  1.
        2   -1    0    0  501    0  0.00000000000E+00  0.00000000000E+00 -0.12994462883E+04  0.12994462883E+04  0.25500000920E-02 0. -1.
    10030    2    1    2    0    0  0.00000000000E+00  0.00000000000E+00  0.10672496612E+04  0.36661422377E+04  0.35073604132E+04 0.  0.
        1    1    3    3  502    0 -0.80007793070E+03 -0.61051649324E+03 -0.96754565985E+03  0.13960657891E+04  0.50400001928E-02 0. -1.
       -1    1    3    3    0  502  0.80007793070E+03  0.61051649324E+03  0.20347953211E+04  0.22700764486E+04  0.50400001928E-02 0.  1.
</event>
<event>
 5   0  0.1562618E-06  0.2392356E+04  0.7818609E-02  0.8442371E-01
        1   -1    0    0  501    0  0.00000000000E+00  0.00000000000E+00  0.26660410930E+04  0.26660410930E+04  0.50400001928E-02 0.  1.
       -1   -1    0    0    0  501  0.00000000000E+00  0.00000000000E+00 -0.53669159261E+03  0.53669159264E+03  0.50400001928E-02 0. -1.
    10030    2    1    2    0    0  0.00000000000E+00  0.00000000000E+00  0.21293495004E+04  0.32027326856E+04  0.23923560272E+04 0.  0.
        2    1    3    3  502    0  0.17391501666E+03 -0.49211026394E+03 -0.37620735251E+03  0.64339017476E+03  0.25500000920E-02 0. -1.
       -2    1    3    3    0  502 -0.17391501666E+03  0.49211026394E+03  0.25055568529E+04  0.25593425109E+04  0.25500000920E-02 0.  1.
</event>
<event>
 5   0  0.1654257E-06  0.3086625E+04  0.7818609E-02  0.8219418E-01
       -1   -1    0    0    0  501  0.00000000000E+00  0.00000000000E+00  0.19927440722E+04  0.19927440723E+04  0.50400001928E-02 0. -1.
        1   -1    0    0  501    0  0.00000000000E+00  0.00000000000E+00 -0.11952428084E+04  0.11952428084E+04  0.50400001928E-02 0.  1.
    10030    2    1    2    0    0  0.00000000000E+00  0.00000000000E+00  0.79750126388E+03  0.31879868806E+04  0.30866247075E+04 0.  0.
        3    1    3    3  502    0  0.15235330723E+03  0.51577372128E+01  0.19849491197E+04  0.19907941005E+04  0.10100000352E+00 0. -1.
       -3    1    3    3    0  502 -0.15235330723E+03 -0.51577372128E+01 -0.11874478558E+04  0.11971927802E+04  0.10100000352E+00 0.  1.
</event>
<event>
 5   0  0.1550164E-06  0.3458277E+04  0.7818609E-02  0.8123750E-01
        1   -1    0    0  501    0  0.00000000000E+00  0.00000000000E+00  0.18876440441E+04  0.18876440441E+04  0.50400001928E-02 0.  1.
       -1   -1    0    0    0  501  0.00000000000E+00  0.00000000000E+00 -0.15839424414E+04  0.15839424414E+04  0.50400001928E-02 0. -1.
    10030    2    1    2    0    0  0.00000000000E+00  0.00000000000E+00  0.30370160271E+03  0.34715864855E+04  0.34582767476E+04 0.  0.
        4    1    3    3  502    0 -0.76610226792E+03 -0.86413137709E+03  0.14437701698E+04  0.18488130348E+04  0.12699999809E+01 0.  1.
       -4    1    3    3    0  502  0.76610226792E+03  0.86413137709E+03 -0.11400685670E+04  0.16227734507E+04  0.12699999809E+01 0. -1.
</event>
<event>
 5   0  0.4344980E-06  0.3430223E+04  0.7818609E-02  0.8130528E-01
       -2   -1    0    0    0  501  0.00000000000E+00  0.00000000000E+00  0.11994153975E+04  0.11994153975E+04  0.25500000920E-02 0.  1.
        2   -1    0    0  501    0  0.00000000000E+00  0.00000000000E+00 -0.24525338534E+04  0.24525338534E+04  0.25500000920E-02 0. -1.
    10030    2    1    2    0    0  0.00000000000E+00  0.00000000000E+00 -0.12531184559E+04  0.36519492508E+04  0.34302226555E+04 0.  0.
        3    1    3    3  502    0  0.32308851610E+03 -0.14570136989E+04 -0.15263725092E+04  0.21347337434E+04  0.10100000352E+00 0.  1.
       -3    1    3    3    0  502 -0.32308851610E+03  0.14570136989E+04  0.27325405334E+03  0.15172155074E+04  0.10100000352E+00 0. -1.
</event>
<event>
 5   0  0.4189587E-06  0.3426079E+04  0.7818609E-02  0.8131535E-01
        2   -1    0    0  501    0  0.00000000000E+00  0.00000000000E+00  0.16681884526E+04  0.16681884526E+04  0.25500000920E-02 0. -1.
       -2   -1    0    0    0  501  0.00000000000E+00  0.00000000000E+00 -0.17590962233E+04  0.17590962233E+04  0.25500000920E-02 0.  1.
    10030    2    1    2    0    0  0.00000000000E+00  0.00000000000E+00 -0.90907770651E+02  0.34272846759E+04  0.34260788121E+04 0.  0.
        1    1    3    3  502    0 -0.62716426672E+03 -0.58561713572E+03 -0.15286157885E+04  0.17529827940E+04  0.50400001928E-02 0.  1.
       -1    1    3    3    0  502  0.62716426672E+03  0.58561713572E+03  0.14377080178E+04  0.16743018819E+04  0.50400001928E-02 0. -1.
</event>
<event>
 5   0  0.2722449E-06  0.3399503E+04  0.7818609E-02  0.8138028E-01
        2   -1    0    0  501    0  0.00000000000E+00  0.00000000000E+00  0.25496466524E+04  0.25496466524E+04  0.25500000920E-02 0. -1.
       -2   -1    0    0    0  501  0.00000000000E+00  0.00000000000E+00 -0.11331591810E+04  0.11331591810E+04  0.25500000920E-02 0.  1.
    10030    2    1    2    0    0  0.00000000000E+00  0.00000000000E+00  0.14164874715E+04  0.36828058334E+04  0.33995032063E+04 0.  0.
        2    1    3    3  502    0  0.10624433859E+04 -0.13167641480E+04  0.88460393614E+03  0.19092348974E+04  0.25500000920E-02 0.  1.
       -2    1    3    3    0  502 -0.10624433859E+04  0.13167641480E+04  0.53188353534E+03  0.17735709360E+04  0.25500000920E-02 0. -1.
</event>
<event>
 5   0  0.4189587E-06  0.3464523E+04  0.7818609E-02  0.8122249E-01
        2   -1    0    0  501    0  0.00000000000E+00  0.00000000000E+00  0.20250563641E+04  0.20250563641E+04  0.25500000920E-02 0.  1.
       -2   -1    0    0    0  501  0.00000000000E+00  0.00000000000E+00 -0.14818008851E+04  0.14818008851E+04  0.25500000920E-02 0. -1.
    10030    2    1    2    0    0  0.00000000000E+00  0.00000000000E+00  0.54325547906E+03  0.35068572492E+04  0.34645232357E+04 0.  0.
        1    1    3    3  502    0 -0.14619615152E+04 -0.91725661384E+03  0.12135784469E+03  0.17301499629E+04  0.50400001928E-02 0.  1.
       -1    1    3    3    0  502  0.14619615152E+04  0.91725661384E+03  0.42189763437E+03  0.17767072864E+04  0.50400001928E-02 0. -1.
</event>
<event>
 5   0  0.2101998E-06  0.3381800E+04  0.7818609E-02  0.8142388E-01
       -1   -1    0    0    0  501  0.00000000000E+00  0.00000000000E+00  0.11021205742E+04  0.11021205742E+04  0.50400001928E-02 0. -1.
        1   -1    0    0  501    0  0.00000000000E+00  0.00000000000E+00 -0.25942190146E+04  0.25942190146E+04  0.50400001928E-02 0.  1.
    10030    2    1    2    0    0  0.00000000000E+00  0.00000000000E+00 -0.14920984404E+04  0.36963395888E+04  0.33817996096E+04 0.  0.
        5    1    3    3  502    0 -0.32372781282E+03 -0.82535202450E+03  0.82770036293E+03  0.12128955610E+04  0.46999998093E+01 0. -1.
       -5    1    3    3    0  502  0.32372781282E+03  0.82535202450E+03 -0.23197988033E+04  0.24834440278E+04  0.46999998093E+01 0.  1.
</event>
<event>
 5   0  0.1550164E-06  0.3311584E+04  0.7818609E-02  0.8159954E-01
        1   -1    0    0  501    0  0.00000000000E+00  0.00000000000E+00  0.18403197512E+04  0.18403197513E+04  0.50400001928E-02 0. -1.
       -1   -1    0    0    0  501  0.00000000000E+00  0.00000000000E+00 -0.14897670387E+04  0.14897670387E+04  0.50400001928E-02 0.  1.
    10030    2    1    2    0    0  0.00000000000E+00  0.00000000000E+00  0.35055271254E+03  0.33300867900E+04  0.33115843375E+04 0.  0.
        4    1    3    3  502    0 -0.12761236467E+04  0.54839406155E+03 -0.73110221782E+03  0.15696304260E+04  0.12699999809E+01 0.  1.
       -4    1    3    3    0  502  0.12761236467E+04 -0.54839406155E+03  0.10816549304E+04  0.17604563640E+04  0.12699999809E+01 0. -1.
</event>
<event>
 5   0  0.2101998E-06  0.3464637E+04  0.7818609E-02  0.8122222E-01
       -1   -1    0    0    0  501  0.00000000000E+00  0.00000000000E+00  0.11680915267E+04  0.11680915267E+04  0.50400001928E-02 0.  1.
        1   -1    0    0  501    0  0.00000000000E+00  0.00000000000E+00 -0.25690856399E+04  0.25690856399E+04  0.50400001928E-02 0. -1.
    10030    2    1    2    0    0  0.00000000000E+00  0.00000000000E+00 -0.14009941132E+04  0.37371771666E+04  0.34646368741E+04 0.  0.
        5    1    3    3  502    0 -0.15102412753E+04  0.39867004643E+03  0.10752091602E+03  0.15656785599E+04  0.46999998093E+01 0. -1.
       -5    1    3    3    0  502  0.15102412753E+04 -0.39867004643E+03 -0.15085150293E+04  0.21714986067E+04  0.46999998093E+01 0.  1.
</event>
<event>
 5   0  0.1550164E-06  0.3711585E+04  0.7818609E-02  0.8065399E-01
       -1   -1    0    0    0  501  0.00000000000E+00  0.00000000000E+00  0.19400129788E+04  0.19400129788E+04  0.50400001928E-02 0. -1.
        1   -1    0    0  501    0  0.00000000000E+00  0.00000000000E+00 -0.17752279165E+04  0.17752279165E+04  0.50400001928E-02 0.  1.
    10030    2    1    2    0    0  0.00000000000E+00  0.00000000000E+00  0.16478506235E+03  0.37152408953E+04  0.37115846742E+04 0.  0.
        4    1    3    3  502    0 -0.14861460654E+04 -0.57027111867E+03 -0.87255159774E+03  0.18152650440E+04  0.12699999809E+01 0.  1.
       -4    1    3    3    0  502  0.14861460654E+04  0.57027111867E+03  0.10373366601E+04  0.18999758513E+04  0.12699999809E+01 0. -1.
</event>
<event>
 5   0  0.4344980E-06  0.3394096E+04  0.7818609E-02  0.8139357E-01
        2   -1    0    0  501    0  0.00000000000E+00  0.00000000000E+00  0.14392380171E+04  0.14392380171E+04  0.25500000920E-02 0. -1.
       -2   -1    0    0    0  501  0.00000000000E+00  0.00000000000E+00 -0.20010392652E+04  0.20010392652E+04  0.25500000920E-02 0.  1.
    10030    2    1    2    0    0  0.00000000000E+00  0.00000000000E+00 -0.56180124806E+03  0.34402772823E+04  0.33940959233E+04 0.  0.
        3    1    3    3  502    0 -0.12052543429E+04  0.11493122076E+04 -0.61155262330E+03  0.17741344940E+04  0.10100000352E+00 0.  1.
       -3    1    3    3    0  502  0.12052543429E+04 -0.11493122076E+04  0.49751375236E+02  0.16661427883E+04  0.10100000352E+00 0. -1.
</event>
<event>
 5   0  0.1571391E-06  0.2433134E+04  0.7818609E-02  0.8427202E-01
       -1   -1    0    0    0  501  0.00000000000E+00  0.00000000000E+00  0.11721234206E+04  0.11721234206E+04  0.50400001928E-02 0.  1.
        1   -1    0    0  501    0  0.00000000000E+00  0.00000000000E+00 -0.12626954010E+04  0.12626954010E+04  0.50400001928E-02 0. -1.
    10030    2    1    2    0    0  0.00000000000E+00  0.00000000000E+00 -0.90571980359E+02  0.24348188216E+04  0.24331336606E+04 0.  0.
        1    1    3    3  502    0 -0.42912363636E+03 -0.68754044265E+03 -0.95320478420E+03  0.12511827669E+04  0.50400001928E-02 0. -1.
       -1    1    3    3    0  502  0.42912363636E+03  0.68754044265E+03  0.86263280385E+03  0.11836360547E+04  0.50400001928E-02 0.  1.
</event>
<event>
 5   0  0.4400349E-06  0.3350257E+04  0.7818609E-02  0.8150224E-01
        2   -1    0    0  501    0  0.00000000000E+00  0.00000000000E+00  0.22989666058E+04  0.22989666058E+04  0.25500000920E-02 0.  1.
       -2   -1    0    0    0  501  0.00000000000E+00  0.00000000000E+00 -0.12205722984E+04  0.12205722984E+04  0.25500000920E-02 0. -1.
    10030    2    1    2    0    0  0.00000000000E+00  0.00000000000E+00  0.10783943074E+04  0.35195389042E+04  0.33502566791E+04 0.  0.
        5    1    3    3  502    0  0.88299456694E+03 -0.41420735618E+03 -0.89152255858E+03  0.13213938480E+04  0.46999998093E+01 0. -1.
       -5    1    3    3    0  502 -0.88299456694E+03  0.41420735618E+03  0.19699168660E+04  0.21981450562E+04  0.46999998093E+01 0.  1.
</event>
<event>
 5   0  0.4344980E-06  0.1710957E+04  0.7818609E-02  0.8755140E-01
       -2   -1    0    0    0  501  0.00000000000E+00  0.00000000000E+00  0.50062860549E+03  0.50062860550E+03  0.25500000920E-02 0.  1.
        2   -1    0    0  501    0  0.00000000000E+00  0.00000000000E+00 -0.14618493079E+04  0.14618493079E+04  0.25500000920E-02 0. -1.
    10030    2    1    2    0    0  0.00000000000E+00  0.00000000000E+00 -0.96122070241E+03  0.19624779134E+04  0.17109571362E+04 0.  0.
        3    1    3    3  502    0  0.23067443844E+03 -0.82094876214E+02 -0.14208007352E+04  0.14417437375E+04  0.10100000352E+00 0. -1.
       -3    1    3    3    0  502 -0.23067443844E+03  0.82094876214E+02  0.45958003278E+03  0.52073417593E+03  0.10100000352E+00 0.  1.
</event>
<event>
 5   0  0.1654257E-06  0.3376026E+04  0.7818609E-02  0.8143816E-01
       -1   -1    0    0    0  501  0.00000000000E+00  0.00000000000E+00  0.25584880261E+04  0.25584880262E+04  0.50400001928E-02 0.  1.
        1   -1    0    0  501    0  0.00000000000E+00  0.00000000000E+00 -0.11136996368E+04  0.11136996369E+04  0.50400001928E-02 0. -1.
    10030    2    1    2    0    0  0.00000000000E+00  0.00000000000E+00  0.14447883893E+04  0.36721876630E+04  0.33760255838E+04 0.  0.
        3    1    3    3  502    0  0.55420641225E+03  0.55982141305E+03  0.23462924675E+04  0.24750016394E+04  0.10100000352E+00 0.  1.
       -3    1    3    3    0  502 -0.55420641225E+03 -0.55982141305E+03 -0.90150407819E+03  0.11971860236E+04  0.10100000352E+00 0. -1.
</event>
<event>
 5   0  0.4173467E-06  0.3571555E+04  0.7818609E-02  0.8097038E-01
        2   -1    0    0  501    0  0.00000000000E+00  0.00000000000E+00  0.19697669469E+04  0.19697669469E+04  0.25500000920E-02 0.  1.
       -2   -1    0    0    0  501  0.00000000000E+00  0.00000000000E+00 -0.16189743448E+04  0.16189743448E+04  0.25500000920E-02 0. -1.
    10030    2    1    2    0    0  0.00000000000E+00  0.00000000000E+00  0.35079260206E+03  0.35887412917E+04  0.35715554887E+04 0.  0.
        4    1    3    3  502    0  0.15227909372E+04 -0.31889346434E+03 -0.70541472011E+03  0.17082730520E+04  0.12699999809E+01 0. -1.
       -4    1    3    3    0  502 -0.15227909372E+04  0.31889346434E+03  0.10562073222E+04  0.18804682397E+04  0.12699999809E+01 0.  1.
</event>
<event>
 5   0  0.4400349E-06  0.3195182E+04  0.7818609E-02  0.8190091E-01
        2   -1    0    0  501    0  0.00000000000E+00  0.00000000000E+00  0.24381642831E+04  0.24381642831E+04  0.25500000920E-02 0. -1.
       -2   -1    0    0    0  501  0.00000000000E+00  0.00000000000E+00 -0.10468110658E+04  0.10468110658E+04  0.25500000920E-02 0.  1.
    10030    2    1    2    0    0  0.00000000000E+00  0.00000000000E+00  0.13913532173E+04  0.34849753489E+04  0.31951822182E+04 0.  0.
        5    1    3    3  502    0  0.21034044832E+03 -0.94257279403E+03 -0.69237766284E+03  0.11883162434E+04  0.46999998093E+01 0.  1.
       -5    1    3    3    0  502 -0.21034044832E+03  0.94257279403E+03  0.20837308801E+04  0.22966591056E+04  0.46999998093E+01 0. -1.
</event>
<event>
 5   0  0.4400349E-06  0.3242682E+04  0.7818609E-02  0.8177635E-01
       -2   -1    0    0    0  501  0.00000000000E+00  0.00000000000E+00  0.17430767245E+04  0.17430767245E+04  0.25500000920E-02 0. -1.
        2   -1    0    0  501    0  0.00000000000E+00  0.00000000000E+00 -0.15081070170E+04  0.15081070170E+04  0.25500000920E-02 0.  1.
    10030    2    1    2    0    0  0.00000000000E+00  0.00000000000E+00  0.23496970752E+03  0.32511837415E+04  0.32426817540E+04 0.  0.
        5    1    3    3  502    0  0.14925223485E+03 -0.51053879636E+03  0.16531003913E+04  0.17365739506E+04  0.46999998093E+01 0. -1.
       -5    1    3    3    0  502 -0.14925223485E+03  0.51053879636E+03 -0.14181306838E+04  0.15146097909E+04  0.46999998093E+01 0.  1.
</event>
<event>
 5   0  0.1550164E-06  0.3313752E+04  0.7818609E-02  0.8159405E-01
        1   -1    0    0  501    0  0.00000000000E+00  0.00000000000E+00  0.19373580499E+04  0.19373580499E+04  0.50400001928E-02 0. -1.
       -1   -1    0    0    0  501  0.00000000000E+00  0.00000000000E+00 -0.14170009544E+04  0.14170009544E+04  0.50400001928E-02 0.  1.
    10030    2    1    2    0    0  0.00000000000E+00  0.00000000000E+00  0.52035709548E+03  0.33543590043E+04  0.33137520762E+04 0.  0.
        4    1    3    3  502    0 -0.10872668205E+04 -0.13136166953E+03 -0.99837185920E+03  0.14819423097E+04  0.12699999809E+01 0.  1.
       -4    1    3    3    0  502  0.10872668205E+04  0.13136166953E+03  0.15187289547E+04  0.18724166945E+04  0.12699999809E+01 0. -1.
</event>
<event>
 5   0  0.1571391E-06  0.3556065E+04  0.7818609E-02  0.8100630E-01
        1   -1    0    0  501    0  0.00000000000E+00  0.00000000000E+00  0.20357679370E+04  0.20357679370E+04  0.50400001928E-02 0. -1.
       -1   -1    0    0    0  501  0.00000000000E+00  0.00000000000E+00 -0.15529275455E+04  0.15529275455E+04  0.50400001928E-02 0.  1.
    10030    2    1    2    0    0  0.00000000000E+00  0.00000000000E+00  0.48284039151E+03  0.35886954825E+04  0.35560653007E+04 0.  0.
        1    1    3    3  502    0 -0.27727481495E+03 -0.58087418957E+02 -0.15300054312E+04  0.15560115973E+04  0.50400001928E-02 0.  1.
       -1    1    3    3    0  502  0.27727481495E+03  0.58087418957E+02  0.20128458227E+04  0.20326838853E+04  0.50400001928E-02 0. -1.
</event>
<event>
 5   0  0.2101998E-06  0.3376833E+04  0.7818609E-02  0.8143616E-01
        1   -1    0    0  501    0  0.00000000000E+00  0.00000000000E+00  0.22184368646E+04  0.22184368646E+04  0.50400001928E-02 0.  1.
       -1   -1    0    0    0  501  0.00000000000E+00  0.00000000000E+00 -0.12850263092E+04  0.12850263092E+04  0.50400001928E-02 0. -1.
    10030    2    1    2    0    0  0.00000000000E+00  0.00000000000E+00  0.93341055541E+03  0.35034631738E+04  0.33768326794E+04 0.  0.
        5    1    3    3  502    0  0.14583592994E+03  0.81706704733E+02 -0.12764127845E+04  0.12873211684E+04  0.46999998093E+01 0. -1.
       -5    1    3    3    0  502 -0.14583592994E+03 -0.81706704733E+02  0.22098233400E+04  0.22161420054E+04  0.46999998093E+01 0.  1.
</event>
<event>
 5   0  0.4189587E-06  0.3485433E+04  0.7818609E-02  0.8117251E-01
       -2   -1    0    0    0  501  0.00000000000E+00  0.00000000000E+00  0.17284836518E+04  0.17284836518E+04  0.25500000920E-02 0. -1.
        2   -1    0    0  501    0  0.00000000000E+00  0.00000000000E+00 -0.17570665322E+04  0.17570665322E+04  0.25500000920E-02 0.  1.
    10030    2    1    2    0    0  0.00000000000E+00  0.00000000000E+00 -0.28582880426E+02  0.34855501840E+04  0.34854329866E+04 0.  0.
        1    1    3    3  502    0  0.37624037538E+03  0.11531899649E+04 -0.12655956210E+04  0.17530362777E+04  0.50400001928E-02 0.  1.
       -1    1    3    3    0  502 -0.37624037538E+03 -0.11531899649E+04  0.12370127406E+04  0.17325139063E+04  0.50400001928E-02 0. -1.
</event>
<event>
 5   0  0.1550164E-06  0.3166047E+04  0.7818609E-02  0.8197842E-01
        1   -1    0    0  501    0  0.00000000000E+00  0.00000000000E+00  0.14112230630E+04  0.14112230630E+04  0.50400001928E-02 0. -1.
       -1   -1    0    0    0  501  0.00000000000E+00  0.00000000000E+00 -0.17757389309E+04  0.17757389309E+04  0.50400001928E-02 0.  1.
    10030    2    1    2    0    0  0.00000000000E+00  0.00000000000E+00 -0.36451586789E+03  0.31869619939E+04  0.31660472095E+04 0.  0.
        4    1    3    3  502    0 -0.52038684873E+03  0.40391521703E+03  0.12666995631E+04  0.14277532598E+04  0.12699999809E+01 0. -1.
       -4    1    3    3    0  502  0.52038684873E+03 -0.40391521703E+03 -0.16312154310E+04  0.17592087341E+04  0.12699999809E+01 0.  1.
</event>
<event>
 5   0  0.4173467E-06  0.3412601E+04  0.7818609E-02  0.8134820E-01
       -2   -1    0    0    0  501  0.00000000000E+00  0.00000000000E+00  0.14130871501E+04  0.14130871501E+04  0.25500000920E-02 0.  1.
        2   -1    0    0  501    0  0.00000000000E+00  0.00000000000E+00 -0.20603554160E+04  0.20603554160E+04  0.25500000920E-02 0. -1.
    10030    2    1    2    0    0  0.00000000000E+00  0.00000000000E+00 -0.64726826590E+03  0.34734425662E+04  0.34126012150E+04 0.  0.
        4    1    3    3  502    0  0.44742964354E+03 -0.10519602023E+04 -0.16129647057E+04  0.19769851562E+04  0.12699999809E+01 0. -1.
       -4    1    3    3    0  502 -0.44742964354E+03  0.10519602023E+04  0.96569643980E+03  0.14964574100E+04  0.12699999809E+01 0.  1.
</event>
<event>
 5   0  0.1654257E-06  0.3330107E+04  0.7818609E-02  0.8155277E-01
       -1   -1    0    0    0  501  0.00000000000E+00  0.00000000000E+00  0.12656833012E+04  0.12656833012E+04  0.50400001928E-02 0.  1.
        1   -1    0    0  501    0  0.00000000000E+00  0.00000000000E+00 -0.21904402380E+04  0.21904402380E+04  0.50400001928E-02 0. -1.
    10030    2    1    2    0    0  0.00000000000E+00  0.00000000000E+00 -0.92475693676E+03  0.34561235393E+04  0.33301072845E+04 0.  0.
        3    1    3    3  502    0  0.99728341779E+03 -0.13200712288E+04 -0.65720914730E+03  0.17801927250E+04  0.10100000352E+00 0. -1.
       -3    1    3    3    0  502 -0.99728341779E+03  0.13200712288E+04 -0.26754778946E+03  0.16759308143E+04  0.10100000352E+00 0.  1.
</event>
<event>
 5   0  0.4400349E-06  0.3357014E+04  0.7818609E-02  0.8148538E-01
        2   -1    0    0  501    0  0.00000000000E+00  0.00000000000E+00  0.18398877525E+04  0.18398877525E+04  0.25500000920E-02 0. -1.
       -2   -1    0    0    0  501  0.00000000000E+00  0.00000000000E+00 -0.15312810149E+04  0.15312810149E+04  0.25500000920E-02 0.  1.
    10030    2    1    2    0    0  0.00000000000E+00  0.00000000000E+00  0.30860673759E+03  0.33711687673E+04  0.33570136638E+04 0.  0.
        5    1    3    3  502    0 -0.16078651080E+03  0.15041806273E+04  0.88466051808E+03  0.17524434325E+04  0.46999998093E+01 0. -1.
       -5    1    3    3    0  502  0.16078651080E+03 -0.15041806273E+04 -0.57605378050E+03  0.16187253349E+04  0.46999998093E+01 0.  1.
</event>
<event>
 5   0  0.2101998E-06  0.3430851E+04  0.7818609E-02  0.8130376E-01
        1   -1    0    0  501    0  0.00000000000E+00  0.00000000000E+00  0.19701139447E+04  0.19701139447E+04  0.50400001928E-02 0. -1.
       -1   -1    0    0    0  501  0.00000000000E+00  0.00000000000E+00 -0.14936617352E+04  0.14936617352E+04  0.50400001928E-02 0.  1.
    10030    2    1    2    0    0  0.00000000000E+00  0.00000000000E+00  0.47645220951E+03  0.34637756800E+04  0.34308505145E+04 0.  0.
        5    1    3    3  502    0 -0.60349184587E+03 -0.11459614986E+02 -0.13829009160E+04  0.15088972013E+04  0.46999998093E+01 0.  1.
       -5    1    3    3    0  502  0.60349184587E+03  0.11459614986E+02  0.18593531255E+04  0.19548784786E+04  0.46999998093E+01 0. -1.
</event>
<event>
 5   0  0.4344980E-06  0.3358397E+04  0.7818609E-02  0.8148193E-01
       -2   -1    0    0    0  501  0.00000000000E+00  0.00000000000E+00  0.16166112772E+04  0.16166112772E+04  0.25500000920E-02 0. -1.
        2   -1    0    0  501    0  0.00000000000E+00  0.00000000000E+00 -0.17442083243E+04  0.17442083243E+04  0.25500000920E-02 0.  1.
    10030    2    1    2    0    0  0.00000000000E+00  0.00000000000E+00 -0.12759704714E+03  0.33608196014E+04  0.33583965500E+04 0.  0.
        3    1    3    3  502    0 -0.13678050101E+03 -0.15328056365E+04  0.60862735331E+03  0.16548804458E+04  0.10100000352E+00 0.  1.
       -3    1    3    3    0  502  0.13678050101E+03  0.15328056365E+04 -0.73622440045E+03  0.17059391556E+04  0.10100000352E+00 0. -1.
</event>
<event>
 5   0  0.4344980E-06  0.3344937E+04  0.7818609E-02  0.8151554E-01
        2   -1    0    0  501    0  0.00000000000E+00  0.00000000000E+00  0.24200387269E+04  0.24200387269E+04  0.25500000920E-02 0. -1.
       -2   -1    0    0    0  501  0.00000000000E+00  0.00000000000E+00 -0.11558293108E+04  0.11558293108E+04  0.25500000920E-02 0.  1.
    10030    2    1    2    0    0  0.00000000000E+00  0.00000000000E+00  0.12642094161E+04  0.35758680377E+04  0.33449374845E+04 0.  0.
        3    1    3    3  502    0 -0.78243889916E+03 -0.56955300698E+03  0.20902949929E+04  0.23034614010E+04  0.10100000352E+00 0. -1.
       -3    1    3    3    0  502  0.78243889916E+03  0.56955300698E+03 -0.82608557674E+03  0.12724066366E+04  0.10100000352E+00 0.  1.
</event>
<event>
 5   0  0.4400349E-06  0.3422461E+04  0.7818609E-02  0.8132416E-01
       -2   -1    0    0    0  501  0.00000000000E+00  0.00000000000E+00  0.14737794805E+04  0.14737794805E+04  0.25500000920E-02 0.  1.
        2   -1    0    0  501    0  0.00000000000E+00  0.00000000000E+00 -0.19869389118E+04  0.19869389118E+04  0.25500000920E-02 0. -1.
    10030    2    1    2    0    0  0.00000000000E+00  0.00000000000E+00 -0.51315943128E+03  0.34607183922E+04  0.34224609842E+04 0.  0.
        5    1    3    3  502    0  0.85452734094E+03  0.14659635944E+04 -0.32696816080E+02  0.16971615740E+04  0.46999998093E+01 0. -1.
       -5    1    3    3    0  502 -0.85452734094E+03 -0.14659635944E+04 -0.48046261520E+03  0.17635568182E+04  0.46999998093E+01 0.  1.
</event>
<event>
 5   0  0.1562618E-06  0.3435550E+04  0.7818609E-02  0.8129236E-01
       -1   -1    0    0    0  501  0.00000000000E+00  0.00000000000E+00  0.21638529013E+04  0.21638529013E+04  0.50400001928E-02 0. -1.
        1   -1    0    0  501    0  0.00000000000E+00  0.00000000000E+00 -0.13636560982E+04  0.13636560982E+04  0.50400001928E-02 0.  1.
    10030    2    1    2    0    0  0.00000000000E+00  0.00000000000E+00  0.80019680308E+03  0.35275089996E+04  0.34355501479E+04 0.  0.
        2    1    3    3  502    0 -0.79640677667E+03  0.10306142209E+04 -0.74984461357E+03  0.15028959947E+04  0.25500000920E-02 0.  1.
       -2    1    3    3    0  502  0.79640677667E+03 -0.10306142209E+04  0.15500414166E+04  0.20246130049E+04  0.25500000920E-02 0. -1.
</event>
<event>
 5   0  0.2722449E-06  0.3307054E+04  0.7818609E-02  0.8161103E-01
        2   -1    0    0  501    0  0.00000000000E+00  0.00000000000E+00  0.16632563257E+04  0.16632563257E+04  0.25500000920E-02 0. -1.
       -2   -1    0    0    0  501  0.00000000000E+00  0.00000000000E+00 -0.16438549301E+04  0.16438549301E+04  0.25500000920E-02 0.  1.
    10030    2    1    2    0    0  0.00000000000E+00  0.00000000000E+00  0.19401395565E+02  0.33071112558E+04  0.33070543455E+04 0.  0.
        2    1    3    3  502    0  0.33403243712E+03 -0.15948056950E+04  0.29107582451E+03  0.16552063344E+04  0.25500000920E-02 0. -1.
       -2    1    3    3    0  502 -0.33403243712E+03  0.15948056950E+04 -0.27167442895E+03  0.16519049214E+04  0.25500000920E-02 0.  1.
</event>
<event>
 5   0  0.4189587E-06  0.2906611E+04  0.7818609E-02  0.8270913E-01
        2   -1    0    0  501    0  0.00000000000E+00  0.00000000000E+00  0.21520445640E+04  0.21520445640E+04  0.25500000920E-02 0.  1.
       -2   -1    0    0    0  501  0.00000000000E+00  0.00000000000E+00 -0.98143699655E+03  0.98143699655E+03  0.25500000920E-02 0. -1.
    10030    2    1    2    0    0  0.00000000000E+00  0.00000000000E+00  0.11706075675E+04  0.31334815606E+04  0.29066105025E+04 0.  0.
        1    1    3    3  502    0  0.12000598971E+04  0.56785618994E+03  0.12226255713E+04  0.18048317641E+04  0.50400001928E-02 0.  1.
       -1    1    3    3    0  502 -0.12000598971E+04 -0.56785618994E+03 -0.52018003813E+02  0.13286497965E+04  0.50400001928E-02 0. -1.
</event>
<event>
 5   0  0.1571391E-06  0.3126082E+04  0.7818609E-02  0.8208616E-01
       -1   -1    0    0    0  501  0.00000000000E+00  0.00000000000E+00  0.14283533164E+04  0.14283533164E+04  0.50400001928E-02 0. -1.
        1   -1    0    0  501    0  0.00000000000E+00  0.00000000000E+00 -0.17104293059E+04  0.17104293059E+04  0.50400001928E-02 0.  1.
    10030    2    1    2    0    0  0.00000000000E+00  0.00000000000E+00 -0.28207598957E+03  0.31387826223E+04  0.31260821305E+04 0.  0.
        1    1    3    3  502    0 -0.10329749258E+04 -0.71791275836E+03 -0.10725254918E+04  0.16531021918E+04  0.50400001928E-02 0.  1.
       -1    1    3    3    0  502  0.10329749258E+04  0.71791275836E+03  0.79044950227E+03  0.14856804305E+04  0.50400001928E-02 0. -1.
</event>
<event>
 5   0  0.4189587E-06  0.3172043E+04  0.7818609E-02  0.8196240E-01
       -2   -1    0    0    0  501  0.00000000000E+00  0.00000000000E+00  0.17583652420E+04  0.17583652420E+04  0.25500000920E-02 0. -1.
        2   -1    0    0  501    0  0.00000000000E+00  0.00000000000E+00 -0.14305696901E+04  0.14305696902E+04  0.25500000920E-02 0.  1.
    10030    2    1    2    0    0  0.00000000000E+00  0.00000000000E+00  0.32779555186E+03  0.31889349322E+04  0.31720428871E+04 0.  0.
        1    1    3    3  502    0 -0.40435217618E+03  0.11683195713E+04  0.11626633886E+04  0.16971321275E+04  0.50400001928E-02 0. -1.
       -1    1    3    3    0  502  0.40435217618E+03 -0.11683195713E+04 -0.83486783675E+03  0.14918028046E+04  0.50400001928E-02 0.  1.
</event>
<event>
 5   0  0.1550164E-06  0.3377896E+04  0.7818609E-02  0.8143353E-01
       -1   -1    0    0    0  501  0.00000000000E+00  0.00000000000E+00  0.10078933053E+04  0.10078933053E+04  0.50400001928E-02 0.  1.
        1   -1    0    0  501    0  0.00000000000E+00  0.00000000000E+00 -0.28302048840E+04  0.28302048840E+04  0.50400001928E-02 0. -1.
    10030    2    1    2    0    0  0.00000000000E+00  0.00000000000E+00 -0.18223115787E+04  0.38380981893E+04  0.33778955314E+04 0.  0.
        4    1    3    3  502    0  0.88480879660E+03 -0.10365482297E+04 -0.20446787194E+04  0.24572406307E+04  0.12699999809E+01 0. -1.
       -4    1    3    3    0  502 -0.88480879660E+03  0.10365482297E+04  0.22236714066E+03  0.13808575586E+04  0.12699999809E+01 0.  1.
</event>
<event>
 5   0  0.4344980E-06  0.3334149E+04  0.7818609E-02  0.8154260E-01
       -2   -1    0    0    0  501  0.00000000000E+00  0.00000000000E+00  0.17070330806E+04  0.17070330806E+04  0.25500000920E-02 0. -1.
        2   -1    0    0  501    0  0.00000000000E+00  0.00000000000E+00 -0.16280511620E+04  0.16280511620E+04  0.25500000920E-02 0.  1.
    10030    2    1    2    0    0  0.00000000000E+00  0.00000000000E+00  0.78981918596E+02  0.33350842426E+04  0.33341488812E+04 0.  0.
        3    1    3    3  502    0  0.26152782738E+02  0.75882852417E+02 -0.16261173157E+04  0.16280969596E+04  0.10100000352E+00 0.  1.
       -3    1    3    3    0  502 -0.26152782738E+02 -0.75882852417E+02  0.17050992343E+04  0.17069872830E+04  0.10100000352E+00 0. -1.
</event>
<event>
 5   0  0.1571391E-06  0.1884713E+04  0.7818609E-02  0.8662503E-01
        1   -1    0    0  501    0  0.00000000000E+00  0.00000000000E+00  0.12476604812E+04  0.12476604812E+04  0.50400001928E-02 0.  1.
       -1   -1    0    0    0  501  0.00000000000E+00  0.00000000000E+00 -0.71176051787E+03  0.71176051789E+03  0.50400001928E-02 0. -1.
    10030    2    1    2    0    0  0.00000000000E+00  0.00000000000E+00  0.53589996336E+03  0.19594209991E+04  0.18847126787E+04 0.  0.
        1    1    3    3  502    0  0.42905496115E+03 -0.21388477416E+03  0.11114046523E+04  0.12103946289E+04  0.50400001928E-02 0.  1.
       -1    1    3    3    0  502 -0.42905496115E+03  0.21388477416E+03 -0.57550468898E+03  0.74902637028E+03  0.50400001928E-02 0. -1.
</event>
<event>
 5   0  0.2722449E-06  0.3459869E+04  0.7818609E-02  0.8123367E-01
       -2   -1    0    0    0  501  0.00000000000E+00  0.00000000000E+00  0.16400307977E+04  0.16400307977E+04  0.25500000920E-02 0. -1.
        2   -1    0    0  501    0  0.00000000000E+00  0.00000000000E+00 -0.18247668867E+04  0.18247668867E+04  0.25500000920E-02 0.  1.
    10030    2    1    2    0    0  0.00000000000E+00  0.00000000000E+00 -0.18473608900E+03  0.34647976844E+04  0.34598692998E+04 0.  0.
        2    1    3    3  502    0 -0.98110831724E+03  0.14013056484E+04 -0.35050030744E+03  0.17461619387E+04  0.25500000920E-02 0. -1.
       -2    1    3    3    0  502  0.98110831724E+03 -0.14013056484E+04  0.16576421844E+03  0.17186357458E+04  0.25500000920E-02 0.  1.
</event>
<event>
 5   0  0.2101998E-06  0.3395130E+04  0.7818609E-02  0.8139103E-01
       -1   -1    0    0    0  501  0.00000000000E+00  0.00000000000E+00  0.18476241677E+04  0.18476241677E+04  0.50400001928E-02 0.  1.
        1   -1    0    0  501    0  0.00000000000E+00  0.00000000000E+00 -0.15596931829E+04  0.15596931829E+04  0.50400001928E-02 0. -1.
    10030    2    1    2    0    0  0.00000000000E+00  0.00000000000E+00  0.28793098481E+03  0.34073173505E+04  0.33951299350E+04 0.  0.
        5    1    3    3  502    0 -0.23015378191E+03  0.11888014354E+04 -0.10500469101E+04  0.16027601878E+04  0.46999998093E+01 0. -1.
       -5    1    3    3    0  502  0.23015378191E+03 -0.11888014354E+04  0.13379778949E+04  0.18045571627E+04  0.46999998093E+01 0.  1.
</event>
<event>
 5   0  0.1562618E-06  0.3202700E+04  0.7818609E-02  0.8188104E-01
        1   -1    0    0  501    0  0.00000000000E+00  0.00000000000E+00  0.92071366487E+03  0.92071366489E+03  0.50400001928E-02 0.  1.
       -1   -1    0    0    0  501  0.00000000000E+00  0.00000000000E+00 -0.27851465160E+04  0.27851465160E+04  0.50400001928E-02 0. -1.
    10030    2    1    2    0    0  0.00000000000E+00  0.00000000000E+00 -0.18644328511E+04  0.37058601809E+04  0.32027003956E+04 0.  0.
        2    1    3    3  502    0 -0.13211153671E+04  0.17521228585E+03 -0.19595517605E+04  0.23697865432E+04  0.25500000920E-02 0. -1.
       -2    1    3    3    0  502  0.13211153671E+04 -0.17521228585E+03  0.95118909428E+02  0.13360736376E+04  0.25500000920E-02 0.  1.
</event>
<event>
 5   0  0.2101998E-06  0.3650961E+04  0.7818609E-02  0.8078917E-01
        1   -1    0    0  501    0  0.00000000000E+00  0.00000000000E+00  0.31939189780E+04  0.31939189780E+04  0.50400001928E-02 0. -1.
       -1   -1    0    0    0  501  0.00000000000E+00  0.00000000000E+00 -0.10433512332E+04  0.10433512332E+04  0.50400001928E-02 0.  1.
    10030    2    1    2    0    0  0.00000000000E+00  0.00000000000E+00  0.21505677448E+04  0.42372702111E+04  0.36509611361E+04 0.  0.
        5    1    3    3  502    0  0.21685948954E+02 -0.27498076503E+03  0.31695859402E+04  0.31815690820E+04  0.46999998093E+01 0. -1.
       -5    1    3    3    0  502 -0.21685948954E+02  0.27498076503E+03 -0.10190181954E+04  0.10557011291E+04  0.46999998093E+01 0.  1.
</event>
<event>
 5   0  0.4344980E-06  0.3048272E+04  0.7818609E-02  0.8230079E-01
       -2   -1    0    0    0  501  0.00000000000E+00  0.00000000000E+00  0.14224721250E+04  0.14224721250E+04  0.25500000920E-02 0. -1.
        2   -1    0    0  501    0  0.00000000000E+00  0.00000000000E+00 -0.16330658091E+04  0.16330658091E+04  0.25500000920E-02 0.  1.
    10030    2    1    2    0    0  0.00000000000E+00  0.00000000000E+00 -0.21059368404E+03  0.30555379341E+04  0.30482720297E+04 0.  0.
        3    1    3    3  502    0  0.36338002903E+03  0.68695015373E+03  0.12089519432E+04  0.14371883559E+04  0.10100000352E+00 0. -1.
       -3    1    3    3    0  502 -0.36338002903E+03 -0.68695015373E+03 -0.14195456272E+04  0.16183495782E+04  0.10100000352E+00 0.  1.
</event>
<event>
 5   0  0.2101998E-06  0.3209843E+04  0.7818609E-02  0.8186223E-01
        1   -1    0    0  501    0  0.00000000000E+00  0.00000000000E+00  0.13331009427E+04  0.13331009427E+04  0.50400001928E-02 0. -1.
       -1   -1    0    0    0  501  0.00000000000E+00  0.00000000000E+00 -0.19321661443E+04  0.19321661443E+04  0.50400001928E-02 0.  1.
    10030    2    1    2    0    0  0.00000000000E+00  0.00000000000E+00 -0.59906520159E+03  0.32652670870E+04  0.32098426805E+04 0.  0.
        5    1    3    3  502    0 -0.12409700727E+04 -0.44177377129E+03  0.63312964002E+03  0.14615218156E+04  0.46999998093E+01 0. -1.
       -5    1    3    3    0  502  0.12409700727E+04  0.44177377129E+03 -0.12321948416E+04  0.18037452714E+04  0.46999998093E+01 0.  1.
</event>
<event>
 5   0  0.4173467E-06  0.3292904E+04  0.7818609E-02  0.8164703E-01
       -2   -1    0    0    0  501  0.00000000000E+00  0.00000000000E+00  0.16323703662E+04  0.16323703662E+04  0.25500000920E-02 0. -1.
        2   -1    0    0  501    0  0.00000000000E+00  0.00000000000E+00 -0.16606554947E+04  0.16606554947E+04  0.25500000920E-02 0.  1.
    10030    2    1    2    0    0  0.00000000000E+00  0.00000000000E+00 -0.28285128515E+02  0.32930258608E+04  0.32929043824E+04 0.  0.
        4    1    3    3  502    0  0.20283100323E+03 -0.80015923261E+03 -0.14387680336E+04  0.16587496137E+04  0.12699999809E+01 0.  1.
       -4    1    3    3    0  502 -0.20283100323E+03  0.80015923261E+03  0.14104829051E+04  0.16342762471E+04  0.12699999809E+01 0. -1.
</event>
<event>
 5   0  0.4344980E-06  0.3398919E+04  0.7818609E-02  0.8138172E-01
        2   -1    0    0  501    0  0.00000000000E+00  0.00000000000E+00  0.19700349654E+04  0.19700349654E+04  0.25500000920E-02 0. -1.
       -2   -1    0    0    0  501  0.00000000000E+00  0.00000000000E+00 -0.14660465360E+04  0.14660465360E+04  0.25500000920E-02 0.  1.
    10030    2    1    2    0    0  0.00000000000E+00  0.00000000000E+00  0.50398842939E+03  0.34360815015E+04  0.33989192029E+04 0.  0.
        3    1    3    3  502    0 -0.14775099409E+04 -0.82098021279E+03  0.73660285952E+02  0.16918835607E+04  0.10100000352E+00 0.  1.
       -3    1    3    3    0  502  0.14775099409E+04  0.82098021279E+03  0.43032814343E+03  0.17441979407E+04  0.10100000352E+00 0. -1.
</event>
<event>
 5   0  0.4344980E-06  0.3394891E+04  0.7818609E-02  0.8139161E-01
       -2   -1    0    0    0  501  0.00000000000E+00  0.00000000000E+00  0.12702826682E+04  0.12702826682E+04  0.25500000920E-02 0.  1.
        2   -1    0    0  501    0  0.00000000000E+00  0.00000000000E+00 -0.22682515855E+04  0.22682515855E+04  0.25500000920E-02 0. -1.
    10030    2    1    2    0    0  0.00000000000E+00  0.00000000000E+00 -0.99796891729E+03  0.35385342536E+04  0.33948906763E+04 0.  0.
        3    1    3    3  502    0 -0.89193363769E+03 -0.14152244556E+04 -0.79911736833E+03  0.18539132807E+04  0.10100000352E+00 0.  1.
       -3    1    3    3    0  502  0.89193363769E+03  0.14152244556E+04 -0.19885154896E+03  0.16846209729E+04  0.10100000352E+00 0. -1.
</event>
<event>
 5   0  0.1654257E-06  0.1907589E+04  0.7818609E-02  0.8651088E-01
        1   -1    0    0  501    0  0.00000000000E+00  0.00000000000E+00  0.53827266310E+03  0.53827266313E+03  0.50400001928E-02 0. -1.
       -1   -1    0    0    0  501  0.00000000000E+00  0.00000000000E+00 -0.16900796938E+04  0.16900796938E+04  0.50400001928E-02 0.  1.
    10030    2    1    2    0    0  0.00000000000E+00  0.00000000000E+00 -0.11518070307E+04  0.22283523569E+04  0.19075887373E+04 0.  0.
        3    1    3    3  502    0 -0.72105257736E+03  0.42328174423E+03 -0.39774942385E+02  0.83705812854E+03  0.10100000352E+00 0. -1.
       -3    1    3    3    0  502  0.72105257736E+03 -0.42328174423E+03 -0.11120320883E+04  0.13912942284E+04  0.10100000352E+00 0.  1.
</event>
<event>
 5   0  0.2101998E-06  0.2869973E+04  0.7818609E-02  0.8281868E-01
        1   -1    0    0  501    0  0.00000000000E+00  0.00000000000E+00  0.10014060462E+04  0.10014060462E+04  0.50400001928E-02 0. -1.
       -1   -1    0    0    0  501  0.00000000000E+00  0.00000000000E+00 -0.20562952483E+04  0.20562952483E+04  0.50400001928E-02 0.  1.
    10030    2    1    2    0    0  0.00000000000E+00  0.00000000000E+00 -0.10548892021E+04  0.30577012945E+04  0.28699731668E+04 0.  0.
        5    1    3    3  502    0  0.53345554717E+03  0.83411243478E+03  0.57917142327E+03  0.11470745408E+04  0.46999998093E+01 0. -1.
       -5    1    3    3    0  502 -0.53345554717E+03 -0.83411243478E+03 -0.16340606254E+04  0.19106267537E+04  0.46999998093E+01 0.  1.
</event>
<event>
 5   0  0.4344980E-06  0.2454779E+04  0.7818609E-02  0.8419275E-01
       -2   -1    0    0    0  501  0.00000000000E+00  0.00000000000E+00  0.19241002029E+04  0.19241002029E+04  0.25500000920E-02 0.  1.
        2   -1    0    0  501    0  0.00000000000E+00  0.00000000000E+00 -0.78295565307E+03  0.78295565308E+03  0.25500000920E-02 0. -1.
    10030    2    1    2    0    0  0.00000000000E+00  0.00000000000E+00  0.11411445499E+04  0.27070558560E+04  0.24547791192E+04 0.  0.
        3    1    3    3  502    0  0.29779864521E+03  0.98124023396E+03 -0.17326091395E+03  0.10399691266E+04  0.10100000352E+00 0. -1.
       -3    1    3    3    0  502 -0.29779864521E+03 -0.98124023396E+03  0.13144054638E+04  0.16670867294E+04  0.10100000352E+00 0.  1.
</event>
<event>
 5   0  0.1562618E-06  0.3348775E+04  0.7818609E-02  0.8150594E-01
       -1   -1    0    0    0  501  0.00000000000E+00  0.00000000000E+00  0.11591791162E+04  0.11591791162E+04  0.50400001928E-02 0.  1.
        1   -1    0    0  501    0  0.00000000000E+00  0.00000000000E+00 -0.24185848574E+04  0.24185848574E+04  0.50400001928E-02 0. -1.
    10030    2    1    2    0    0  0.00000000000E+00  0.00000000000E+00 -0.12594057412E+04  0.35777639737E+04  0.33487747357E+04 0.  0.
        2    1    3    3  502    0  0.97728360207E+03 -0.22411995724E+03  0.80298637791E+03  0.12845622279E+04  0.25500000920E-02 0.  1.
       -2    1    3    3    0  502 -0.97728360207E+03  0.22411995724E+03 -0.20623921191E+04  0.22932017458E+04  0.25500000920E-02 0. -1.
</event>
<event>
 5   0  0.4173467E-06  0.3404605E+04  0.7818609E-02  0.8136777E-01
       -2   -1    0    0    0  501  0.00000000000E+00  0.00000000000E+00  0.12764995439E+04  0.12764995439E+04  0.25500000920E-02 0.  1.
        2   -1    0    0  501    0  0.00000000000E+00  0.00000000000E+00 -0.22701407740E+04  0.22701407740E+04  0.25500000920E-02 0. -1.
    10030    2    1    2    0    0  0.00000000000E+00  0.00000000000E+00 -0.99364123012E+03  0.35466403179E+04  0.34046049184E+04 0.  0.
        4    1    3    3  502    0 -0.65492442947E+03  0.11123459554E+04  0.65924888958E+03  0.14494310070E+04  0.12699999809E+01 0.  1.
       -4    1    3    3    0  502  0.65492442947E+03 -0.11123459554E+04 -0.16528901197E+04  0.20972093108E+04  0.12699999809E+01 0. -1.
</event>
<event>
 5   0  0.2101998E-06  0.3366528E+04  0.7818609E-02  0.8146171E-01
       -1   -1    0    0    0  501  0.00000000000E+00  0.00000000000E+00  0.23903273725E+04  0.23903273725E+04  0.50400001928E-02 0. -1.
        1   -1    0    0  501    0  0.00000000000E+00  0.00000000000E+00 -0.11853512805E+04  0.11853512805E+04  0.50400001928E-02 0.  1.
    10030    2    1    2    0    0  0.00000000000E+00  0.00000000000E+00  0.12049760921E+04  0.35756786530E+04  0.33665279514E+04 0.  0.
        5    1    3    3  502    0 -0.12244998635E+04  0.42047969649E+03  0.17450283869E+04  0.21728665979E+04  0.46999998093E+01 0.  1.
       -5    1    3    3    0  502  0.12244998635E+04 -0.42047969649E+03 -0.54005229488E+03  0.14028120552E+04  0.46999998093E+01 0. -1.
</event>
<event>
 5   0  0.1571391E-06  0.3354501E+04  0.7818609E-02  0.8149164E-01
       -1   -1    0    0    0  501  0.00000000000E+00  0.00000000000E+00  0.19759423250E+04  0.19759423250E+04  0.50400001928E-02 0.  1.
        1   -1    0    0  501    0  0.00000000000E+00  0.00000000000E+00 -0.14237105483E+04  0.14237105483E+04  0.50400001928E-02 0. -1.
    10030    2    1    2    0    0  0.00000000000E+00  0.00000000000E+00  0.55223177665E+03  0.33996528733E+04  0.33545014121E+04 0.  0.
        1    1    3    3  502    0  0.68265223004E+02  0.44398657488E+03 -0.13616133696E+04  0.14337974709E+04  0.50400001928E-02 0. -1.
       -1    1    3    3    0  502 -0.68265223004E+02 -0.44398657488E+03  0.19138451462E+04  0.19658554024E+04  0.50400001928E-02 0.  1.
</event>
<event>
 5   0  0.1571391E-06  0.3498004E+04  0.7818609E-02  0.8114263E-01
       -1   -1    0    0    0  501  0.00000000000E+00  0.00000000000E+00  0.16205934782E+04  0.16205934782E+04  0.50400001928E-02 0. -1.
        1   -1    0    0  501    0  0.00000000000E+00  0.00000000000E+00 -0.18875851375E+04  0.18875851375E+04  0.50400001928E-02 0.  1.
    10030    2    1    2    0    0  0.00000000000E+00  0.00000000000E+00 -0.26699165933E+03  0.35081786157E+04  0.34980040957E+04 0.  0.
        1    1    3    3  502    0 -0.16095568609E+04  0.55308307770E+03 -0.53769910771E+03  0.17848513971E+04  0.50400001928E-02 0.  1.
       -1    1    3    3    0  502  0.16095568609E+04 -0.55308307770E+03  0.27070744838E+03  0.17233272185E+04  0.50400001928E-02 0. -1.
</event>
<event>
 5   0  0.1562618E-06  0.3357587E+04  0.7818609E-02  0.8148395E-01
       -1   -1    0    0    0  501  0.00000000000E+00  0.00000000000E+00  0.11760631952E+04  0.11760631952E+04  0.50400001928E-02 0. -1.
        1   -1    0    0  501    0  0.00000000000E+00  0.00000000000E+00 -0.23964248340E+04  0.23964248340E+04  0.50400001928E-02 0.  1.
    10030    2    1    2    0    0  0.00000000000E+00  0.00000000000E+00 -0.12203616388E+04  0.35724880293E+04  0.33575866615E+04 0.  0.
        2    1    3    3  502    0  0.43612500661E+03  0.10937753117E+04  0.66298322571E+03  0.13513312737E+04  0.25500000920E-02 0. -1.
       -2    1    3    3    0  502 -0.43612500661E+03 -0.10937753117E+04 -0.18833448646E+04  0.22211567555E+04  0.25500000920E-02 0.  1.
</event>
<event>
 5   0  0.2722449E-06  0.2892663E+04  0.7818609E-02  0.8275064E-01
       -2   -1    0    0    0  501  0.00000000000E+00  0.00000000000E+00  0.86534958418E+03  0.86534958419E+03  0.25500000920E-02 0.  1.
        2   -1    0    0  501    0  0.00000000000E+00  0.00000000000E+00 -0.24173760757E+04  0.24173760757E+04  0.25500000920E-02 0. -1.
    10030    2    1    2    0    0  0.00000000000E+00  0.00000000000E+00 -0.15520264915E+04  0.32827256599E+04  0.28926633969E+04 0.  0.
        2    1    3    3  502    0  0.58214417612E+03  0.13230831768E+04 -0.83200665264E+03  0.16678357247E+04  0.25500000920E-02 0. -1.
       -2    1    3    3    0  502 -0.58214417612E+03 -0.13230831768E+04 -0.72001983890E+03  0.16148899352E+04  0.25500000920E-02 0.  1.
</event>
<event>
 5   0  0.4189587E-06  0.3365031E+04  0.7818609E-02  0.8146543E-01
       -2   -1    0    0    0  501  0.00000000000E+00  0.00000000000E+00  0.15881945829E+04  0.15881945829E+04  0.25500000920E-02 0. -1.
        2   -1    0    0  501    0  0.00000000000E+00  0.00000000000E+00 -0.17824380151E+04  0.17824380151E+04  0.25500000920E-02 0.  1.
    10030    2    1    2    0    0  0.00000000000E+00  0.00000000000E+00 -0.19424343225E+03  0.33706325980E+04  0.33650309954E+04 0.  0.
        1    1    3    3  502    0 -0.87879048768E+03 -0.99704921559E+03  0.93633145696E+03  0.16257602704E+04  0.50400001928E-02 0. -1.
       -1    1    3    3    0  502  0.87879048768E+03  0.99704921559E+03 -0.11305748892E+04  0.17448723276E+04  0.50400001928E-02 0.  1.
</event>
<event>
 5   0  0.1550164E-06  0.3360522E+04  0.7818609E-02  0.8147664E-01
       -1   -1    0    0    0  501  0.00000000000E+00  0.00000000000E+00  0.17961787568E+04  0.17961787568E+04  0.50400001928E-02 0. -1.
        1   -1    0    0  501    0  0.00000000000E+00  0.00000000000E+00 -0.15718238313E+04  0.15718238313E+04  0.50400001928E-02 0.  1.
    10030    2    1    2    0    0  0.00000000000E+00  0.00000000000E+00  0.22435492556E+03  0.33680025881E+04  0.33605217304E+04 0.  0.
        4    1    3    3  502    0  0.26291452557E+02 -0.88056592963E+03 -0.13218071948E+04  0.15884783505E+04  0.12699999809E+01 0.  1.
       -4    1    3    3    0  502 -0.26291452557E+02  0.88056592963E+03  0.15461621204E+04  0.17795242376E+04  0.12699999809E+01 0. -1.
</event>
<event>
 5   0  0.4344980E-06  0.2703713E+04  0.7818609E-02  0.8333801E-01
       -2   -1    0    0    0  501  0.00000000000E+00  0.00000000000E+00  0.80760844485E+03  0.80760844486E+03  0.25500000920E-02 0. -1.
        2   -1    0    0  501    0  0.00000000000E+00  0.00000000000E+00 -0.22628740138E+04  0.22628740138E+04  0.25500000920E-02 0.  1.
    10030    2    1    2    0    0  0.00000000000E+00  0.00000000000E+00 -0.14552655690E+04  0.30704824587E+04  0.27037131232E+04 0.  0.
        3    1    3    3  502    0  0.12703130841E+04  0.42064197522E+03 -0.50953651411E+03  0.14318737627E+04  0.10100000352E+00 0. -1.
       -3    1    3    3    0  502 -0.12703130841E+04 -0.42064197522E+03 -0.94572905486E+03  0.16386086959E+04  0.10100000352E+00 0.  1.
</event>
<event>
 5   0  0.4344980E-06  0.2977149E+04  0.7818609E-02  0.8250287E-01
        2   -1    0    0  501    0  0.00000000000E+00  0.00000000000E+00  0.14509089196E+04  0.14509089196E+04  0.25500000920E-02 0.  1.
       -2   -1    0    0    0  501  0.00000000000E+00  0.00000000000E+00 -0.15272173962E+04  0.15272173962E+04  0.25500000920E-02 0. -1.
    10030    2    1    2    0    0  0.00000000000E+00  0.00000000000E+00 -0.76308476570E+02  0.29781263158E+04  0.29771485299E+04 0.  0.
        3    1    3    3  502    0  0.89773192245E+03  0.10434816601E+04 -0.60497668837E+03  0.15035868393E+04  0.10100000352E+00 0. -1.
       -3    1    3    3    0  502 -0.89773192245E+03 -0.10434816601E+04  0.52866821180E+03  0.14745394765E+04  0.10100000352E+00 0.  1.
</event>
<event>
 5   0  0.2722449E-06  0.3393022E+04  0.7818609E-02  0.8139621E-01
        2   -1    0    0  501    0  0.00000000000E+00  0.00000000000E+00  0.19288911549E+04  0.19288911549E+04  0.25500000920E-02 0.  1.
       -2   -1    0    0    0  501  0.00000000000E+00  0.00000000000E+00 -0.14921265467E+04  0.14921265467E+04  0.25500000920E-02 0. -1.
    10030    2    1    2    0    0  0.00000000000E+00  0.00000000000E+00  0.43676460829E+03  0.34210177016E+04  0.33930220735E+04 0.  0.
        2    1    3    3  502    0  0.13986686433E+04 -0.50233512291E+03  0.10433849225E+04  0.18158377257E+04  0.25500000920E-02 0.  1.
       -2    1    3    3    0  502 -0.13986686433E+04  0.50233512291E+03 -0.60662031416E+03  0.16051799759E+04  0.25500000920E-02 0. -1.
</event>
<event>
 5   0  0.2722449E-06  0.2276123E+04  0.7818609E-02  0.8487395E-01
        2   -1    0    0  501    0  0.00000000000E+00  0.00000000000E+00  0.17371911196E+04  0.17371911196E+04  0.25500000920E-02 0.  1.
       -2   -1    0    0    0  501  0.00000000000E+00  0.00000000000E+00 -0.74556202994E+03  0.74556202995E+03  0.25500000920E-02 0. -1.
    10030    2    1    2    0    0  0.00000000000E+00  0.00000000000E+00  0.99162908966E+03  0.24827531495E+04  0.22761227889E+04 0.  0.
        2    1    3    3  502    0  0.97903770837E+03  0.54840586112E+03  0.70254549570E+03  0.13239463722E+04  0.25500000920E-02 0.  1.
       -2    1    3    3    0  502 -0.97903770837E+03 -0.54840586112E+03  0.28908359396E+03  0.11588067773E+04  0.25500000920E-02 0. -1.
</event>
<event>
 5   0  0.2722449E-06  0.2988702E+04  0.7818609E-02  0.8246965E-01
       -2   -1    0    0    0  501  0.00000000000E+00  0.00000000000E+00  0.11314428194E+04  0.11314428194E+04  0.25500000920E-02 0.  1.
        2   -1    0    0  501    0  0.00000000000E+00  0.00000000000E+00 -0.19736609513E+04  0.19736609513E+04  0.25500000920E-02 0. -1.
    10030    2    1    2    0    0  0.00000000000E+00  0.00000000000E+00 -0.84221813189E+03  0.31051037708E+04  0.29887017325E+04 0.  0.
        2    1    3    3  502    0 -0.57165618828E+03 -0.65909471767E+03  0.83935626804E+03  0.12106674148E+04  0.25500000920E-02 0.  1.
       -2    1    3    3    0  502  0.57165618828E+03  0.65909471767E+03 -0.16815743999E+04  0.18944363560E+04  0.25500000920E-02 0. -1.
</event>
<event>
 5   0  0.2722449E-06  0.3437521E+04  0.7818609E-02  0.8128758E-01
       -2   -1    0    0    0  501  0.00000000000E+00  0.00000000000E+00  0.11807835146E+04  0.11807835146E+04  0.25500000920E-02 0. -1.
        2   -1    0    0  501    0  0.00000000000E+00  0.00000000000E+00 -0.25018449689E+04  0.25018449689E+04  0.25500000920E-02 0.  1.
    10030    2    1    2    0    0  0.00000000000E+00  0.00000000000E+00 -0.13210614544E+04  0.36826284835E+04  0.34375207900E+04 0.  0.
        2    1    3    3  502    0 -0.67099464815E+03  0.15551340485E+04 -0.34734785365E+03  0.17289668181E+04  0.25500000920E-02 0. -1.
       -2    1    3    3    0  502  0.67099464815E+03 -0.15551340485E+04 -0.97371360070E+03  0.19536616654E+04  0.25500000920E-02 0.  1.
</event>
<event>
 5   0  0.4189587E-06  0.3205280E+04  0.7818609E-02  0.8187424E-01
        2   -1    0    0  501    0  0.00000000000E+00  0.00000000000E+00  0.20031025385E+04  0.20031025385E+04  0.25500000920E-02 0.  1.
       -2   -1    0    0    0  501  0.00000000000E+00  0.00000000000E+00 -0.12822384446E+04  0.12822384446E+04  0.25500000920E-02 0. -1.
    10030    2    1    2    0    0  0.00000000000E+00  0.00000000000E+00  0.72086409393E+03  0.32853409832E+04  0.32052800710E+04 0.  0.
        1    1    3    3  502    0 -0.11225651139E+04 -0.10907455204E+04  0.71338306403E+03  0.17201144210E+04  0.50400001928E-02 0. -1.
       -1    1    3    3    0  502  0.11225651139E+04  0.10907455204E+04  0.74810298990E+01  0.15652265622E+04  0.50400001928E-02 0.  1.
</event>
<event>
 5   0  0.4173467E-06  0.3421231E+04  0.7818609E-02  0.8132715E-01
       -2   -1    0    0    0  501  0.00000000000E+00  0.00000000000E+00  0.16742377386E+04  0.16742377386E+04  0.25500000920E-02 0.  1.
        2   -1    0    0  501    0  0.00000000000E+00  0.00000000000E+00 -0.17477832839E+04  0.17477832839E+04  0.25500000920E-02 0. -1.
    10030    2    1    2    0    0  0.00000000000E+00  0.00000000000E+00 -0.73545545274E+02  0.34220210225E+04  0.34212306165E+04 0.  0.
        4    1    3    3  502    0 -0.11600867683E+03  0.31786942377E+03  0.16404283068E+04  0.16749643657E+04  0.12699999809E+01 0.  1.
       -4    1    3    3    0  502  0.11600867683E+03 -0.31786942377E+03 -0.17139738520E+04  0.17470566568E+04  0.12699999809E+01 0. -1.
</event>
<event>
 5   0  0.4173467E-06  0.2782102E+04  0.7818609E-02  0.8308846E-01
        2   -1    0    0  501    0  0.00000000000E+00  0.00000000000E+00  0.23070375288E+04  0.23070375288E+04  0.25500000920E-02 0. -1.
       -2   -1    0    0    0  501  0.00000000000E+00  0.00000000000E+00 -0.83874810253E+03  0.83874810254E+03  0.25500000920E-02 0.  1.
    10030    2    1    2    0    0  0.00000000000E+00  0.00000000000E+00  0.14682894263E+04  0.31457856314E+04  0.27821023344E+04 0.  0.
        4    1    3    3  502    0  0.90170083650E+03  0.10100976927E+04  0.37362330886E+03  0.14046201398E+04  0.12699999809E+01 0.  1.
       -4    1    3    3    0  502 -0.90170083650E+03 -0.10100976927E+04  0.10946661175E+04  0.17411654916E+04  0.12699999809E+01 0. -1.
</event>
<event>
 5   0  0.1550164E-06  0.1688362E+04  0.7818609E-02  0.8768030E-01
       -1   -1    0    0    0  501  0.00000000000E+00  0.00000000000E+00  0.12214921823E+04  0.12214921823E+04  0.50400001928E-02 0.  1.
        1   -1    0    0  501    0  0.00000000000E+00  0.00000000000E+00 -0.58341859994E+03  0.58341859996E+03  0.50400001928E-02 0. -1.
    10030    2    1    2    0    0  0.00000000000E+00  0.00000000000E+00  0.63807358235E+03  0.18049107823E+04  0.16883616424E+04 0.  0.
        4    1    3    3  502    0  0.66245339255E+03  0.38073274616E+03 -0.64680867262E+02  0.76680320082E+03  0.12699999809E+01 0. -1.
       -4    1    3    3    0  502 -0.66245339255E+03 -0.38073274616E+03  0.70275444961E+03  0.10381075814E+04  0.12699999809E+01 0.  1.
</event>
<event>
 5   0  0.1571391E-06  0.3457794E+04  0.7818609E-02  0.8123866E-01
        1   -1    0    0  501    0  0.00000000000E+00  0.00000000000E+00  0.21676488328E+04  0.21676488328E+04  0.50400001928E-02 0.  1.
       -1   -1    0    0    0  501  0.00000000000E+00  0.00000000000E+00 -0.13789523863E+04  0.13789523863E+04  0.50400001928E-02 0. -1.
    10030    2    1    2    0    0  0.00000000000E+00  0.00000000000E+00  0.78869644659E+03  0.35466012191E+04  0.34577938230E+04 0.  0.
        1    1    3    3  502    0  0.10698640120E+04  0.19145162122E+03  0.17734333505E+04  0.20799828307E+04  0.50400001928E-02 0.  1.
       -1    1    3    3    0  502 -0.10698640120E+04 -0.19145162122E+03 -0.98473690387E+03  0.14666183884E+04  0.50400001928E-02 0. -1.
</event>
<event>
 5   0  0.1550164E-06  0.3479045E+04  0.7818609E-02  0.8118774E-01
        1   -1    0    0  501    0  0.00000000000E+00  0.00000000000E+00  0.17022663285E+04  0.17022663285E+04  0.50400001928E-02 0.  1.
       -1   -1    0    0    0  501  0.00000000000E+00  0.00000000000E+00 -0.17775937358E+04  0.17775937358E+04  0.50400001928E-02 0. -1.
    10030    2    1    2    0    0  0.00000000000E+00  0.00000000000E+00 -0.75327407313E+02  0.34798600643E+04  0.34790446747E+04 0.  0.
        4    1    3    3  502    0  0.47661784324E+03 -0.16724290051E+04  0.42149956499E+01  0.17390234975E+04  0.12699999809E+01 0. -1.
       -4    1    3    3    0  502 -0.47661784324E+03  0.16724290051E+04 -0.79542402963E+02  0.17408365668E+04  0.12699999809E+01 0.  1.
</event>
<event>
 5   0  0.2722449E-06  0.3166958E+04  0.7818609E-02  0.8197598E-01
        2   -1    0    0  501    0  0.00000000000E+00  0.00000000000E+00  0.14574371813E+04  0.14574371814E+04  0.25500000920E-02 0.  1.
       -2   -1    0    0    0  501  0.00000000000E+00  0.00000000000E+00 -0.17204209618E+04  0.17204209618E+04  0.25500000920E-02 0. -1.
    10030    2    1    2    0    0  0.00000000000E+00  0.00000000000E+00 -0.26298378046E+03  0.31778581432E+04  0.31669578319E+04 0.  0.
        2    1    3    3  502    0 -0.11384927550E+04  0.11005629347E+04 -0.13247039007E+03  0.15890100474E+04  0.25500000920E-02 0. -1.
       -2    1    3    3    0  502  0.11384927550E+04 -0.11005629347E+04 -0.13051339038E+03  0.15888480958E+04  0.25500000920E-02 0.  1.
</event>
<event>
 5   0  0.2722449E-06  0.2254853E+04  0.7818609E-02  0.8495938E-01
        2   -1    0    0  501    0  0.00000000000E+00  0.00000000000E+00  0.76805766178E+03  0.76805766178E+03  0.25500000920E-02 0.  1.
       -2   -1    0    0    0  501  0.00000000000E+00  0.00000000000E+00 -0.16549420066E+04  0.16549420066E+04  0.25500000920E-02 0. -1.
    10030    2    1    2    0    0  0.00000000000E+00  0.00000000000E+00 -0.88688434479E+03  0.24229996683E+04  0.22548533327E+04 0.  0.
        2    1    3    3  502    0 -0.95030457475E+03 -0.59558793937E+03 -0.31957668518E+03  0.11661616681E+04  0.25500000920E-02 0.  1.
       -2    1    3    3    0  502  0.95030457475E+03  0.59558793937E+03 -0.56730765961E+03  0.12568380003E+04  0.25500000920E-02 0. -1.
</event>
<event>
 5   0  0.2722449E-06  0.1960394E+04  0.7818609E-02  0.8625365E-01
       -2   -1    0    0    0  501  0.00000000000E+00  0.00000000000E+00  0.92310168014E+03  0.92310168014E+03  0.25500000920E-02 0. -1.
        2   -1    0    0  501    0  0.00000000000E+00  0.00000000000E+00 -0.10408242431E+04  0.10408242431E+04  0.25500000920E-02 0.  1.
    10030    2    1    2    0    0  0.00000000000E+00  0.00000000000E+00 -0.11772256298E+03  0.19639259233E+04  0.19603944578E+04 0.  0.
        2    1    3    3  502    0 -0.71928285346E+03  0.46965768898E+03 -0.53177143636E+03  0.10103103625E+04  0.25500000920E-02 0.  1.
       -2    1    3    3    0  502  0.71928285346E+03 -0.46965768898E+03  0.41404887338E+03  0.95361556073E+03  0.25500000920E-02 0. -1.
</event>
<event>
 5   0  0.4189587E-06  0.1783548E+04  0.7818609E-02  0.8715098E-01
       -2   -1    0    0    0  501  0.00000000000E+00  0.00000000000E+00  0.63922919728E+03  0.63922919729E+03  0.25500000920E-02 0. -1.
        2   -1    0    0  501    0  0.00000000000E+00  0.00000000000E+00 -0.12440935735E+04  0.12440935735E+04  0.25500000920E-02 0.  1.
    10030    2    1    2    0    0  0.00000000000E+00  0.00000000000E+00 -0.60486437621E+03  0.18833227708E+04  0.17835480777E+04 0.  0.
        1    1    3    3  502    0  0.72207412990E+03 -0.36291891873E+03 -0.70056526066E+03  0.10695292774E+04  0.50400001928E-02 0. -1.
       -1    1    3    3    0  502 -0.72207412990E+03  0.36291891873E+03  0.95700884443E+02  0.81379349344E+03  0.50400001928E-02 0.  1.
</event>
<event>
 5   0  0.4344980E-06  0.3280762E+04  0.7818609E-02  0.8167808E-01
       -2   -1    0    0    0  501  0.00000000000E+00  0.00000000000E+00  0.21498661530E+04  0.21498661530E+04  0.25500000920E-02 0.  1.
        2   -1    0    0  501    0  0.00000000000E+00  0.00000000000E+00 -0.12516356473E+04  0.12516356473E+04  0.25500000920E-02 0. -1.
    10030    2    1    2    0    0  0.00000000000E+00  0.00000000000E+00  0.89823050570E+03  0.34015018002E+04  0.32807615664E+04 0.  0.
        3    1    3    3  502    0  0.69436857141E+03 -0.55325049479E+03 -0.98100160736E+03  0.13231016540E+04  0.10100000352E+00 0. -1.
       -3    1    3    3    0  502 -0.69436857141E+03  0.55325049479E+03  0.18792321131E+04  0.20784001462E+04  0.10100000352E+00 0.  1.
</event>
<event>
 5   0  0.1562618E-06  0.1804466E+04  0.7818609E-02  0.8703928E-01
       -1   -1    0    0    0  501  0.00000000000E+00  0.00000000000E+00  0.10408717279E+04  0.10408717279E+04  0.50400001928E-02 0.  1.
        1   -1    0    0  501    0  0.00000000000E+00  0.00000000000E+00 -0.78205987107E+03  0.78205987108E+03  0.50400001928E-02 0. -1.
    10030    2    1    2    0    0  0.00000000000E+00  0.00000000000E+00  0.25881185682E+03  0.18229315990E+04  0.18044655822E+04 0.  0.
        2    1    3    3  502    0  0.83233051461E+03 -0.33744004958E+03  0.21621630390E+03  0.92379075699E+03  0.25500000920E-02 0. -1.
       -2    1    3    3    0  502 -0.83233051461E+03  0.33744004958E+03  0.42595552926E+02  0.89914084200E+03  0.25500000920E-02 0.  1.
</event>
<event>
 5   0  0.1654257E-06  0.3370625E+04  0.7818609E-02  0.8145154E-01
        1   -1    0    0  501    0  0.00000000000E+00  0.00000000000E+00  0.25788622400E+04  0.25788622400E+04  0.50400001928E-02 0.  1.
       -1   -1    0    0    0  501  0.00000000000E+00  0.00000000000E+00 -0.11013689708E+04  0.11013689708E+04  0.50400001928E-02 0. -1.
    10030    2    1    2    0    0  0.00000000000E+00  0.00000000000E+00  0.14774932692E+04  0.36802312108E+04  0.33706253729E+04 0.  0.
        3    1    3    3  502    0  0.85961790062E+03 -0.11574339816E+04 -0.21416274705E+03  0.14575534464E+04  0.10100000352E+00 0. -1.
       -3    1    3    3    0  502 -0.85961790062E+03  0.11574339816E+04  0.16916560163E+04  0.22226777644E+04  0.10100000352E+00 0.  1.
</event>
<event>
 5   0  0.1571391E-06  0.3422248E+04  0.7818609E-02  0.8132467E-01
       -1   -1    0    0    0  501  0.00000000000E+00  0.00000000000E+00  0.17690275627E+04  0.17690275627E+04  0.50400001928E-02 0.  1.
        1   -1    0    0  501    0  0.00000000000E+00  0.00000000000E+00 -0.16551160500E+04  0.16551160501E+04  0.50400001928E-02 0. -1.
    10030    2    1    2    0    0  0.00000000000E+00  0.00000000000E+00  0.11391151265E+03  0.34241436128E+04  0.34222483323E+04 0.  0.
        1    1    3    3  502    0 -0.74611943417E+03 -0.60744128094E+03 -0.13588426626E+04  0.16649722224E+04  0.50400001928E-02 0. -1.
       -1    1    3    3    0  502  0.74611943417E+03  0.60744128094E+03  0.14727541752E+04  0.17591713903E+04  0.50400001928E-02 0.  1.
</event>
<event>
 5   0  0.1562618E-06  0.2844195E+04  0.7818609E-02  0.8289677E-01
        1   -1    0    0  501    0  0.00000000000E+00  0.00000000000E+00  0.32628211392E+04  0.32628211392E+04  0.50400001928E-02 0.  1.
       -1   -1    0    0    0  501  0.00000000000E+00  0.00000000000E+00 -0.61981979765E+03  0.61981979767E+03  0.50400001928E-02 0. -1.
    10030    2    1    2    0    0  0.00000000000E+00  0.00000000000E+00  0.26430013416E+04  0.38826409369E+04  0.28441948866E+04 0.  0.
        2    1    3    3  502    0 -0.11246209044E+03 -0.64907648301E+03  0.30419806091E+04  0.31124900046E+04  0.25500000920E-02 0.  1.
       -2    1    3    3    0  502  0.11246209044E+03  0.64907648301E+03 -0.39897926753E+03  0.77015093229E+03  0.25500000920E-02 0. -1.
</event>
<event>
 5   0  0.4344980E-06  0.1816659E+04  0.7818609E-02  0.8697490E-01
       -2   -1    0    0    0  501  0.00000000000E+00  0.00000000000E+00  0.49624039834E+03  0.49624039835E+03  0.25500000920E-02 0. -1.
        2   -1    0    0  501    0  0.00000000000E+00  0.00000000000E+00 -0.16626273546E+04  0.16626273546E+04  0.25500000920E-02 0.  1.
    10030    2    1    2    0    0  0.00000000000E+00  0.00000000000E+00 -0.11663869563E+04  0.21588677530E+04  0.18166594186E+04 0.  0.
        3    1    3    3  502    0  0.30023239587E+03  0.82934609234E+03 -0.32526352150E+03  0.94008020989E+03  0.10100000352E+00 0. -1.
       -3    1    3    3    0  502 -0.30023239587E+03 -0.82934609234E+03 -0.84112343479E+03  0.12187875431E+04  0.10100000352E+00 0.  1.
</event>
<event>
 5   0  0.1611050E-06  0.1889666E+04  0.7818609E-02  0.8660018E-01
       -1   -1    0    0    0  501  0.00000000000E+00  0.00000000000E+00  0.94158758240E+03  0.94158758241E+03  0.50400001928E-02 0.  1.
        1   -1    0    0  501    0  0.00000000000E+00  0.00000000000E+00 -0.94808936327E+03  0.94808936328E+03  0.50400001928E-02 0. -1.
    10030    2    1    2    0    0  0.00000000000E+00  0.00000000000E+00 -0.65017808715E+01  0.18896769457E+04  0.18896657604E+04 0.  0.
        2    1    3    3  502    0  0.28289150397E+03  0.20096433269E+03  0.87555742098E+03  0.94181477132E+03  0.25500000920E-02 0.  1.
       -2    1    3    3    0  502 -0.28289150397E+03 -0.20096433269E+03 -0.88205920185E+03  0.94786217438E+03  0.25500000920E-02 0. -1.
</event>
<event>
 5   0  0.4344980E-06  0.3390501E+04  0.7818609E-02  0.8140242E-01
       -2   -1    0    0    0  501  0.00000000000E+00  0.00000000000E+00  0.11497937916E+04  0.11497937916E+04  0.25500000920E-02 0.  1.
        2   -1    0    0  501    0  0.00000000000E+00  0.00000000000E+00 -0.24994688645E+04  0.24994688645E+04  0.25500000920E-02 0. -1.
    10030    2    1    2    0    0  0.00000000000E+00  0.00000000000E+00 -0.13496750729E+04  0.36492626562E+04  0.33905007199E+04 0.  0.
        3    1    3    3  502    0  0.16842039154E+03 -0.22497651494E+03  0.11245468421E+04  0.11591313433E+04  0.10100000352E+00 0.  1.
       -3    1    3    3    0  502 -0.16842039154E+03  0.22497651494E+03 -0.24742219150E+04  0.24901313129E+04  0.10100000352E+00 0. -1.
</event>
<event>
 5   0  0.4173467E-06  0.1858361E+04  0.7818609E-02  0.8675865E-01
       -2   -1    0    0    0  501  0.00000000000E+00  0.00000000000E+00  0.92413717891E+03  0.92413717891E+03  0.25500000920E-02 0. -1.
        2   -1    0    0  501    0  0.00000000000E+00  0.00000000000E+00 -0.93425091560E+03  0.93425091561E+03  0.25500000920E-02 0.  1.
    10030    2    1    2    0    0  0.00000000000E+00  0.00000000000E+00 -0.10113736695E+02  0.18583880945E+04  0.18583605738E+04 0.  0.
        4    1    3    3  502    0  0.45366675512E+03 -0.26351360738E+02  0.80542812790E+03  0.92478321840E+03  0.12699999809E+01 0. -1.
       -4    1    3    3    0  502 -0.45366675512E+03  0.26351360738E+02 -0.81554186460E+03  0.93360487612E+03  0.12699999809E+01 0.  1.
</event>
<event>
 5   0  0.2101998E-06  0.2184387E+04  0.7818609E-02  0.8524955E-01
       -1   -1    0    0    0  501  0.00000000000E+00  0.00000000000E+00  0.74163605858E+03  0.74163605860E+03  0.50400001928E-02 0. -1.
        1   -1    0    0  501    0  0.00000000000E+00  0.00000000000E+00 -0.16084532675E+04  0.16084532675E+04  0.50400001928E-02 0.  1.
    10030    2    1    2    0    0  0.00000000000E+00  0.00000000000E+00 -0.86681720894E+03  0.23500893261E+04  0.21843872750E+04 0.  0.
        5    1    3    3  502    0 -0.93676948748E+03 -0.28260406992E+03 -0.95546306308E+03  0.13676015092E+04  0.46999998093E+01 0.  1.
       -5    1    3    3    0  502  0.93676948748E+03  0.28260406992E+03  0.88645854144E+02  0.98248781695E+03  0.46999998093E+01 0. -1.
</event>
<event>
 5   0  0.1571391E-06  0.3435333E+04  0.7818609E-02  0.8129288E-01
        1   -1    0    0  501    0  0.00000000000E+00  0.00000000000E+00  0.15952331341E+04  0.15952331341E+04  0.50400001928E-02 0. -1.
       -1   -1    0    0    0  501  0.00000000000E+00  0.00000000000E+00 -0.18494968542E+04  0.18494968542E+04  0.50400001928E-02 0.  1.
    10030    2    1    2    0    0  0.00000000000E+00  0.00000000000E+00 -0.25426372007E+03  0.34447299883E+04  0.34353332667E+04 0.  0.
        1    1    3    3  502    0 -0.87077658282E+03  0.69608196237E+03  0.11831929534E+04  0.16256468007E+04  0.50400001928E-02 0. -1.
       -1    1    3    3    0  502  0.87077658282E+03 -0.69608196237E+03 -0.14374566735E+04  0.18190831877E+04  0.50400001928E-02 0.  1.
</event>
<event>
 5   0  0.1550164E-06  0.1767108E+04  0.7818609E-02  0.8723989E-01
       -1   -1    0    0    0  501  0.00000000000E+00  0.00000000000E+00  0.67366981927E+03  0.67366981929E+03  0.50400001928E-02 0.  1.
        1   -1    0    0  501    0  0.00000000000E+00  0.00000000000E+00 -0.11588288711E+04  0.11588288711E+04  0.50400001928E-02 0. -1.
    10030    2    1    2    0    0  0.00000000000E+00  0.00000000000E+00 -0.48515905182E+03  0.18324986904E+04  0.17671084134E+04 0.  0.
        4    1    3    3  502    0  0.19688102812E+03  0.57442762999E+03 -0.90815295405E+03  0.10924617349E+04  0.12699999809E+01 0. -1.
       -4    1    3    3    0  502 -0.19688102812E+03 -0.57442762999E+03  0.42299390223E+03  0.74003695553E+03  0.12699999809E+01 0.  1.
</event>
<event>
 5   0  0.2101998E-06  0.3367785E+04  0.7818609E-02  0.8145859E-01
       -1   -1    0    0    0  501  0.00000000000E+00  0.00000000000E+00  0.19779355174E+04  0.19779355174E+04  0.50400001928E-02 0.  1.
        1   -1    0    0  501    0  0.00000000000E+00  0.00000000000E+00 -0.14335619809E+04  0.14335619809E+04  0.50400001928E-02 0. -1.
    10030    2    1    2    0    0  0.00000000000E+00  0.00000000000E+00  0.54437353649E+03  0.34114974984E+04  0.33677845291E+04 0.  0.
        5    1    3    3  502    0 -0.12476403963E+04  0.50552932160E+03 -0.75252854424E+03  0.15422346622E+04  0.46999998093E+01 0.  1.
       -5    1    3    3    0  502  0.12476403963E+04 -0.50552932160E+03  0.12969020807E+04  0.18692628361E+04  0.46999998093E+01 0. -1.
</event>
<event>
 5   0  0.2722449E-06  0.2133824E+04  0.7818609E-02  0.8546488E-01
       -2   -1    0    0    0  501  0.00000000000E+00  0.00000000000E+00  0.11140132040E+04  0.11140132040E+04  0.25500000920E-02 0. -1.
        2   -1    0    0  501    0  0.00000000000E+00  0.00000000000E+00 -0.10218022199E+04  0.10218022199E+04  0.25500000920E-02 0.  1.
    10030    2    1    2    0    0  0.00000000000E+00  0.00000000000E+00  0.92210984185E+02  0.21358154239E+04  0.21338239523E+04 0.  0.
        2    1    3    3  502    0  0.69578255527E+03  0.10761028058E+03  0.84848187748E+03  0.11025492429E+04  0.25500000920E-02 0. -1.
       -2    1    3    3    0  502 -0.69578255527E+03 -0.10761028058E+03 -0.75627089329E+03  0.10332661810E+04  0.25500000920E-02 0.  1.
</event>
<event>
 5   0  0.1562618E-06  0.3355845E+04  0.7818609E-02  0.8148829E-01
        1   -1    0    0  501    0  0.00000000000E+00  0.00000000000E+00  0.20248476100E+04  0.20248476100E+04  0.50400001928E-02 0. -1.
       -1   -1    0    0    0  501  0.00000000000E+00  0.00000000000E+00 -0.13904377450E+04  0.13904377450E+04  0.50400001928E-02 0.  1.
    10030    2    1    2    0    0  0.00000000000E+00  0.00000000000E+00  0.63440986502E+03  0.34152853550E+04  0.33558453748E+04 0.  0.
        2    1    3    3  502    0 -0.10444654386E+04  0.11807297270E+04  0.90218490955E+03  0.18163062384E+04  0.25500000920E-02 0.  1.
       -2    1    3    3    0  502  0.10444654386E+04 -0.11807297270E+04 -0.26777504453E+03  0.15989791166E+04  0.25500000920E-02 0. -1.
</event>
<event>
 5   0  0.4344980E-06  0.3398953E+04  0.7818609E-02  0.8138163E-01
       -2   -1    0    0    0  501  0.00000000000E+00  0.00000000000E+00  0.13150616445E+04  0.13150616445E+04  0.25500000920E-02 0.  1.
        2   -1    0    0  501    0  0.00000000000E+00  0.00000000000E+00 -0.21962627596E+04  0.21962627596E+04  0.25500000920E-02 0. -1.
    10030    2    1    2    0    0  0.00000000000E+00  0.00000000000E+00 -0.88120111512E+03  0.35113244041E+04  0.33989533191E+04 0.  0.
        3    1    3    3  502    0  0.82701814023E+03  0.69999256583E+03  0.91198784669E+03  0.14162169464E+04  0.10100000352E+00 0.  1.
       -3    1    3    3    0  502 -0.82701814023E+03 -0.69999256583E+03 -0.17931889618E+04  0.20951074577E+04  0.10100000352E+00 0. -1.
</event>
<event>
 5   0  0.1571391E-06  0.2546479E+04  0.7818609E-02  0.8386612E-01
       -1   -1    0    0    0  501  0.00000000000E+00  0.00000000000E+00  0.72630459985E+03  0.72630459987E+03  0.50400001928E-02 0. -1.
        1   -1    0    0  501    0  0.00000000000E+00  0.00000000000E+00 -0.22320364507E+04  0.22320364507E+04  0.50400001928E-02 0.  1.
    10030    2    1    2    0    0  0.00000000000E+00  0.00000000000E+00 -0.15057318508E+04  0.29583410506E+04  0.25464786205E+04 0.  0.
        1    1    3    3  502    0 -0.55531297852E+03 -0.10064335017E+04 -0.13890248479E+04  0.18029617094E+04  0.50400001928E-02 0.  1.
       -1    1    3    3    0  502  0.55531297852E+03  0.10064335017E+04 -0.11670700294E+03  0.11553793412E+04  0.50400001928E-02 0. -1.
</event>
<event>
 5   0  0.4344980E-06  0.2988202E+04  0.7818609E-02  0.8247108E-01
        2   -1    0    0  501    0  0.00000000000E+00  0.00000000000E+00  0.18322388681E+04  0.18322388681E+04  0.25500000920E-02 0. -1.
       -2   -1    0    0    0  501  0.00000000000E+00  0.00000000000E+00 -0.12183658924E+04  0.12183658924E+04  0.25500000920E-02 0.  1.
    10030    2    1    2    0    0  0.00000000000E+00  0.00000000000E+00  0.61387297567E+03  0.30506047605E+04  0.29882016958E+04 0.  0.
        3    1    3    3  502    0  0.46357995355E+03 -0.13222125719E+04 -0.22272861792E+03  0.14187179093E+04  0.10100000352E+00 0.  1.
       -3    1    3    3    0  502 -0.46357995355E+03  0.13222125719E+04  0.83660159359E+03  0.16318868512E+04  0.10100000352E+00 0. -1.
</event>
<event>
 5   0  0.4344980E-06  0.3451529E+04  0.7818609E-02  0.8125374E-01
       -2   -1    0    0    0  501  0.00000000000E+00  0.00000000000E+00  0.18154740605E+04  0.18154740605E+04  0.25500000920E-02 0.  1.
        2   -1    0    0  501    0  0.00000000000E+00  0.00000000000E+00 -0.16404877488E+04  0.16404877488E+04  0.25500000920E-02 0. -1.
    10030    2    1    2    0    0  0.00000000000E+00  0.00000000000E+00  0.17498631171E+03  0.34559618093E+04  0.34515289103E+04 0.  0.
        3    1    3    3  502    0 -0.11369574535E+04 -0.69400518825E+03 -0.10111614794E+04  0.16723525346E+04  0.10100000352E+00 0. -1.
       -3    1    3    3    0  502  0.11369574535E+04  0.69400518825E+03  0.11861477911E+04  0.17836092747E+04  0.10100000352E+00 0.  1.
</event>
<event>
 5   0  0.4400349E-06  0.1817830E+04  0.7818609E-02  0.8696875E-01
       -2   -1    0    0    0  501  0.00000000000E+00  0.00000000000E+00  0.67341996764E+03  0.67341996764E+03  0.25500000920E-02 0.  1.
        2   -1    0    0  501    0  0.00000000000E+00  0.00000000000E+00 -0.12267625924E+04  0.12267625924E+04  0.25500000920E-02 0. -1.
    10030    2    1    2    0    0  0.00000000000E+00  0.00000000000E+00 -0.55334262476E+03  0.19001825600E+04  0.18178299428E+04 0.  0.
        5    1    3    3  502    0  0.35048822270E+03 -0.64108414020E+03  0.28844360313E+03  0.78552700224E+03  0.46999998093E+01 0.  1.
       -5    1    3    3    0  502 -0.35048822270E+03  0.64108414020E+03 -0.84178622789E+03  0.11146555578E+04  0.46999998093E+01 0. -1.
</event>
<event>
 5   0  0.4189587E-06  0.3346634E+04  0.7818609E-02  0.8151130E-01
       -2   -1    0    0    0  501  0.00000000000E+00  0.00000000000E+00  0.17133065044E+04  0.17133065044E+04  0.25500000920E-02 0. -1.
        2   -1    0    0  501    0  0.00000000000E+00  0.00000000000E+00 -0.16342605413E+04  0.16342605413E+04  0.25500000920E-02 0.  1.
    10030    2    1    2    0    0  0.00000000000E+00  0.00000000000E+00  0.79045963078E+02  0.33475670456E+04  0.33466336610E+04 0.  0.
        1    1    3    3  502    0 -0.35465707066E+03  0.15175735910E+04  0.64893667295E+03  0.16881735833E+04  0.50400001928E-02 0. -1.
       -1    1    3    3    0  502  0.35465707066E+03 -0.15175735910E+04 -0.56989070987E+03  0.16593934624E+04  0.50400001928E-02 0.  1.
</event>
<event>
 5   0  0.1571391E-06  0.3328606E+04  0.7818609E-02  0.8155654E-01
       -1   -1    0    0    0  501  0.00000000000E+00  0.00000000000E+00  0.13188895726E+04  0.13188895727E+04  0.50400001928E-02 0. -1.
        1   -1    0    0  501    0  0.00000000000E+00  0.00000000000E+00 -0.21001794097E+04  0.21001794097E+04  0.50400001928E-02 0.  1.
    10030    2    1    2    0    0  0.00000000000E+00  0.00000000000E+00 -0.78128983710E+03  0.34190689824E+04  0.33286061493E+04 0.  0.
        1    1    3    3  502    0 -0.71469948084E+03  0.57745419691E+03  0.10347486948E+04  0.13838184703E+04  0.50400001928E-02 0. -1.
       -1    1    3    3    0  502  0.71469948084E+03 -0.57745419691E+03 -0.18160385319E+04  0.20352505121E+04  0.50400001928E-02 0.  1.
</event>
<event>
 5   0  0.1562618E-06  0.2945003E+04  0.7818609E-02  0.8259612E-01
        1   -1    0    0  501    0  0.00000000000E+00  0.00000000000E+00  0.22997941467E+04  0.22997941467E+04  0.50400001928E-02 0.  1.
       -1   -1    0    0    0  501  0.00000000000E+00  0.00000000000E+00 -0.94280623593E+03  0.94280623594E+03  0.50400001928E-02 0. -1.
    10030    2    1    2    0    0  0.00000000000E+00  0.00000000000E+00  0.13569879108E+04  0.32426003827E+04  0.29450027252E+04 0.  0.
        2    1    3    3  502    0 -0.47747356421E+02  0.26722524934E+03  0.22720057565E+04  0.22881650512E+04  0.25500000920E-02 0.  1.
       -2    1    3    3    0  502  0.47747356421E+02 -0.26722524934E+03 -0.91501784573E+03  0.95443533146E+03  0.25500000920E-02 0. -1.
</event>
<event>
 5   0  0.2101998E-06  0.1719465E+04  0.7818609E-02  0.8750340E-01
       -1   -1    0    0    0  501  0.00000000000E+00  0.00000000000E+00  0.17229619063E+04  0.17229619063E+04  0.50400001928E-02 0. -1.
        1   -1    0    0  501    0  0.00000000000E+00  0.00000000000E+00 -0.42899371218E+03  0.42899371221E+03  0.50400001928E-02 0.  1.
    10030    2    1    2    0    0  0.00000000000E+00  0.00000000000E+00  0.12939681941E+04  0.21519556185E+04  0.17194648286E+04 0.  0.
        5    1    3    3  502    0  0.82460580216E+03 -0.14663121741E+02  0.95079325231E+03  0.12586578704E+04  0.46999998093E+01 0. -1.
       -5    1    3    3    0  502 -0.82460580216E+03  0.14663121741E+02  0.34317494180E+03  0.89329774811E+03  0.46999998093E+01 0.  1.
</event>
<event>
 5   0  0.2722449E-06  0.3157865E+04  0.7818609E-02  0.8200034E-01
        2   -1    0    0  501    0  0.00000000000E+00  0.00000000000E+00  0.16432500839E+04  0.16432500839E+04  0.25500000920E-02 0. -1.
       -2   -1    0    0    0  501  0.00000000000E+00  0.00000000000E+00 -0.15171325000E+04  0.15171325000E+04  0.25500000920E-02 0.  1.
    10030    2    1    2    0    0  0.00000000000E+00  0.00000000000E+00  0.12611758388E+03  0.31603825838E+04  0.31578651699E+04 0.  0.
        2    1    3    3  502    0  0.10021838101E+04  0.42681121162E+03 -0.10808694283E+04  0.15345419253E+04  0.25500000920E-02 0.  1.
       -2    1    3    3    0  502 -0.10021838101E+04 -0.42681121162E+03  0.12069870121E+04  0.16258406585E+04  0.25500000920E-02 0. -1.
</event>
<event>
 5   0  0.1654257E-06  0.3401868E+04  0.7818609E-02  0.8137448E-01
       -1   -1    0    0    0  501  0.00000000000E+00  0.00000000000E+00  0.13377334418E+04  0.13377334418E+04  0.50400001928E-02 0.  1.
        1   -1    0    0  501    0  0.00000000000E+00  0.00000000000E+00 -0.21627451577E+04  0.21627451577E+04  0.50400001928E-02 0. -1.
    10030    2    1    2    0    0  0.00000000000E+00  0.00000000000E+00 -0.82501171591E+03  0.35004785996E+04  0.34018680302E+04 0.  0.
        3    1    3    3  502    0 -0.11627957455E+04  0.33832751406E+03 -0.16415392195E+04  0.20399045252E+04  0.10100000352E+00 0. -1.
       -3    1    3    3    0  502  0.11627957455E+04 -0.33832751406E+03  0.81652750357E+03  0.14605740744E+04  0.10100000352E+00 0.  1.
</event>
<event>
 5   0  0.1550164E-06  0.3447158E+04  0.7818609E-02  0.8126428E-01
        1   -1    0    0  501    0  0.00000000000E+00  0.00000000000E+00  0.23184957486E+04  0.23184957486E+04  0.50400001928E-02 0.  1.
       -1   -1    0    0    0  501  0.00000000000E+00  0.00000000000E+00 -0.12813153819E+04  0.12813153819E+04  0.50400001928E-02 0. -1.
    10030    2    1    2    0    0  0.00000000000E+00  0.00000000000E+00  0.10371803667E+04  0.35998111305E+04  0.34471578238E+04 0.  0.
        4    1    3    3  502    0  0.70901816650E+03 -0.15855909823E+03 -0.11135939886E+04  0.13296393994E+04  0.12699999809E+01 0. -1.
       -4    1    3    3    0  502 -0.70901816650E+03  0.15855909823E+03  0.21507743553E+04  0.22701717310E+04  0.12699999809E+01 0.  1.
</event>
<event>
 5   0  0.4173467E-06  0.1727254E+04  0.7818609E-02  0.8745971E-01
        2   -1    0    0  501    0  0.00000000000E+00  0.00000000000E+00  0.19117603336E+04  0.19117603336E+04  0.25500000920E-02 0. -1.
       -2   -1    0    0    0  501  0.00000000000E+00  0.00000000000E+00 -0.39013868663E+03  0.39013868664E+03  0.25500000920E-02 0.  1.
    10030    2    1    2    0    0  0.00000000000E+00  0.00000000000E+00  0.15216216469E+04  0.23018990202E+04  0.17272540817E+04 0.  0.
        4    1    3    3  502    0  0.70961043918E+03 -0.36703712381E+03  0.11979397943E+04  0.14399043681E+04  0.12699999809E+01 0.  1.
       -4    1    3    3    0  502 -0.70961043918E+03  0.36703712381E+03  0.32368185268E+03  0.86199465213E+03  0.12699999809E+01 0. -1.
</event>
<event>
 5   0  0.1550164E-06  0.2614501E+04  0.7818609E-02  0.8363292E-01
       -1   -1    0    0    0  501  0.00000000000E+00  0.00000000000E+00  0.20135527587E+04  0.20135527587E+04  0.50400001928E-02 0. -1.
        1   -1    0    0  501    0  0.00000000000E+00  0.00000000000E+00 -0.84870112530E+03  0.84870112532E+03  0.50400001928E-02 0.  1.
    10030    2    1    2    0    0  0.00000000000E+00  0.00000000000E+00  0.11648516334E+04  0.28622538840E+04  0.26145014762E+04 0.  0.
        4    1    3    3  502    0 -0.58802130335E+03  0.49212391227E+03  0.17415019737E+04  0.19028362346E+04  0.12699999809E+01 0. -1.
       -4    1    3    3    0  502  0.58802130335E+03 -0.49212391227E+03 -0.57665034031E+03  0.95941764946E+03  0.12699999809E+01 0.  1.
</event>
<event>
 5   0  0.1550164E-06  0.3441535E+04  0.7818609E-02  0.8127787E-01
       -1   -1    0    0    0  501  0.00000000000E+00  0.00000000000E+00  0.11225355423E+04  0.11225355424E+04  0.50400001928E-02 0. -1.
        1   -1    0    0  501    0  0.00000000000E+00  0.00000000000E+00 -0.26378147984E+04  0.26378147984E+04  0.50400001928E-02 0.  1.
    10030    2    1    2    0    0  0.00000000000E+00  0.00000000000E+00 -0.15152792561E+04  0.37603503408E+04  0.34415350443E+04 0.  0.
        4    1    3    3  502    0  0.99082649085E+03 -0.14708210855E+03 -0.22864222634E+04  0.24962168698E+04  0.12699999809E+01 0.  1.
       -4    1    3    3    0  502 -0.99082649085E+03  0.14708210855E+03  0.77114300736E+03  0.12641334709E+04  0.12699999809E+01 0. -1.
</event>
<event>
 5   0  0.1571391E-06  0.2053352E+04  0.7818609E-02  0.8582075E-01
        1   -1    0    0  501    0  0.00000000000E+00  0.00000000000E+00  0.12411463997E+04  0.12411463997E+04  0.50400001928E-02 0.  1.
       -1   -1    0    0    0  501  0.00000000000E+00  0.00000000000E+00 -0.84926610633E+03  0.84926610634E+03  0.50400001928E-02 0. -1.
    10030    2    1    2    0    0  0.00000000000E+00  0.00000000000E+00  0.39188029338E+03  0.20904125061E+04  0.20533519623E+04 0.  0.
        1    1    3    3  502    0  0.70300673478E+03 -0.23756119166E+03 -0.52637949103E+03  0.90979621758E+03  0.50400001928E-02 0. -1.
       -1    1    3    3    0  502 -0.70300673478E+03  0.23756119166E+03  0.91825978441E+03  0.11806162885E+04  0.50400001928E-02 0.  1.
</event>
<event>
 5   0  0.4189587E-06  0.3291899E+04  0.7818609E-02  0.8164960E-01
       -2   -1    0    0    0  501  0.00000000000E+00  0.00000000000E+00  0.19174661257E+04  0.19174661257E+04  0.25500000920E-02 0. -1.
        2   -1    0    0  501    0  0.00000000000E+00  0.00000000000E+00 -0.14128797792E+04  0.14128797792E+04  0.25500000920E-02 0.  1.
    10030    2    1    2    0    0  0.00000000000E+00  0.00000000000E+00  0.50458634655E+03  0.33303459049E+04  0.32918986110E+04 0.  0.
        1    1    3    3  502    0  0.71434848973E+03  0.12184237149E+04 -0.60273990175E+03  0.15356254436E+04  0.50400001928E-02 0.  1.
       -1    1    3    3    0  502 -0.71434848973E+03 -0.12184237149E+04  0.11073262483E+04  0.17947204613E+04  0.50400001928E-02 0. -1.
</event>
<event>
 5   0  0.1654257E-06  0.1790076E+04  0.7818609E-02  0.8711595E-01
       -1   -1    0    0    0  501  0.00000000000E+00  0.00000000000E+00  0.12608180382E+04  0.12608180382E+04  0.50400001928E-02 0.  1.
        1   -1    0    0  501    0  0.00000000000E+00  0.00000000000E+00 -0.63537563865E+03  0.63537563867E+03  0.50400001928E-02 0. -1.
    10030    2    1    2    0    0  0.00000000000E+00  0.00000000000E+00  0.62544239956E+03  0.18961936769E+04  0.17900760501E+04 0.  0.
        3    1    3    3  502    0 -0.56981812935E+03  0.28259810962E+03  0.97976443089E+03  0.11681150381E+04  0.10100000352E+00 0.  1.
       -3    1    3    3    0  502  0.56981812935E+03 -0.28259810962E+03 -0.35432203134E+03  0.72807863874E+03  0.10100000352E+00 0. -1.
</event>
<event>
 5   0  0.3585193E-06  0.1744249E+04  0.7818609E-02  0.8736522E-01
       -2   -1    0    0    0  501  0.00000000000E+00  0.00000000000E+00  0.54566353914E+03  0.54566353915E+03  0.25500000920E-02 0.  1.
        2   -1    0    0  501    0  0.00000000000E+00  0.00000000000E+00 -0.13939009281E+04  0.13939009281E+04  0.25500000920E-02 0. -1.
    10030    2    1    2    0    0  0.00000000000E+00  0.00000000000E+00 -0.84823738891E+03  0.19395644672E+04  0.17442487364E+04 0.  0.
        2    1    3    3  502    0  0.56120427999E+03 -0.65736046094E+03 -0.55345215564E+03  0.10263441470E+04  0.25500000920E-02 0.  1.
       -2    1    3    3    0  502 -0.56120427999E+03  0.65736046094E+03 -0.29478523327E+03  0.91322032021E+03  0.25500000920E-02 0. -1.
</event>
<event>
 5   0  0.4344980E-06  0.3370418E+04  0.7818609E-02  0.8145205E-01
       -2   -1    0    0    0  501  0.00000000000E+00  0.00000000000E+00  0.11544763592E+04  0.11544763592E+04  0.25500000920E-02 0.  1.
        2   -1    0    0  501    0  0.00000000000E+00  0.00000000000E+00 -0.24599287261E+04  0.24599287261E+04  0.25500000920E-02 0. -1.
    10030    2    1    2    0    0  0.00000000000E+00  0.00000000000E+00 -0.13054523669E+04  0.36144050853E+04  0.33704181103E+04 0.  0.
        3    1    3    3  502    0  0.55199519965E+03 -0.62858940657E+03 -0.22215374810E+04  0.23738264747E+04  0.10100000352E+00 0. -1.
       -3    1    3    3    0  502 -0.55199519965E+03  0.62858940657E+03  0.91608511411E+03  0.12405786106E+04  0.10100000352E+00 0.  1.
</event>
<event>
 5   0  0.1401125E-06  0.2977139E+04  0.7818609E-02  0.8250289E-01
       -3   -1    0    0    0  501  0.00000000000E+00  0.00000000000E+00  0.19544384809E+04  0.19544384836E+04  0.10100000352E+00 0. -1.
        3   -1    0    0  501    0  0.00000000000E+00  0.00000000000E+00 -0.11337473539E+04  0.11337473584E+04  0.10100000352E+00 0.  1.
    10030    2    1    2    0    0  0.00000000000E+00  0.00000000000E+00  0.82069112702E+03  0.30881858420E+04  0.29771392088E+04 0.  0.
        1    1    3    3  502    0  0.41800330901E+03 -0.44055547189E+03 -0.99939924768E+03  0.11694506174E+04  0.50400001928E-02 0.  1.
       -1    1    3    3    0  502 -0.41800330901E+03  0.44055547189E+03  0.18200903747E+04  0.19187352246E+04  0.50400001928E-02 0. -1.
</event>
<event>
 5   0  0.2101998E-06  0.3427041E+04  0.7818609E-02  0.8131301E-01
       -1   -1    0    0    0  501  0.00000000000E+00  0.00000000000E+00  0.17923686370E+04  0.17923686371E+04  0.50400001928E-02 0. -1.
        1   -1    0    0  501    0  0.00000000000E+00  0.00000000000E+00 -0.16381411964E+04  0.16381411964E+04  0.50400001928E-02 0.  1.
    10030    2    1    2    0    0  0.00000000000E+00  0.00000000000E+00  0.15422744069E+03  0.34305098334E+04  0.34270412332E+04 0.  0.
        5    1    3    3  502    0 -0.10624771598E+04  0.13123168503E+04 -0.21489643183E+03  0.17021268452E+04  0.46999998093E+01 0.  1.
       -5    1    3    3    0  502  0.10624771598E+04 -0.13123168503E+04  0.36912387252E+03  0.17283829882E+04  0.46999998093E+01 0. -1.
</event>
<event>
 5   0  0.4173467E-06  0.3458325E+04  0.7818609E-02  0.8123738E-01
        2   -1    0    0  501    0  0.00000000000E+00  0.00000000000E+00  0.14383298846E+04  0.14383298846E+04  0.25500000920E-02 0. -1.
       -2   -1    0    0    0  501  0.00000000000E+00  0.00000000000E+00 -0.20788022299E+04  0.20788022299E+04  0.25500000920E-02 0.  1.
    10030    2    1    2    0    0  0.00000000000E+00  0.00000000000E+00 -0.64047234533E+03  0.35171321145E+04  0.34583252429E+04 0.  0.
        4    1    3    3  502    0 -0.35676758985E+03 -0.14419498151E+03 -0.20347037032E+04  0.20707718558E+04  0.12699999809E+01 0.  1.
       -4    1    3    3    0  502  0.35676758985E+03  0.14419498151E+03  0.13942313579E+04  0.14463602588E+04  0.12699999809E+01 0. -1.
</event>
<event>
 5   0  0.4173467E-06  0.2930704E+04  0.7818609E-02  0.8263800E-01
       -2   -1    0    0    0  501  0.00000000000E+00  0.00000000000E+00  0.10925785175E+04  0.10925785175E+04  0.25500000920E-02 0. -1.
        2   -1    0    0  501    0  0.00000000000E+00  0.00000000000E+00 -0.19653113451E+04  0.19653113451E+04  0.25500000920E-02 0.  1.
    10030    2    1    2    0    0  0.00000000000E+00  0.00000000000E+00 -0.87273282759E+03  0.30578898627E+04  0.29307043221E+04 0.  0.
        4    1    3    3  502    0  0.50854541721E+03 -0.13737975759E+04 -0.47423358344E+03  0.15397523585E+04  0.12699999809E+01 0.  1.
       -4    1    3    3    0  502 -0.50854541721E+03  0.13737975759E+04 -0.39849924416E+03  0.15181375041E+04  0.12699999809E+01 0. -1.
</event>
<event>
 5   0  0.2722449E-06  0.1779064E+04  0.7818609E-02  0.8717513E-01
       -2   -1    0    0    0  501  0.00000000000E+00  0.00000000000E+00  0.12161705046E+04  0.12161705046E+04  0.25500000920E-02 0.  1.
        2   -1    0    0  501    0  0.00000000000E+00  0.00000000000E+00 -0.65062223966E+03  0.65062223966E+03  0.25500000920E-02 0. -1.
    10030    2    1    2    0    0  0.00000000000E+00  0.00000000000E+00  0.56554826491E+03  0.18667927442E+04  0.17790644480E+04 0.  0.
        2    1    3    3  502    0  0.25567102574E+03 -0.72357447091E+03 -0.18922932193E+03  0.79040206518E+03  0.25500000920E-02 0. -1.
       -2    1    3    3    0  502 -0.25567102574E+03  0.72357447091E+03  0.75477758684E+03  0.10763906791E+04  0.25500000920E-02 0.  1.
</event>
<event>
 5   0  0.1654257E-06  0.3357778E+04  0.7818609E-02  0.8148347E-01
        1   -1    0    0  501    0  0.00000000000E+00  0.00000000000E+00  0.17249206979E+04  0.17249206979E+04  0.50400001928E-02 0.  1.
       -1   -1    0    0    0  501  0.00000000000E+00  0.00000000000E+00 -0.16340861855E+04  0.16340861855E+04  0.50400001928E-02 0. -1.
    10030    2    1    2    0    0  0.00000000000E+00  0.00000000000E+00  0.90834512346E+02  0.33590068834E+04  0.33577784820E+04 0.  0.
        3    1    3    3  502    0  0.14635293533E+04 -0.14613474890E+03  0.85527845705E+03  0.17014037681E+04  0.10100000352E+00 0.  1.
       -3    1    3    3    0  502 -0.14635293533E+04  0.14613474890E+03 -0.76444394470E+03  0.16576031153E+04  0.10100000352E+00 0. -1.
</event>
<event>
 5   0  0.4189587E-06  0.3719556E+04  0.7818609E-02  0.8063642E-01
        2   -1    0    0  501    0  0.00000000000E+00  0.00000000000E+00  0.16093413171E+04  0.16093413171E+04  0.25500000920E-02 0. -1.
       -2   -1    0    0    0  501  0.00000000000E+00  0.00000000000E+00 -0.21491862546E+04  0.21491862546E+04  0.25500000920E-02 0.  1.
    10030    2    1    2    0    0  0.00000000000E+00  0.00000000000E+00 -0.53984493749E+03  0.37585275716E+04  0.37195560152E+04 0.  0.
        1    1    3    3  502    0  0.17833444509E+04 -0.25195918630E+03 -0.73843258734E+03  0.19465568443E+04  0.50400001928E-02 0.  1.
       -1    1    3    3    0  502 -0.17833444509E+04  0.25195918630E+03  0.19858764985E+03  0.18119707273E+04  0.50400001928E-02 0. -1.
</event>
<event>
 5   0  0.2101998E-06  0.3481134E+04  0.7818609E-02  0.8118276E-01
        1   -1    0    0  501    0  0.00000000000E+00  0.00000000000E+00  0.24824664982E+04  0.24824664982E+04  0.50400001928E-02 0.  1.
       -1   -1    0    0    0  501  0.00000000000E+00  0.00000000000E+00 -0.12203882438E+04  0.12203882438E+04  0.50400001928E-02 0. -1.
    10030    2    1    2    0    0  0.00000000000E+00  0.00000000000E+00  0.12620782543E+04  0.37028547420E+04  0.34811336832E+04 0.  0.
        5    1    3    3  502    0 -0.80027045409E+03  0.25945262922E+03  0.22518360353E+04  0.24038585829E+04  0.46999998093E+01 0.  1.
       -5    1    3    3    0  502  0.80027045409E+03 -0.25945262922E+03 -0.98975778097E+03  0.12989961591E+04  0.46999998093E+01 0. -1.
</event>
<event>
 5   0  0.1654257E-06  0.3169113E+04  0.7818609E-02  0.8197022E-01
       -1   -1    0    0    0  501  0.00000000000E+00  0.00000000000E+00  0.11919153037E+04  0.11919153037E+04  0.50400001928E-02 0.  1.
        1   -1    0    0  501    0  0.00000000000E+00  0.00000000000E+00 -0.21065411572E+04  0.21065411572E+04  0.50400001928E-02 0. -1.
    10030    2    1    2    0    0  0.00000000000E+00  0.00000000000E+00 -0.91462585354E+03  0.32984564609E+04  0.31691125844E+04 0.  0.
        3    1    3    3  502    0 -0.83162081769E+03 -0.12118724748E+03  0.94084502203E+03  0.12615343432E+04  0.10100000352E+00 0.  1.
       -3    1    3    3    0  502  0.83162081769E+03  0.12118724748E+03 -0.18554708756E+04  0.20369221177E+04  0.10100000352E+00 0. -1.
</event>
<event>
 5   0  0.2101998E-06  0.3454866E+04  0.7818609E-02  0.8124570E-01
       -1   -1    0    0    0  501  0.00000000000E+00  0.00000000000E+00  0.21421466040E+04  0.21421466040E+04  0.50400001928E-02 0. -1.
        1   -1    0    0  501    0  0.00000000000E+00  0.00000000000E+00 -0.13930070776E+04  0.13930070776E+04  0.50400001928E-02 0.  1.
    10030    2    1    2    0    0  0.00000000000E+00  0.00000000000E+00  0.74913952642E+03  0.35351536817E+04  0.34548663539E+04 0.  0.
        5    1    3    3  502    0  0.10212704900E+04  0.28911564006E+03  0.17691141493E+04  0.20630967574E+04  0.46999998093E+01 0. -1.
       -5    1    3    3    0  502 -0.10212704900E+04 -0.28911564006E+03 -0.10199746228E+04  0.14720569243E+04  0.46999998093E+01 0.  1.
</event>
<event>
 5   0  0.4173467E-06  0.3373452E+04  0.7818609E-02  0.8144453E-01
       -2   -1    0    0    0  501  0.00000000000E+00  0.00000000000E+00  0.13443182678E+04  0.13443182678E+04  0.25500000920E-02 0.  1.
        2   -1    0    0  501    0  0.00000000000E+00  0.00000000000E+00 -0.21163474690E+04  0.21163474691E+04  0.25500000920E-02 0. -1.
    10030    2    1    2    0    0  0.00000000000E+00  0.00000000000E+00 -0.77202920122E+03  0.34606657369E+04  0.33734519790E+04 0.  0.
        4    1    3    3  502    0 -0.79356838687E+03 -0.86231841173E+03 -0.16305138423E+04  0.20079643499E+04  0.12699999809E+01 0. -1.
       -4    1    3    3    0  502  0.79356838687E+03  0.86231841173E+03  0.85848464104E+03  0.14527013870E+04  0.12699999809E+01 0.  1.
</event>
<event>
 5   0  0.1562618E-06  0.3411488E+04  0.7818609E-02  0.8135093E-01
        1   -1    0    0  501    0  0.00000000000E+00  0.00000000000E+00  0.22009158387E+04  0.22009158387E+04  0.50400001928E-02 0. -1.
       -1   -1    0    0    0  501  0.00000000000E+00  0.00000000000E+00 -0.13219781690E+04  0.13219781690E+04  0.50400001928E-02 0.  1.
    10030    2    1    2    0    0  0.00000000000E+00  0.00000000000E+00  0.87893766972E+03  0.35228940077E+04  0.34114880569E+04 0.  0.
        2    1    3    3  502    0  0.66535714576E+03 -0.14860273465E+04  0.96458770503E+03  0.18924605271E+04  0.25500000920E-02 0. -1.
       -2    1    3    3    0  502 -0.66535714576E+03  0.14860273465E+04 -0.85650035307E+02  0.16304334806E+04  0.25500000920E-02 0.  1.
</event>
<event>
 5   0  0.1654257E-06  0.1940337E+04  0.7818609E-02  0.8635034E-01
        1   -1    0    0  501    0  0.00000000000E+00  0.00000000000E+00  0.13132178200E+04  0.13132178200E+04  0.50400001928E-02 0.  1.
       -1   -1    0    0    0  501  0.00000000000E+00  0.00000000000E+00 -0.71673340256E+03  0.71673340258E+03  0.50400001928E-02 0. -1.
    10030    2    1    2    0    0  0.00000000000E+00  0.00000000000E+00  0.59648441746E+03  0.20299512226E+04  0.19403371629E+04 0.  0.
        3    1    3    3  502    0 -0.12083345346E+02  0.84384116150E+03 -0.20241285600E+03  0.86786225148E+03  0.10100000352E+00 0. -1.
       -3    1    3    3    0  502  0.12083345346E+02 -0.84384116150E+03  0.79889727346E+03  0.11620889711E+04  0.10100000352E+00 0.  1.
</event>
<event>
 5   0  0.2722449E-06  0.3291836E+04  0.7818609E-02  0.8164976E-01
        2   -1    0    0  501    0  0.00000000000E+00  0.00000000000E+00  0.13079212365E+04  0.13079212365E+04  0.25500000920E-02 0.  1.
       -2   -1    0    0    0  501  0.00000000000E+00  0.00000000000E+00 -0.20712608902E+04  0.20712608902E+04  0.25500000920E-02 0. -1.
    10030    2    1    2    0    0  0.00000000000E+00  0.00000000000E+00 -0.76333965363E+03  0.33791821267E+04  0.32918360255E+04 0.  0.
        2    1    3    3  502    0 -0.89393142050E+03  0.10886524343E+04  0.49225301292E+03  0.14921764427E+04  0.25500000920E-02 0.  1.
       -2    1    3    3    0  502  0.89393142050E+03 -0.10886524343E+04 -0.12555926665E+04  0.18870056840E+04  0.25500000920E-02 0. -1.
</event>
<event>
 5   0  0.1654257E-06  0.3460911E+04  0.7818609E-02  0.8123117E-01
       -1   -1    0    0    0  501  0.00000000000E+00  0.00000000000E+00  0.20787193662E+04  0.20787193662E+04  0.50400001928E-02 0.  1.
        1   -1    0    0  501    0  0.00000000000E+00  0.00000000000E+00 -0.14405388917E+04  0.14405388917E+04  0.50400001928E-02 0. -1.
    10030    2    1    2    0    0  0.00000000000E+00  0.00000000000E+00  0.63818047452E+03  0.35192582579E+04  0.34609109159E+04 0.  0.
        3    1    3    3  502    0 -0.72327288171E+03 -0.11551584520E+04 -0.76517010272E+03  0.15630099190E+04  0.10100000352E+00 0. -1.
       -3    1    3    3    0  502  0.72327288171E+03  0.11551584520E+04  0.14033505772E+04  0.19562483389E+04  0.10100000352E+00 0.  1.
</event>
<event>
 5   0  0.4173467E-06  0.3537712E+04  0.7818609E-02  0.8104910E-01
       -2   -1    0    0    0  501  0.00000000000E+00  0.00000000000E+00  0.18150984223E+04  0.18150984223E+04  0.25500000920E-02 0. -1.
        2   -1    0    0  501    0  0.00000000000E+00  0.00000000000E+00 -0.17237916605E+04  0.17237916605E+04  0.25500000920E-02 0.  1.
    10030    2    1    2    0    0  0.00000000000E+00  0.00000000000E+00  0.91306761758E+02  0.35388900828E+04  0.35377119857E+04 0.  0.
        4    1    3    3  502    0  0.69550070994E+03  0.49162930642E+03  0.15964693924E+04  0.18094575834E+04  0.12699999809E+01 0. -1.
       -4    1    3    3    0  502 -0.69550070994E+03 -0.49162930642E+03 -0.15051626306E+04  0.17294324994E+04  0.12699999809E+01 0.  1.
</event>
<event>
 5   0  0.4189587E-06  0.3500419E+04  0.7818609E-02  0.8113691E-01
        2   -1    0    0  501    0  0.00000000000E+00  0.00000000000E+00  0.17344896949E+04  0.17344896949E+04  0.25500000920E-02 0.  1.
       -2   -1    0    0    0  501  0.00000000000E+00  0.00000000000E+00 -0.17660722546E+04  0.17660722546E+04  0.25500000920E-02 0. -1.
    10030    2    1    2    0    0  0.00000000000E+00  0.00000000000E+00 -0.31582559687E+02  0.35005619495E+04  0.35004194755E+04 0.  0.
        1    1    3    3  502    0 -0.11474155932E+04  0.11592216860E+04  0.61896021624E+03  0.17445541580E+04  0.50400001928E-02 0.  1.
       -1    1    3    3    0  502  0.11474155932E+04 -0.11592216860E+04 -0.65054277592E+03  0.17560077916E+04  0.50400001928E-02 0. -1.
</event>
<event>
 5   0  0.4189587E-06  0.2368008E+04  0.7818609E-02  0.8451579E-01
        2   -1    0    0  501    0  0.00000000000E+00  0.00000000000E+00  0.13302438874E+04  0.13302438874E+04  0.25500000920E-02 0. -1.
       -2   -1    0    0    0  501  0.00000000000E+00  0.00000000000E+00 -0.10538407339E+04  0.10538407339E+04  0.25500000920E-02 0.  1.
    10030    2    1    2    0    0  0.00000000000E+00  0.00000000000E+00  0.27640315351E+03  0.23840846213E+04  0.23680077657E+04 0.  0.
        1    1    3    3  502    0 -0.29276366223E+03 -0.10735455826E+03 -0.10117569111E+04  0.10587197978E+04  0.50400001928E-02 0.  1.
       -1    1    3    3    0  502  0.29276366223E+03  0.10735455826E+03  0.12881600646E+04  0.13253648235E+04  0.50400001928E-02 0. -1.
</event>
<event>
 5   0  0.4189587E-06  0.3395790E+04  0.7818609E-02  0.8138940E-01
        2   -1    0    0  501    0  0.00000000000E+00  0.00000000000E+00  0.27125644491E+04  0.27125644491E+04  0.25500000920E-02 0. -1.
       -2   -1    0    0    0  501  0.00000000000E+00  0.00000000000E+00 -0.10627755614E+04  0.10627755614E+04  0.25500000920E-02 0.  1.
    10030    2    1    2    0    0  0.00000000000E+00  0.00000000000E+00  0.16497888877E+04  0.37753400105E+04  0.33957898670E+04 0.  0.
        1    1    3    3  502    0  0.95046363298E+03  0.87997548189E+03 -0.39557938356E+03  0.13543341593E+04  0.50400001928E-02 0.  1.
       -1    1    3    3    0  502 -0.95046363298E+03 -0.87997548189E+03  0.20453682713E+04  0.24210058512E+04  0.50400001928E-02 0. -1.
</event>
<event>
 5   0  0.4344980E-06  0.1990719E+04  0.7818609E-02  0.8610972E-01
        2   -1    0    0  501    0  0.00000000000E+00  0.00000000000E+00  0.96940700780E+03  0.96940700780E+03  0.25500000920E-02 0. -1.
       -2   -1    0    0    0  501  0.00000000000E+00  0.00000000000E+00 -0.10220063015E+04  0.10220063015E+04  0.25500000920E-02 0.  1.
    10030    2    1    2    0    0  0.00000000000E+00  0.00000000000E+00 -0.52599293675E+02  0.19914133093E+04  0.19907185343E+04 0.  0.
        3    1    3    3  502    0 -0.77209361919E+03  0.62480934669E+03  0.38721376260E+02  0.99398925129E+03  0.10100000352E+00 0. -1.
       -3    1    3    3    0  502  0.77209361919E+03 -0.62480934669E+03 -0.91320669935E+02  0.99742405799E+03  0.10100000352E+00 0.  1.
</event>
<event>
 5   0  0.1654257E-06  0.1851004E+04  0.7818609E-02  0.8679637E-01
        1   -1    0    0  501    0  0.00000000000E+00  0.00000000000E+00  0.11282774361E+04  0.11282774361E+04  0.50400001928E-02 0. -1.
       -1   -1    0    0    0  501  0.00000000000E+00  0.00000000000E+00 -0.75916949676E+03  0.75916949678E+03  0.50400001928E-02 0.  1.
    10030    2    1    2    0    0  0.00000000000E+00  0.00000000000E+00  0.36910793932E+03  0.18874469329E+04  0.18510038502E+04 0.  0.
        3    1    3    3  502    0  0.69708451892E+03  0.43693720716E+03 -0.24771792341E+03  0.85918864593E+03  0.10100000352E+00 0.  1.
       -3    1    3    3    0  502 -0.69708451892E+03 -0.43693720716E+03  0.61682586272E+03  0.10282582869E+04  0.10100000352E+00 0. -1.
</event>
<event>
 5   0  0.1550164E-06  0.2578778E+04  0.7818609E-02  0.8375446E-01
       -1   -1    0    0    0  501  0.00000000000E+00  0.00000000000E+00  0.12332890612E+04  0.12332890612E+04  0.50400001928E-02 0. -1.
        1   -1    0    0  501    0  0.00000000000E+00  0.00000000000E+00 -0.13480403958E+04  0.13480403958E+04  0.50400001928E-02 0.  1.
    10030    2    1    2    0    0  0.00000000000E+00  0.00000000000E+00 -0.11475133455E+03  0.25813294570E+04  0.25787775974E+04 0.  0.
        4    1    3    3  502    0 -0.50651498402E+03  0.98571401869E+03 -0.71706675274E+03  0.13199908698E+04  0.12699999809E+01 0.  1.
       -4    1    3    3    0  502  0.50651498402E+03 -0.98571401869E+03  0.60231541819E+03  0.12613385872E+04  0.12699999809E+01 0. -1.
</event>
<event>
 5   0  0.2722449E-06  0.3330305E+04  0.7818609E-02  0.8155227E-01
        2   -1    0    0  501    0  0.00000000000E+00  0.00000000000E+00  0.17693431268E+04  0.17693431268E+04  0.25500000920E-02 0.  1.
       -2   -1    0    0    0  501  0.00000000000E+00  0.00000000000E+00 -0.15670977467E+04  0.15670977467E+04  0.25500000920E-02 0. -1.
    10030    2    1    2    0    0  0.00000000000E+00  0.00000000000E+00  0.20224538004E+03  0.33364408735E+04  0.33303054678E+04 0.  0.
        2    1    3    3  502    0 -0.47402313673E+03  0.15884072830E+04 -0.57276137584E+02  0.16586187587E+04  0.25500000920E-02 0. -1.
       -2    1    3    3    0  502  0.47402313673E+03 -0.15884072830E+04  0.25952151763E+03  0.16778221148E+04  0.25500000920E-02 0.  1.
</event>
<event>
 5   0  0.1571391E-06  0.3350758E+04  0.7818609E-02  0.8150099E-01
       -1   -1    0    0    0  501  0.00000000000E+00  0.00000000000E+00  0.93172027765E+03  0.93172027766E+03  0.50400001928E-02 0. -1.
        1   -1    0    0  501    0  0.00000000000E+00  0.00000000000E+00 -0.30125938425E+04  0.30125938425E+04  0.50400001928E-02 0.  1.
    10030    2    1    2    0    0  0.00000000000E+00  0.00000000000E+00 -0.20808735648E+04  0.39443141202E+04  0.33507579867E+04 0.  0.
        1    1    3    3  502    0 -0.40372840605E+03  0.10230468626E+04  0.44727240077E+03  0.11872969761E+04  0.50400001928E-02 0. -1.
       -1    1    3    3    0  502  0.40372840605E+03 -0.10230468626E+04 -0.25281459656E+04  0.27570171440E+04  0.50400001928E-02 0.  1.
</event>
<event>
 5   0  0.1562618E-06  0.1863282E+04  0.7818609E-02  0.8673352E-01
        1   -1    0    0  501    0  0.00000000000E+00  0.00000000000E+00  0.10131878472E+04  0.10131878472E+04  0.50400001928E-02 0. -1.
       -1   -1    0    0    0  501  0.00000000000E+00  0.00000000000E+00 -0.85665787900E+03  0.85665787901E+03  0.50400001928E-02 0.  1.
    10030    2    1    2    0    0  0.00000000000E+00  0.00000000000E+00  0.15652996824E+03  0.18698457263E+04  0.18632824287E+04 0.  0.
        2    1    3    3  502    0  0.62778972592E+03 -0.67868270908E+02 -0.60915104331E+03  0.87737736222E+03  0.25500000920E-02 0.  1.
       -2    1    3    3    0  502 -0.62778972592E+03  0.67868270908E+02  0.76568101154E+03  0.99246836404E+03  0.25500000920E-02 0. -1.
</event>
<event>
 5   0  0.1654257E-06  0.3354155E+04  0.7818609E-02  0.8149251E-01
       -1   -1    0    0    0  501  0.00000000000E+00  0.00000000000E+00  0.11998529051E+04  0.11998529051E+04  0.50400001928E-02 0. -1.
        1   -1    0    0  501    0  0.00000000000E+00  0.00000000000E+00 -0.23441116369E+04  0.23441116369E+04  0.50400001928E-02 0.  1.
    10030    2    1    2    0    0  0.00000000000E+00  0.00000000000E+00 -0.11442587318E+04  0.35439645420E+04  0.33541551290E+04 0.  0.
        3    1    3    3  502    0  0.11054672773E+04  0.12121405764E+04 -0.20422006007E+03  0.16531934313E+04  0.10100000352E+00 0. -1.
       -3    1    3    3    0  502 -0.11054672773E+04 -0.12121405764E+04 -0.94003867175E+03  0.18907711106E+04  0.10100000352E+00 0.  1.
</event>
<event>
 5   0  0.1571391E-06  0.2558692E+04  0.7818609E-02  0.8382370E-01
        1   -1    0    0  501    0  0.00000000000E+00  0.00000000000E+00  0.20005786124E+04  0.20005786124E+04  0.50400001928E-02 0. -1.
       -1   -1    0    0    0  501  0.00000000000E+00  0.00000000000E+00 -0.81812640867E+03  0.81812640869E+03  0.50400001928E-02 0.  1.
    10030    2    1    2    0    0  0.00000000000E+00  0.00000000000E+00  0.11824522038E+04  0.28187050211E+04  0.25586920061E+04 0.  0.
        1    1    3    3  502    0  0.61983383454E+03  0.11165498404E+04  0.50697801253E+03  0.13740102743E+04  0.50400001928E-02 0. -1.
       -1    1    3    3    0  502 -0.61983383454E+03 -0.11165498404E+04  0.67547419123E+03  0.14446947469E+04  0.50400001928E-02 0.  1.
</event>
<event>
 5   0  0.2101998E-06  0.3482483E+04  0.7818609E-02  0.8117954E-01
       -1   -1    0    0    0  501  0.00000000000E+00  0.00000000000E+00  0.12958500074E+04  0.12958500074E+04  0.50400001928E-02 0.  1.
        1   -1    0    0  501    0  0.00000000000E+00  0.00000000000E+00 -0.23397163684E+04  0.23397163684E+04  0.50400001928E-02 0. -1.
    10030    2    1    2    0    0  0.00000000000E+00  0.00000000000E+00 -0.10438663610E+04  0.36355663758E+04  0.34824827197E+04 0.  0.
        5    1    3    3  502    0  0.31934238271E+03 -0.51065664861E+03  0.11836368922E+04  0.13280693328E+04  0.46999998093E+01 0.  1.
       -5    1    3    3    0  502 -0.31934238271E+03  0.51065664861E+03 -0.22275032532E+04  0.23074970430E+04  0.46999998093E+01 0. -1.
</event>
<event>
 5   0  0.4400349E-06  0.3372250E+04  0.7818609E-02  0.8144751E-01
       -2   -1    0    0    0  501  0.00000000000E+00  0.00000000000E+00  0.23551698587E+04  0.23551698587E+04  0.25500000920E-02 0.  1.
        2   -1    0    0  501    0  0.00000000000E+00  0.00000000000E+00 -0.12071389224E+04  0.12071389224E+04  0.25500000920E-02 0. -1.
    10030    2    1    2    0    0  0.00000000000E+00  0.00000000000E+00  0.11480309363E+04  0.35623087811E+04  0.33722498160E+04 0.  0.
        5    1    3    3  502    0 -0.98391909027E+03 -0.69557192062E+03  0.18199280441E+04  0.21826766249E+04  0.46999998093E+01 0. -1.
       -5    1    3    3    0  502  0.98391909027E+03  0.69557192062E+03 -0.67189710789E+03  0.13796321562E+04  0.46999998093E+01 0.  1.
</event>
<event>
 5   0  0.1401125E-06  0.3523959E+04  0.7818609E-02  0.8108135E-01
       -3   -1    0    0    0  501  0.00000000000E+00  0.00000000000E+00  0.23196235544E+04  0.23196235566E+04  0.10100000352E+00 0. -1.
        3   -1    0    0  501    0  0.00000000000E+00  0.00000000000E+00 -0.13383943734E+04  0.13383943772E+04  0.10100000352E+00 0.  1.
    10030    2    1    2    0    0  0.00000000000E+00  0.00000000000E+00  0.98122918103E+03  0.36580179338E+04  0.35239586403E+04 0.  0.
        3    1    3    3  502    0  0.14570206258E+04  0.37926786019E+03 -0.45953031771E+03  0.15741414602E+04  0.10100000352E+00 0.  1.
       -3    1    3    3    0  502 -0.14570206258E+04 -0.37926786019E+03  0.14407594987E+04  0.20838764736E+04  0.10100000352E+00 0. -1.
</event>
<event>
 5   0  0.4400349E-06  0.3410712E+04  0.7818609E-02  0.8135282E-01
       -2   -1    0    0    0  501  0.00000000000E+00  0.00000000000E+00  0.12476141258E+04  0.12476141258E+04  0.25500000920E-02 0.  1.
        2   -1    0    0  501    0  0.00000000000E+00  0.00000000000E+00 -0.23310409836E+04  0.23310409836E+04  0.25500000920E-02 0. -1.
    10030    2    1    2    0    0  0.00000000000E+00  0.00000000000E+00 -0.10834268578E+04  0.35786551094E+04  0.34107123356E+04 0.  0.
        5    1    3    3  502    0 -0.11165495981E+04 -0.22492105089E+03 -0.18734401737E+04  0.21925037420E+04  0.46999998093E+01 0. -1.
       -5    1    3    3    0  502  0.11165495981E+04  0.22492105089E+03  0.79001331588E+03  0.13861513674E+04  0.46999998093E+01 0.  1.
</event>
<event>
 5   0  0.4344980E-06  0.3308179E+04  0.7818609E-02  0.8160817E-01
        2   -1    0    0  501    0  0.00000000000E+00  0.00000000000E+00  0.16975973658E+04  0.16975973658E+04  0.25500000920E-02 0.  1.
       -2   -1    0    0    0  501  0.00000000000E+00  0.00000000000E+00 -0.16116967362E+04  0.16116967362E+04  0.25500000920E-02 0. -1.
    10030    2    1    2    0    0  0.00000000000E+00  0.00000000000E+00  0.85900629598E+02  0.33092941020E+04  0.33081790361E+04 0.  0.
        3    1    3    3  502    0  0.66532769035E+02  0.51553235133E+03 -0.15278693625E+04  0.16138726758E+04  0.10100000352E+00 0. -1.
       -3    1    3    3    0  502 -0.66532769035E+02 -0.51553235133E+03  0.16137699921E+04  0.16954214262E+04  0.10100000352E+00 0.  1.
</event>
<event>
 5   0  0.1571391E-06  0.3210247E+04  0.7818609E-02  0.8186116E-01
        1   -1    0    0  501    0  0.00000000000E+00  0.00000000000E+00  0.14750450764E+04  0.14750450765E+04  0.50400001928E-02 0. -1.
       -1   -1    0    0    0  501  0.00000000000E+00  0.00000000000E+00 -0.17466726287E+04  0.17466726287E+04  0.50400001928E-02 0.  1.
    10030    2    1    2    0    0  0.00000000000E+00  0.00000000000E+00 -0.27162755226E+03  0.32217177052E+04  0.32102466330E+04 0.  0.
        1    1    3    3  502    0  0.31303658146E+03 -0.12223149477E+04  0.85988827265E+03  0.15269098120E+04  0.50400001928E-02 0. -1.
       -1    1    3    3    0  502 -0.31303658146E+03  0.12223149477E+04 -0.11315158249E+04  0.16948078931E+04  0.50400001928E-02 0.  1.
</event>
<event>
 5   0  0.4400349E-06  0.3485209E+04  0.7818609E-02  0.8117304E-01
        2   -1    0    0  501    0  0.00000000000E+00  0.00000000000E+00  0.32830344064E+04  0.32830344064E+04  0.25500000920E-02 0.  1.
       -2   -1    0    0    0  501  0.00000000000E+00  0.00000000000E+00 -0.92495841651E+03  0.92495841652E+03  0.25500000920E-02 0. -1.
    10030    2    1    2    0    0  0.00000000000E+00  0.00000000000E+00  0.23580759899E+04  0.42079928229E+04  0.34852089211E+04 0.  0.
        5    1    3    3  502    0  0.58403884956E+03  0.15071870321E+04  0.39290623344E+03  0.16634637134E+04  0.46999998093E+01 0. -1.
       -5    1    3    3    0  502 -0.58403884956E+03 -0.15071870321E+04  0.19651697564E+04  0.25445291095E+04  0.46999998093E+01 0.  1.
</event>
<event>
 5   0  0.1654257E-06  0.3346254E+04  0.7818609E-02  0.8151225E-01
        1   -1    0    0  501    0  0.00000000000E+00  0.00000000000E+00  0.22022730201E+04  0.22022730201E+04  0.50400001928E-02 0. -1.
       -1   -1    0    0    0  501  0.00000000000E+00  0.00000000000E+00 -0.12711202273E+04  0.12711202273E+04  0.50400001928E-02 0.  1.
    10030    2    1    2    0    0  0.00000000000E+00  0.00000000000E+00  0.93115279279E+03  0.34733932474E+04  0.33462538947E+04 0.  0.
        3    1    3    3  502    0 -0.12401439591E+04  0.48192059430E+03  0.15185906548E+04  0.20189903629E+04  0.10100000352E+00 0. -1.
       -3    1    3    3    0  502  0.12401439591E+04 -0.48192059430E+03 -0.58743786204E+03  0.14544028845E+04  0.10100000352E+00 0.  1.
</event>
<event>
 5   0  0.2722449E-06  0.3438765E+04  0.7818609E-02  0.8128457E-01
       -2   -1    0    0    0  501  0.00000000000E+00  0.00000000000E+00  0.14775390596E+04  0.14775390596E+04  0.25500000920E-02 0.  1.
        2   -1    0    0  501    0  0.00000000000E+00  0.00000000000E+00 -0.20008110737E+04  0.20008110737E+04  0.25500000920E-02 0. -1.
    10030    2    1    2    0    0  0.00000000000E+00  0.00000000000E+00 -0.52327201408E+03  0.34783501333E+04  0.34387651925E+04 0.  0.
        2    1    3    3  502    0 -0.15421038867E+03  0.17068879240E+04 -0.40117063166E+03  0.17601662151E+04  0.25500000920E-02 0. -1.
       -2    1    3    3    0  502  0.15421038867E+03 -0.17068879240E+04 -0.12210138242E+03  0.17181839182E+04  0.25500000920E-02 0.  1.
</event>
<event>
 5   0  0.1562618E-06  0.2817840E+04  0.7818609E-02  0.8297751E-01
        1   -1    0    0  501    0  0.00000000000E+00  0.00000000000E+00  0.78772879335E+03  0.78772879336E+03  0.50400001928E-02 0.  1.
       -1   -1    0    0    0  501  0.00000000000E+00  0.00000000000E+00 -0.25199728963E+04  0.25199728963E+04  0.50400001928E-02 0. -1.
    10030    2    1    2    0    0  0.00000000000E+00  0.00000000000E+00 -0.17322441029E+04  0.33077016897E+04  0.28178397463E+04 0.  0.
        2    1    3    3  502    0  0.33733849963E+03  0.55215723989E+03  0.60300262854E+03  0.88446992653E+03  0.25500000920E-02 0.  1.
       -2    1    3    3    0  502 -0.33733849963E+03 -0.55215723989E+03 -0.23352467315E+04  0.24232317631E+04  0.25500000920E-02 0. -1.
</event>
<event>
 5   0  0.4173467E-06  0.3412604E+04  0.7818609E-02  0.8134820E-01
        2   -1    0    0  501    0  0.00000000000E+00  0.00000000000E+00  0.22631261167E+04  0.22631261167E+04  0.25500000920E-02 0. -1.
       -2   -1    0    0    0  501  0.00000000000E+00  0.00000000000E+00 -0.12864798162E+04  0.12864798162E+04  0.25500000920E-02 0.  1.
    10030    2    1    2    0    0  0.00000000000E+00  0.00000000000E+00  0.97664630046E+03  0.35496059329E+04  0.34126037394E+04 0.  0.
        4    1    3    3  502    0  0.15872806635E+04 -0.47342275748E+03  0.91449805111E+03  0.18920616560E+04  0.12699999809E+01 0.  1.
       -4    1    3    3    0  502 -0.15872806635E+04  0.47342275748E+03  0.62148249347E+02  0.16575442768E+04  0.12699999809E+01 0. -1.
</event>
<event>
 5   0  0.2722449E-06  0.3452479E+04  0.7818609E-02  0.8125145E-01
       -2   -1    0    0    0  501  0.00000000000E+00  0.00000000000E+00  0.19953593407E+04  0.19953593407E+04  0.25500000920E-02 0. -1.
        2   -1    0    0  501    0  0.00000000000E+00  0.00000000000E+00 -0.14934163309E+04  0.14934163309E+04  0.25500000920E-02 0.  1.
    10030    2    1    2    0    0  0.00000000000E+00  0.00000000000E+00  0.50194300978E+03  0.34887756715E+04  0.34524786605E+04 0.  0.
        2    1    3    3  502    0 -0.66755744659E+03  0.61022146088E+03  0.17367694301E+04  0.19581550575E+04  0.25500000920E-02 0. -1.
       -2    1    3    3    0  502  0.66755744659E+03 -0.61022146088E+03 -0.12348264203E+04  0.15306206140E+04  0.25500000920E-02 0.  1.
</event>
<event>
 5   0  0.1550164E-06  0.3371500E+04  0.7818609E-02  0.8144937E-01
       -1   -1    0    0    0  501  0.00000000000E+00  0.00000000000E+00  0.22098706219E+04  0.22098706219E+04  0.50400001928E-02 0.  1.
        1   -1    0    0  501    0  0.00000000000E+00  0.00000000000E+00 -0.12859363992E+04  0.12859363992E+04  0.50400001928E-02 0. -1.
    10030    2    1    2    0    0  0.00000000000E+00  0.00000000000E+00  0.92393422267E+03  0.34958070211E+04  0.33715000046E+04 0.  0.
        4    1    3    3  502    0 -0.11685830082E+04  0.33837851217E+03 -0.74796068385E+03  0.14281222154E+04  0.12699999809E+01 0. -1.
       -4    1    3    3    0  502  0.11685830082E+04 -0.33837851217E+03  0.16718949065E+04  0.20676848057E+04  0.12699999809E+01 0.  1.
</event>
<event>
 5   0  0.1401125E-06  0.3358231E+04  0.7818609E-02  0.8148235E-01
       -3   -1    0    0    0  501  0.00000000000E+00  0.00000000000E+00  0.22977567136E+04  0.22977567158E+04  0.10100000352E+00 0. -1.
        3   -1    0    0  501    0  0.00000000000E+00  0.00000000000E+00 -0.12270352441E+04  0.12270352482E+04  0.10100000352E+00 0.  1.
    10030    2    1    2    0    0  0.00000000000E+00  0.00000000000E+00  0.10707214695E+04  0.35247919640E+04  0.33582307730E+04 0.  0.
        2    1    3    3  502    0  0.10680348290E+04  0.73189005983E+03 -0.58680964494E+03  0.14215157456E+04  0.25500000920E-02 0.  1.
       -2    1    3    3    0  502 -0.10680348290E+04 -0.73189005983E+03  0.16575311144E+04  0.21032762184E+04  0.25500000920E-02 0. -1.
</event>
<event>
 5   0  0.1571391E-06  0.3311961E+04  0.7818609E-02  0.8159858E-01
       -1   -1    0    0    0  501  0.00000000000E+00  0.00000000000E+00  0.15108187606E+04  0.15108187606E+04  0.50400001928E-02 0.  1.
        1   -1    0    0  501    0  0.00000000000E+00  0.00000000000E+00 -0.18150901081E+04  0.18150901082E+04  0.50400001928E-02 0. -1.
    10030    2    1    2    0    0  0.00000000000E+00  0.00000000000E+00 -0.30427134753E+03  0.33259088688E+04  0.33119614657E+04 0.  0.
        1    1    3    3  502    0 -0.24607754479E+03  0.14384738126E+04 -0.93806240215E+03  0.17348550769E+04  0.50400001928E-02 0.  1.
       -1    1    3    3    0  502  0.24607754479E+03 -0.14384738126E+04  0.63379105462E+03  0.15910537918E+04  0.50400001928E-02 0. -1.
</event>
<event>
 5   0  0.4344980E-06  0.3424375E+04  0.7818609E-02  0.8131950E-01
        2   -1    0    0  501    0  0.00000000000E+00  0.00000000000E+00  0.24675177071E+04  0.24675177071E+04  0.25500000920E-02 0. -1.
       -2   -1    0    0    0  501  0.00000000000E+00  0.00000000000E+00 -0.11880707712E+04  0.11880707712E+04  0.25500000920E-02 0.  1.
    10030    2    1    2    0    0  0.00000000000E+00  0.00000000000E+00  0.12794469359E+04  0.36555884784E+04  0.34243747840E+04 0.  0.
        3    1    3    3  502    0  0.94360215522E+03  0.11852045983E+04 -0.21194787936E+03  0.15297113718E+04  0.10100000352E+00 0.  1.
       -3    1    3    3    0  502 -0.94360215522E+03 -0.11852045983E+04  0.14913948153E+04  0.21258771066E+04  0.10100000352E+00 0. -1.
</event>
<event>
 5   0  0.4344980E-06  0.3416584E+04  0.7818609E-02  0.8133848E-01
       -2   -1    0    0    0  501  0.00000000000E+00  0.00000000000E+00  0.21245497398E+04  0.21245497398E+04  0.25500000920E-02 0.  1.
        2   -1    0    0  501    0  0.00000000000E+00  0.00000000000E+00 -0.13735907489E+04  0.13735907489E+04  0.25500000920E-02 0. -1.
    10030    2    1    2    0    0  0.00000000000E+00  0.00000000000E+00  0.75095899091E+03  0.34981404888E+04  0.34165841821E+04 0.  0.
        3    1    3    3  502    0 -0.48984016442E+03 -0.83974693693E+03  0.18136966440E+04  0.20578177352E+04  0.10100000352E+00 0.  1.
       -3    1    3    3    0  502  0.48984016442E+03  0.83974693693E+03 -0.10627376531E+04  0.14403227535E+04  0.10100000352E+00 0. -1.
</event>
<event>
 5   0  0.4344980E-06  0.3405646E+04  0.7818609E-02  0.8136522E-01
       -2   -1    0    0    0  501  0.00000000000E+00  0.00000000000E+00  0.24584034885E+04  0.24584034885E+04  0.25500000920E-02 0.  1.
        2   -1    0    0  501    0  0.00000000000E+00  0.00000000000E+00 -0.11794670480E+04  0.11794670481E+04  0.25500000920E-02 0. -1.
    10030    2    1    2    0    0  0.00000000000E+00  0.00000000000E+00  0.12789364404E+04  0.36378705365E+04  0.34056458450E+04 0.  0.
        3    1    3    3  502    0 -0.91061213569E+03 -0.13973843215E+04  0.27298706040E+03  0.16900944793E+04  0.10100000352E+00 0. -1.
       -3    1    3    3    0  502  0.91061213569E+03  0.13973843215E+04  0.10059493800E+04  0.19477760572E+04  0.10100000352E+00 0.  1.
</event>
<event>
 5   0  0.1562618E-06  0.2733624E+04  0.7818609E-02  0.8324177E-01
        1   -1    0    0  501    0  0.00000000000E+00  0.00000000000E+00  0.28836608696E+04  0.28836608696E+04  0.50400001928E-02 0.  1.
       -1   -1    0    0    0  501  0.00000000000E+00  0.00000000000E+00 -0.64784845392E+03  0.64784845394E+03  0.50400001928E-02 0. -1.
    10030    2    1    2    0    0  0.00000000000E+00  0.00000000000E+00  0.22358124156E+04  0.35315093235E+04  0.27336241410E+04 0.  0.
        2    1    3    3  502    0 -0.11342151792E+04 -0.12036547303E+02  0.21031158061E+04  0.23894947258E+04  0.25500000920E-02 0. -1.
       -2    1    3    3    0  502  0.11342151792E+04  0.12036547303E+02  0.13269660959E+03  0.11420145977E+04  0.25500000920E-02 0.  1.
</event>
<event>
 5   0  0.4173467E-06  0.3349465E+04  0.7818609E-02  0.8150422E-01
        2   -1    0    0  501    0  0.00000000000E+00  0.00000000000E+00  0.13202132916E+04  0.13202132916E+04  0.25500000920E-02 0.  1.
       -2   -1    0    0    0  501  0.00000000000E+00  0.00000000000E+00 -0.21244517503E+04  0.21244517503E+04  0.25500000920E-02 0. -1.
    10030    2    1    2    0    0  0.00000000000E+00  0.00000000000E+00 -0.80423845863E+03  0.34446650419E+04  0.33494652935E+04 0.  0.
        4    1    3    3  502    0  0.98585954703E+03 -0.13266857499E+04 -0.67943823659E+03  0.17870791968E+04  0.12699999809E+01 0. -1.
       -4    1    3    3    0  502 -0.98585954703E+03  0.13266857499E+04 -0.12480022203E+03  0.16575858451E+04  0.12699999809E+01 0.  1.
</event>
<event>
 5   0  0.1571391E-06  0.3347181E+04  0.7818609E-02  0.8150993E-01
       -1   -1    0    0    0  501  0.00000000000E+00  0.00000000000E+00  0.13692692367E+04  0.13692692367E+04  0.50400001928E-02 0.  1.
        1   -1    0    0  501    0  0.00000000000E+00  0.00000000000E+00 -0.20455473930E+04  0.20455473930E+04  0.50400001928E-02 0. -1.
    10030    2    1    2    0    0  0.00000000000E+00  0.00000000000E+00 -0.67627815634E+03  0.34148166297E+04  0.33471809735E+04 0.  0.
        1    1    3    3  502    0 -0.13111778938E+04 -0.70759214579E+03  0.43951749423E+03  0.15533994148E+04  0.50400001928E-02 0.  1.
       -1    1    3    3    0  502  0.13111778938E+04  0.70759214579E+03 -0.11157956506E+04  0.18614172149E+04  0.50400001928E-02 0. -1.
</event>
<event>
 5   0  0.4189587E-06  0.3403992E+04  0.7818609E-02  0.8136927E-01
        2   -1    0    0  501    0  0.00000000000E+00  0.00000000000E+00  0.22330989393E+04  0.22330989393E+04  0.25500000920E-02 0. -1.
       -2   -1    0    0    0  501  0.00000000000E+00  0.00000000000E+00 -0.12972065270E+04  0.12972065270E+04  0.25500000920E-02 0.  1.
    10030    2    1    2    0    0  0.00000000000E+00  0.00000000000E+00  0.93589241232E+03  0.35303054662E+04  0.34039920795E+04 0.  0.
        1    1    3    3  502    0 -0.12690432054E+04  0.10934507259E+04  0.15563155050E+03  0.16823573718E+04  0.50400001928E-02 0.  1.
       -1    1    3    3    0  502  0.12690432054E+04 -0.10934507259E+04  0.78026086181E+03  0.18479480944E+04  0.50400001928E-02 0. -1.
</event>
<event>
 5   0  0.1571391E-06  0.3426346E+04  0.7818609E-02  0.8131470E-01
        1   -1    0    0  501    0  0.00000000000E+00  0.00000000000E+00  0.26019748216E+04  0.26019748216E+04  0.50400001928E-02 0.  1.
       -1   -1    0    0    0  501  0.00000000000E+00  0.00000000000E+00 -0.11279746088E+04  0.11279746089E+04  0.50400001928E-02 0. -1.
    10030    2    1    2    0    0  0.00000000000E+00  0.00000000000E+00  0.14740002127E+04  0.37299494304E+04  0.34263458854E+04 0.  0.
        1    1    3    3  502    0  0.12049921452E+04 -0.68889202922E+03 -0.35616195146E+03  0.14329792858E+04  0.50400001928E-02 0. -1.
       -1    1    3    3    0  502 -0.12049921452E+04  0.68889202922E+03  0.18301621642E+04  0.22969701446E+04  0.50400001928E-02 0.  1.
</event>
<event>
 5   0  0.4344980E-06  0.3429084E+04  0.7818609E-02  0.8130805E-01
        2   -1    0    0  501    0  0.00000000000E+00  0.00000000000E+00  0.20311958373E+04  0.20311958373E+04  0.25500000920E-02 0. -1.
       -2   -1    0    0    0  501  0.00000000000E+00  0.00000000000E+00 -0.14472529465E+04  0.14472529465E+04  0.25500000920E-02 0.  1.
    10030    2    1    2    0    0  0.00000000000E+00  0.00000000000E+00  0.58394289086E+03  0.34784487838E+04  0.34290839362E+04 0.  0.
        3    1    3    3  502    0  0.22099772696E+03 -0.11854802191E+04  0.15283077838E+04  0.19467737509E+04  0.10100000352E+00 0. -1.
       -3    1    3    3    0  502 -0.22099772696E+03  0.11854802191E+04 -0.94436489290E+03  0.15316750329E+04  0.10100000352E+00 0.  1.
</event>
<event>
 5   0  0.1401125E-06  0.2322595E+04  0.7818609E-02  0.8469065E-01
       -3   -1    0    0    0  501  0.00000000000E+00  0.00000000000E+00  0.53519227366E+03  0.53519228319E+03  0.10100000352E+00 0. -1.
        3   -1    0    0  501    0  0.00000000000E+00  0.00000000000E+00 -0.25198633116E+04  0.25198633136E+04  0.10100000352E+00 0.  1.
    10030    2    1    2    0    0  0.00000000000E+00  0.00000000000E+00 -0.19846710379E+04  0.30550555968E+04  0.23225945774E+04 0.  0.
        4    1    3    3  502    0 -0.59625329244E+03 -0.95931000535E+03 -0.13472791858E+04  0.17581116268E+04  0.12699999809E+01 0.  1.
       -4    1    3    3    0  502  0.59625329244E+03  0.95931000535E+03 -0.63739185213E+03  0.12969439699E+04  0.12699999809E+01 0. -1.
</event>
<event>
 5   0  0.1562618E-06  0.1963441E+04  0.7818609E-02  0.8623906E-01
        1   -1    0    0  501    0  0.00000000000E+00  0.00000000000E+00  0.92753343138E+03  0.92753343139E+03  0.50400001928E-02 0.  1.
       -1   -1    0    0    0  501  0.00000000000E+00  0.00000000000E+00 -0.10390735088E+04  0.10390735088E+04  0.50400001928E-02 0. -1.
    10030    2    1    2    0    0  0.00000000000E+00  0.00000000000E+00 -0.11154007740E+03  0.19666069402E+04  0.19634412821E+04 0.  0.
        2    1    3    3  502    0  0.45904381251E+03 -0.83371698640E+03 -0.29692820938E+03  0.99698124193E+03  0.25500000920E-02 0. -1.
       -2    1    3    3    0  502 -0.45904381251E+03  0.83371698640E+03  0.18538813198E+03  0.96962569825E+03  0.25500000920E-02 0.  1.
</event>
<event>
 5   0  0.2722449E-06  0.2517720E+04  0.7818609E-02  0.8396700E-01
        2   -1    0    0  501    0  0.00000000000E+00  0.00000000000E+00  0.10856772947E+04  0.10856772947E+04  0.25500000920E-02 0.  1.
       -2   -1    0    0    0  501  0.00000000000E+00  0.00000000000E+00 -0.14596684387E+04  0.14596684387E+04  0.25500000920E-02 0. -1.
    10030    2    1    2    0    0  0.00000000000E+00  0.00000000000E+00 -0.37399114400E+03  0.25453457334E+04  0.25177203035E+04 0.  0.
        2    1    3    3  502    0  0.68243834365E+03  0.11312718867E+03 -0.12503006742E+04  0.14289057456E+04  0.25500000920E-02 0. -1.
       -2    1    3    3    0  502 -0.68243834365E+03 -0.11312718867E+03  0.87630953024E+03  0.11164399879E+04  0.25500000920E-02 0.  1.
</event>
<event>
 5   0  0.4189587E-06  0.3386536E+04  0.7818609E-02  0.8141219E-01
        2   -1    0    0  501    0  0.00000000000E+00  0.00000000000E+00  0.15652971764E+04  0.15652971764E+04  0.25500000920E-02 0. -1.
       -2   -1    0    0    0  501  0.00000000000E+00  0.00000000000E+00 -0.18317005884E+04  0.18317005884E+04  0.25500000920E-02 0.  1.
    10030    2    1    2    0    0  0.00000000000E+00  0.00000000000E+00 -0.26640341208E+03  0.33969977648E+04  0.33865355507E+04 0.  0.
        1    1    3    3  502    0 -0.12151764754E+04 -0.16632427666E+03  0.10378114106E+04  0.16066642945E+04  0.50400001928E-02 0. -1.
       -1    1    3    3    0  502  0.12151764754E+04  0.16632427666E+03 -0.13042148226E+04  0.17903334703E+04  0.50400001928E-02 0.  1.
</event>
<event>
 5   0  0.1654257E-06  0.1986695E+04  0.7818609E-02  0.8612867E-01
       -1   -1    0    0    0  501  0.00000000000E+00  0.00000000000E+00  0.59343274546E+03  0.59343274549E+03  0.50400001928E-02 0.  1.
        1   -1    0    0  501    0  0.00000000000E+00  0.00000000000E+00 -0.16627648800E+04  0.16627648800E+04  0.50400001928E-02 0. -1.
    10030    2    1    2    0    0  0.00000000000E+00  0.00000000000E+00 -0.10693321345E+04  0.22561976255E+04  0.19866948712E+04 0.  0.
        3    1    3    3  502    0 -0.21942976146E+03 -0.67370223633E+03  0.25599288825E+03  0.75336345311E+03  0.10100000352E+00 0. -1.
       -3    1    3    3    0  502  0.21942976146E+03  0.67370223633E+03 -0.13253250228E+04  0.15028341723E+04  0.10100000352E+00 0.  1.
</event>
<event>
 5   0  0.4400349E-06  0.2095016E+04  0.7818609E-02  0.8563442E-01
        2   -1    0    0  501    0  0.00000000000E+00  0.00000000000E+00  0.13840986457E+04  0.13840986457E+04  0.25500000920E-02 0. -1.
       -2   -1    0    0    0  501  0.00000000000E+00  0.00000000000E+00 -0.79277078551E+03  0.79277078551E+03  0.25500000920E-02 0.  1.
    10030    2    1    2    0    0  0.00000000000E+00  0.00000000000E+00  0.59132786015E+03  0.21768694312E+04  0.20950159623E+04 0.  0.
        5    1    3    3  502    0  0.15545237322E+03  0.94782581378E+03  0.72998009944E+03  0.12064129679E+04  0.46999998093E+01 0. -1.
       -5    1    3    3    0  502 -0.15545237322E+03 -0.94782581378E+03 -0.13865223929E+03  0.97045646325E+03  0.46999998093E+01 0.  1.
</event>
<event>
 5   0  0.4173467E-06  0.3365234E+04  0.7818609E-02  0.8146492E-01
        2   -1    0    0  501    0  0.00000000000E+00  0.00000000000E+00  0.14904096459E+04  0.14904096459E+04  0.25500000920E-02 0. -1.
       -2   -1    0    0    0  501  0.00000000000E+00  0.00000000000E+00 -0.18996120336E+04  0.18996120336E+04  0.25500000920E-02 0.  1.
    10030    2    1    2    0    0  0.00000000000E+00  0.00000000000E+00 -0.40920238767E+03  0.33900216795E+04  0.33652340771E+04 0.  0.
        4    1    3    3  502    0 -0.69256402507E+03 -0.14994850973E+04  0.11885265031E+03  0.16559674065E+04  0.12699999809E+01 0. -1.
       -4    1    3    3    0  502  0.69256402507E+03  0.14994850973E+04 -0.52805503798E+03  0.17340542731E+04  0.12699999809E+01 0.  1.
</event>
<event>
 5   0  0.2722449E-06  0.3426075E+04  0.7818609E-02  0.8131536E-01
       -2   -1    0    0    0  501  0.00000000000E+00  0.00000000000E+00  0.22670355638E+04  0.22670355638E+04  0.25500000920E-02 0.  1.
        2   -1    0    0  501    0  0.00000000000E+00  0.00000000000E+00 -0.12944208091E+04  0.12944208091E+04  0.25500000920E-02 0. -1.
    10030    2    1    2    0    0  0.00000000000E+00  0.00000000000E+00  0.97261475475E+03  0.35614563729E+04  0.34260753107E+04 0.  0.
        2    1    3    3  502    0  0.21845551760E+03 -0.15373560386E+04  0.12382953714E+04  0.19860920999E+04  0.25500000920E-02 0.  1.
       -2    1    3    3    0  502 -0.21845551760E+03  0.15373560386E+04 -0.26568061660E+03  0.15753642730E+04  0.25500000920E-02 0. -1.
</event>
<event>
 5   0  0.4400349E-06  0.2656547E+04  0.7818609E-02  0.8349243E-01
        2   -1    0    0  501    0  0.00000000000E+00  0.00000000000E+00  0.12822854998E+04  0.12822854998E+04  0.25500000920E-02 0. -1.
       -2   -1    0    0    0  501  0.00000000000E+00  0.00000000000E+00 -0.13759103623E+04  0.13759103623E+04  0.25500000920E-02 0.  1.
    10030    2    1    2    0    0  0.00000000000E+00  0.00000000000E+00 -0.93624862539E+02  0.26581958621E+04  0.26565465602E+04 0.  0.
        5    1    3    3  502    0  0.12930940186E+04  0.30104468829E+03 -0.71927582035E+01  0.13277024784E+04  0.46999998093E+01 0. -1.
       -5    1    3    3    0  502 -0.12930940186E+04 -0.30104468829E+03 -0.86432104336E+02  0.13304933837E+04  0.46999998093E+01 0.  1.
</event>
<event>
 5   0  0.2722449E-06  0.2733570E+04  0.7818609E-02  0.8324194E-01
       -2   -1    0    0    0  501  0.00000000000E+00  0.00000000000E+00  0.14496814875E+04  0.14496814875E+04  0.25500000920E-02 0.  1.
        2   -1    0    0  501    0  0.00000000000E+00  0.00000000000E+00 -0.12886285065E+04  0.12886285065E+04  0.25500000920E-02 0. -1.
    10030    2    1    2    0    0  0.00000000000E+00  0.00000000000E+00  0.16105298100E+03  0.27383099939E+04  0.27335697467E+04 0.  0.
        2    1    3    3  502    0  0.63322371154E+03  0.11113226537E+04 -0.40206672212E+03  0.13407714043E+04  0.25500000920E-02 0.  1.
       -2    1    3    3    0  502 -0.63322371154E+03 -0.11113226537E+04  0.56311970312E+03  0.13975385897E+04  0.25500000920E-02 0. -1.
</event>
<event>
 5   0  0.4400349E-06  0.3277656E+04  0.7818609E-02  0.8168604E-01
       -2   -1    0    0    0  501  0.00000000000E+00  0.00000000000E+00  0.13679394348E+04  0.13679394348E+04  0.25500000920E-02 0. -1.
        2   -1    0    0  501    0  0.00000000000E+00  0.00000000000E+00 -0.19633597935E+04  0.19633597935E+04  0.25500000920E-02 0.  1.
    10030    2    1    2    0    0  0.00000000000E+00  0.00000000000E+00 -0.59542035866E+03  0.33312992283E+04  0.32776560443E+04 0.  0.
        5    1    3    3  502    0  0.43347049223E+03  0.15368365378E+04 -0.67248895278E+03  0.17326357647E+04  0.46999998093E+01 0.  1.
       -5    1    3    3    0  502 -0.43347049223E+03 -0.15368365378E+04  0.77068594124E+02  0.15986634636E+04  0.46999998093E+01 0. -1.
</event>
<event>
 5   0  0.4173467E-06  0.3456934E+04  0.7818609E-02  0.8124072E-01
        2   -1    0    0  501    0  0.00000000000E+00  0.00000000000E+00  0.23575449462E+04  0.23575449462E+04  0.25500000920E-02 0. -1.
       -2   -1    0    0    0  501  0.00000000000E+00  0.00000000000E+00 -0.12672499423E+04  0.12672499423E+04  0.25500000920E-02 0.  1.
    10030    2    1    2    0    0  0.00000000000E+00  0.00000000000E+00  0.10902950039E+04  0.36247948885E+04  0.34569343049E+04 0.  0.
        4    1    3    3  502    0  0.14420749239E+04 -0.58952248155E+03  0.13301525763E+04  0.20485175936E+04  0.12699999809E+01 0. -1.
       -4    1    3    3    0  502 -0.14420749239E+04  0.58952248155E+03 -0.23985757236E+03  0.15762772949E+04  0.12699999809E+01 0.  1.
</event>
<event>
 5   0  0.2722449E-06  0.3529563E+04  0.7818609E-02  0.8106819E-01
        2   -1    0    0  501    0  0.00000000000E+00  0.00000000000E+00  0.25122127950E+04  0.25122127950E+04  0.25500000920E-02 0.  1.
       -2   -1    0    0    0  501  0.00000000000E+00  0.00000000000E+00 -0.12397254921E+04  0.12397254921E+04  0.25500000920E-02 0. -1.
    10030    2    1    2    0    0  0.00000000000E+00  0.00000000000E+00  0.12724873029E+04  0.37519382872E+04  0.35295632838E+04 0.  0.
        2    1    3    3  502    0 -0.70997770424E+02  0.51853724172E+03 -0.11553297625E+04  0.12683486960E+04  0.25500000920E-02 0. -1.
       -2    1    3    3    0  502  0.70997770424E+02 -0.51853724172E+03  0.24278170654E+04  0.24835895912E+04  0.25500000920E-02 0.  1.
</event>
<event>
 5   0  0.4400349E-06  0.3373158E+04  0.7818609E-02  0.8144526E-01
       -2   -1    0    0    0  501  0.00000000000E+00  0.00000000000E+00  0.12309026678E+04  0.12309026678E+04  0.25500000920E-02 0.  1.
        2   -1    0    0  501    0  0.00000000000E+00  0.00000000000E+00 -0.23109446846E+04  0.23109446846E+04  0.25500000920E-02 0. -1.
    10030    2    1    2    0    0  0.00000000000E+00  0.00000000000E+00 -0.10800420167E+04  0.35418473524E+04  0.33731575578E+04 0.  0.
        5    1    3    3  502    0  0.27156844303E+02  0.13421713397E+04  0.53199930872E+03  0.14440244990E+04  0.46999998093E+01 0. -1.
       -5    1    3    3    0  502 -0.27156844303E+02 -0.13421713397E+04 -0.16120413254E+04  0.20978228534E+04  0.46999998093E+01 0.  1.
</event>
<event>
 5   0  0.1550164E-06  0.3371771E+04  0.7818609E-02  0.8144870E-01
        1   -1    0    0  501    0  0.00000000000E+00  0.00000000000E+00  0.27227566686E+04  0.27227566686E+04  0.50400001928E-02 0.  1.
       -1   -1    0    0    0  501  0.00000000000E+00  0.00000000000E+00 -0.10438723268E+04  0.10438723268E+04  0.50400001928E-02 0. -1.
    10030    2    1    2    0    0  0.00000000000E+00  0.00000000000E+00  0.16788843419E+04  0.37666289954E+04  0.33717712490E+04 0.  0.
        4    1    3    3  502    0 -0.97708334259E+03 -0.65469596304E+03  0.21887344192E+04  0.24847290864E+04  0.12699999809E+01 0.  1.
       -4    1    3    3    0  502  0.97708334259E+03  0.65469596304E+03 -0.50985007729E+03  0.12818999090E+04  0.12699999809E+01 0. -1.
</event>
<event>
 5   0  0.4344980E-06  0.3452908E+04  0.7818609E-02  0.8125042E-01
        2   -1    0    0  501    0  0.00000000000E+00  0.00000000000E+00  0.25203007510E+04  0.25203007510E+04  0.25500000920E-02 0.  1.
       -2   -1    0    0    0  501  0.00000000000E+00  0.00000000000E+00 -0.11826540734E+04  0.11826540734E+04  0.25500000920E-02 0. -1.
    10030    2    1    2    0    0  0.00000000000E+00  0.00000000000E+00  0.13376466776E+04  0.37029548244E+04  0.34529083100E+04 0.  0.
        3    1    3    3  502    0 -0.13991872238E+04  0.37379508050E+03 -0.33901757702E+03  0.14874073339E+04  0.10100000352E+00 0. -1.
       -3    1    3    3    0  502  0.13991872238E+04 -0.37379508050E+03  0.16766642546E+04  0.22155474904E+04  0.10100000352E+00 0.  1.
</event>
<event>
 5   0  0.1550164E-06  0.1927569E+04  0.7818609E-02  0.8641254E-01
        1   -1    0    0  501    0  0.00000000000E+00  0.00000000000E+00  0.11010150269E+04  0.11010150269E+04  0.50400001928E-02 0. -1.
       -1   -1    0    0    0  501  0.00000000000E+00  0.00000000000E+00 -0.84365817285E+03  0.84365817286E+03  0.50400001928E-02 0.  1.
    10030    2    1    2    0    0  0.00000000000E+00  0.00000000000E+00  0.25735685402E+03  0.19446731997E+04  0.19275687545E+04 0.  0.
        4    1    3    3  502    0 -0.55220158399E+03  0.33825738625E+03 -0.59147223285E+03  0.87703230490E+03  0.12699999809E+01 0.  1.
       -4    1    3    3    0  502  0.55220158399E+03 -0.33825738625E+03  0.84882908687E+03  0.10676408948E+04  0.12699999809E+01 0. -1.
</event>
<event>
 5   0  0.2722449E-06  0.3591199E+04  0.7818609E-02  0.8092511E-01
        2   -1    0    0  501    0  0.00000000000E+00  0.00000000000E+00  0.26684259960E+04  0.26684259960E+04  0.25500000920E-02 0. -1.
       -2   -1    0    0    0  501  0.00000000000E+00  0.00000000000E+00 -0.12082694207E+04  0.12082694208E+04  0.25500000920E-02 0.  1.
    10030    2    1    2    0    0  0.00000000000E+00  0.00000000000E+00  0.14601565753E+04  0.38766954168E+04  0.35911989822E+04 0.  0.
        2    1    3    3  502    0  0.50801685086E+03  0.16681236556E+04  0.11924516071E+04  0.21125005293E+04  0.25500000920E-02 0.  1.
       -2    1    3    3    0  502 -0.50801685086E+03 -0.16681236556E+04  0.26770496818E+03  0.17641948875E+04  0.25500000920E-02 0. -1.
</event>
<event>
 5   0  0.4400349E-06  0.3408609E+04  0.7818609E-02  0.8135797E-01
       -2   -1    0    0    0  501  0.00000000000E+00  0.00000000000E+00  0.11986954515E+04  0.11986954515E+04  0.25500000920E-02 0.  1.
        2   -1    0    0  501    0  0.00000000000E+00  0.00000000000E+00 -0.24231792354E+04  0.24231792354E+04  0.25500000920E-02 0. -1.
    10030    2    1    2    0    0  0.00000000000E+00  0.00000000000E+00 -0.12244837839E+04  0.36218746869E+04  0.34086090580E+04 0.  0.
        5    1    3    3  502    0  0.68564844680E+03 -0.30382653653E+03 -0.22384229880E+04  0.23607168234E+04  0.46999998093E+01 0. -1.
       -5    1    3    3    0  502 -0.68564844680E+03  0.30382653653E+03  0.10139392042E+04  0.12611578635E+04  0.46999998093E+01 0.  1.
</event>
<event>
 5   0  0.1571391E-06  0.3298781E+04  0.7818609E-02  0.8163206E-01
       -1   -1    0    0    0  501  0.00000000000E+00  0.00000000000E+00  0.23758618185E+04  0.23758618185E+04  0.50400001928E-02 0.  1.
        1   -1    0    0  501    0  0.00000000000E+00  0.00000000000E+00 -0.11450533686E+04  0.11450533686E+04  0.50400001928E-02 0. -1.
    10030    2    1    2    0    0  0.00000000000E+00  0.00000000000E+00  0.12308084499E+04  0.35209151871E+04  0.32987807314E+04 0.  0.
        1    1    3    3  502    0 -0.10354518162E+04 -0.38724120099E+03 -0.69110353101E+03  0.13037408876E+04  0.50400001928E-02 0. -1.
       -1    1    3    3    0  502  0.10354518162E+04  0.38724120099E+03  0.19219119809E+04  0.22171742994E+04  0.50400001928E-02 0.  1.
</event>
<event>
 5   0  0.1550164E-06  0.3236152E+04  0.7818609E-02  0.8179334E-01
        1   -1    0    0  501    0  0.00000000000E+00  0.00000000000E+00  0.25858782692E+04  0.25858782692E+04  0.50400001928E-02 0. -1.
       -1   -1    0    0    0  501  0.00000000000E+00  0.00000000000E+00 -0.10124877563E+04  0.10124877563E+04  0.50400001928E-02 0.  1.
    10030    2    1    2    0    0  0.00000000000E+00  0.00000000000E+00  0.15733905129E+04  0.35983660255E+04  0.32361520897E+04 0.  0.
        4    1    3    3  502    0  0.15701561688E+04  0.39086796344E+03  0.78731924744E+03  0.17994558537E+04  0.12699999809E+01 0. -1.
       -4    1    3    3    0  502 -0.15701561688E+04 -0.39086796344E+03  0.78607126546E+03  0.17989101719E+04  0.12699999809E+01 0.  1.
</event>
<event>
 5   0  0.1654257E-06  0.1868231E+04  0.7818609E-02  0.8670833E-01
        1   -1    0    0  501    0  0.00000000000E+00  0.00000000000E+00  0.11317125892E+04  0.11317125892E+04  0.50400001928E-02 0. -1.
       -1   -1    0    0    0  501  0.00000000000E+00  0.00000000000E+00 -0.77101888682E+03  0.77101888683E+03  0.50400001928E-02 0.  1.
    10030    2    1    2    0    0  0.00000000000E+00  0.00000000000E+00  0.36069370240E+03  0.19027314761E+04  0.18682310144E+04 0.  0.
        3    1    3    3  502    0 -0.27766675399E+03  0.78632401122E+03 -0.24833879858E+03  0.87010139983E+03  0.10100000352E+00 0.  1.
       -3    1    3    3    0  502  0.27766675399E+03 -0.78632401122E+03  0.60903250098E+03  0.10326300762E+04  0.10100000352E+00 0. -1.
</event>
<event>
 5   0  0.1401125E-06  0.2061756E+04  0.7818609E-02  0.8578280E-01
        3   -1    0    0  501    0  0.00000000000E+00  0.00000000000E+00  0.11901526774E+04  0.11901526817E+04  0.10100000352E+00 0. -1.
       -3   -1    0    0    0  501  0.00000000000E+00  0.00000000000E+00 -0.89291857812E+03  0.89291858384E+03  0.10100000352E+00 0.  1.
    10030    2    1    2    0    0  0.00000000000E+00  0.00000000000E+00  0.29723409930E+03  0.20830712655E+04  0.20617559961E+04 0.  0.
        1    1    3    3  502    0 -0.84605415766E+01  0.79653644864E+03  0.80972706717E+03  0.11358696308E+04  0.50400001928E-02 0. -1.
       -1    1    3    3    0  502  0.84605415766E+01 -0.79653644864E+03 -0.51249296787E+03  0.94720163477E+03  0.50400001928E-02 0.  1.
</event>
<event>
 5   0  0.2101998E-06  0.3195194E+04  0.7818609E-02  0.8190088E-01
        1   -1    0    0  501    0  0.00000000000E+00  0.00000000000E+00  0.19162813797E+04  0.19162813797E+04  0.50400001928E-02 0. -1.
       -1   -1    0    0    0  501  0.00000000000E+00  0.00000000000E+00 -0.13319107841E+04  0.13319107841E+04  0.50400001928E-02 0.  1.
    10030    2    1    2    0    0  0.00000000000E+00  0.00000000000E+00  0.58437059561E+03  0.32481921638E+04  0.31951937875E+04 0.  0.
        5    1    3    3  502    0 -0.13306540890E+04  0.41509454723E+03  0.10857418899E+04  0.17668620006E+04  0.46999998093E+01 0. -1.
       -5    1    3    3    0  502  0.13306540890E+04 -0.41509454723E+03 -0.50137129430E+03  0.14813301632E+04  0.46999998093E+01 0.  1.
</event>
<event>
 5   0  0.1571391E-06  0.1913403E+04  0.7818609E-02  0.8648213E-01
        1   -1    0    0  501    0  0.00000000000E+00  0.00000000000E+00  0.53965121369E+03  0.53965121371E+03  0.50400001928E-02 0. -1.
       -1   -1    0    0    0  501  0.00000000000E+00  0.00000000000E+00 -0.16960545128E+04  0.16960545128E+04  0.50400001928E-02 0.  1.
    10030    2    1    2    0    0  0.00000000000E+00  0.00000000000E+00 -0.11564032991E+04  0.22357057265E+04  0.19134031215E+04 0.  0.
        1    1    3    3  502    0 -0.50371908322E+03  0.35687310228E+03 -0.14321952883E+04  0.15595751568E+04  0.50400001928E-02 0.  1.
       -1    1    3    3    0  502  0.50371908322E+03 -0.35687310228E+03  0.27579198920E+03  0.67613056968E+03  0.50400001928E-02 0. -1.
</event>
<event>
 5   0  0.4344980E-06  0.3210618E+04  0.7818609E-02  0.8186019E-01
        2   -1    0    0  501    0  0.00000000000E+00  0.00000000000E+00  0.18317409821E+04  0.18317409821E+04  0.25500000920E-02 0.  1.
       -2   -1    0    0    0  501  0.00000000000E+00  0.00000000000E+00 -0.14068673421E+04  0.14068673421E+04  0.25500000920E-02 0. -1.
    10030    2    1    2    0    0  0.00000000000E+00  0.00000000000E+00  0.42487363991E+03  0.32386083242E+04  0.32106177393E+04 0.  0.
        3    1    3    3  502    0  0.51559374770E+03 -0.73309303233E+03 -0.11309978484E+04  0.14430587133E+04  0.10100000352E+00 0. -1.
       -3    1    3    3    0  502 -0.51559374770E+03  0.73309303233E+03  0.15558714883E+04  0.17955496109E+04  0.10100000352E+00 0.  1.
</event>
<event>
 5   0  0.2101998E-06  0.3300566E+04  0.7818609E-02  0.8162751E-01
        1   -1    0    0  501    0  0.00000000000E+00  0.00000000000E+00  0.20758153333E+04  0.20758153333E+04  0.50400001928E-02 0. -1.
       -1   -1    0    0    0  501  0.00000000000E+00  0.00000000000E+00 -0.13119825009E+04  0.13119825009E+04  0.50400001928E-02 0.  1.
    10030    2    1    2    0    0  0.00000000000E+00  0.00000000000E+00  0.76383283237E+03  0.33877978342E+04  0.33005656438E+04 0.  0.
        5    1    3    3  502    0 -0.97354190638E+03  0.79832912450E+03  0.14770248173E+04  0.19408085004E+04  0.46999998093E+01 0. -1.
       -5    1    3    3    0  502  0.97354190638E+03 -0.79832912450E+03 -0.71319198493E+03  0.14469893337E+04  0.46999998093E+01 0.  1.
</event>
<event>
 5   0  0.4400349E-06  0.3483000E+04  0.7818609E-02  0.8117831E-01
        2   -1    0    0  501    0  0.00000000000E+00  0.00000000000E+00  0.15648399504E+04  0.15648399504E+04  0.25500000920E-02 0. -1.
       -2   -1    0    0    0  501  0.00000000000E+00  0.00000000000E+00 -0.19381034599E+04  0.19381034599E+04  0.25500000920E-02 0.  1.
    10030    2    1    2    0    0  0.00000000000E+00  0.00000000000E+00 -0.37326350953E+03  0.35029434103E+04  0.34829996968E+04 0.  0.
        5    1    3    3  502    0 -0.15905197318E+04  0.69885912467E+03 -0.64932512324E+02  0.17385037862E+04  0.46999998093E+01 0. -1.
       -5    1    3    3    0  502  0.15905197318E+04 -0.69885912467E+03 -0.30833099721E+03  0.17644396241E+04  0.46999998093E+01 0.  1.
</event>
<event>
 5   0  0.1550164E-06  0.3416701E+04  0.7818609E-02  0.8133819E-01
       -1   -1    0    0    0  501  0.00000000000E+00  0.00000000000E+00  0.12418189996E+04  0.12418189996E+04  0.50400001928E-02 0.  1.
        1   -1    0    0  501    0  0.00000000000E+00  0.00000000000E+00 -0.23501502865E+04  0.23501502866E+04  0.50400001928E-02 0. -1.
    10030    2    1    2    0    0  0.00000000000E+00  0.00000000000E+00 -0.11083312870E+04  0.35919692861E+04  0.34167009103E+04 0.  0.
        4    1    3    3  502    0  0.15312129269E+04  0.41720597259E+03 -0.12188865539E+04  0.20010896769E+04  0.12699999809E+01 0. -1.
       -4    1    3    3    0  502 -0.15312129269E+04 -0.41720597259E+03  0.11055526687E+03  0.15908796092E+04  0.12699999809E+01 0.  1.
</event>
<event>
 5   0  0.2101998E-06  0.1759601E+04  0.7818609E-02  0.8728083E-01
        1   -1    0    0  501    0  0.00000000000E+00  0.00000000000E+00  0.11949898135E+04  0.11949898135E+04  0.50400001928E-02 0. -1.
       -1   -1    0    0    0  501  0.00000000000E+00  0.00000000000E+00 -0.64774542822E+03  0.64774542824E+03  0.50400001928E-02 0.  1.
    10030    2    1    2    0    0  0.00000000000E+00  0.00000000000E+00  0.54724438530E+03  0.18427352418E+04  0.17596013054E+04 0.  0.
        5    1    3    3  502    0 -0.78212749257E+03 -0.26487496377E+03  0.59151771147E+03  0.10157743126E+04  0.46999998093E+01 0. -1.
       -5    1    3    3    0  502  0.78212749257E+03  0.26487496377E+03 -0.44273326168E+02  0.82696092923E+03  0.46999998093E+01 0.  1.
</event>
<event>
 5   0  0.4189587E-06  0.3217085E+04  0.7818609E-02  0.8184320E-01
        2   -1    0    0  501    0  0.00000000000E+00  0.00000000000E+00  0.18534261729E+04  0.18534261729E+04  0.25500000920E-02 0.  1.
       -2   -1    0    0    0  501  0.00000000000E+00  0.00000000000E+00 -0.13960136304E+04  0.13960136304E+04  0.25500000920E-02 0. -1.
    10030    2    1    2    0    0  0.00000000000E+00  0.00000000000E+00  0.45741254252E+03  0.32494398032E+04  0.32170845188E+04 0.  0.
        1    1    3    3  502    0  0.16244662897E+03  0.49089772938E+03  0.17671925986E+04  0.18412873672E+04  0.50400001928E-02 0.  1.
       -1    1    3    3    0  502 -0.16244662897E+03 -0.49089772938E+03 -0.13097800561E+04  0.14081524361E+04  0.50400001928E-02 0. -1.
</event>
<event>
 5   0  0.4400349E-06  0.2066578E+04  0.7818609E-02  0.8576111E-01
        2   -1    0    0  501    0  0.00000000000E+00  0.00000000000E+00  0.13436389116E+04  0.13436389116E+04  0.25500000920E-02 0. -1.
       -2   -1    0    0    0  501  0.00000000000E+00  0.00000000000E+00 -0.79462302687E+03  0.79462302687E+03  0.25500000920E-02 0.  1.
    10030    2    1    2    0    0  0.00000000000E+00  0.00000000000E+00  0.54901588470E+03  0.21382619384E+04  0.20665782530E+04 0.  0.
        5    1    3    3  502    0  0.15906787161E+03  0.89935049629E+03 -0.22550447104E+03  0.94074877593E+03  0.46999998093E+01 0. -1.
       -5    1    3    3    0  502 -0.15906787161E+03 -0.89935049629E+03  0.77452035574E+03  0.11975131625E+04  0.46999998093E+01 0.  1.
</event>
<event>
 5   0  0.1401125E-06  0.2121066E+04  0.7818609E-02  0.8552020E-01
       -3   -1    0    0    0  501  0.00000000000E+00  0.00000000000E+00  0.74053003117E+03  0.74053003806E+03  0.10100000352E+00 0.  1.
        3   -1    0    0  501    0  0.00000000000E+00  0.00000000000E+00 -0.15188176743E+04  0.15188176776E+04  0.10100000352E+00 0. -1.
    10030    2    1    2    0    0  0.00000000000E+00  0.00000000000E+00 -0.77828764309E+03  0.22593477157E+04  0.21210658747E+04 0.  0.
        2    1    3    3  502    0  0.10163586452E+04 -0.30066470448E+03 -0.35006481242E+03  0.11162121363E+04  0.25500000920E-02 0. -1.
       -2    1    3    3    0  502 -0.10163586452E+04  0.30066470448E+03 -0.42822283068E+03  0.11431355794E+04  0.25500000920E-02 0.  1.
</event>
<event>
 5   0  0.4173467E-06  0.3487380E+04  0.7818609E-02  0.8116787E-01
        2   -1    0    0  501    0  0.00000000000E+00  0.00000000000E+00  0.19350934742E+04  0.19350934742E+04  0.25500000920E-02 0. -1.
       -2   -1    0    0    0  501  0.00000000000E+00  0.00000000000E+00 -0.15712183229E+04  0.15712183229E+04  0.25500000920E-02 0.  1.
    10030    2    1    2    0    0  0.00000000000E+00  0.00000000000E+00  0.36387515132E+03  0.35063117970E+04  0.34873797173E+04 0.  0.
        4    1    3    3  502    0 -0.54817241605E+03 -0.15832568351E+04  0.66752687746E+03  0.18035489870E+04  0.12699999809E+01 0. -1.
       -4    1    3    3    0  502  0.54817241605E+03  0.15832568351E+04 -0.30365172614E+03  0.17027628100E+04  0.12699999809E+01 0.  1.
</event>
<event>
 5   0  0.1571391E-06  0.1780129E+04  0.7818609E-02  0.8716939E-01
        1   -1    0    0  501    0  0.00000000000E+00  0.00000000000E+00  0.83660901214E+03  0.83660901215E+03  0.50400001928E-02 0. -1.
       -1   -1    0    0    0  501  0.00000000000E+00  0.00000000000E+00 -0.94693568162E+03  0.94693568163E+03  0.50400001928E-02 0.  1.
    10030    2    1    2    0    0  0.00000000000E+00  0.00000000000E+00 -0.11032666949E+03  0.17835446938E+04  0.17801291247E+04 0.  0.
        1    1    3    3  502    0  0.42593651699E+03  0.37863537698E+03  0.62983572257E+03  0.84939961306E+03  0.50400001928E-02 0. -1.
       -1    1    3    3    0  502 -0.42593651699E+03 -0.37863537698E+03 -0.74016239206E+03  0.93414508073E+03  0.50400001928E-02 0.  1.
</event>
<event>
 5   0  0.1562618E-06  0.3465440E+04  0.7818609E-02  0.8122029E-01
        1   -1    0    0  501    0  0.00000000000E+00  0.00000000000E+00  0.94212634081E+03  0.94212634082E+03  0.50400001928E-02 0. -1.
       -1   -1    0    0    0  501  0.00000000000E+00  0.00000000000E+00 -0.31867473611E+04  0.31867473611E+04  0.50400001928E-02 0.  1.
    10030    2    1    2    0    0  0.00000000000E+00  0.00000000000E+00 -0.22446210203E+04  0.41288737019E+04  0.34654400185E+04 0.  0.
        2    1    3    3  502    0 -0.94288783514E+03 -0.13633501199E+04 -0.17234375388E+04  0.23912335664E+04  0.25500000920E-02 0. -1.
       -2    1    3    3    0  502  0.94288783514E+03  0.13633501199E+04 -0.52118348152E+03  0.17376401355E+04  0.25500000920E-02 0.  1.
</event>
<event>
 5   0  0.1562618E-06  0.3269041E+04  0.7818609E-02  0.8170818E-01
        1   -1    0    0  501    0  0.00000000000E+00  0.00000000000E+00  0.20236886003E+04  0.20236886003E+04  0.50400001928E-02 0. -1.
       -1   -1    0    0    0  501  0.00000000000E+00  0.00000000000E+00 -0.13201914841E+04  0.13201914842E+04  0.50400001928E-02 0.  1.
    10030    2    1    2    0    0  0.00000000000E+00  0.00000000000E+00  0.70349711613E+03  0.33438800844E+04  0.32690405055E+04 0.  0.
        2    1    3    3  502    0  0.23414409038E+02  0.14595999807E+04  0.11038890790E+04  0.18301779796E+04  0.25500000920E-02 0. -1.
       -2    1    3    3    0  502 -0.23414409038E+02 -0.14595999807E+04 -0.40039196284E+03  0.15137021048E+04  0.25500000920E-02 0.  1.
</event>
<event>
 5   0  0.1550164E-06  0.3373847E+04  0.7818609E-02  0.8144355E-01
       -1   -1    0    0    0  501  0.00000000000E+00  0.00000000000E+00  0.29815879712E+04  0.29815879712E+04  0.50400001928E-02 0.  1.
        1   -1    0    0  501    0  0.00000000000E+00  0.00000000000E+00 -0.95442792163E+03  0.95442792164E+03  0.50400001928E-02 0. -1.
    10030    2    1    2    0    0  0.00000000000E+00  0.00000000000E+00  0.20271600496E+04  0.39360158928E+04  0.33738469500E+04 0.  0.
        4    1    3    3  502    0  0.66726933317E+03 -0.14355298976E+04  0.33361172498E+03  0.16178049468E+04  0.12699999809E+01 0.  1.
       -4    1    3    3    0  502 -0.66726933317E+03  0.14355298976E+04  0.16935483246E+04  0.23182109461E+04  0.12699999809E+01 0. -1.
</event>
<event>
 5   0  0.1550164E-06  0.4071023E+04  0.7818609E-02  0.7990370E-01
        1   -1    0    0  501    0  0.00000000000E+00  0.00000000000E+00  0.14911230615E+04  0.14911230616E+04  0.50400001928E-02 0.  1.
       -1   -1    0    0    0  501  0.00000000000E+00  0.00000000000E+00 -0.27786482361E+04  0.27786482361E+04  0.50400001928E-02 0. -1.
    10030    2    1    2    0    0  0.00000000000E+00  0.00000000000E+00 -0.12875251746E+04  0.42697712977E+04  0.40710227044E+04 0.  0.
        4    1    3    3  502    0 -0.37334472016E+03 -0.13747315524E+03  0.14499464398E+04  0.15035396369E+04  0.12699999809E+01 0.  1.
       -4    1    3    3    0  502  0.37334472016E+03  0.13747315524E+03 -0.27374716144E+04  0.27662316608E+04  0.12699999809E+01 0. -1.
</event>
<event>
 5   0  0.2101998E-06  0.2610803E+04  0.7818609E-02  0.8364541E-01
        1   -1    0    0  501    0  0.00000000000E+00  0.00000000000E+00  0.20472118322E+04  0.20472118322E+04  0.50400001928E-02 0. -1.
       -1   -1    0    0    0  501  0.00000000000E+00  0.00000000000E+00 -0.83238738795E+03  0.83238738797E+03  0.50400001928E-02 0.  1.
    10030    2    1    2    0    0  0.00000000000E+00  0.00000000000E+00  0.12148244442E+04  0.28795992201E+04  0.26108031788E+04 0.  0.
        5    1    3    3  502    0  0.96226902240E+03 -0.33874441958E+03  0.15057229494E+04  0.18187724277E+04  0.46999998093E+01 0. -1.
       -5    1    3    3    0  502 -0.96226902240E+03  0.33874441958E+03 -0.29089850521E+03  0.10608267925E+04  0.46999998093E+01 0.  1.
</event>
<event>
 5   0  0.2722449E-06  0.3388919E+04  0.7818609E-02  0.8140631E-01
        2   -1    0    0  501    0  0.00000000000E+00  0.00000000000E+00  0.15208622343E+04  0.15208622343E+04  0.25500000920E-02 0. -1.
       -2   -1    0    0    0  501  0.00000000000E+00  0.00000000000E+00 -0.18878713134E+04  0.18878713134E+04  0.25500000920E-02 0.  1.
    10030    2    1    2    0    0  0.00000000000E+00  0.00000000000E+00 -0.36700907912E+03  0.34087335477E+04  0.33889185200E+04 0.  0.
        2    1    3    3  502    0  0.11852074779E+04 -0.39075595377E+03 -0.13364111005E+04  0.18284970907E+04  0.25500000920E-02 0.  1.
       -2    1    3    3    0  502 -0.11852074779E+04  0.39075595377E+03  0.96940202140E+03  0.15802364570E+04  0.25500000920E-02 0. -1.
</event>
<event>
 5   0  0.2101998E-06  0.3054329E+04  0.7818609E-02  0.8228385E-01
       -1   -1    0    0    0  501  0.00000000000E+00  0.00000000000E+00  0.13565881137E+04  0.13565881137E+04  0.50400001928E-02 0. -1.
        1   -1    0    0  501    0  0.00000000000E+00  0.00000000000E+00 -0.17191892571E+04  0.17191892571E+04  0.50400001928E-02 0.  1.
    10030    2    1    2    0    0  0.00000000000E+00  0.00000000000E+00 -0.36260114337E+03  0.30757773708E+04  0.30543291973E+04 0.  0.
        5    1    3    3  502    0  0.53705107836E+03  0.14764556693E+03  0.12506505189E+04  0.13690770192E+04  0.46999998093E+01 0. -1.
       -5    1    3    3    0  502 -0.53705107836E+03 -0.14764556693E+03 -0.16132516623E+04  0.17067003516E+04  0.46999998093E+01 0.  1.
</event>
<event>
 5   0  0.2722449E-06  0.2239602E+04  0.7818609E-02  0.8502124E-01
       -2   -1    0    0    0  501  0.00000000000E+00  0.00000000000E+00  0.75473261123E+03  0.75473261123E+03  0.25500000920E-02 0. -1.
        2   -1    0    0  501    0  0.00000000000E+00  0.00000000000E+00 -0.16614544514E+04  0.16614544514E+04  0.25500000920E-02 0.  1.
    10030    2    1    2    0    0  0.00000000000E+00  0.00000000000E+00 -0.90672184020E+03  0.24161870627E+04  0.22396016222E+04 0.  0.
        2    1    3    3  502    0 -0.10965365223E+04  0.20387212816E+03 -0.56123301612E+03  0.12485746625E+04  0.25500000920E-02 0.  1.
       -2    1    3    3    0  502  0.10965365223E+04 -0.20387212816E+03 -0.34548882408E+03  0.11676124002E+04  0.25500000920E-02 0. -1.
</event>
<event>
 5   0  0.1571391E-06  0.1679651E+04  0.7818609E-02  0.8773056E-01
        1   -1    0    0  501    0  0.00000000000E+00  0.00000000000E+00  0.16014428768E+04  0.16014428768E+04  0.50400001928E-02 0.  1.
       -1   -1    0    0    0  501  0.00000000000E+00  0.00000000000E+00 -0.44041984083E+03  0.44041984086E+03  0.50400001928E-02 0. -1.
    10030    2    1    2    0    0  0.00000000000E+00  0.00000000000E+00  0.11610230360E+04  0.20418627177E+04  0.16796514126E+04 0.  0.
        1    1    3    3  502    0 -0.82563769779E+03  0.52128422190E+02  0.75630696420E+03  0.11208903624E+04  0.50400001928E-02 0.  1.
       -1    1    3    3    0  502  0.82563769779E+03 -0.52128422190E+02  0.40471607180E+03  0.92097235529E+03  0.50400001928E-02 0. -1.
</event>
<event>
 5   0  0.4189587E-06  0.2694975E+04  0.7818609E-02  0.8336637E-01
       -2   -1    0    0    0  501  0.00000000000E+00  0.00000000000E+00  0.13130599134E+04  0.13130599134E+04  0.25500000920E-02 0. -1.
        2   -1    0    0  501    0  0.00000000000E+00  0.00000000000E+00 -0.13828178529E+04  0.13828178529E+04  0.25500000920E-02 0.  1.
    10030    2    1    2    0    0  0.00000000000E+00  0.00000000000E+00 -0.69757939496E+02  0.26958777664E+04  0.26949750947E+04 0.  0.
        1    1    3    3  502    0  0.75493082338E+03 -0.96466003643E+03 -0.59652330914E+03  0.13624718685E+04  0.50400001928E-02 0.  1.
       -1    1    3    3    0  502 -0.75493082338E+03  0.96466003643E+03  0.52676536965E+03  0.13334058979E+04  0.50400001928E-02 0. -1.
</event>
<event>
 5   0  0.1571391E-06  0.3446304E+04  0.7818609E-02  0.8126634E-01
       -1   -1    0    0    0  501  0.00000000000E+00  0.00000000000E+00  0.15705031631E+04  0.15705031631E+04  0.50400001928E-02 0. -1.
        1   -1    0    0  501    0  0.00000000000E+00  0.00000000000E+00 -0.18906376772E+04  0.18906376772E+04  0.50400001928E-02 0.  1.
    10030    2    1    2    0    0  0.00000000000E+00  0.00000000000E+00 -0.32013451407E+03  0.34611408403E+04  0.34463037894E+04 0.  0.
        1    1    3    3  502    0 -0.13846861913E+03 -0.16896256079E+04  0.14987798982E+03  0.17019023666E+04  0.50400001928E-02 0. -1.
       -1    1    3    3    0  502  0.13846861913E+03  0.16896256079E+04 -0.47001250389E+03  0.17592384737E+04  0.50400001928E-02 0.  1.
</event>
<event>
 5   0  0.2722449E-06  0.3408961E+04  0.7818609E-02  0.8135711E-01
       -2   -1    0    0    0  501  0.00000000000E+00  0.00000000000E+00  0.11748428289E+04  0.11748428289E+04  0.25500000920E-02 0.  1.
        2   -1    0    0  501    0  0.00000000000E+00  0.00000000000E+00 -0.24728866625E+04  0.24728866625E+04  0.25500000920E-02 0. -1.
    10030    2    1    2    0    0  0.00000000000E+00  0.00000000000E+00 -0.12980438336E+04  0.36477294913E+04  0.34089606404E+04 0.  0.
        2    1    3    3  502    0  0.34176876755E+02 -0.22383901668E+03 -0.24567212227E+04  0.24671341939E+04  0.25500000920E-02 0. -1.
       -2    1    3    3    0  502 -0.34176876755E+02  0.22383901668E+03  0.11586773891E+04  0.11805952975E+04  0.25500000920E-02 0.  1.
</event>
<event>
 5   0  0.1571391E-06  0.2848500E+04  0.7818609E-02  0.8288367E-01
        1   -1    0    0  501    0  0.00000000000E+00  0.00000000000E+00  0.18169034503E+04  0.18169034503E+04  0.50400001928E-02 0.  1.
       -1   -1    0    0    0  501  0.00000000000E+00  0.00000000000E+00 -0.11164532191E+04  0.11164532191E+04  0.50400001928E-02 0. -1.
    10030    2    1    2    0    0  0.00000000000E+00  0.00000000000E+00  0.70045023122E+03  0.29333566695E+04  0.28484997497E+04 0.  0.
        1    1    3    3  502    0  0.14106074203E+04 -0.44155116751E+02  0.15287924836E+03  0.14195545193E+04  0.50400001928E-02 0.  1.
       -1    1    3    3    0  502 -0.14106074203E+04  0.44155116751E+02  0.54757098286E+03  0.15138021502E+04  0.50400001928E-02 0. -1.
</event>
<event>
 5   0  0.1654257E-06  0.3238909E+04  0.7818609E-02  0.8178616E-01
       -1   -1    0    0    0  501  0.00000000000E+00  0.00000000000E+00  0.14399604844E+04  0.14399604844E+04  0.50400001928E-02 0. -1.
        1   -1    0    0  501    0  0.00000000000E+00  0.00000000000E+00 -0.18213229046E+04  0.18213229046E+04  0.50400001928E-02 0.  1.
    10030    2    1    2    0    0  0.00000000000E+00  0.00000000000E+00 -0.38136242023E+03  0.32612833890E+04  0.32389090829E+04 0.  0.
        3    1    3    3  502    0  0.30916366324E+03  0.15544512633E+04 -0.52574427091E+03  0.16698227298E+04  0.10100000352E+00 0.  1.
       -3    1    3    3    0  502 -0.30916366324E+03 -0.15544512633E+04  0.14438185068E+03  0.15914606591E+04  0.10100000352E+00 0. -1.
</event>
<event>
 5   0  0.1550164E-06  0.3440780E+04  0.7818609E-02  0.8127969E-01
        1   -1    0    0  501    0  0.00000000000E+00  0.00000000000E+00  0.28307403051E+04  0.28307403051E+04  0.50400001928E-02 0.  1.
       -1   -1    0    0    0  501  0.00000000000E+00  0.00000000000E+00 -0.10455716313E+04  0.10455716314E+04  0.50400001928E-02 0. -1.
    10030    2    1    2    0    0  0.00000000000E+00  0.00000000000E+00  0.17851686737E+04  0.38763119364E+04  0.34407800038E+04 0.  0.
        4    1    3    3  502    0 -0.16270963933E+04  0.55701483985E+03  0.84180145486E+03  0.19147687869E+04  0.12699999809E+01 0. -1.
       -4    1    3    3    0  502  0.16270963933E+04 -0.55701483985E+03  0.94336721887E+03  0.19615431495E+04  0.12699999809E+01 0.  1.
</event>
<event>
 5   0  0.4344980E-06  0.3722737E+04  0.7818609E-02  0.8062942E-01
        2   -1    0    0  501    0  0.00000000000E+00  0.00000000000E+00  0.21086237201E+04  0.21086237201E+04  0.25500000920E-02 0.  1.
       -2   -1    0    0    0  501  0.00000000000E+00  0.00000000000E+00 -0.16431060124E+04  0.16431060124E+04  0.25500000920E-02 0. -1.
    10030    2    1    2    0    0  0.00000000000E+00  0.00000000000E+00  0.46551770768E+03  0.37517297325E+04  0.37227367956E+04 0.  0.
        3    1    3    3  502    0  0.12583551190E+04 -0.62255209997E+03  0.14644323864E+04  0.20286919301E+04  0.10100000352E+00 0.  1.
       -3    1    3    3    0  502 -0.12583551190E+04  0.62255209997E+03 -0.99891467874E+03  0.17230378023E+04  0.10100000352E+00 0. -1.
</event>
<event>
 5   0  0.4189587E-06  0.2704770E+04  0.7818609E-02  0.8333459E-01
       -2   -1    0    0    0  501  0.00000000000E+00  0.00000000000E+00  0.92973290364E+03  0.92973290365E+03  0.25500000920E-02 0. -1.
        2   -1    0    0  501    0  0.00000000000E+00  0.00000000000E+00 -0.19671719890E+04  0.19671719890E+04  0.25500000920E-02 0.  1.
    10030    2    1    2    0    0  0.00000000000E+00  0.00000000000E+00 -0.10374390853E+04  0.28969048926E+04  0.27047695098E+04 0.  0.
        1    1    3    3  502    0  0.77912799517E+03 -0.97064766645E+02  0.66062776219E+03  0.10261047909E+04  0.50400001928E-02 0. -1.
       -1    1    3    3    0  502 -0.77912799517E+03  0.97064766645E+02 -0.16980668475E+04  0.18708001017E+04  0.50400001928E-02 0.  1.
</event>
<event>
 5   0  0.4173467E-06  0.3506190E+04  0.7818609E-02  0.8112325E-01
        2   -1    0    0  501    0  0.00000000000E+00  0.00000000000E+00  0.20987522274E+04  0.20987522274E+04  0.25500000920E-02 0. -1.
       -2   -1    0    0    0  501  0.00000000000E+00  0.00000000000E+00 -0.14643661535E+04  0.14643661535E+04  0.25500000920E-02 0.  1.
    10030    2    1    2    0    0  0.00000000000E+00  0.00000000000E+00  0.63438607393E+03  0.35631183809E+04  0.35061897988E+04 0.  0.
        4    1    3    3  502    0 -0.19561318744E+03 -0.16997421986E+04  0.70543272867E+03  0.18506823089E+04  0.12699999809E+01 0. -1.
       -4    1    3    3    0  502  0.19561318744E+03  0.16997421986E+04 -0.71046654743E+02  0.17124360720E+04  0.12699999809E+01 0.  1.
</event>
<event>
 5   0  0.4400349E-06  0.3237582E+04  0.7818609E-02  0.8178962E-01
        2   -1    0    0  501    0  0.00000000000E+00  0.00000000000E+00  0.16325705140E+04  0.16325705140E+04  0.25500000920E-02 0.  1.
       -2   -1    0    0    0  501  0.00000000000E+00  0.00000000000E+00 -0.16051279674E+04  0.16051279674E+04  0.25500000920E-02 0. -1.
    10030    2    1    2    0    0  0.00000000000E+00  0.00000000000E+00  0.27442546595E+02  0.32376984814E+04  0.32375821786E+04 0.  0.
        5    1    3    3  502    0 -0.13435517937E+04 -0.80668043774E+03 -0.39199978329E+03  0.16154103723E+04  0.46999998093E+01 0. -1.
       -5    1    3    3    0  502  0.13435517937E+04  0.80668043774E+03  0.41944232988E+03  0.16222881091E+04  0.46999998093E+01 0.  1.
</event>
<event>
 5   0  0.1571391E-06  0.3407647E+04  0.7818609E-02  0.8136032E-01
        1   -1    0    0  501    0  0.00000000000E+00  0.00000000000E+00  0.26700530482E+04  0.26700530482E+04  0.50400001928E-02 0.  1.
       -1   -1    0    0    0  501  0.00000000000E+00  0.00000000000E+00 -0.10872498101E+04  0.10872498101E+04  0.50400001928E-02 0. -1.
    10030    2    1    2    0    0  0.00000000000E+00  0.00000000000E+00  0.15828032381E+04  0.37573028583E+04  0.34076470883E+04 0.  0.
        1    1    3    3  502    0 -0.16708705708E+04 -0.23052785054E+03  0.10570895090E+04  0.19905752395E+04  0.50400001928E-02 0. -1.
       -1    1    3    3    0  502  0.16708705708E+04  0.23052785054E+03  0.52571372910E+03  0.17667276188E+04  0.50400001928E-02 0.  1.
</event>
<event>
 5   0  0.4400349E-06  0.2992905E+04  0.7818609E-02  0.8245760E-01
        2   -1    0    0  501    0  0.00000000000E+00  0.00000000000E+00  0.16549100613E+04  0.16549100613E+04  0.25500000920E-02 0. -1.
       -2   -1    0    0    0  501  0.00000000000E+00  0.00000000000E+00 -0.13531668957E+04  0.13531668957E+04  0.25500000920E-02 0.  1.
    10030    2    1    2    0    0  0.00000000000E+00  0.00000000000E+00  0.30174316556E+03  0.30080769570E+04  0.29929046161E+04 0.  0.
        5    1    3    3  502    0 -0.38141471981E+03 -0.57124145416E+03  0.14871050423E+04  0.16380773744E+04  0.46999998093E+01 0. -1.
       -5    1    3    3    0  502  0.38141471981E+03  0.57124145416E+03 -0.11853618768E+04  0.13699995826E+04  0.46999998093E+01 0.  1.
</event>
<event>
 5   0  0.1654257E-06  0.1773616E+04  0.7818609E-02  0.8720457E-01
        1   -1    0    0  501    0  0.00000000000E+00  0.00000000000E+00  0.10154488134E+04  0.10154488134E+04  0.50400001928E-02 0.  1.
       -1   -1    0    0    0  501  0.00000000000E+00  0.00000000000E+00 -0.77446400779E+03  0.77446400780E+03  0.50400001928E-02 0. -1.
    10030    2    1    2    0    0  0.00000000000E+00  0.00000000000E+00  0.24098480565E+03  0.17899128212E+04  0.17736161454E+04 0.  0.
        3    1    3    3  502    0  0.71969932891E+03  0.50898748260E+03  0.21830127395E+03  0.90812490214E+03  0.10100000352E+00 0.  1.
       -3    1    3    3    0  502 -0.71969932891E+03 -0.50898748260E+03  0.22683531699E+02  0.88178791911E+03  0.10100000352E+00 0. -1.
</event>
<event>
 5   0  0.1550164E-06  0.3201686E+04  0.7818609E-02  0.8188372E-01
        1   -1    0    0  501    0  0.00000000000E+00  0.00000000000E+00  0.24560291805E+04  0.24560291805E+04  0.50400001928E-02 0.  1.
       -1   -1    0    0    0  501  0.00000000000E+00  0.00000000000E+00 -0.10434313061E+04  0.10434313061E+04  0.50400001928E-02 0. -1.
    10030    2    1    2    0    0  0.00000000000E+00  0.00000000000E+00  0.14125978744E+04  0.34994604866E+04  0.32016856408E+04 0.  0.
        4    1    3    3  502    0 -0.25710484105E+03  0.15408282440E+04  0.10887596304E+04  0.19041149447E+04  0.12699999809E+01 0.  1.
       -4    1    3    3    0  502  0.25710484105E+03 -0.15408282440E+04  0.32383824398E+03  0.15953455419E+04  0.12699999809E+01 0. -1.
</event>
<event>
 5   0  0.4344980E-06  0.3209255E+04  0.7818609E-02  0.8186377E-01
        2   -1    0    0  501    0  0.00000000000E+00  0.00000000000E+00  0.23070738629E+04  0.23070738629E+04  0.25500000920E-02 0.  1.
       -2   -1    0    0    0  501  0.00000000000E+00  0.00000000000E+00 -0.11160582030E+04  0.11160582030E+04  0.25500000920E-02 0. -1.
    10030    2    1    2    0    0  0.00000000000E+00  0.00000000000E+00  0.11910156599E+04  0.34231320658E+04  0.32092545611E+04 0.  0.
        3    1    3    3  502    0  0.37463811884E+03  0.42339402355E+03  0.21973260184E+04  0.22688891248E+04  0.10100000352E+00 0.  1.
       -3    1    3    3    0  502 -0.37463811884E+03 -0.42339402355E+03 -0.10063103585E+04  0.11542429411E+04  0.10100000352E+00 0. -1.
</event>
<event>
 5   0  0.2101998E-06  0.3082439E+04  0.7818609E-02  0.8220574E-01
       -1   -1    0    0    0  501  0.00000000000E+00  0.00000000000E+00  0.15316779173E+04  0.15316779173E+04  0.50400001928E-02 0. -1.
        1   -1    0    0  501    0  0.00000000000E+00  0.00000000000E+00 -0.15508203411E+04  0.15508203411E+04  0.50400001928E-02 0.  1.
    10030    2    1    2    0    0  0.00000000000E+00  0.00000000000E+00 -0.19142423828E+02  0.30824982585E+04  0.30824388203E+04 0.  0.
        5    1    3    3  502    0  0.80124244996E+03 -0.10180819761E+04 -0.84436560671E+03  0.15464332321E+04  0.46999998093E+01 0.  1.
       -5    1    3    3    0  502 -0.80124244996E+03  0.10180819761E+04  0.82522318288E+03  0.15360650263E+04  0.46999998093E+01 0. -1.
</event>
<event>
 5   0  0.4400349E-06  0.3439201E+04  0.7818609E-02  0.8128352E-01
       -2   -1    0    0    0  501  0.00000000000E+00  0.00000000000E+00  0.16218938641E+04  0.16218938641E+04  0.25500000920E-02 0. -1.
        2   -1    0    0  501    0  0.00000000000E+00  0.00000000000E+00 -0.18231928116E+04  0.18231928116E+04  0.25500000920E-02 0.  1.
    10030    2    1    2    0    0  0.00000000000E+00  0.00000000000E+00 -0.20129894747E+03  0.34450866758E+04  0.34392006247E+04 0.  0.
        5    1    3    3  502    0 -0.12264268953E+04 -0.10491767298E+02 -0.13080214571E+04  0.17930909706E+04  0.46999998093E+01 0.  1.
       -5    1    3    3    0  502  0.12264268953E+04  0.10491767298E+02  0.11067225096E+04  0.16519957052E+04  0.46999998093E+01 0. -1.
</event>
<event>
 5   0  0.4173467E-06  0.3170189E+04  0.7818609E-02  0.8196735E-01
       -2   -1    0    0    0  501  0.00000000000E+00  0.00000000000E+00  0.20114347296E+04  0.20114347296E+04  0.25500000920E-02 0.  1.
        2   -1    0    0  501    0  0.00000000000E+00  0.00000000000E+00 -0.12491203096E+04  0.12491203096E+04  0.25500000920E-02 0. -1.
    10030    2    1    2    0    0  0.00000000000E+00  0.00000000000E+00  0.76231441999E+03  0.32605550392E+04  0.31701886203E+04 0.  0.
        4    1    3    3  502    0 -0.12098385524E+04  0.10091868315E+04  0.20196407107E+03  0.15883823477E+04  0.12699999809E+01 0.  1.
       -4    1    3    3    0  502  0.12098385524E+04 -0.10091868315E+04  0.56035034892E+03  0.16721726914E+04  0.12699999809E+01 0. -1.
</event>
<event>
 5   0  0.4173467E-06  0.3429529E+04  0.7818609E-02  0.8130697E-01
       -2   -1    0    0    0  501  0.00000000000E+00  0.00000000000E+00  0.17579491448E+04  0.17579491448E+04  0.25500000920E-02 0.  1.
        2   -1    0    0  501    0  0.00000000000E+00  0.00000000000E+00 -0.16726403273E+04  0.16726403273E+04  0.25500000920E-02 0. -1.
    10030    2    1    2    0    0  0.00000000000E+00  0.00000000000E+00  0.85308817414E+02  0.34305894721E+04  0.34295286166E+04 0.  0.
        4    1    3    3  502    0 -0.47705447783E+03 -0.88619994956E+03 -0.13461135113E+04  0.16807601029E+04  0.12699999809E+01 0. -1.
       -4    1    3    3    0  502  0.47705447783E+03  0.88619994956E+03  0.14314223287E+04  0.17498293692E+04  0.12699999809E+01 0.  1.
</event>
<event>
 5   0  0.4189587E-06  0.3390094E+04  0.7818609E-02  0.8140342E-01
        2   -1    0    0  501    0  0.00000000000E+00  0.00000000000E+00  0.14101690858E+04  0.14101690858E+04  0.25500000920E-02 0.  1.
       -2   -1    0    0    0  501  0.00000000000E+00  0.00000000000E+00 -0.20374756025E+04  0.20374756025E+04  0.25500000920E-02 0. -1.
    10030    2    1    2    0    0  0.00000000000E+00  0.00000000000E+00 -0.62730651669E+03  0.34476446882E+04  0.33900944574E+04 0.  0.
        1    1    3    3  502    0 -0.16898449271E+03 -0.15303743081E+04 -0.10346195440E+04  0.18550037419E+04  0.50400001928E-02 0. -1.
       -1    1    3    3    0  502  0.16898449271E+03  0.15303743081E+04  0.40731302727E+03  0.15926409463E+04  0.50400001928E-02 0.  1.
</event>
<event>
 5   0  0.1562618E-06  0.3388098E+04  0.7818609E-02  0.8140834E-01
       -1   -1    0    0    0  501  0.00000000000E+00  0.00000000000E+00  0.13089516889E+04  0.13089516889E+04  0.50400001928E-02 0.  1.
        1   -1    0    0  501    0  0.00000000000E+00  0.00000000000E+00 -0.21924433149E+04  0.21924433149E+04  0.50400001928E-02 0. -1.
    10030    2    1    2    0    0  0.00000000000E+00  0.00000000000E+00 -0.88349162598E+03  0.35013950038E+04  0.33880982157E+04 0.  0.
        2    1    3    3  502    0 -0.13538730231E+04 -0.89913629679E+03 -0.93562199722E+03  0.18753151107E+04  0.25500000920E-02 0.  1.
       -2    1    3    3    0  502  0.13538730231E+04  0.89913629679E+03  0.52130371241E+02  0.16260798930E+04  0.25500000920E-02 0. -1.
</event>
<event>
 5   0  0.4173467E-06  0.3643029E+04  0.7818609E-02  0.8080706E-01
       -2   -1    0    0    0  501  0.00000000000E+00  0.00000000000E+00  0.17843453783E+04  0.17843453783E+04  0.25500000920E-02 0. -1.
        2   -1    0    0  501    0  0.00000000000E+00  0.00000000000E+00 -0.18594579226E+04  0.18594579226E+04  0.25500000920E-02 0.  1.
    10030    2    1    2    0    0  0.00000000000E+00  0.00000000000E+00 -0.75112544289E+02  0.36438033008E+04  0.36430290420E+04 0.  0.
        4    1    3    3  502    0  0.42384888468E+02 -0.15334485984E+04  0.94481969280E+03  0.18016511725E+04  0.12699999809E+01 0.  1.
       -4    1    3    3    0  502 -0.42384888468E+02  0.15334485984E+04 -0.10199322371E+04  0.18421521283E+04  0.12699999809E+01 0. -1.
</event>
<event>
 5   0  0.2101998E-06  0.3422526E+04  0.7818609E-02  0.8132400E-01
        1   -1    0    0  501    0  0.00000000000E+00  0.00000000000E+00  0.12446320826E+04  0.12446320826E+04  0.50400001928E-02 0. -1.
       -1   -1    0    0    0  501  0.00000000000E+00  0.00000000000E+00 -0.23528402896E+04  0.23528402896E+04  0.50400001928E-02 0.  1.
    10030    2    1    2    0    0  0.00000000000E+00  0.00000000000E+00 -0.11082082070E+04  0.35974723722E+04  0.34225256813E+04 0.  0.
        5    1    3    3  502    0  0.14680704414E+04 -0.81859367175E+03 -0.21664503591E+03  0.16947812785E+04  0.46999998093E+01 0. -1.
       -5    1    3    3    0  502 -0.14680704414E+04  0.81859367175E+03 -0.89156317108E+03  0.19026910938E+04  0.46999998093E+01 0.  1.
</event>
<event>
 5   0  0.1654257E-06  0.1922172E+04  0.7818609E-02  0.8643898E-01
       -1   -1    0    0    0  501  0.00000000000E+00  0.00000000000E+00  0.11822820198E+04  0.11822820198E+04  0.50400001928E-02 0. -1.
        1   -1    0    0  501    0  0.00000000000E+00  0.00000000000E+00 -0.78127397572E+03  0.78127397574E+03  0.50400001928E-02 0.  1.
    10030    2    1    2    0    0  0.00000000000E+00  0.00000000000E+00  0.40100804410E+03  0.19635559956E+04  0.19221718696E+04 0.  0.
        3    1    3    3  502    0  0.48947147869E+02  0.15127649977E+03  0.11687536475E+04  0.11795191823E+04  0.10100000352E+00 0. -1.
       -3    1    3    3    0  502 -0.48947147869E+02 -0.15127649977E+03 -0.76774560345E+03  0.78403681322E+03  0.10100000352E+00 0.  1.
</event>
<event>
 5   0  0.2722449E-06  0.3061645E+04  0.7818609E-02  0.8226344E-01
        2   -1    0    0  501    0  0.00000000000E+00  0.00000000000E+00  0.24331931505E+04  0.24331931505E+04  0.25500000920E-02 0.  1.
       -2   -1    0    0    0  501  0.00000000000E+00  0.00000000000E+00 -0.96310377101E+03  0.96310377101E+03  0.25500000920E-02 0. -1.
    10030    2    1    2    0    0  0.00000000000E+00  0.00000000000E+00  0.14700893795E+04  0.33962969215E+04  0.30616449819E+04 0.  0.
        2    1    3    3  502    0  0.13517669700E+04 -0.59876294678E+03  0.29462631933E+03  0.15075130764E+04  0.25500000920E-02 0.  1.
       -2    1    3    3    0  502 -0.13517669700E+04  0.59876294678E+03  0.11754630602E+04  0.18887838451E+04  0.25500000920E-02 0. -1.
</event>
<event>
 5   0  0.1550164E-06  0.1848957E+04  0.7818609E-02  0.8680689E-01
        1   -1    0    0  501    0  0.00000000000E+00  0.00000000000E+00  0.10455917509E+04  0.10455917509E+04  0.50400001928E-02 0.  1.
       -1   -1    0    0    0  501  0.00000000000E+00  0.00000000000E+00 -0.81739447820E+03  0.81739447821E+03  0.50400001928E-02 0. -1.
    10030    2    1    2    0    0  0.00000000000E+00  0.00000000000E+00  0.22819727272E+03  0.18629862291E+04  0.18489574616E+04 0.  0.
        4    1    3    3  502    0  0.60291452541E+03  0.69676219261E+03  0.19000837923E+03  0.94079130262E+03  0.12699999809E+01 0.  1.
       -4    1    3    3    0  502 -0.60291452541E+03 -0.69676219261E+03  0.38188893483E+02  0.92219492652E+03  0.12699999809E+01 0. -1.
</event>
<event>
 5   0  0.4189587E-06  0.1760880E+04  0.7818609E-02  0.8727384E-01
       -2   -1    0    0    0  501  0.00000000000E+00  0.00000000000E+00  0.29707670053E+03  0.29707670054E+03  0.25500000920E-02 0. -1.
        2   -1    0    0  501    0  0.00000000000E+00  0.00000000000E+00 -0.26093418055E+04  0.26093418055E+04  0.25500000920E-02 0.  1.
    10030    2    1    2    0    0  0.00000000000E+00  0.00000000000E+00 -0.23122651050E+04  0.29064185061E+04  0.17608800688E+04 0.  0.
        1    1    3    3  502    0  0.29637224645E+03 -0.33579993521E+03  0.94997110068E+02  0.45784555901E+03  0.50400001928E-02 0. -1.
       -1    1    3    3    0  502 -0.29637224645E+03  0.33579993521E+03 -0.24072622151E+04  0.24485729471E+04  0.50400001928E-02 0.  1.
</event>
<event>
 5   0  0.4189587E-06  0.3406061E+04  0.7818609E-02  0.8136420E-01
       -2   -1    0    0    0  501  0.00000000000E+00  0.00000000000E+00  0.24536479919E+04  0.24536479919E+04  0.25500000920E-02 0.  1.
        2   -1    0    0  501    0  0.00000000000E+00  0.00000000000E+00 -0.11820413643E+04  0.11820413643E+04  0.25500000920E-02 0. -1.
    10030    2    1    2    0    0  0.00000000000E+00  0.00000000000E+00  0.12716066276E+04  0.36356893562E+04  0.34060613147E+04 0.  0.
        1    1    3    3  502    0 -0.14157037623E+04 -0.94035773084E+03  0.75187049845E+03  0.18584399509E+04  0.50400001928E-02 0.  1.
       -1    1    3    3    0  502  0.14157037623E+04  0.94035773084E+03  0.51973612919E+03  0.17772494053E+04  0.50400001928E-02 0. -1.
</event>
<event>
 5   0  0.4189587E-06  0.2473589E+04  0.7818609E-02  0.8412455E-01
       -2   -1    0    0    0  501  0.00000000000E+00  0.00000000000E+00  0.12115947054E+04  0.12115947054E+04  0.25500000920E-02 0. -1.
        2   -1    0    0  501    0  0.00000000000E+00  0.00000000000E+00 -0.12625183402E+04  0.12625183402E+04  0.25500000920E-02 0.  1.
    10030    2    1    2    0    0  0.00000000000E+00  0.00000000000E+00 -0.50923634792E+02  0.24741130455E+04  0.24735889201E+04 0.  0.
        1    1    3    3  502    0  0.28523777237E+03  0.41938536050E+03  0.11027913222E+04  0.12138341599E+04  0.50400001928E-02 0. -1.
       -1    1    3    3    0  502 -0.28523777237E+03 -0.41938536050E+03 -0.11537149570E+04  0.12602788856E+04  0.50400001928E-02 0.  1.
</event>
<event>
 5   0  0.1401125E-06  0.2036092E+04  0.7818609E-02  0.8589930E-01
       -4   -1    0    0    0  501  0.00000000000E+00  0.00000000000E+00  0.12416696122E+04  0.12416702617E+04  0.12699999809E+01 0. -1.
        4   -1    0    0  501    0  0.00000000000E+00  0.00000000000E+00 -0.83469531608E+03  0.83469628224E+03  0.12699999809E+01 0.  1.
    10030    2    1    2    0    0  0.00000000000E+00  0.00000000000E+00  0.40697429610E+03  0.20763665439E+04  0.20360918317E+04 0.  0.
        5    1    3    3  502    0  0.17454224320E+03  0.95613757789E+03 -0.10537558930E+03  0.97764521547E+03  0.46999998093E+01 0.  1.
       -5    1    3    3    0  502 -0.17454224320E+03 -0.95613757789E+03  0.51234988540E+03  0.10987213284E+04  0.46999998093E+01 0. -1.
</event>
<event>
 5   0  0.4344980E-06  0.2176632E+04  0.7818609E-02  0.8528218E-01
       -2   -1    0    0    0  501  0.00000000000E+00  0.00000000000E+00  0.11814342572E+04  0.11814342572E+04  0.25500000920E-02 0.  1.
        2   -1    0    0  501    0  0.00000000000E+00  0.00000000000E+00 -0.10025371296E+04  0.10025371296E+04  0.25500000920E-02 0. -1.
    10030    2    1    2    0    0  0.00000000000E+00  0.00000000000E+00  0.17889712763E+03  0.21839713868E+04  0.21766319937E+04 0.  0.
        3    1    3    3  502    0 -0.28038376347E+03  0.68185674403E+03  0.89270278040E+03  0.11577832001E+04  0.10100000352E+00 0.  1.
       -3    1    3    3    0  502  0.28038376347E+03 -0.68185674403E+03 -0.71380565278E+03  0.10261881866E+04  0.10100000352E+00 0. -1.
</event>
<event>
 5   0  0.4344980E-06  0.3432393E+04  0.7818609E-02  0.8130001E-01
       -2   -1    0    0    0  501  0.00000000000E+00  0.00000000000E+00  0.10174319990E+04  0.10174319990E+04  0.25500000920E-02 0. -1.
        2   -1    0    0  501    0  0.00000000000E+00  0.00000000000E+00 -0.28948674571E+04  0.28948674571E+04  0.25500000920E-02 0.  1.
    10030    2    1    2    0    0  0.00000000000E+00  0.00000000000E+00 -0.18774354581E+04  0.39122994561E+04  0.34323932081E+04 0.  0.
        3    1    3    3  502    0 -0.16472643702E+04 -0.36457898020E+03 -0.12972314012E+04  0.21281933786E+04  0.10100000352E+00 0.  1.
       -3    1    3    3    0  502  0.16472643702E+04  0.36457898020E+03 -0.58020405689E+03  0.17841060776E+04  0.10100000352E+00 0. -1.
</event>
<event>
 5   0  0.4173467E-06  0.2033472E+04  0.7818609E-02  0.8591130E-01
       -2   -1    0    0    0  501  0.00000000000E+00  0.00000000000E+00  0.65316974394E+03  0.65316974394E+03  0.25500000920E-02 0. -1.
        2   -1    0    0  501    0  0.00000000000E+00  0.00000000000E+00 -0.15826691784E+04  0.15826691784E+04  0.25500000920E-02 0.  1.
    10030    2    1    2    0    0  0.00000000000E+00  0.00000000000E+00 -0.92949943443E+03  0.22358389223E+04  0.20334715361E+04 0.  0.
        4    1    3    3  502    0  0.32328532856E+03  0.79227506355E+03  0.13902176517E+03  0.86691513084E+03  0.12699999809E+01 0. -1.
       -4    1    3    3    0  502 -0.32328532856E+03 -0.79227506355E+03 -0.10685211996E+04  0.13689237915E+04  0.12699999809E+01 0.  1.
</event>
<event>
 5   0  0.4173467E-06  0.3150124E+04  0.7818609E-02  0.8202115E-01
       -2   -1    0    0    0  501  0.00000000000E+00  0.00000000000E+00  0.13146224541E+04  0.13146224541E+04  0.25500000920E-02 0.  1.
        2   -1    0    0  501    0  0.00000000000E+00  0.00000000000E+00 -0.18870966302E+04  0.18870966302E+04  0.25500000920E-02 0. -1.
    10030    2    1    2    0    0  0.00000000000E+00  0.00000000000E+00 -0.57247417606E+03  0.32017190844E+04  0.31501235552E+04 0.  0.
        4    1    3    3  502    0 -0.97674293372E+03  0.88185424329E+03 -0.11659330254E+04  0.17581510452E+04  0.12699999809E+01 0.  1.
       -4    1    3    3    0  502  0.97674293372E+03 -0.88185424329E+03  0.59345884936E+03  0.14435680392E+04  0.12699999809E+01 0. -1.
</event>
<event>
 5   0  0.1562618E-06  0.2456166E+04  0.7818609E-02  0.8418770E-01
        1   -1    0    0  501    0  0.00000000000E+00  0.00000000000E+00  0.14590675259E+04  0.14590675260E+04  0.50400001928E-02 0.  1.
       -1   -1    0    0    0  501  0.00000000000E+00  0.00000000000E+00 -0.10336654885E+04  0.10336654885E+04  0.50400001928E-02 0. -1.
    10030    2    1    2    0    0  0.00000000000E+00  0.00000000000E+00  0.42540203747E+03  0.24927330144E+04  0.24561659121E+04 0.  0.
        2    1    3    3  502    0  0.29448574127E+03  0.85535081160E+03  0.10556329987E+04  0.13902186485E+04  0.25500000920E-02 0.  1.
       -2    1    3    3    0  502 -0.29448574127E+03 -0.85535081160E+03 -0.63023096119E+03  0.11025143660E+04  0.25500000920E-02 0. -1.
</event>
<event>
 5   0  0.4189587E-06  0.3361765E+04  0.7818609E-02  0.8147355E-01
        2   -1    0    0  501    0  0.00000000000E+00  0.00000000000E+00  0.20848333242E+04  0.20848333242E+04  0.25500000920E-02 0. -1.
       -2   -1    0    0    0  501  0.00000000000E+00  0.00000000000E+00 -0.13551997513E+04  0.13551997513E+04  0.25500000920E-02 0.  1.
    10030    2    1    2    0    0  0.00000000000E+00  0.00000000000E+00  0.72963357282E+03  0.34400330755E+04  0.33617647761E+04 0.  0.
        1    1    3    3  502    0 -0.19404231171E+02 -0.10596356499E+04  0.16998610365E+04  0.20031804157E+04  0.50400001928E-02 0. -1.
       -1    1    3    3    0  502  0.19404231171E+02  0.10596356499E+04 -0.97022746363E+03  0.14368526598E+04  0.50400001928E-02 0.  1.
</event>
<event>
 5   0  0.1550164E-06  0.3360213E+04  0.7818609E-02  0.8147741E-01
        1   -1    0    0  501    0  0.00000000000E+00  0.00000000000E+00  0.15561147609E+04  0.15561147610E+04  0.50400001928E-02 0.  1.
       -1   -1    0    0    0  501  0.00000000000E+00  0.00000000000E+00 -0.18139778470E+04  0.18139778470E+04  0.50400001928E-02 0. -1.
    10030    2    1    2    0    0  0.00000000000E+00  0.00000000000E+00 -0.25786308604E+03  0.33700926079E+04  0.33602129122E+04 0.  0.
        4    1    3    3  502    0  0.13034161956E+04  0.94335049874E+03  0.35617659216E+03  0.16479281902E+04  0.12699999809E+01 0. -1.
       -4    1    3    3    0  502 -0.13034161956E+04 -0.94335049874E+03 -0.61403967821E+03  0.17221644177E+04  0.12699999809E+01 0.  1.
</event>
<event>
 5   0  0.4173467E-06  0.3371353E+04  0.7818609E-02  0.8144973E-01
        2   -1    0    0  501    0  0.00000000000E+00  0.00000000000E+00  0.15434101813E+04  0.15434101813E+04  0.25500000920E-02 0. -1.
       -2   -1    0    0    0  501  0.00000000000E+00  0.00000000000E+00 -0.18410568950E+04  0.18410568950E+04  0.25500000920E-02 0.  1.
    10030    2    1    2    0    0  0.00000000000E+00  0.00000000000E+00 -0.29764671379E+03  0.33844670763E+04  0.33713534114E+04 0.  0.
        4    1    3    3  502    0 -0.27054323936E+03 -0.76128747464E+03 -0.16340211614E+04  0.18228491523E+04  0.12699999809E+01 0.  1.
       -4    1    3    3    0  502  0.27054323936E+03  0.76128747464E+03  0.13363744476E+04  0.15616179240E+04  0.12699999809E+01 0. -1.
</event>
<event>
 5   0  0.2722449E-06  0.3405998E+04  0.7818609E-02  0.8136436E-01
       -2   -1    0    0    0  501  0.00000000000E+00  0.00000000000E+00  0.14348779084E+04  0.14348779084E+04  0.25500000920E-02 0. -1.
        2   -1    0    0  501    0  0.00000000000E+00  0.00000000000E+00 -0.20212206660E+04  0.20212206660E+04  0.25500000920E-02 0.  1.
    10030    2    1    2    0    0  0.00000000000E+00  0.00000000000E+00 -0.58634275761E+03  0.34560985744E+04  0.34059975817E+04 0.  0.
        2    1    3    3  502    0  0.14632017770E+04 -0.74504975164E+03  0.16530034068E+03  0.16502674860E+04  0.25500000920E-02 0. -1.
       -2    1    3    3    0  502 -0.14632017770E+04  0.74504975164E+03 -0.75164309829E+03  0.18058310884E+04  0.25500000920E-02 0.  1.
</event>
<event>
 5   0  0.1550164E-06  0.1761819E+04  0.7818609E-02  0.8726872E-01
       -1   -1    0    0    0  501  0.00000000000E+00  0.00000000000E+00  0.62395984791E+03  0.62395984793E+03  0.50400001928E-02 0.  1.
        1   -1    0    0  501    0  0.00000000000E+00  0.00000000000E+00 -0.12436716927E+04  0.12436716927E+04  0.50400001928E-02 0. -1.
    10030    2    1    2    0    0  0.00000000000E+00  0.00000000000E+00 -0.61971184474E+03  0.18676315406E+04  0.17618186061E+04 0.  0.
        4    1    3    3  502    0  0.91789496618E+02 -0.34856857728E+03 -0.11619179561E+04  0.12165444152E+04  0.12699999809E+01 0. -1.
       -4    1    3    3    0  502 -0.91789496618E+02  0.34856857728E+03  0.54220611131E+03  0.65108712535E+03  0.12699999809E+01 0.  1.
</event>
<event>
 5   0  0.1562618E-06  0.3100766E+04  0.7818609E-02  0.8215528E-01
        1   -1    0    0  501    0  0.00000000000E+00  0.00000000000E+00  0.19232550288E+04  0.19232550288E+04  0.50400001928E-02 0. -1.
       -1   -1    0    0    0  501  0.00000000000E+00  0.00000000000E+00 -0.12498017257E+04  0.12498017257E+04  0.50400001928E-02 0.  1.
    10030    2    1    2    0    0  0.00000000000E+00  0.00000000000E+00  0.67345330316E+03  0.31730567545E+04  0.31007660047E+04 0.  0.
        2    1    3    3  502    0 -0.13529440905E+04 -0.69542993961E+03  0.64304969740E+03  0.16515427413E+04  0.25500000920E-02 0.  1.
       -2    1    3    3    0  502  0.13529440905E+04  0.69542993961E+03  0.30403605759E+02  0.15215140132E+04  0.25500000920E-02 0. -1.
</event>
<event>
 5   0  0.2722449E-06  0.3882505E+04  0.7818609E-02  0.8028678E-01
       -2   -1    0    0    0  501  0.00000000000E+00  0.00000000000E+00  0.23712994721E+04  0.23712994721E+04  0.25500000920E-02 0.  1.
        2   -1    0    0  501    0  0.00000000000E+00  0.00000000000E+00 -0.15891967043E+04  0.15891967043E+04  0.25500000920E-02 0. -1.
    10030    2    1    2    0    0  0.00000000000E+00  0.00000000000E+00  0.78210276784E+03  0.39604961764E+04  0.38825050192E+04 0.  0.
        2    1    3    3  502    0  0.51395648313E+03  0.50064042228E+03 -0.14489759352E+04  0.16168869347E+04  0.25500000920E-02 0. -1.
       -2    1    3    3    0  502 -0.51395648313E+03 -0.50064042228E+03  0.22310787030E+04  0.23436092417E+04  0.25500000920E-02 0.  1.
</event>
<event>
 5   0  0.4173467E-06  0.3350941E+04  0.7818609E-02  0.8150053E-01
        2   -1    0    0  501    0  0.00000000000E+00  0.00000000000E+00  0.16973657374E+04  0.16973657374E+04  0.25500000920E-02 0. -1.
       -2   -1    0    0    0  501  0.00000000000E+00  0.00000000000E+00 -0.16538579571E+04  0.16538579571E+04  0.25500000920E-02 0.  1.
    10030    2    1    2    0    0  0.00000000000E+00  0.00000000000E+00  0.43507780328E+02  0.33512236945E+04  0.33509412593E+04 0.  0.
        4    1    3    3  502    0 -0.46437010409E+03  0.32851946054E+03 -0.15543343923E+04  0.16551500372E+04  0.12699999809E+01 0.  1.
       -4    1    3    3    0  502  0.46437010409E+03 -0.32851946054E+03  0.15978421726E+04  0.16960736573E+04  0.12699999809E+01 0. -1.
</event>
<event>
 5   0  0.1562618E-06  0.3390350E+04  0.7818609E-02  0.8140279E-01
        1   -1    0    0  501    0  0.00000000000E+00  0.00000000000E+00  0.31123854143E+04  0.31123854143E+04  0.50400001928E-02 0. -1.
       -1   -1    0    0    0  501  0.00000000000E+00  0.00000000000E+00 -0.92328493597E+03  0.92328493598E+03  0.50400001928E-02 0.  1.
    10030    2    1    2    0    0  0.00000000000E+00  0.00000000000E+00  0.21891004783E+04  0.40356703503E+04  0.33903501695E+04 0.  0.
        2    1    3    3  502    0  0.35630832089E+02 -0.16943566945E+04  0.10483809366E+04  0.19927911964E+04  0.25500000920E-02 0.  1.
       -2    1    3    3    0  502 -0.35630832089E+02  0.16943566945E+04  0.11407195417E+04  0.20428791539E+04  0.25500000920E-02 0. -1.
</event>
<event>
 5   0  0.1562618E-06  0.3259035E+04  0.7818609E-02  0.8173398E-01
       -1   -1    0    0    0  501  0.00000000000E+00  0.00000000000E+00  0.11797825654E+04  0.11797825654E+04  0.50400001928E-02 0.  1.
        1   -1    0    0  501    0  0.00000000000E+00  0.00000000000E+00 -0.22506924870E+04  0.22506924870E+04  0.50400001928E-02 0. -1.
    10030    2    1    2    0    0  0.00000000000E+00  0.00000000000E+00 -0.10709099216E+04  0.34304750524E+04  0.32590352905E+04 0.  0.
        2    1    3    3  502    0  0.34676877942E+03 -0.14069744460E+04  0.24907231270E+03  0.14703274108E+04  0.25500000920E-02 0.  1.
       -2    1    3    3    0  502 -0.34676877942E+03  0.14069744460E+04 -0.13199822343E+04  0.19601476416E+04  0.25500000920E-02 0. -1.
</event>
<event>
 5   0  0.4400349E-06  0.2876989E+04  0.7818609E-02  0.8279757E-01
       -2   -1    0    0    0  501  0.00000000000E+00  0.00000000000E+00  0.10491609177E+04  0.10491609177E+04  0.25500000920E-02 0.  1.
        2   -1    0    0  501    0  0.00000000000E+00  0.00000000000E+00 -0.19723060060E+04  0.19723060060E+04  0.25500000920E-02 0. -1.
    10030    2    1    2    0    0  0.00000000000E+00  0.00000000000E+00 -0.92314508828E+03  0.30214669237E+04  0.28769889671E+04 0.  0.
        5    1    3    3  502    0 -0.12994665368E+04  0.70296488920E+02 -0.11052882804E+04  0.17074071423E+04  0.46999998093E+01 0. -1.
       -5    1    3    3    0  502  0.12994665368E+04 -0.70296488920E+02  0.18214319215E+03  0.13140597814E+04  0.46999998093E+01 0.  1.
</event>
<event>
 5   0  0.4400349E-06  0.3409567E+04  0.7818609E-02  0.8135562E-01
        2   -1    0    0  501    0  0.00000000000E+00  0.00000000000E+00  0.29156082694E+04  0.29156082694E+04  0.25500000920E-02 0. -1.
       -2   -1    0    0    0  501  0.00000000000E+00  0.00000000000E+00 -0.99680272961E+03  0.99680272962E+03  0.25500000920E-02 0.  1.
    10030    2    1    2    0    0  0.00000000000E+00  0.00000000000E+00  0.19188055398E+04  0.39124109990E+04  0.34095667065E+04 0.  0.
        5    1    3    3  502    0  0.10956622802E+04 -0.11409553245E+04  0.23004441156E+03  0.15984984849E+04  0.46999998093E+01 0. -1.
       -5    1    3    3    0  502 -0.10956622802E+04  0.11409553245E+04  0.16887611282E+04  0.23139125142E+04  0.46999998093E+01 0.  1.
</event>
<event>
 5   0  0.1654257E-06  0.3401915E+04  0.7818609E-02  0.8137436E-01
        1   -1    0    0  501    0  0.00000000000E+00  0.00000000000E+00  0.18444870409E+04  0.18444870409E+04  0.50400001928E-02 0.  1.
       -1   -1    0    0    0  501  0.00000000000E+00  0.00000000000E+00 -0.15685972172E+04  0.15685972172E+04  0.50400001928E-02 0. -1.
    10030    2    1    2    0    0  0.00000000000E+00  0.00000000000E+00  0.27588982373E+03  0.34130842581E+04  0.34019154836E+04 0.  0.
        3    1    3    3  502    0  0.13702215933E+04  0.82789105698E+03 -0.43869976463E+03  0.16599302126E+04  0.10100000352E+00 0.  1.
       -3    1    3    3    0  502 -0.13702215933E+04 -0.82789105698E+03  0.71458958836E+03  0.17531540454E+04  0.10100000352E+00 0. -1.
</event>
<event>
 5   0  0.2722449E-06  0.3355450E+04  0.7818609E-02  0.8148928E-01
        2   -1    0    0  501    0  0.00000000000E+00  0.00000000000E+00  0.11885937323E+04  0.11885937323E+04  0.25500000920E-02 0.  1.
       -2   -1    0    0    0  501  0.00000000000E+00  0.00000000000E+00 -0.23681447356E+04  0.23681447356E+04  0.25500000920E-02 0. -1.
    10030    2    1    2    0    0  0.00000000000E+00  0.00000000000E+00 -0.11795510033E+04  0.35567384679E+04  0.33554504854E+04 0.  0.
        2    1    3    3  502    0 -0.57708528283E+02  0.16739598860E+04 -0.48760881257E+03  0.17444868381E+04  0.25500000920E-02 0.  1.
       -2    1    3    3    0  502  0.57708528283E+02 -0.16739598860E+04 -0.69194219071E+03  0.18122516298E+04  0.25500000920E-02 0. -1.
</event>
<event>
 5   0  0.1550164E-06  0.3192196E+04  0.7818609E-02  0.8190881E-01
       -1   -1    0    0    0  501  0.00000000000E+00  0.00000000000E+00  0.15306023748E+04  0.15306023748E+04  0.50400001928E-02 0. -1.
        1   -1    0    0  501    0  0.00000000000E+00  0.00000000000E+00 -0.16643958397E+04  0.16643958397E+04  0.50400001928E-02 0.  1.
    10030    2    1    2    0    0  0.00000000000E+00  0.00000000000E+00 -0.13379346491E+03  0.31949982145E+04  0.31921956236E+04 0.  0.
        4    1    3    3  502    0  0.72397261690E+03 -0.45466782196E+03  0.12821246623E+04  0.15410076057E+04  0.12699999809E+01 0. -1.
       -4    1    3    3    0  502 -0.72397261690E+03  0.45466782196E+03 -0.14159181272E+04  0.16539906088E+04  0.12699999809E+01 0.  1.
</event>
<event>
 5   0  0.4189587E-06  0.3281411E+04  0.7818609E-02  0.8167641E-01
       -2   -1    0    0    0  501  0.00000000000E+00  0.00000000000E+00  0.17599638790E+04  0.17599638790E+04  0.25500000920E-02 0. -1.
        2   -1    0    0  501    0  0.00000000000E+00  0.00000000000E+00 -0.15295284019E+04  0.15295284019E+04  0.25500000920E-02 0.  1.
    10030    2    1    2    0    0  0.00000000000E+00  0.00000000000E+00  0.23043547708E+03  0.32894922809E+04  0.32814111228E+04 0.  0.
        1    1    3    3  502    0 -0.12053414510E+04  0.10867571309E+04 -0.12626065899E+03  0.16278300984E+04  0.50400001928E-02 0.  1.
       -1    1    3    3    0  502  0.12053414510E+04 -0.10867571309E+04  0.35669613606E+03  0.16616621825E+04  0.50400001928E-02 0. -1.
</event>
<event>
 5   0  0.4400349E-06  0.3344278E+04  0.7818609E-02  0.8151719E-01
        2   -1    0    0  501    0  0.00000000000E+00  0.00000000000E+00  0.14845628527E+04  0.14845628527E+04  0.25500000920E-02 0.  1.
       -2   -1    0    0    0  501  0.00000000000E+00  0.00000000000E+00 -0.18834154252E+04  0.18834154252E+04  0.25500000920E-02 0. -1.
    10030    2    1    2    0    0  0.00000000000E+00  0.00000000000E+00 -0.39885257249E+03  0.33679782779E+04  0.33442778452E+04 0.  0.
        5    1    3    3  502    0 -0.14468425848E+04 -0.21874878093E+03 -0.10143717721E+04  0.17804989964E+04  0.46999998093E+01 0. -1.
       -5    1    3    3    0  502  0.14468425848E+04  0.21874878093E+03  0.61551919956E+03  0.15874792815E+04  0.46999998093E+01 0.  1.
</event>
<event>
 5   0  0.2722449E-06  0.3470458E+04  0.7818609E-02  0.8120827E-01
        2   -1    0    0  501    0  0.00000000000E+00  0.00000000000E+00  0.20641133773E+04  0.20641133773E+04  0.25500000920E-02 0.  1.
       -2   -1    0    0    0  501  0.00000000000E+00  0.00000000000E+00 -0.14587473707E+04  0.14587473707E+04  0.25500000920E-02 0. -1.
    10030    2    1    2    0    0  0.00000000000E+00  0.00000000000E+00  0.60536600660E+03  0.35228607479E+04  0.34704581610E+04 0.  0.
        2    1    3    3  502    0  0.13223378739E+04  0.10229814102E+04  0.77440575137E+03  0.18424908917E+04  0.25500000920E-02 0. -1.
       -2    1    3    3    0  502 -0.13223378739E+04 -0.10229814102E+04 -0.16903974477E+03  0.16803698562E+04  0.25500000920E-02 0.  1.
</event>
<event>
 5   0  0.1571391E-06  0.3490714E+04  0.7818609E-02  0.8115994E-01
        1   -1    0    0  501    0  0.00000000000E+00  0.00000000000E+00  0.29047652021E+04  0.29047652021E+04  0.50400001928E-02 0.  1.
       -1   -1    0    0    0  501  0.00000000000E+00  0.00000000000E+00 -0.10487151507E+04  0.10487151507E+04  0.50400001928E-02 0. -1.
    10030    2    1    2    0    0  0.00000000000E+00  0.00000000000E+00  0.18560500515E+04  0.39534803528E+04  0.34907141256E+04 0.  0.
        1    1    3    3  502    0 -0.13803411491E+03  0.13405128132E+04 -0.32818078563E+03  0.13869861742E+04  0.50400001928E-02 0. -1.
       -1    1    3    3    0  502  0.13803411491E+03 -0.13405128132E+04  0.21842308371E+04  0.25664941786E+04  0.50400001928E-02 0.  1.
</event>
<event>
 5   0  0.2722449E-06  0.3391457E+04  0.7818609E-02  0.8140006E-01
        2   -1    0    0  501    0  0.00000000000E+00  0.00000000000E+00  0.18806714026E+04  0.18806714026E+04  0.25500000920E-02 0.  1.
       -2   -1    0    0    0  501  0.00000000000E+00  0.00000000000E+00 -0.15289723877E+04  0.15289723877E+04  0.25500000920E-02 0. -1.
    10030    2    1    2    0    0  0.00000000000E+00  0.00000000000E+00  0.35169901491E+03  0.34096437904E+04  0.33914567047E+04 0.  0.
        2    1    3    3  502    0 -0.10243950654E+04  0.13200976172E+04  0.46627869834E+03  0.17347791771E+04  0.25500000920E-02 0.  1.
       -2    1    3    3    0  502  0.10243950654E+04 -0.13200976172E+04 -0.11457968343E+03  0.16748646132E+04  0.25500000920E-02 0. -1.
</event>
<event>
 5   0  0.1654257E-06  0.3439817E+04  0.7818609E-02  0.8128203E-01
        1   -1    0    0  501    0  0.00000000000E+00  0.00000000000E+00  0.15235266527E+04  0.15235266527E+04  0.50400001928E-02 0.  1.
       -1   -1    0    0    0  501  0.00000000000E+00  0.00000000000E+00 -0.19416033129E+04  0.19416033129E+04  0.50400001928E-02 0. -1.
    10030    2    1    2    0    0  0.00000000000E+00  0.00000000000E+00 -0.41807666018E+03  0.34651299656E+04  0.34398165045E+04 0.  0.
        3    1    3    3  502    0  0.78682541630E+03 -0.36359558641E+03 -0.17054965580E+04  0.19131164381E+04  0.10100000352E+00 0. -1.
       -3    1    3    3    0  502 -0.78682541630E+03  0.36359558641E+03  0.12874198978E+04  0.15520135275E+04  0.10100000352E+00 0.  1.
</event>
<event>
 5   0  0.1550164E-06  0.1678682E+04  0.7818609E-02  0.8773617E-01
        1   -1    0    0  501    0  0.00000000000E+00  0.00000000000E+00  0.14748760579E+04  0.14748760579E+04  0.50400001928E-02 0.  1.
       -1   -1    0    0    0  501  0.00000000000E+00  0.00000000000E+00 -0.47766267617E+03  0.47766267619E+03  0.50400001928E-02 0. -1.
    10030    2    1    2    0    0  0.00000000000E+00  0.00000000000E+00  0.99721338175E+03  0.19525387341E+04  0.16786819173E+04 0.  0.
        4    1    3    3  502    0  0.51505989486E+02  0.79975348749E+03  0.78876970103E+03  0.11244633217E+04  0.12699999809E+01 0.  1.
       -4    1    3    3    0  502 -0.51505989486E+02 -0.79975348749E+03  0.20844368072E+03  0.82807541241E+03  0.12699999809E+01 0. -1.
</event>
<event>
 5   0  0.4344980E-06  0.3371191E+04  0.7818609E-02  0.8145013E-01
       -2   -1    0    0    0  501  0.00000000000E+00  0.00000000000E+00  0.11280258872E+04  0.11280258872E+04  0.25500000920E-02 0.  1.
        2   -1    0    0  501    0  0.00000000000E+00  0.00000000000E+00 -0.25187652631E+04  0.25187652631E+04  0.25500000920E-02 0. -1.
    10030    2    1    2    0    0  0.00000000000E+00  0.00000000000E+00 -0.13907393759E+04  0.36467911504E+04  0.33711911371E+04 0.  0.
        3    1    3    3  502    0 -0.12141410339E+04  0.26790046282E+01  0.56944109094E+03  0.13410476477E+04  0.10100000352E+00 0.  1.
       -3    1    3    3    0  502  0.12141410339E+04 -0.26790046282E+01 -0.19601804668E+04  0.23057435027E+04  0.10100000352E+00 0. -1.
</event>
<event>
 5   0  0.1571391E-06  0.2052978E+04  0.7818609E-02  0.8582245E-01
       -1   -1    0    0    0  501  0.00000000000E+00  0.00000000000E+00  0.21313125594E+04  0.21313125594E+04  0.50400001928E-02 0.  1.
        1   -1    0    0  501    0  0.00000000000E+00  0.00000000000E+00 -0.49438066327E+03  0.49438066330E+03  0.50400001928E-02 0. -1.
    10030    2    1    2    0    0  0.00000000000E+00  0.00000000000E+00  0.16369318962E+04  0.26256932227E+04  0.20529780484E+04 0.  0.
        1    1    3    3  502    0  0.28028424813E+03 -0.51767685410E+03  0.18939640700E+04  0.19833427549E+04  0.50400001928E-02 0.  1.
       -1    1    3    3    0  502 -0.28028424813E+03  0.51767685410E+03 -0.25703217387E+03  0.64235046778E+03  0.50400001928E-02 0. -1.
</event>
<event>
 5   0  0.1562618E-06  0.2514969E+04  0.7818609E-02  0.8397672E-01
        1   -1    0    0  501    0  0.00000000000E+00  0.00000000000E+00  0.18110771920E+04  0.18110771920E+04  0.50400001928E-02 0. -1.
       -1   -1    0    0    0  501  0.00000000000E+00  0.00000000000E+00 -0.87310886628E+03  0.87310886629E+03  0.50400001928E-02 0.  1.
    10030    2    1    2    0    0  0.00000000000E+00  0.00000000000E+00  0.93796832572E+03  0.26841860583E+04  0.25149692275E+04 0.  0.
        2    1    3    3  502    0 -0.21281803296E+03  0.67638231119E+03  0.15773588381E+04  0.17294060976E+04  0.25500000920E-02 0. -1.
       -2    1    3    3    0  502  0.21281803296E+03 -0.67638231119E+03 -0.63939051241E+03  0.95477996073E+03  0.25500000920E-02 0.  1.
</event>
<event>
 5   0  0.1562618E-06  0.3420196E+04  0.7818609E-02  0.8132967E-01
        1   -1    0    0  501    0  0.00000000000E+00  0.00000000000E+00  0.19193447778E+04  0.19193447778E+04  0.50400001928E-02 0.  1.
       -1   -1    0    0    0  501  0.00000000000E+00  0.00000000000E+00 -0.15236629427E+04  0.15236629427E+04  0.50400001928E-02 0. -1.
    10030    2    1    2    0    0  0.00000000000E+00  0.00000000000E+00  0.39568183511E+03  0.34430077205E+04  0.34201956156E+04 0.  0.
        2    1    3    3  502    0 -0.23928803777E+03  0.23931688568E+03 -0.14896161341E+04  0.15275757145E+04  0.25500000920E-02 0. -1.
       -2    1    3    3    0  502  0.23928803777E+03 -0.23931688568E+03  0.18852979692E+04  0.19154320059E+04  0.25500000920E-02 0.  1.
</event>
<event>
 5   0  0.2722449E-06  0.2716637E+04  0.7818609E-02  0.8329627E-01
        2   -1    0    0  501    0  0.00000000000E+00  0.00000000000E+00  0.22863000760E+04  0.22863000760E+04  0.25500000920E-02 0. -1.
       -2   -1    0    0    0  501  0.00000000000E+00  0.00000000000E+00 -0.80699315988E+03  0.80699315988E+03  0.25500000920E-02 0.  1.
    10030    2    1    2    0    0  0.00000000000E+00  0.00000000000E+00  0.14793069161E+04  0.30932932359E+04  0.27166365401E+04 0.  0.
        2    1    3    3  502    0  0.30257271481E+03  0.13045712924E+04  0.48107245451E+03  0.14229853166E+04  0.25500000920E-02 0.  1.
       -2    1    3    3    0  502 -0.30257271481E+03 -0.13045712924E+04  0.99823446161E+03  0.16703079193E+04  0.25500000920E-02 0. -1.
</event>
<event>
 5   0  0.1550164E-06  0.3361542E+04  0.7818609E-02  0.8147410E-01
       -1   -1    0    0    0  501  0.00000000000E+00  0.00000000000E+00  0.10102512884E+04  0.10102512884E+04  0.50400001928E-02 0.  1.
        1   -1    0    0  501    0  0.00000000000E+00  0.00000000000E+00 -0.27963248393E+04  0.27963248393E+04  0.50400001928E-02 0. -1.
    10030    2    1    2    0    0  0.00000000000E+00  0.00000000000E+00 -0.17860735510E+04  0.38065761277E+04  0.33615417723E+04 0.  0.
        4    1    3    3  502    0 -0.10028422409E+04  0.10839253998E+04  0.15985565599E+02  0.14767680873E+04  0.12699999809E+01 0.  1.
       -4    1    3    3    0  502  0.10028422409E+04 -0.10839253998E+04 -0.18020591166E+04  0.23298080404E+04  0.12699999809E+01 0. -1.
</event>
<event>
 5   0  0.1550164E-06  0.2806594E+04  0.7818609E-02  0.8301224E-01
       -1   -1    0    0    0  501  0.00000000000E+00  0.00000000000E+00  0.17204998740E+04  0.17204998740E+04  0.50400001928E-02 0. -1.
        1   -1    0    0  501    0  0.00000000000E+00  0.00000000000E+00 -0.11445761040E+04  0.11445761040E+04  0.50400001928E-02 0.  1.
    10030    2    1    2    0    0  0.00000000000E+00  0.00000000000E+00  0.57592377001E+03  0.28650759780E+04  0.28065944080E+04 0.  0.
        4    1    3    3  502    0 -0.71782854247E+03 -0.12056714273E+04  0.26969994243E+03  0.14288670613E+04  0.12699999809E+01 0. -1.
       -4    1    3    3    0  502  0.71782854247E+03  0.12056714273E+04  0.30622382758E+03  0.14362089167E+04  0.12699999809E+01 0.  1.
</event>
<event>
 5   0  0.4344980E-06  0.2208661E+04  0.7818609E-02  0.8514832E-01
        2   -1    0    0  501    0  0.00000000000E+00  0.00000000000E+00  0.77258132286E+03  0.77258132286E+03  0.25500000920E-02 0.  1.
       -2   -1    0    0    0  501  0.00000000000E+00  0.00000000000E+00 -0.15785340414E+04  0.15785340414E+04  0.25500000920E-02 0. -1.
    10030    2    1    2    0    0  0.00000000000E+00  0.00000000000E+00 -0.80595271854E+03  0.23511153643E+04  0.22086610586E+04 0.  0.
        3    1    3    3  502    0 -0.90670865362E+03  0.28258589157E+03  0.19690444983E+03  0.96992099742E+03  0.10100000352E+00 0.  1.
       -3    1    3    3    0  502  0.90670865362E+03 -0.28258589157E+03 -0.10028571684E+04  0.13811943668E+04  0.10100000352E+00 0. -1.
</event>
<event>
 5   0  0.4173467E-06  0.3474878E+04  0.7818609E-02  0.8119769E-01
       -2   -1    0    0    0  501  0.00000000000E+00  0.00000000000E+00  0.13432080349E+04  0.13432080349E+04  0.25500000920E-02 0.  1.
        2   -1    0    0  501    0  0.00000000000E+00  0.00000000000E+00 -0.22473764838E+04  0.22473764838E+04  0.25500000920E-02 0. -1.
    10030    2    1    2    0    0  0.00000000000E+00  0.00000000000E+00 -0.90416844898E+03  0.35905845187E+04  0.34748779262E+04 0.  0.
        4    1    3    3  502    0  0.37541130000E+03  0.56466853222E+03 -0.21050085338E+04  0.22115258841E+04  0.12699999809E+01 0. -1.
       -4    1    3    3    0  502 -0.37541130000E+03 -0.56466853222E+03  0.12008400849E+04  0.13790586346E+04  0.12699999809E+01 0.  1.
</event>
<event>
 5   0  0.4189587E-06  0.1841126E+04  0.7818609E-02  0.8684730E-01
       -2   -1    0    0    0  501  0.00000000000E+00  0.00000000000E+00  0.52230208355E+03  0.52230208356E+03  0.25500000920E-02 0. -1.
        2   -1    0    0  501    0  0.00000000000E+00  0.00000000000E+00 -0.16225024443E+04  0.16225024443E+04  0.25500000920E-02 0.  1.
    10030    2    1    2    0    0  0.00000000000E+00  0.00000000000E+00 -0.11002003608E+04  0.21448045279E+04  0.18411261850E+04 0.  0.
        1    1    3    3  502    0  0.68801368249E+03  0.25698835053E+03  0.96448264099E+02  0.74074834274E+03  0.50400001928E-02 0. -1.
       -1    1    3    3    0  502 -0.68801368249E+03 -0.25698835053E+03 -0.11966486249E+04  0.14040561851E+04  0.50400001928E-02 0.  1.
</event>
<event>
 5   0  0.1571391E-06  0.3262159E+04  0.7818609E-02  0.8172591E-01
       -1   -1    0    0    0  501  0.00000000000E+00  0.00000000000E+00  0.11757128562E+04  0.11757128562E+04  0.50400001928E-02 0. -1.
        1   -1    0    0  501    0  0.00000000000E+00  0.00000000000E+00 -0.22628146103E+04  0.22628146103E+04  0.50400001928E-02 0.  1.
    10030    2    1    2    0    0  0.00000000000E+00  0.00000000000E+00 -0.10871017541E+04  0.34385274665E+04  0.32621589346E+04 0.  0.
        1    1    3    3  502    0  0.72598317473E+03 -0.13074027995E+04  0.14286039148E+03  0.15022525559E+04  0.50400001928E-02 0. -1.
       -1    1    3    3    0  502 -0.72598317473E+03  0.13074027995E+04 -0.12299621456E+04  0.19362749107E+04  0.50400001928E-02 0.  1.
</event>
<event>
 5   0  0.4400349E-06  0.3423783E+04  0.7818609E-02  0.8132094E-01
        2   -1    0    0  501    0  0.00000000000E+00  0.00000000000E+00  0.13230202460E+04  0.13230202460E+04  0.25500000920E-02 0.  1.
       -2   -1    0    0    0  501  0.00000000000E+00  0.00000000000E+00 -0.22150622844E+04  0.22150622844E+04  0.25500000920E-02 0. -1.
    10030    2    1    2    0    0  0.00000000000E+00  0.00000000000E+00 -0.89204203833E+03  0.35380825304E+04  0.34237828485E+04 0.  0.
        5    1    3    3  502    0 -0.26491801240E+03  0.56817060278E+03  0.12001278855E+04  0.13540045860E+04  0.46999998093E+01 0.  1.
       -5    1    3    3    0  502  0.26491801240E+03 -0.56817060278E+03 -0.20921699239E+04  0.21840779445E+04  0.46999998093E+01 0. -1.
</event>
<event>
 5   0  0.2722449E-06  0.3347508E+04  0.7818609E-02  0.8150911E-01
       -2   -1    0    0    0  501  0.00000000000E+00  0.00000000000E+00  0.14707815776E+04  0.14707815776E+04  0.25500000920E-02 0.  1.
        2   -1    0    0  501    0  0.00000000000E+00  0.00000000000E+00 -0.19047373509E+04  0.19047373509E+04  0.25500000920E-02 0. -1.
    10030    2    1    2    0    0  0.00000000000E+00  0.00000000000E+00 -0.43395577330E+03  0.33755189285E+04  0.33475080916E+04 0.  0.
        2    1    3    3  502    0 -0.24476415883E+03  0.15060357637E+04 -0.91077543308E+03  0.17769538836E+04  0.25500000920E-02 0. -1.
       -2    1    3    3    0  502  0.24476415883E+03 -0.15060357637E+04  0.47681965978E+03  0.15985650449E+04  0.25500000920E-02 0.  1.
</event>
<event>
 5   0  0.2101998E-06  0.3399895E+04  0.7818609E-02  0.8137932E-01
       -1   -1    0    0    0  501  0.00000000000E+00  0.00000000000E+00  0.13867968991E+04  0.13867968991E+04  0.50400001928E-02 0. -1.
        1   -1    0    0  501    0  0.00000000000E+00  0.00000000000E+00 -0.20838101510E+04  0.20838101510E+04  0.50400001928E-02 0.  1.
    10030    2    1    2    0    0  0.00000000000E+00  0.00000000000E+00 -0.69701325193E+03  0.34706070501E+04  0.33998949723E+04 0.  0.
        5    1    3    3  502    0 -0.77141023399E+03  0.22623978234E+03 -0.18775047967E+04  0.20423771787E+04  0.46999998093E+01 0.  1.
       -5    1    3    3    0  502  0.77141023399E+03 -0.22623978234E+03  0.11804915448E+04  0.14282298714E+04  0.46999998093E+01 0. -1.
</event>
<event>
 5   0  0.4173467E-06  0.3313720E+04  0.7818609E-02  0.8159413E-01
        2   -1    0    0  501    0  0.00000000000E+00  0.00000000000E+00  0.26585030263E+04  0.26585030263E+04  0.25500000920E-02 0. -1.
       -2   -1    0    0    0  501  0.00000000000E+00  0.00000000000E+00 -0.10326055216E+04  0.10326055216E+04  0.25500000920E-02 0.  1.
    10030    2    1    2    0    0  0.00000000000E+00  0.00000000000E+00  0.16258975047E+04  0.36911085478E+04  0.33137199061E+04 0.  0.
        4    1    3    3  502    0 -0.92391328077E+03 -0.30770300001E+03 -0.68019400427E+03  0.11878393759E+04  0.12699999809E+01 0.  1.
       -4    1    3    3    0  502  0.92391328077E+03  0.30770300001E+03  0.23060915090E+04  0.25032691719E+04  0.12699999809E+01 0. -1.
</event>
<event>
 5   0  0.2722449E-06  0.3360887E+04  0.7818609E-02  0.8147573E-01
       -2   -1    0    0    0  501  0.00000000000E+00  0.00000000000E+00  0.25999028590E+04  0.25999028590E+04  0.25500000920E-02 0. -1.
        2   -1    0    0  501    0  0.00000000000E+00  0.00000000000E+00 -0.10861523590E+04  0.10861523590E+04  0.25500000920E-02 0.  1.
    10030    2    1    2    0    0  0.00000000000E+00  0.00000000000E+00  0.15137505000E+04  0.36860552179E+04  0.33608871587E+04 0.  0.
        2    1    3    3  502    0 -0.10636398012E+04  0.85331673029E+03 -0.32018279218E+03  0.14007127077E+04  0.25500000920E-02 0. -1.
       -2    1    3    3    0  502  0.10636398012E+04 -0.85331673029E+03  0.18339332922E+04  0.22853425103E+04  0.25500000920E-02 0.  1.
</event>
<event>
 5   0  0.4173467E-06  0.3352177E+04  0.7818609E-02  0.8149745E-01
        2   -1    0    0  501    0  0.00000000000E+00  0.00000000000E+00  0.16668559605E+04  0.16668559605E+04  0.25500000920E-02 0.  1.
       -2   -1    0    0    0  501  0.00000000000E+00  0.00000000000E+00 -0.16853716976E+04  0.16853716976E+04  0.25500000920E-02 0. -1.
    10030    2    1    2    0    0  0.00000000000E+00  0.00000000000E+00 -0.18515737119E+02  0.33522276581E+04  0.33521765227E+04 0.  0.
        4    1    3    3  502    0 -0.14363541082E+03  0.15589420664E+04  0.58936528674E+03  0.16728073863E+04  0.12699999809E+01 0. -1.
       -4    1    3    3    0  502  0.14363541082E+03 -0.15589420664E+04 -0.60788102386E+03  0.16794202719E+04  0.12699999809E+01 0.  1.
</event>
<event>
 5   0  0.2722449E-06  0.3455480E+04  0.7818609E-02  0.8124422E-01
        2   -1    0    0  501    0  0.00000000000E+00  0.00000000000E+00  0.21394754014E+04  0.21394754014E+04  0.25500000920E-02 0. -1.
       -2   -1    0    0    0  501  0.00000000000E+00  0.00000000000E+00 -0.13952418841E+04  0.13952418841E+04  0.25500000920E-02 0.  1.
    10030    2    1    2    0    0  0.00000000000E+00  0.00000000000E+00  0.74423351734E+03  0.35347172855E+04  0.34554801056E+04 0.  0.
        2    1    3    3  502    0  0.80896102555E+03 -0.12420503612E+04  0.12801536891E+04  0.19585455084E+04  0.25500000920E-02 0. -1.
       -2    1    3    3    0  502 -0.80896102555E+03  0.12420503612E+04 -0.53592017176E+03  0.15761717772E+04  0.25500000920E-02 0.  1.
</event>
<event>
 5   0  0.1562618E-06  0.3320660E+04  0.7818609E-02  0.8157658E-01
        1   -1    0    0  501    0  0.00000000000E+00  0.00000000000E+00  0.23765990684E+04  0.23765990684E+04  0.50400001928E-02 0.  1.
       -1   -1    0    0    0  501  0.00000000000E+00  0.00000000000E+00 -0.11599330865E+04  0.11599330865E+04  0.50400001928E-02 0. -1.
    10030    2    1    2    0    0  0.00000000000E+00  0.00000000000E+00  0.12166659818E+04  0.35365321549E+04  0.33206601108E+04 0.  0.
        2    1    3    3  502    0 -0.35957464819E+03 -0.28728300810E+02 -0.11176965542E+04  0.11744636351E+04  0.25500000920E-02 0. -1.
       -2    1    3    3    0  502  0.35957464819E+03  0.28728300810E+02  0.23343625360E+04  0.23620685198E+04  0.25500000920E-02 0.  1.
</event>
<event>
 5   0  0.1562618E-06  0.2423462E+04  0.7818609E-02  0.8430772E-01
        1   -1    0    0  501    0  0.00000000000E+00  0.00000000000E+00  0.84115805530E+03  0.84115805532E+03  0.50400001928E-02 0.  1.
       -1   -1    0    0    0  501  0.00000000000E+00  0.00000000000E+00 -0.17455599352E+04  0.17455599352E+04  0.50400001928E-02 0. -1.
    10030    2    1    2    0    0  0.00000000000E+00  0.00000000000E+00 -0.90440187991E+03  0.25867179905E+04  0.24234618219E+04 0.  0.
        2    1    3    3  502    0  0.34768406377E+02 -0.62882863240E+03 -0.15571465657E+04  0.16796844102E+04  0.25500000920E-02 0. -1.
       -2    1    3    3    0  502 -0.34768406377E+02  0.62882863240E+03  0.65274468575E+03  0.90703358030E+03  0.25500000920E-02 0.  1.
</event>
<event>
 5   0  0.4189587E-06  0.2744361E+04  0.7818609E-02  0.8320753E-01
        2   -1    0    0  501    0  0.00000000000E+00  0.00000000000E+00  0.11822462948E+04  0.11822462948E+04  0.25500000920E-02 0. -1.
       -2   -1    0    0    0  501  0.00000000000E+00  0.00000000000E+00 -0.15926283120E+04  0.15926283120E+04  0.25500000920E-02 0.  1.
    10030    2    1    2    0    0  0.00000000000E+00  0.00000000000E+00 -0.41038201719E+03  0.27748746068E+04  0.27443607058E+04 0.  0.
        1    1    3    3  502    0  0.42812947611E+03  0.53594520525E+03 -0.14068267759E+04  0.15651497337E+04  0.50400001928E-02 0.  1.
       -1    1    3    3    0  502 -0.42812947611E+03 -0.53594520525E+03  0.99644475874E+03  0.12097248731E+04  0.50400001928E-02 0. -1.
</event>
<event>
 5   0  0.1571391E-06  0.3173021E+04  0.7818609E-02  0.8195979E-01
        1   -1    0    0  501    0  0.00000000000E+00  0.00000000000E+00  0.11243763553E+04  0.11243763553E+04  0.50400001928E-02 0. -1.
       -1   -1    0    0    0  501  0.00000000000E+00  0.00000000000E+00 -0.22385878082E+04  0.22385878082E+04  0.50400001928E-02 0.  1.
    10030    2    1    2    0    0  0.00000000000E+00  0.00000000000E+00 -0.11142114529E+04  0.33629641636E+04  0.31730207695E+04 0.  0.
        1    1    3    3  502    0  0.15770544727E+03 -0.55893939890E+03 -0.21218766557E+04  0.21999192716E+04  0.50400001928E-02 0.  1.
       -1    1    3    3    0  502 -0.15770544727E+03  0.55893939890E+03  0.10076652028E+04  0.11630448919E+04  0.50400001928E-02 0. -1.
</event>
<event>
 5   0  0.2101998E-06  0.1804624E+04  0.7818609E-02  0.8703844E-01
        1   -1    0    0  501    0  0.00000000000E+00  0.00000000000E+00  0.18231883582E+04  0.18231883582E+04  0.50400001928E-02 0.  1.
       -1   -1    0    0    0  501  0.00000000000E+00  0.00000000000E+00 -0.44656210842E+03  0.44656210845E+03  0.50400001928E-02 0. -1.
    10030    2    1    2    0    0  0.00000000000E+00  0.00000000000E+00  0.13766262497E+04  0.22697504666E+04  0.18046238803E+04 0.  0.
        5    1    3    3  502    0 -0.12426044643E+03 -0.28284682011E+03  0.17545796372E+04  0.17815764860E+04  0.46999998093E+01 0.  1.
       -5    1    3    3    0  502  0.12426044643E+03  0.28284682011E+03 -0.37795338750E+03  0.48817398057E+03  0.46999998093E+01 0. -1.
</event>
<event>
 5   0  0.4189587E-06  0.3302247E+04  0.7818609E-02  0.8162324E-01
       -2   -1    0    0    0  501  0.00000000000E+00  0.00000000000E+00  0.34698144131E+04  0.34698144131E+04  0.25500000920E-02 0.  1.
        2   -1    0    0  501    0  0.00000000000E+00  0.00000000000E+00 -0.78569282595E+03  0.78569282595E+03  0.25500000920E-02 0. -1.
    10030    2    1    2    0    0  0.00000000000E+00  0.00000000000E+00  0.26841215871E+04  0.42555072391E+04  0.33022466848E+04 0.  0.
        1    1    3    3  502    0  0.89937451005E+03  0.39739516433E+03 -0.36726739900E+03  0.10496107699E+04  0.50400001928E-02 0. -1.
       -1    1    3    3    0  502 -0.89937451005E+03 -0.39739516433E+03  0.30513889861E+04  0.32058964691E+04  0.50400001928E-02 0.  1.
</event>
<event>
 5   0  0.1562618E-06  0.3214584E+04  0.7818609E-02  0.8184976E-01
        1   -1    0    0  501    0  0.00000000000E+00  0.00000000000E+00  0.20466772151E+04  0.20466772151E+04  0.50400001928E-02 0.  1.
       -1   -1    0    0    0  501  0.00000000000E+00  0.00000000000E+00 -0.12622346682E+04  0.12622346682E+04  0.50400001928E-02 0. -1.
    10030    2    1    2    0    0  0.00000000000E+00  0.00000000000E+00  0.78444254691E+03  0.33089118834E+04  0.32145836033E+04 0.  0.
        2    1    3    3  502    0  0.42361869653E+03  0.10494185363E+04  0.15670516327E+04  0.19329725513E+04  0.25500000920E-02 0.  1.
       -2    1    3    3    0  502 -0.42361869653E+03 -0.10494185363E+04 -0.78260908581E+03  0.13759393321E+04  0.25500000920E-02 0. -1.
</event>
<event>
 5   0  0.2722449E-06  0.3406889E+04  0.7818609E-02  0.8136218E-01
       -2   -1    0    0    0  501  0.00000000000E+00  0.00000000000E+00  0.13461936760E+04  0.13461936760E+04  0.25500000920E-02 0. -1.
        2   -1    0    0  501    0  0.00000000000E+00  0.00000000000E+00 -0.21555014092E+04  0.21555014092E+04  0.25500000920E-02 0.  1.
    10030    2    1    2    0    0  0.00000000000E+00  0.00000000000E+00 -0.80930773314E+03  0.35016950852E+04  0.34068885310E+04 0.  0.
        2    1    3    3  502    0  0.12105838668E+04 -0.96912623058E+03  0.31994906936E+03  0.15833781470E+04  0.25500000920E-02 0. -1.
       -2    1    3    3    0  502 -0.12105838668E+04  0.96912623058E+03 -0.11292568025E+04  0.19183169382E+04  0.25500000920E-02 0.  1.
</event>
<event>
 5   0  0.1550164E-06  0.3474108E+04  0.7818609E-02  0.8119954E-01
       -1   -1    0    0    0  501  0.00000000000E+00  0.00000000000E+00  0.10919339164E+04  0.10919339164E+04  0.50400001928E-02 0. -1.
        1   -1    0    0  501    0  0.00000000000E+00  0.00000000000E+00 -0.27633138158E+04  0.27633138158E+04  0.50400001928E-02 0.  1.
    10030    2    1    2    0    0  0.00000000000E+00  0.00000000000E+00 -0.16713798995E+04  0.38552477322E+04  0.34741076996E+04 0.  0.
        4    1    3    3  502    0 -0.14821302219E+04 -0.41187754914E+03  0.59674730504E+02  0.15394530835E+04  0.12699999809E+01 0. -1.
       -4    1    3    3    0  502  0.14821302219E+04  0.41187754914E+03 -0.17310546300E+04  0.23157946487E+04  0.12699999809E+01 0.  1.
</event>
<event>
 5   0  0.1550164E-06  0.3411626E+04  0.7818609E-02  0.8135059E-01
        1   -1    0    0  501    0  0.00000000000E+00  0.00000000000E+00  0.16120904299E+04  0.16120904299E+04  0.50400001928E-02 0. -1.
       -1   -1    0    0    0  501  0.00000000000E+00  0.00000000000E+00 -0.18049841536E+04  0.18049841536E+04  0.50400001928E-02 0.  1.
    10030    2    1    2    0    0  0.00000000000E+00  0.00000000000E+00 -0.19289372368E+03  0.34170745836E+04  0.34116258179E+04 0.  0.
        4    1    3    3  502    0  0.59766429709E+03  0.30876280569E+03 -0.16665151131E+04  0.17971675818E+04  0.12699999809E+01 0.  1.
       -4    1    3    3    0  502 -0.59766429709E+03 -0.30876280569E+03  0.14736213894E+04  0.16199070018E+04  0.12699999809E+01 0. -1.
</event>
<event>
 5   0  0.4400349E-06  0.3018847E+04  0.7818609E-02  0.8238370E-01
       -2   -1    0    0    0  501  0.00000000000E+00  0.00000000000E+00  0.20088340591E+04  0.20088340591E+04  0.25500000920E-02 0.  1.
        2   -1    0    0  501    0  0.00000000000E+00  0.00000000000E+00 -0.11341697009E+04  0.11341697009E+04  0.25500000920E-02 0. -1.
    10030    2    1    2    0    0  0.00000000000E+00  0.00000000000E+00  0.87466435822E+03  0.31430037599E+04  0.30188466167E+04 0.  0.
        5    1    3    3  502    0 -0.73905600741E+03 -0.14896850971E+03 -0.92409509109E+03  0.11926312198E+04  0.46999998093E+01 0. -1.
       -5    1    3    3    0  502  0.73905600741E+03  0.14896850971E+03  0.17987594493E+04  0.19503725402E+04  0.46999998093E+01 0.  1.
</event>
<event>
 5   0  0.1571391E-06  0.3643347E+04  0.7818609E-02  0.8080634E-01
       -1   -1    0    0    0  501  0.00000000000E+00  0.00000000000E+00  0.21946332332E+04  0.21946332332E+04  0.50400001928E-02 0. -1.
        1   -1    0    0  501    0  0.00000000000E+00  0.00000000000E+00 -0.15120950141E+04  0.15120950141E+04  0.50400001928E-02 0.  1.
    10030    2    1    2    0    0  0.00000000000E+00  0.00000000000E+00  0.68253821912E+03  0.37067282473E+04  0.36433467964E+04 0.  0.
        1    1    3    3  502    0  0.11721828328E+03  0.15763340898E+04  0.12625185039E+04  0.20229983345E+04  0.50400001928E-02 0. -1.
       -1    1    3    3    0  502 -0.11721828328E+03 -0.15763340898E+04 -0.57998028476E+03  0.16837299128E+04  0.50400001928E-02 0.  1.
</event>
<event>
 5   0  0.1654257E-06  0.3427814E+04  0.7818609E-02  0.8131113E-01
       -1   -1    0    0    0  501  0.00000000000E+00  0.00000000000E+00  0.14129945695E+04  0.14129945695E+04  0.50400001928E-02 0.  1.
        1   -1    0    0  501    0  0.00000000000E+00  0.00000000000E+00 -0.20789022011E+04  0.20789022011E+04  0.50400001928E-02 0. -1.
    10030    2    1    2    0    0  0.00000000000E+00  0.00000000000E+00 -0.66590763163E+03  0.34918967706E+04  0.34278141844E+04 0.  0.
        3    1    3    3  502    0  0.72420355996E+03  0.23023665508E+03  0.12319942280E+04  0.14475114859E+04  0.10100000352E+00 0.  1.
       -3    1    3    3    0  502 -0.72420355996E+03 -0.23023665508E+03 -0.18979018597E+04  0.20443852848E+04  0.10100000352E+00 0. -1.
</event>
<event>
 5   0  0.2722449E-06  0.3364132E+04  0.7818609E-02  0.8146766E-01
       -2   -1    0    0    0  501  0.00000000000E+00  0.00000000000E+00  0.18801450271E+04  0.18801450271E+04  0.25500000920E-02 0. -1.
        2   -1    0    0  501    0  0.00000000000E+00  0.00000000000E+00 -0.15048548957E+04  0.15048548957E+04  0.25500000920E-02 0.  1.
    10030    2    1    2    0    0  0.00000000000E+00  0.00000000000E+00  0.37529013134E+03  0.33849999228E+04  0.33641316554E+04 0.  0.
        2    1    3    3  502    0  0.10414517405E+04  0.43417704207E+03 -0.10675763519E+04  0.15533353465E+04  0.25500000920E-02 0.  1.
       -2    1    3    3    0  502 -0.10414517405E+04 -0.43417704207E+03  0.14428664832E+04  0.18316645763E+04  0.25500000920E-02 0. -1.
</event>
<event>
 5   0  0.4173467E-06  0.3447028E+04  0.7818609E-02  0.8126460E-01
       -2   -1    0    0    0  501  0.00000000000E+00  0.00000000000E+00  0.10997586319E+04  0.10997586319E+04  0.25500000920E-02 0. -1.
        2   -1    0    0  501    0  0.00000000000E+00  0.00000000000E+00 -0.27010481185E+04  0.27010481185E+04  0.25500000920E-02 0.  1.
    10030    2    1    2    0    0  0.00000000000E+00  0.00000000000E+00 -0.16012894866E+04  0.38008067504E+04  0.34470282758E+04 0.  0.
        4    1    3    3  502    0 -0.87794866846E+03 -0.13218024116E+03  0.82820712700E+03  0.12141639670E+04  0.12699999809E+01 0. -1.
       -4    1    3    3    0  502  0.87794866846E+03  0.13218024116E+03 -0.24294966136E+04  0.25866427834E+04  0.12699999809E+01 0.  1.
</event>
<event>
 5   0  0.1654257E-06  0.3403490E+04  0.7818609E-02  0.8137050E-01
       -1   -1    0    0    0  501  0.00000000000E+00  0.00000000000E+00  0.12708171639E+04  0.12708171639E+04  0.50400001928E-02 0. -1.
        1   -1    0    0  501    0  0.00000000000E+00  0.00000000000E+00 -0.22787979055E+04  0.22787979055E+04  0.50400001928E-02 0.  1.
    10030    2    1    2    0    0  0.00000000000E+00  0.00000000000E+00 -0.10079807416E+04  0.35496150694E+04  0.34034896746E+04 0.  0.
        3    1    3    3  502    0  0.12712850509E+04  0.48727470348E+03  0.56079015612E+03  0.14724428432E+04  0.10100000352E+00 0. -1.
       -3    1    3    3    0  502 -0.12712850509E+04 -0.48727470348E+03 -0.15687708978E+04  0.20771722261E+04  0.10100000352E+00 0.  1.
</event>
<event>
 5   0  0.2722449E-06  0.2465959E+04  0.7818609E-02  0.8415214E-01
       -2   -1    0    0    0  501  0.00000000000E+00  0.00000000000E+00  0.64749217118E+03  0.64749217119E+03  0.25500000920E-02 0. -1.
        2   -1    0    0  501    0  0.00000000000E+00  0.00000000000E+00 -0.23478874741E+04  0.23478874741E+04  0.25500000920E-02 0.  1.
    10030    2    1    2    0    0  0.00000000000E+00  0.00000000000E+00 -0.17003953029E+04  0.29953796452E+04  0.24659592521E+04 0.  0.
        2    1    3    3  502    0 -0.95742254051E+03  0.52687450552E+03 -0.15666935988E+03  0.11039927328E+04  0.25500000920E-02 0. -1.
       -2    1    3    3    0  502  0.95742254051E+03 -0.52687450552E+03 -0.15437259430E+04  0.18913869125E+04  0.25500000920E-02 0.  1.
</event>
<event>
 5   0  0.4173467E-06  0.3346775E+04  0.7818609E-02  0.8151095E-01
       -2   -1    0    0    0  501  0.00000000000E+00  0.00000000000E+00  0.12247349004E+04  0.12247349004E+04  0.25500000920E-02 0.  1.
        2   -1    0    0  501    0  0.00000000000E+00  0.00000000000E+00 -0.22863929651E+04  0.22863929651E+04  0.25500000920E-02 0. -1.
    10030    2    1    2    0    0  0.00000000000E+00  0.00000000000E+00 -0.10616580647E+04  0.35111278655E+04  0.33467747223E+04 0.  0.
        4    1    3    3  502    0  0.24260218580E+03 -0.10843237371E+04 -0.18435183144E+04  0.21524811673E+04  0.12699999809E+01 0. -1.
       -4    1    3    3    0  502 -0.24260218580E+03  0.10843237371E+04  0.78186024972E+03  0.13586466982E+04  0.12699999809E+01 0.  1.
</event>
<event>
 5   0  0.4189587E-06  0.3173350E+04  0.7818609E-02  0.8195891E-01
       -2   -1    0    0    0  501  0.00000000000E+00  0.00000000000E+00  0.12196507899E+04  0.12196507899E+04  0.25500000920E-02 0.  1.
        2   -1    0    0  501    0  0.00000000000E+00  0.00000000000E+00 -0.20641465704E+04  0.20641465704E+04  0.25500000920E-02 0. -1.
    10030    2    1    2    0    0  0.00000000000E+00  0.00000000000E+00 -0.84449578043E+03  0.32837973603E+04  0.31733502770E+04 0.  0.
        1    1    3    3  502    0 -0.10312661499E+04  0.29313777316E+01  0.82554772990E+03  0.13210024675E+04  0.50400001928E-02 0.  1.
       -1    1    3    3    0  502  0.10312661499E+04 -0.29313777316E+01 -0.16700435103E+04  0.19627948928E+04  0.50400001928E-02 0. -1.
</event>
<event>
 5   0  0.1654257E-06  0.3311248E+04  0.7818609E-02  0.8160039E-01
        1   -1    0    0  501    0  0.00000000000E+00  0.00000000000E+00  0.18134099203E+04  0.18134099203E+04  0.50400001928E-02 0.  1.
       -1   -1    0    0    0  501  0.00000000000E+00  0.00000000000E+00 -0.15115673433E+04  0.15115673433E+04  0.50400001928E-02 0. -1.
    10030    2    1    2    0    0  0.00000000000E+00  0.00000000000E+00  0.30184257697E+03  0.33249772637E+04  0.33112482333E+04 0.  0.
        3    1    3    3  502    0 -0.22496390227E+03 -0.36955071593E+03  0.17556445043E+04  0.18081659560E+04  0.10100000352E+00 0.  1.
       -3    1    3    3    0  502  0.22496390227E+03  0.36955071593E+03 -0.14538019273E+04  0.15168113076E+04  0.10100000352E+00 0. -1.
</event>
<event>
 5   0  0.2722449E-06  0.2185985E+04  0.7818609E-02  0.8524284E-01
       -2   -1    0    0    0  501  0.00000000000E+00  0.00000000000E+00  0.44540429352E+03  0.44540429353E+03  0.25500000920E-02 0.  1.
        2   -1    0    0  501    0  0.00000000000E+00  0.00000000000E+00 -0.26821313040E+04  0.26821313040E+04  0.25500000920E-02 0. -1.
    10030    2    1    2    0    0  0.00000000000E+00  0.00000000000E+00 -0.22367270104E+04  0.31275355975E+04  0.21859851771E+04 0.  0.
        2    1    3    3  502    0  0.77878255903E+03  0.41125892933E+03 -0.20444686722E+04  0.22260926155E+04  0.25500000920E-02 0. -1.
       -2    1    3    3    0  502 -0.77878255903E+03 -0.41125892933E+03 -0.19225833829E+03  0.90144298203E+03  0.25500000920E-02 0.  1.
</event>
<event>
 5   0  0.2101998E-06  0.1879034E+04  0.7818609E-02  0.8665363E-01
       -1   -1    0    0    0  501  0.00000000000E+00  0.00000000000E+00  0.45482641387E+03  0.45482641390E+03  0.50400001928E-02 0.  1.
        1   -1    0    0  501    0  0.00000000000E+00  0.00000000000E+00 -0.19407241713E+04  0.19407241713E+04  0.50400001928E-02 0. -1.
    10030    2    1    2    0    0  0.00000000000E+00  0.00000000000E+00 -0.14858977575E+04  0.23955505852E+04  0.18790344491E+04 0.  0.
        5    1    3    3  502    0 -0.50949761276E+03 -0.15930930293E+03 -0.17285777439E+04  0.18091352570E+04  0.46999998093E+01 0. -1.
       -5    1    3    3    0  502  0.50949761276E+03  0.15930930293E+03  0.24267998643E+03  0.58641532826E+03  0.46999998093E+01 0.  1.
</event>
<event>
 5   0  0.1562618E-06  0.3407806E+04  0.7818609E-02  0.8135993E-01
        1   -1    0    0  501    0  0.00000000000E+00  0.00000000000E+00  0.27555782449E+04  0.27555782449E+04  0.50400001928E-02 0. -1.
       -1   -1    0    0    0  501  0.00000000000E+00  0.00000000000E+00 -0.10536029729E+04  0.10536029729E+04  0.50400001928E-02 0.  1.
    10030    2    1    2    0    0  0.00000000000E+00  0.00000000000E+00  0.17019752720E+04  0.38091812178E+04  0.34078059985E+04 0.  0.
        2    1    3    3  502    0 -0.52864980467E+03 -0.94309448980E+03  0.23230623436E+04  0.25623263814E+04  0.25500000920E-02 0. -1.
       -2    1    3    3    0  502  0.52864980467E+03  0.94309448980E+03 -0.62108707156E+03  0.12468548364E+04  0.25500000920E-02 0.  1.
</event>
<event>
 5   0  0.2722449E-06  0.3436911E+04  0.7818609E-02  0.8128906E-01
        2   -1    0    0  501    0  0.00000000000E+00  0.00000000000E+00  0.18309844564E+04  0.18309844564E+04  0.25500000920E-02 0. -1.
       -2   -1    0    0    0  501  0.00000000000E+00  0.00000000000E+00 -0.16128420095E+04  0.16128420095E+04  0.25500000920E-02 0.  1.
    10030    2    1    2    0    0  0.00000000000E+00  0.00000000000E+00  0.21814244690E+03  0.34438264659E+04  0.34369106186E+04 0.  0.
        2    1    3    3  502    0 -0.45784446415E+03  0.13562344238E+04  0.10618237814E+04  0.17822634789E+04  0.25500000920E-02 0. -1.
       -2    1    3    3    0  502  0.45784446415E+03 -0.13562344238E+04 -0.84368133451E+03  0.16615629870E+04  0.25500000920E-02 0.  1.
</event>
<event>
 5   0  0.1654257E-06  0.1685594E+04  0.7818609E-02  0.8769623E-01
        1   -1    0    0  501    0  0.00000000000E+00  0.00000000000E+00  0.97903331164E+03  0.97903331165E+03  0.50400001928E-02 0. -1.
       -1   -1    0    0    0  501  0.00000000000E+00  0.00000000000E+00 -0.72551875376E+03  0.72551875378E+03  0.50400001928E-02 0.  1.
    10030    2    1    2    0    0  0.00000000000E+00  0.00000000000E+00  0.25351455788E+03  0.17045520654E+04  0.16855942907E+04 0.  0.
        3    1    3    3  502    0 -0.37452336715E+03 -0.71967615620E+03  0.35759085798E+03  0.88660744090E+03  0.10100000352E+00 0.  1.
       -3    1    3    3    0  502  0.37452336715E+03  0.71967615620E+03 -0.10407630011E+03  0.81794462453E+03  0.10100000352E+00 0. -1.
</event>
<event>
 5   0  0.1654257E-06  0.3385627E+04  0.7818609E-02  0.8141443E-01
        1   -1    0    0  501    0  0.00000000000E+00  0.00000000000E+00  0.10203600686E+04  0.10203600686E+04  0.50400001928E-02 0. -1.
       -1   -1    0    0    0  501  0.00000000000E+00  0.00000000000E+00 -0.28084383439E+04  0.28084383439E+04  0.50400001928E-02 0.  1.
    10030    2    1    2    0    0  0.00000000000E+00  0.00000000000E+00 -0.17880782754E+04  0.38287984125E+04  0.33856274699E+04 0.  0.
        3    1    3    3  502    0 -0.41853532484E+03 -0.13808993388E+04 -0.18950998981E+04  0.23819022725E+04  0.10100000352E+00 0.  1.
       -3    1    3    3    0  502  0.41853532484E+03  0.13808993388E+04  0.10702162272E+03  0.14468961400E+04  0.10100000352E+00 0. -1.
</event>
<event>
 5   0  0.1654257E-06  0.3368504E+04  0.7818609E-02  0.8145680E-01
       -1   -1    0    0    0  501  0.00000000000E+00  0.00000000000E+00  0.12769646914E+04  0.12769646914E+04  0.50400001928E-02 0.  1.
        1   -1    0    0  501    0  0.00000000000E+00  0.00000000000E+00 -0.22214440207E+04  0.22214440207E+04  0.50400001928E-02 0. -1.
    10030    2    1    2    0    0  0.00000000000E+00  0.00000000000E+00 -0.94447932933E+03  0.34984087121E+04  0.33685044624E+04 0.  0.
        3    1    3    3  502    0 -0.61400614465E+03  0.23992324697E+03  0.11374141130E+04  0.13146397167E+04  0.10100000352E+00 0.  1.
       -3    1    3    3    0  502  0.61400614465E+03 -0.23992324697E+03 -0.20818934423E+04  0.21837689954E+04  0.10100000352E+00 0. -1.
</event>
<event>
 5   0  0.4400349E-06  0.2405781E+04  0.7818609E-02  0.8437342E-01
       -2   -1    0    0    0  501  0.00000000000E+00  0.00000000000E+00  0.18858300325E+04  0.18858300325E+04  0.25500000920E-02 0.  1.
        2   -1    0    0  501    0  0.00000000000E+00  0.00000000000E+00 -0.76727258968E+03  0.76727258968E+03  0.25500000920E-02 0. -1.
    10030    2    1    2    0    0  0.00000000000E+00  0.00000000000E+00  0.11185574428E+04  0.26531026222E+04  0.24057811145E+04 0.  0.
        5    1    3    3  502    0 -0.50166511298E+03  0.53556607860E+03 -0.49181732569E+03  0.88340550257E+03  0.46999998093E+01 0. -1.
       -5    1    3    3    0  502  0.50166511298E+03 -0.53556607860E+03  0.16103747685E+04  0.17696971196E+04  0.46999998093E+01 0.  1.
</event>
<event>
 5   0  0.4344980E-06  0.3426544E+04  0.7818609E-02  0.8131422E-01
       -2   -1    0    0    0  501  0.00000000000E+00  0.00000000000E+00  0.23132994941E+04  0.23132994941E+04  0.25500000920E-02 0. -1.
        2   -1    0    0  501    0  0.00000000000E+00  0.00000000000E+00 -0.12688802785E+04  0.12688802785E+04  0.25500000920E-02 0.  1.
    10030    2    1    2    0    0  0.00000000000E+00  0.00000000000E+00  0.10444192156E+04  0.35821797726E+04  0.34265435099E+04 0.  0.
        3    1    3    3  502    0 -0.53631594023E+03 -0.77948601106E+03  0.20153936078E+04  0.22264421469E+04  0.10100000352E+00 0. -1.
       -3    1    3    3    0  502  0.53631594023E+03  0.77948601106E+03 -0.97097439221E+03  0.13557376257E+04  0.10100000352E+00 0.  1.
</event>
<event>
 5   0  0.1550164E-06  0.1744421E+04  0.7818609E-02  0.8736427E-01
        1   -1    0    0  501    0  0.00000000000E+00  0.00000000000E+00  0.12974002698E+04  0.12974002698E+04  0.50400001928E-02 0. -1.
       -1   -1    0    0    0  501  0.00000000000E+00  0.00000000000E+00 -0.58636556423E+03  0.58636556425E+03  0.50400001928E-02 0.  1.
    10030    2    1    2    0    0  0.00000000000E+00  0.00000000000E+00  0.71103470556E+03  0.18837658341E+04  0.17444206388E+04 0.  0.
        4    1    3    3  502    0  0.43428530775E+03  0.12145143155E+03  0.11617441947E+04  0.12461963592E+04  0.12699999809E+01 0. -1.
       -4    1    3    3    0  502 -0.43428530775E+03 -0.12145143155E+03 -0.45070948917E+03  0.63756947487E+03  0.12699999809E+01 0.  1.
</event>
<event>
 5   0  0.1654257E-06  0.3440116E+04  0.7818609E-02  0.8128130E-01
       -1   -1    0    0    0  501  0.00000000000E+00  0.00000000000E+00  0.15486475091E+04  0.15486475091E+04  0.50400001928E-02 0.  1.
        1   -1    0    0  501    0  0.00000000000E+00  0.00000000000E+00 -0.19104413258E+04  0.19104413258E+04  0.50400001928E-02 0. -1.
    10030    2    1    2    0    0  0.00000000000E+00  0.00000000000E+00 -0.36179381675E+03  0.34590888349E+04  0.34401163937E+04 0.  0.
        3    1    3    3  502    0  0.13506355490E+04  0.96036471481E+03 -0.64396188668E+03  0.17779774164E+04  0.10100000352E+00 0. -1.
       -3    1    3    3    0  502 -0.13506355490E+04 -0.96036471481E+03  0.28216806993E+03  0.16811114185E+04  0.10100000352E+00 0.  1.
</event>
<event>
 5   0  0.3120343E-06  0.1712466E+04  0.7818609E-02  0.8754286E-01
       -2   -1    0    0    0  501  0.00000000000E+00  0.00000000000E+00  0.90919132767E+03  0.90919132767E+03  0.25500000920E-02 0. -1.
        2   -1    0    0  501    0  0.00000000000E+00  0.00000000000E+00 -0.80635926270E+03  0.80635926270E+03  0.25500000920E-02 0.  1.
    10030    2    1    2    0    0  0.00000000000E+00  0.00000000000E+00  0.10283206497E+03  0.17155505904E+04  0.17124658813E+04 0.  0.
        2    1    3    3  502    0 -0.12581490302E+03  0.83971202085E+03 -0.59187465539E+02  0.85114559498E+03  0.25500000920E-02 0.  1.
       -2    1    3    3    0  502  0.12581490302E+03 -0.83971202085E+03  0.16201953051E+03  0.86440499539E+03  0.25500000920E-02 0. -1.
</event>
<event>
 5   0  0.4400349E-06  0.3439717E+04  0.7818609E-02  0.8128227E-01
       -2   -1    0    0    0  501  0.00000000000E+00  0.00000000000E+00  0.11733781058E+04  0.11733781058E+04  0.25500000920E-02 0. -1.
        2   -1    0    0  501    0  0.00000000000E+00  0.00000000000E+00 -0.25208521765E+04  0.25208521765E+04  0.25500000920E-02 0.  1.
    10030    2    1    2    0    0  0.00000000000E+00  0.00000000000E+00 -0.13474740707E+04  0.36942302823E+04  0.34397167046E+04 0.  0.
        5    1    3    3  502    0 -0.14010810324E+04  0.17251241669E+03 -0.17288231601E+04  0.22319588263E+04  0.46999998093E+01 0.  1.
       -5    1    3    3    0  502  0.14010810324E+04 -0.17251241669E+03  0.38134908946E+03  0.14622714561E+04  0.46999998093E+01 0. -1.
</event>
<event>
 5   0  0.4400349E-06  0.2969837E+04  0.7818609E-02  0.8252397E-01
       -2   -1    0    0    0  501  0.00000000000E+00  0.00000000000E+00  0.96403201848E+03  0.96403201849E+03  0.25500000920E-02 0.  1.
        2   -1    0    0  501    0  0.00000000000E+00  0.00000000000E+00 -0.22872502602E+04  0.22872502602E+04  0.25500000920E-02 0. -1.
    10030    2    1    2    0    0  0.00000000000E+00  0.00000000000E+00 -0.13232182417E+04  0.32512822787E+04  0.29698366858E+04 0.  0.
        5    1    3    3  502    0 -0.16049985048E+03 -0.16190178815E+03  0.94475100118E+03  0.97187907440E+03  0.46999998093E+01 0.  1.
       -5    1    3    3    0  502  0.16049985048E+03  0.16190178815E+03 -0.22679692429E+04  0.22794032043E+04  0.46999998093E+01 0. -1.
</event>
<event>
 5   0  0.1550164E-06  0.2638708E+04  0.7818609E-02  0.8355171E-01
       -1   -1    0    0    0  501  0.00000000000E+00  0.00000000000E+00  0.15109205512E+04  0.15109205512E+04  0.50400001928E-02 0.  1.
        1   -1    0    0  501    0  0.00000000000E+00  0.00000000000E+00 -0.11520760114E+04  0.11520760114E+04  0.50400001928E-02 0. -1.
    10030    2    1    2    0    0  0.00000000000E+00  0.00000000000E+00  0.35884453985E+03  0.26629965626E+04  0.26387082614E+04 0.  0.
        4    1    3    3  502    0  0.27468293392E+02 -0.13172480657E+04  0.24931823583E+03  0.13409169137E+04  0.12699999809E+01 0.  1.
       -4    1    3    3    0  502 -0.27468293392E+02  0.13172480657E+04  0.10952630402E+03  0.13220796489E+04  0.12699999809E+01 0. -1.
</event>
<event>
 5   0  0.4189587E-06  0.3470984E+04  0.7818609E-02  0.8120701E-01
        2   -1    0    0  501    0  0.00000000000E+00  0.00000000000E+00  0.13149651093E+04  0.13149651093E+04  0.25500000920E-02 0.  1.
       -2   -1    0    0    0  501  0.00000000000E+00  0.00000000000E+00 -0.22905034919E+04  0.22905034919E+04  0.25500000920E-02 0. -1.
    10030    2    1    2    0    0  0.00000000000E+00  0.00000000000E+00 -0.97553838258E+03  0.36054686012E+04  0.34709838228E+04 0.  0.
        1    1    3    3  502    0  0.11146104167E+04 -0.12987897054E+04 -0.18901275873E+03  0.17218992139E+04  0.50400001928E-02 0.  1.
       -1    1    3    3    0  502 -0.11146104167E+04  0.12987897054E+04 -0.78652562384E+03  0.18835693873E+04  0.50400001928E-02 0. -1.
</event>
<event>
 5   0  0.4400349E-06  0.3370822E+04  0.7818609E-02  0.8145105E-01
        2   -1    0    0  501    0  0.00000000000E+00  0.00000000000E+00  0.88878799744E+03  0.88878799745E+03  0.25500000920E-02 0. -1.
       -2   -1    0    0    0  501  0.00000000000E+00  0.00000000000E+00 -0.31960483571E+04  0.31960483571E+04  0.25500000920E-02 0.  1.
    10030    2    1    2    0    0  0.00000000000E+00  0.00000000000E+00 -0.23072603597E+04  0.40848363546E+04  0.33708215136E+04 0.  0.
        5    1    3    3  502    0 -0.78081959929E+03  0.18926562901E+03 -0.29490447089E+04  0.30565319416E+04  0.46999998093E+01 0.  1.
       -5    1    3    3    0  502  0.78081959929E+03 -0.18926562901E+03  0.64178434918E+03  0.10283044130E+04  0.46999998093E+01 0. -1.
</event>
<event>
 5   0  0.1571391E-06  0.3392883E+04  0.7818609E-02  0.8139655E-01
       -1   -1    0    0    0  501  0.00000000000E+00  0.00000000000E+00  0.12987852091E+04  0.12987852091E+04  0.50400001928E-02 0. -1.
        1   -1    0    0  501    0  0.00000000000E+00  0.00000000000E+00 -0.22158503134E+04  0.22158503134E+04  0.50400001928E-02 0.  1.
    10030    2    1    2    0    0  0.00000000000E+00  0.00000000000E+00 -0.91706510426E+03  0.35146355226E+04  0.33928829115E+04 0.  0.
        1    1    3    3  502    0 -0.11118403488E+03 -0.16875476946E+04 -0.59648230083E+03  0.17933126461E+04  0.50400001928E-02 0. -1.
       -1    1    3    3    0  502  0.11118403488E+03  0.16875476946E+04 -0.32058280343E+03  0.17213228765E+04  0.50400001928E-02 0.  1.
</event>
<event>
 5   0  0.2722449E-06  0.3545279E+04  0.7818609E-02  0.8103143E-01
       -2   -1    0    0    0  501  0.00000000000E+00  0.00000000000E+00  0.14790827806E+04  0.14790827806E+04  0.25500000920E-02 0. -1.
        2   -1    0    0  501    0  0.00000000000E+00  0.00000000000E+00 -0.21244585720E+04  0.21244585720E+04  0.25500000920E-02 0.  1.
    10030    2    1    2    0    0  0.00000000000E+00  0.00000000000E+00 -0.64537579148E+03  0.36035413526E+04  0.35452786023E+04 0.  0.
        2    1    3    3  502    0  0.10700610943E+04  0.72099270403E+03 -0.15581418159E+04  0.20230341429E+04  0.25500000920E-02 0.  1.
       -2    1    3    3    0  502 -0.10700610943E+04 -0.72099270403E+03  0.91276602442E+03  0.15805072097E+04  0.25500000920E-02 0. -1.
</event>
<event>
 5   0  0.4344980E-06  0.3276465E+04  0.7818609E-02  0.8168910E-01
       -2   -1    0    0    0  501  0.00000000000E+00  0.00000000000E+00  0.15689548326E+04  0.15689548326E+04  0.25500000920E-02 0. -1.
        2   -1    0    0  501    0  0.00000000000E+00  0.00000000000E+00 -0.17105694611E+04  0.17105694611E+04  0.25500000920E-02 0.  1.
    10030    2    1    2    0    0  0.00000000000E+00  0.00000000000E+00 -0.14161462851E+03  0.32795242937E+04  0.32764653043E+04 0.  0.
        3    1    3    3  502    0 -0.58738450331E+03  0.20885153982E+03  0.14455878657E+04  0.15742819976E+04  0.10100000352E+00 0. -1.
       -3    1    3    3    0  502  0.58738450331E+03 -0.20885153982E+03 -0.15872024942E+04  0.17052422961E+04  0.10100000352E+00 0.  1.
</event>
<event>
 5   0  0.1562618E-06  0.3361810E+04  0.7818609E-02  0.8147344E-01
        1   -1    0    0  501    0  0.00000000000E+00  0.00000000000E+00  0.18455475313E+04  0.18455475313E+04  0.50400001928E-02 0. -1.
       -1   -1    0    0    0  501  0.00000000000E+00  0.00000000000E+00 -0.15309501441E+04  0.15309501441E+04  0.50400001928E-02 0.  1.
    10030    2    1    2    0    0  0.00000000000E+00  0.00000000000E+00  0.31459738715E+03  0.33764976754E+04  0.33618097859E+04 0.  0.
        2    1    3    3  502    0  0.37532065186E+03  0.72600616068E+03 -0.13179586543E+04  0.15507951352E+04  0.25500000920E-02 0.  1.
       -2    1    3    3    0  502 -0.37532065186E+03 -0.72600616068E+03  0.16325560414E+04  0.18257025402E+04  0.25500000920E-02 0. -1.
</event>
<event>
 5   0  0.4344980E-06  0.3373482E+04  0.7818609E-02  0.8144446E-01
       -2   -1    0    0    0  501  0.00000000000E+00  0.00000000000E+00  0.14517956729E+04  0.14517956729E+04  0.25500000920E-02 0.  1.
        2   -1    0    0  501    0  0.00000000000E+00  0.00000000000E+00 -0.19597078090E+04  0.19597078090E+04  0.25500000920E-02 0. -1.
    10030    2    1    2    0    0  0.00000000000E+00  0.00000000000E+00 -0.50791213609E+03  0.34115034818E+04  0.33734820688E+04 0.  0.
        3    1    3    3  502    0  0.10773516194E+04  0.42207622039E+03  0.98717443859E+03  0.15209695034E+04  0.10100000352E+00 0.  1.
       -3    1    3    3    0  502 -0.10773516194E+04 -0.42207622039E+03 -0.14950865747E+04  0.18905339785E+04  0.10100000352E+00 0. -1.
</event>
<event>
 5   0  0.1562618E-06  0.3383063E+04  0.7818609E-02  0.8142076E-01
        1   -1    0    0  501    0  0.00000000000E+00  0.00000000000E+00  0.11363222061E+04  0.11363222062E+04  0.50400001928E-02 0. -1.
       -1   -1    0    0    0  501  0.00000000000E+00  0.00000000000E+00 -0.25180178280E+04  0.25180178280E+04  0.50400001928E-02 0.  1.
    10030    2    1    2    0    0  0.00000000000E+00  0.00000000000E+00 -0.13816956218E+04  0.36543400341E+04  0.33830634481E+04 0.  0.
        2    1    3    3  502    0 -0.81971975607E+03 -0.14190960700E+04 -0.11433744008E+04  0.19982690396E+04  0.25500000920E-02 0. -1.
       -2    1    3    3    0  502  0.81971975607E+03  0.14190960700E+04 -0.23832122105E+03  0.16560709945E+04  0.25500000920E-02 0.  1.
</event>
<event>
 5   0  0.2101998E-06  0.3160552E+04  0.7818609E-02  0.8199314E-01
        1   -1    0    0  501    0  0.00000000000E+00  0.00000000000E+00  0.18758185030E+04  0.18758185030E+04  0.50400001928E-02 0.  1.
       -1   -1    0    0    0  501  0.00000000000E+00  0.00000000000E+00 -0.13312974879E+04  0.13312974879E+04  0.50400001928E-02 0. -1.
    10030    2    1    2    0    0  0.00000000000E+00  0.00000000000E+00  0.54452101508E+03  0.32071159908E+04  0.31605521421E+04 0.  0.
        5    1    3    3  502    0  0.88876347542E+03  0.67479437130E+03 -0.86315361131E+03  0.14107814166E+04  0.46999998093E+01 0. -1.
       -5    1    3    3    0  502 -0.88876347542E+03 -0.67479437130E+03  0.14076746264E+04  0.17963345742E+04  0.46999998093E+01 0.  1.
</event>
<event>
 5   0  0.1654257E-06  0.3439639E+04  0.7818609E-02  0.8128246E-01
       -1   -1    0    0    0  501  0.00000000000E+00  0.00000000000E+00  0.13071405541E+04  0.13071405542E+04  0.50400001928E-02 0. -1.
        1   -1    0    0  501    0  0.00000000000E+00  0.00000000000E+00 -0.22627852414E+04  0.22627852414E+04  0.50400001928E-02 0.  1.
    10030    2    1    2    0    0  0.00000000000E+00  0.00000000000E+00 -0.95564468726E+03  0.35699257956E+04  0.34396385592E+04 0.  0.
        3    1    3    3  502    0 -0.97129502828E+03 -0.13494280807E+04 -0.21382251098E+02  0.16627770109E+04  0.10100000352E+00 0. -1.
       -3    1    3    3    0  502  0.97129502828E+03  0.13494280807E+04 -0.93426243617E+03  0.19071487847E+04  0.10100000352E+00 0.  1.
</event>
<event>
 5   0  0.2101998E-06  0.3417497E+04  0.7818609E-02  0.8133625E-01
        1   -1    0    0  501    0  0.00000000000E+00  0.00000000000E+00  0.11142572807E+04  0.11142572807E+04  0.50400001928E-02 0. -1.
       -1   -1    0    0    0  501  0.00000000000E+00  0.00000000000E+00 -0.26204194345E+04  0.26204194345E+04  0.50400001928E-02 0.  1.
    10030    2    1    2    0    0  0.00000000000E+00  0.00000000000E+00 -0.15061621538E+04  0.37346767152E+04  0.34174969983E+04 0.  0.
        5    1    3    3  502    0 -0.23665256710E+03  0.10547632125E+04  0.69309562477E+03  0.12841080590E+04  0.46999998093E+01 0. -1.
       -5    1    3    3    0  502  0.23665256710E+03 -0.10547632125E+04 -0.21992577786E+04  0.24505686562E+04  0.46999998093E+01 0.  1.
</event>
<event>
 5   0  0.4344980E-06  0.3364846E+04  0.7818609E-02  0.8146589E-01
        2   -1    0    0  501    0  0.00000000000E+00  0.00000000000E+00  0.25461616537E+04  0.25461616537E+04  0.25500000920E-02 0. -1.
       -2   -1    0    0    0  501  0.00000000000E+00  0.00000000000E+00 -0.11116916604E+04  0.11116916604E+04  0.25500000920E-02 0.  1.
    10030    2    1    2    0    0  0.00000000000E+00  0.00000000000E+00  0.14344699932E+04  0.36578533141E+04  0.33648457180E+04 0.  0.
        3    1    3    3  502    0  0.11648151423E+04 -0.29253289442E+03 -0.56357152192E+03  0.13266433887E+04  0.10100000352E+00 0.  1.
       -3    1    3    3    0  502 -0.11648151423E+04  0.29253289442E+03  0.19980415152E+04  0.23312099255E+04  0.10100000352E+00 0. -1.
</event>
<event>
 5   0  0.1654257E-06  0.3399006E+04  0.7818609E-02  0.8138150E-01
       -1   -1    0    0    0  501  0.00000000000E+00  0.00000000000E+00  0.14777066596E+04  0.14777066596E+04  0.50400001928E-02 0. -1.
        1   -1    0    0  501    0  0.00000000000E+00  0.00000000000E+00 -0.19545897179E+04  0.19545897179E+04  0.50400001928E-02 0.  1.
    10030    2    1    2    0    0  0.00000000000E+00  0.00000000000E+00 -0.47688305831E+03  0.34322963775E+04  0.33990058799E+04 0.  0.
        3    1    3    3  502    0  0.67003625068E+03 -0.46501860016E+03 -0.17440576500E+04  0.19253384047E+04  0.10100000352E+00 0.  1.
       -3    1    3    3    0  502 -0.67003625068E+03  0.46501860016E+03  0.12671745917E+04  0.15069579728E+04  0.10100000352E+00 0. -1.
</event>
<event>
 5   0  0.2101998E-06  0.3456305E+04  0.7818609E-02  0.8124224E-01
       -1   -1    0    0    0  501  0.00000000000E+00  0.00000000000E+00  0.25001881581E+04  0.25001881581E+04  0.50400001928E-02 0. -1.
        1   -1    0    0  501    0  0.00000000000E+00  0.00000000000E+00 -0.11945144164E+04  0.11945144164E+04  0.50400001928E-02 0.  1.
    10030    2    1    2    0    0  0.00000000000E+00  0.00000000000E+00  0.13056737417E+04  0.36947025745E+04  0.34563048468E+04 0.  0.
        5    1    3    3  502    0 -0.13512415740E+03 -0.16263435067E+03 -0.11806278424E+04  0.11994218033E+04  0.46999998093E+01 0.  1.
       -5    1    3    3    0  502  0.13512415740E+03  0.16263435067E+03  0.24863015841E+04  0.24952807712E+04  0.46999998093E+01 0. -1.
</event>
<event>
 5   0  0.4189587E-06  0.3492313E+04  0.7818609E-02  0.8115614E-01
        2   -1    0    0  501    0  0.00000000000E+00  0.00000000000E+00  0.24239846055E+04  0.24239846055E+04  0.25500000920E-02 0. -1.
       -2   -1    0    0    0  501  0.00000000000E+00  0.00000000000E+00 -0.12578719752E+04  0.12578719752E+04  0.25500000920E-02 0.  1.
    10030    2    1    2    0    0  0.00000000000E+00  0.00000000000E+00  0.11661126303E+04  0.36818565806E+04  0.34923128746E+04 0.  0.
        1    1    3    3  502    0  0.15070153303E+03 -0.58163373556E+03 -0.11454568054E+04  0.12934759555E+04  0.50400001928E-02 0.  1.
       -1    1    3    3    0  502 -0.15070153303E+03  0.58163373556E+03  0.23115694357E+04  0.23883806251E+04  0.50400001928E-02 0. -1.
</event>
<event>
 5   0  0.4173467E-06  0.2582707E+04  0.7818609E-02  0.8374099E-01
        2   -1    0    0  501    0  0.00000000000E+00  0.00000000000E+00  0.22137683067E+04  0.22137683067E+04  0.25500000920E-02 0. -1.
       -2   -1    0    0    0  501  0.00000000000E+00  0.00000000000E+00 -0.75328273254E+03  0.75328273255E+03  0.25500000920E-02 0.  1.
    10030    2    1    2    0    0  0.00000000000E+00  0.00000000000E+00  0.14604855741E+04  0.29670510392E+04  0.25827066727E+04 0.  0.
        4    1    3    3  502    0  0.74330055322E+03  0.26632421158E+03 -0.44366781301E+03  0.90568594959E+03  0.12699999809E+01 0.  1.
       -4    1    3    3    0  502 -0.74330055322E+03 -0.26632421158E+03  0.19041533871E+04  0.20613650896E+04  0.12699999809E+01 0. -1.
</event>
<event>
 5   0  0.2722449E-06  0.3405904E+04  0.7818609E-02  0.8136459E-01
       -2   -1    0    0    0  501  0.00000000000E+00  0.00000000000E+00  0.20695623786E+04  0.20695623786E+04  0.25500000920E-02 0.  1.
        2   -1    0    0  501    0  0.00000000000E+00  0.00000000000E+00 -0.14012846050E+04  0.14012846050E+04  0.25500000920E-02 0. -1.
    10030    2    1    2    0    0  0.00000000000E+00  0.00000000000E+00  0.66827777366E+03  0.34708469836E+04  0.34059042266E+04 0.  0.
        2    1    3    3  502    0 -0.10195255444E+04 -0.95791097077E+03 -0.65546984677E+03  0.15448839709E+04  0.25500000920E-02 0. -1.
       -2    1    3    3    0  502  0.10195255444E+04  0.95791097077E+03  0.13237476204E+04  0.19259630127E+04  0.25500000920E-02 0.  1.
</event>
<event>
 5   0  0.1562618E-06  0.3089126E+04  0.7818609E-02  0.8218729E-01
        1   -1    0    0  501    0  0.00000000000E+00  0.00000000000E+00  0.18348399072E+04  0.18348399072E+04  0.50400001928E-02 0.  1.
       -1   -1    0    0    0  501  0.00000000000E+00  0.00000000000E+00 -0.13002085394E+04  0.13002085394E+04  0.50400001928E-02 0. -1.
    10030    2    1    2    0    0  0.00000000000E+00  0.00000000000E+00  0.53463136781E+03  0.31350484466E+04  0.30891257765E+04 0.  0.
        2    1    3    3  502    0 -0.73071238509E+03 -0.11848486970E+04 -0.41186204293E+03  0.14517015420E+04  0.25500000920E-02 0. -1.
       -2    1    3    3    0  502  0.73071238509E+03  0.11848486970E+04  0.94649341074E+03  0.16833469046E+04  0.25500000920E-02 0.  1.
</event>
<event>
 5   0  0.4400349E-06  0.2378318E+04  0.7818609E-02  0.8447666E-01
       -2   -1    0    0    0  501  0.00000000000E+00  0.00000000000E+00  0.89024704731E+03  0.89024704731E+03  0.25500000920E-02 0. -1.
        2   -1    0    0  501    0  0.00000000000E+00  0.00000000000E+00 -0.15884338827E+04  0.15884338827E+04  0.25500000920E-02 0.  1.
    10030    2    1    2    0    0  0.00000000000E+00  0.00000000000E+00 -0.69818683536E+03  0.24786809300E+04  0.23783175346E+04 0.  0.
        5    1    3    3  502    0  0.47970331668E+03 -0.96431025315E+03  0.17622771570E+03  0.10913697055E+04  0.46999998093E+01 0. -1.
       -5    1    3    3    0  502 -0.47970331668E+03  0.96431025315E+03 -0.87441455107E+03  0.13873112245E+04  0.46999998093E+01 0.  1.
</event>
<event>
 5   0  0.1562618E-06  0.2348843E+04  0.7818609E-02  0.8458908E-01
       -1   -1    0    0    0  501  0.00000000000E+00  0.00000000000E+00  0.65290693033E+03  0.65290693035E+03  0.50400001928E-02 0.  1.
        1   -1    0    0  501    0  0.00000000000E+00  0.00000000000E+00 -0.21125007598E+04  0.21125007598E+04  0.50400001928E-02 0. -1.
    10030    2    1    2    0    0  0.00000000000E+00  0.00000000000E+00 -0.14595938295E+04  0.27654076902E+04  0.23488434486E+04 0.  0.
        2    1    3    3  502    0 -0.88626963344E+03 -0.27636970191E+03 -0.15766800284E+04  0.18296923204E+04  0.25500000920E-02 0. -1.
       -2    1    3    3    0  502  0.88626963344E+03  0.27636970191E+03  0.11708619892E+03  0.93571536980E+03  0.25500000920E-02 0.  1.
</event>
<event>
 5   0  0.4173467E-06  0.3399698E+04  0.7818609E-02  0.8137981E-01
       -2   -1    0    0    0  501  0.00000000000E+00  0.00000000000E+00  0.11491135535E+04  0.11491135535E+04  0.25500000920E-02 0.  1.
        2   -1    0    0  501    0  0.00000000000E+00  0.00000000000E+00 -0.25145348085E+04  0.25145348085E+04  0.25500000920E-02 0. -1.
    10030    2    1    2    0    0  0.00000000000E+00  0.00000000000E+00 -0.13654212550E+04  0.36636483620E+04  0.33996976508E+04 0.  0.
        4    1    3    3  502    0 -0.33520505195E+03 -0.11985876934E+03  0.11084921042E+04  0.11642529405E+04  0.12699999809E+01 0.  1.
       -4    1    3    3    0  502  0.33520505195E+03  0.11985876934E+03 -0.24739133592E+04  0.24993954215E+04  0.12699999809E+01 0. -1.
</event>
<event>
 5   0  0.4400349E-06  0.3372021E+04  0.7818609E-02  0.8144808E-01
        2   -1    0    0  501    0  0.00000000000E+00  0.00000000000E+00  0.19431001457E+04  0.19431001457E+04  0.25500000920E-02 0.  1.
       -2   -1    0    0    0  501  0.00000000000E+00  0.00000000000E+00 -0.14629357558E+04  0.14629357558E+04  0.25500000920E-02 0. -1.
    10030    2    1    2    0    0  0.00000000000E+00  0.00000000000E+00  0.48016438988E+03  0.34060359014E+04  0.33720205694E+04 0.  0.
        5    1    3    3  502    0 -0.32439402811E+03  0.58405909513E+03  0.18036807392E+04  0.19234455571E+04  0.46999998093E+01 0.  1.
       -5    1    3    3    0  502  0.32439402811E+03 -0.58405909513E+03 -0.13235163494E+04  0.14825903443E+04  0.46999998093E+01 0. -1.
</event>
<event>
 5   0  0.2722449E-06  0.1984157E+04  0.7818609E-02  0.8614064E-01
        2   -1    0    0  501    0  0.00000000000E+00  0.00000000000E+00  0.15784260540E+04  0.15784260540E+04  0.25500000920E-02 0.  1.
       -2   -1    0    0    0  501  0.00000000000E+00  0.00000000000E+00 -0.62354531248E+03  0.62354531249E+03  0.25500000920E-02 0. -1.
    10030    2    1    2    0    0  0.00000000000E+00  0.00000000000E+00  0.95488074152E+03  0.22019713665E+04  0.19841574202E+04 0.  0.
        2    1    3    3  502    0  0.40273922987E+03 -0.87051518361E+03  0.19619445226E+03  0.97902391966E+03  0.25500000920E-02 0. -1.
       -2    1    3    3    0  502 -0.40273922987E+03  0.87051518361E+03  0.75868628926E+03  0.12229474468E+04  0.25500000920E-02 0.  1.
</event>
<event>
 5   0  0.1571391E-06  0.3409944E+04  0.7818609E-02  0.8135470E-01
        1   -1    0    0  501    0  0.00000000000E+00  0.00000000000E+00  0.18966079682E+04  0.18966079682E+04  0.50400001928E-02 0.  1.
       -1   -1    0    0    0  501  0.00000000000E+00  0.00000000000E+00 -0.15326995582E+04  0.15326995582E+04  0.50400001928E-02 0. -1.
    10030    2    1    2    0    0  0.00000000000E+00  0.00000000000E+00  0.36390841002E+03  0.34293075265E+04  0.34099443955E+04 0.  0.
        1    1    3    3  502    0  0.11045192949E+04  0.12166212765E+04  0.63928915713E+03  0.17631848541E+04  0.50400001928E-02 0.  1.
       -1    1    3    3    0  502 -0.11045192949E+04 -0.12166212765E+04 -0.27538074710E+03  0.16661226723E+04  0.50400001928E-02 0. -1.
</event>
<event>
 5   0  0.1562618E-06  0.1901341E+04  0.7818609E-02  0.8654189E-01
       -1   -1    0    0    0  501  0.00000000000E+00  0.00000000000E+00  0.66960465966E+03  0.66960465968E+03  0.50400001928E-02 0. -1.
        1   -1    0    0  501    0  0.00000000000E+00  0.00000000000E+00 -0.13497139594E+04  0.13497139594E+04  0.50400001928E-02 0.  1.
    10030    2    1    2    0    0  0.00000000000E+00  0.00000000000E+00 -0.68010929969E+03  0.20193186190E+04  0.19013413754E+04 0.  0.
        2    1    3    3  502    0  0.88963316743E+03 -0.37963268896E+02  0.13603639448E+02  0.89054670926E+03  0.25500000920E-02 0. -1.
       -2    1    3    3    0  502 -0.88963316743E+03  0.37963268896E+02 -0.69371293914E+03  0.11287719098E+04  0.25500000920E-02 0.  1.
</event>
<event>
 5   0  0.2722449E-06  0.3511162E+04  0.7818609E-02  0.8111150E-01
        2   -1    0    0  501    0  0.00000000000E+00  0.00000000000E+00  0.16821673234E+04  0.16821673234E+04  0.25500000920E-02 0.  1.
       -2   -1    0    0    0  501  0.00000000000E+00  0.00000000000E+00 -0.18321981534E+04  0.18321981534E+04  0.25500000920E-02 0. -1.
    10030    2    1    2    0    0  0.00000000000E+00  0.00000000000E+00 -0.15003082990E+03  0.35143654768E+04  0.35111615535E+04 0.  0.
        2    1    3    3  502    0  0.35839465781E+03  0.83886736840E+03  0.14263261955E+04  0.16930893681E+04  0.25500000920E-02 0.  1.
       -2    1    3    3    0  502 -0.35839465781E+03 -0.83886736840E+03 -0.15763570254E+04  0.18212761087E+04  0.25500000920E-02 0. -1.
</event>
<event>
 5   0  0.4400349E-06  0.3384290E+04  0.7818609E-02  0.8141773E-01
        2   -1    0    0  501    0  0.00000000000E+00  0.00000000000E+00  0.17932019809E+04  0.17932019809E+04  0.25500000920E-02 0. -1.
       -2   -1    0    0    0  501  0.00000000000E+00  0.00000000000E+00 -0.15967834657E+04  0.15967834657E+04  0.25500000920E-02 0.  1.
    10030    2    1    2    0    0  0.00000000000E+00  0.00000000000E+00  0.19641851518E+03  0.33899854466E+04  0.33842903385E+04 0.  0.
        5    1    3    3  502    0 -0.12016906017E+04  0.90049332674E+02  0.12881325448E+04  0.17639378468E+04  0.46999998093E+01 0. -1.
       -5    1    3    3    0  502  0.12016906017E+04 -0.90049332674E+02 -0.10917140296E+04  0.16260475998E+04  0.46999998093E+01 0.  1.
</event>
<event>
 5   0  0.1550164E-06  0.2877895E+04  0.7818609E-02  0.8279485E-01
        1   -1    0    0  501    0  0.00000000000E+00  0.00000000000E+00  0.24385537896E+04  0.24385537897E+04  0.50400001928E-02 0. -1.
       -1   -1    0    0    0  501  0.00000000000E+00  0.00000000000E+00 -0.84909729616E+03  0.84909729618E+03  0.50400001928E-02 0.  1.
    10030    2    1    2    0    0  0.00000000000E+00  0.00000000000E+00  0.15894564935E+04  0.32876510858E+04  0.28778946675E+04 0.  0.
        4    1    3    3  502    0 -0.53064051027E+03 -0.12845265983E+04  0.36884868603E+03  0.14379286836E+04  0.12699999809E+01 0. -1.
       -4    1    3    3    0  502  0.53064051027E+03  0.12845265983E+04  0.12206078075E+04  0.18497224023E+04  0.12699999809E+01 0.  1.
</event>
<event>
 5   0  0.1562618E-06  0.1928786E+04  0.7818609E-02  0.8640659E-01
       -1   -1    0    0    0  501  0.00000000000E+00  0.00000000000E+00  0.75939151604E+03  0.75939151606E+03  0.50400001928E-02 0.  1.
        1   -1    0    0  501    0  0.00000000000E+00  0.00000000000E+00 -0.12247352582E+04  0.12247352582E+04  0.50400001928E-02 0. -1.
    10030    2    1    2    0    0  0.00000000000E+00  0.00000000000E+00 -0.46534374218E+03  0.19841267743E+04  0.19287856952E+04 0.  0.
        2    1    3    3  502    0 -0.22176825930E+03  0.63767432886E+03  0.47574076117E+03  0.82591705538E+03  0.25500000920E-02 0.  1.
       -2    1    3    3    0  502  0.22176825930E+03 -0.63767432886E+03 -0.94108450335E+03  0.11582097189E+04  0.25500000920E-02 0. -1.
</event>
<event>
 5   0  0.4173467E-06  0.3172659E+04  0.7818609E-02  0.8196075E-01
       -2   -1    0    0    0  501  0.00000000000E+00  0.00000000000E+00  0.11229957087E+04  0.11229957087E+04  0.25500000920E-02 0. -1.
        2   -1    0    0  501    0  0.00000000000E+00  0.00000000000E+00 -0.22408290701E+04  0.22408290701E+04  0.25500000920E-02 0.  1.
    10030    2    1    2    0    0  0.00000000000E+00  0.00000000000E+00 -0.11178333613E+04  0.33638247788E+04  0.31726590927E+04 0.  0.
        4    1    3    3  502    0  0.23568920252E+03  0.15115368244E+04 -0.10039037496E+04  0.18297861414E+04  0.12699999809E+01 0. -1.
       -4    1    3    3    0  502 -0.23568920252E+03 -0.15115368244E+04 -0.11392961174E+03  0.15340386374E+04  0.12699999809E+01 0.  1.
</event>
<event>
 5   0  0.2101998E-06  0.3439001E+04  0.7818609E-02  0.8128400E-01
       -1   -1    0    0    0  501  0.00000000000E+00  0.00000000000E+00  0.14736022128E+04  0.14736022129E+04  0.50400001928E-02 0. -1.
        1   -1    0    0  501    0  0.00000000000E+00  0.00000000000E+00 -0.20064310019E+04  0.20064310019E+04  0.50400001928E-02 0.  1.
    10030    2    1    2    0    0  0.00000000000E+00  0.00000000000E+00 -0.53282878904E+03  0.34800332147E+04  0.34390005317E+04 0.  0.
        5    1    3    3  502    0 -0.85779230774E+03  0.84046994574E+03 -0.15117324752E+04  0.19306875820E+04  0.46999998093E+01 0.  1.
       -5    1    3    3    0  502  0.85779230774E+03 -0.84046994574E+03  0.97890368612E+03  0.15493456327E+04  0.46999998093E+01 0. -1.
</event>
<event>
 5   0  0.4173467E-06  0.3316173E+04  0.7818609E-02  0.8158792E-01
        2   -1    0    0  501    0  0.00000000000E+00  0.00000000000E+00  0.20411018307E+04  0.20411018307E+04  0.25500000920E-02 0.  1.
       -2   -1    0    0    0  501  0.00000000000E+00  0.00000000000E+00 -0.13469440873E+04  0.13469440873E+04  0.25500000920E-02 0. -1.
    10030    2    1    2    0    0  0.00000000000E+00  0.00000000000E+00  0.69415774343E+03  0.33880459179E+04  0.33161725180E+04 0.  0.
        4    1    3    3  502    0 -0.10466908895E+04  0.12076681689E+04  0.79849700803E+03  0.17865114914E+04  0.12699999809E+01 0.  1.
       -4    1    3    3    0  502  0.10466908895E+04 -0.12076681689E+04 -0.10433926460E+03  0.16015344265E+04  0.12699999809E+01 0. -1.
</event>
<event>
 5   0  0.2997639E-06  0.1843382E+04  0.7818609E-02  0.8683564E-01
       -2   -1    0    0    0  501  0.00000000000E+00  0.00000000000E+00  0.78487602314E+03  0.78487602314E+03  0.25500000920E-02 0. -1.
        2   -1    0    0  501    0  0.00000000000E+00  0.00000000000E+00 -0.10823545994E+04  0.10823545994E+04  0.25500000920E-02 0.  1.
    10030    2    1    2    0    0  0.00000000000E+00  0.00000000000E+00 -0.29747857623E+03  0.18672306225E+04  0.18433818634E+04 0.  0.
        2    1    3    3  502    0 -0.65563695825E+03 -0.56606838107E+02  0.50493905057E+03  0.82947429131E+03  0.25500000920E-02 0. -1.
       -2    1    3    3    0  502  0.65563695825E+03  0.56606838107E+02 -0.80241762680E+03  0.10377563312E+04  0.25500000920E-02 0.  1.
</event>
<event>
 5   0  0.4344980E-06  0.2465514E+04  0.7818609E-02  0.8415376E-01
        2   -1    0    0  501    0  0.00000000000E+00  0.00000000000E+00  0.10561617534E+04  0.10561617534E+04  0.25500000920E-02 0.  1.
       -2   -1    0    0    0  501  0.00000000000E+00  0.00000000000E+00 -0.14388792834E+04  0.14388792834E+04  0.25500000920E-02 0. -1.
    10030    2    1    2    0    0  0.00000000000E+00  0.00000000000E+00 -0.38271752997E+03  0.24950410369E+04  0.24655135505E+04 0.  0.
        3    1    3    3  502    0 -0.62774387625E+03 -0.59024748948E+03  0.70080876545E+03  0.11106698019E+04  0.10100000352E+00 0.  1.
       -3    1    3    3    0  502  0.62774387625E+03  0.59024748948E+03 -0.10835262954E+04  0.13843712349E+04  0.10100000352E+00 0. -1.
</event>
<event>
 5   0  0.1562618E-06  0.3458194E+04  0.7818609E-02  0.8123769E-01
       -1   -1    0    0    0  501  0.00000000000E+00  0.00000000000E+00  0.16173626608E+04  0.16173626608E+04  0.50400001928E-02 0.  1.
        1   -1    0    0  501    0  0.00000000000E+00  0.00000000000E+00 -0.18485509312E+04  0.18485509312E+04  0.50400001928E-02 0. -1.
    10030    2    1    2    0    0  0.00000000000E+00  0.00000000000E+00 -0.23118827041E+03  0.34659135920E+04  0.34581944727E+04 0.  0.
        2    1    3    3  502    0 -0.15398859629E+04  0.77962010664E+03 -0.21936733891E+03  0.17398788230E+04  0.25500000920E-02 0. -1.
       -2    1    3    3    0  502  0.15398859629E+04 -0.77962010664E+03 -0.11820931495E+02  0.17260347690E+04  0.25500000920E-02 0.  1.
</event>
<event>
 5   0  0.1550164E-06  0.1770628E+04  0.7818609E-02  0.8722077E-01
        1   -1    0    0  501    0  0.00000000000E+00  0.00000000000E+00  0.68350409457E+03  0.68350409459E+03  0.50400001928E-02 0.  1.
       -1   -1    0    0    0  501  0.00000000000E+00  0.00000000000E+00 -0.11467097760E+04  0.11467097760E+04  0.50400001928E-02 0. -1.
    10030    2    1    2    0    0  0.00000000000E+00  0.00000000000E+00 -0.46320568146E+03  0.18302138706E+04  0.17706279420E+04 0.  0.
        4    1    3    3  502    0  0.46273289233E+03 -0.60516051749E+03  0.23461706928E+03  0.79711213995E+03  0.12699999809E+01 0.  1.
       -4    1    3    3    0  502 -0.46273289233E+03  0.60516051749E+03 -0.69782275074E+03  0.10331017307E+04  0.12699999809E+01 0. -1.
</event>
<event>
 5   0  0.2101998E-06  0.3431221E+04  0.7818609E-02  0.8130286E-01
        1   -1    0    0  501    0  0.00000000000E+00  0.00000000000E+00  0.22029871264E+04  0.22029871264E+04  0.50400001928E-02 0.  1.
       -1   -1    0    0    0  501  0.00000000000E+00  0.00000000000E+00 -0.13360580767E+04  0.13360580767E+04  0.50400001928E-02 0. -1.
    10030    2    1    2    0    0  0.00000000000E+00  0.00000000000E+00  0.86692904967E+03  0.35390452031E+04  0.34312206243E+04 0.  0.
        5    1    3    3  502    0  0.85641757883E+03 -0.64217409884E+02 -0.10983734259E+04  0.13942816135E+04  0.46999998093E+01 0. -1.
       -5    1    3    3    0  502 -0.85641757883E+03  0.64217409884E+02  0.19653024755E+04  0.21447635896E+04  0.46999998093E+01 0.  1.
</event>
<event>
 5   0  0.4189587E-06  0.3663039E+04  0.7818609E-02  0.8076202E-01
       -2   -1    0    0    0  501  0.00000000000E+00  0.00000000000E+00  0.15490281544E+04  0.15490281544E+04  0.25500000920E-02 0.  1.
        2   -1    0    0  501    0  0.00000000000E+00  0.00000000000E+00 -0.21655284651E+04  0.21655284651E+04  0.25500000920E-02 0. -1.
    10030    2    1    2    0    0  0.00000000000E+00  0.00000000000E+00 -0.61650031072E+03  0.37145566195E+04  0.36630394820E+04 0.  0.
        1    1    3    3  502    0  0.22068861115E+03  0.11059876195E+04 -0.17716511989E+04  0.21001571485E+04  0.50400001928E-02 0. -1.
       -1    1    3    3    0  502 -0.22068861115E+03 -0.11059876195E+04  0.11551508882E+04  0.16143994710E+04  0.50400001928E-02 0.  1.
</event>
<event>
 5   0  0.4400349E-06  0.3456907E+04  0.7818609E-02  0.8124079E-01
       -2   -1    0    0    0  501  0.00000000000E+00  0.00000000000E+00  0.11287292270E+04  0.11287292270E+04  0.25500000920E-02 0.  1.
        2   -1    0    0  501    0  0.00000000000E+00  0.00000000000E+00 -0.26468278628E+04  0.26468278628E+04  0.25500000920E-02 0. -1.
    10030    2    1    2    0    0  0.00000000000E+00  0.00000000000E+00 -0.15180986358E+04  0.37755570897E+04  0.34569072695E+04 0.  0.
        5    1    3    3  502    0  0.85100307726E+03 -0.13527845072E+04 -0.14779791616E+04  0.21768501677E+04  0.46999998093E+01 0.  1.
       -5    1    3    3    0  502 -0.85100307726E+03  0.13527845072E+04 -0.40119474242E+02  0.15987069221E+04  0.46999998093E+01 0. -1.
</event>
<event>
 5   0  0.2722449E-06  0.2324418E+04  0.7818609E-02  0.8468355E-01
       -2   -1    0    0    0  501  0.00000000000E+00  0.00000000000E+00  0.90958237419E+03  0.90958237420E+03  0.25500000920E-02 0.  1.
        2   -1    0    0  501    0  0.00000000000E+00  0.00000000000E+00 -0.14850004658E+04  0.14850004658E+04  0.25500000920E-02 0. -1.
    10030    2    1    2    0    0  0.00000000000E+00  0.00000000000E+00 -0.57541809157E+03  0.23945828400E+04  0.23244184213E+04 0.  0.
        2    1    3    3  502    0 -0.71804625936E+03 -0.37660261770E+03  0.57007779482E+03  0.99116530124E+03  0.25500000920E-02 0.  1.
       -2    1    3    3    0  502  0.71804625936E+03  0.37660261770E+03 -0.11454958864E+04  0.14034175387E+04  0.25500000920E-02 0. -1.
</event>
<event>
 5   0  0.2101998E-06  0.3423313E+04  0.7818609E-02  0.8132208E-01
       -1   -1    0    0    0  501  0.00000000000E+00  0.00000000000E+00  0.21557710547E+04  0.21557710547E+04  0.50400001928E-02 0. -1.
        1   -1    0    0  501    0  0.00000000000E+00  0.00000000000E+00 -0.13590347218E+04  0.13590347218E+04  0.50400001928E-02 0.  1.
    10030    2    1    2    0    0  0.00000000000E+00  0.00000000000E+00  0.79673633294E+03  0.35148057765E+04  0.34233128490E+04 0.  0.
        5    1    3    3  502    0  0.40175188508E+03  0.38027767288E+03 -0.12647162989E+04  0.13804148262E+04  0.46999998093E+01 0.  1.
       -5    1    3    3    0  502 -0.40175188508E+03 -0.38027767288E+03  0.20614526318E+04  0.21343909503E+04  0.46999998093E+01 0. -1.
</event>
<event>
 5   0  0.1571391E-06  0.3474472E+04  0.7818609E-02  0.8119867E-01
       -1   -1    0    0    0  501  0.00000000000E+00  0.00000000000E+00  0.21115397081E+04  0.21115397081E+04  0.50400001928E-02 0.  1.
        1   -1    0    0  501    0  0.00000000000E+00  0.00000000000E+00 -0.14292834339E+04  0.14292834339E+04  0.50400001928E-02 0. -1.
    10030    2    1    2    0    0  0.00000000000E+00  0.00000000000E+00  0.68225627422E+03  0.35408231420E+04  0.34744718878E+04 0.  0.
        1    1    3    3  502    0  0.58494753104E+03 -0.10887877583E+04 -0.90299093532E+03  0.15306910289E+04  0.50400001928E-02 0. -1.
       -1    1    3    3    0  502 -0.58494753104E+03  0.10887877583E+04  0.15852472095E+04  0.20101321131E+04  0.50400001928E-02 0.  1.
</event>
<event>
 5   0  0.4400349E-06  0.2847640E+04  0.7818609E-02  0.8288629E-01
        2   -1    0    0  501    0  0.00000000000E+00  0.00000000000E+00  0.16348124954E+04  0.16348124954E+04  0.25500000920E-02 0. -1.
       -2   -1    0    0    0  501  0.00000000000E+00  0.00000000000E+00 -0.12400589671E+04  0.12400589671E+04  0.25500000920E-02 0.  1.
    10030    2    1    2    0    0  0.00000000000E+00  0.00000000000E+00  0.39475352832E+03  0.28748714625E+04  0.28476403526E+04 0.  0.
        5    1    3    3  502    0 -0.71377294537E+03 -0.39939014501E+03 -0.97921105806E+03  0.12758764406E+04  0.46999998093E+01 0.  1.
       -5    1    3    3    0  502  0.71377294537E+03  0.39939014501E+03  0.13739645864E+04  0.15989950219E+04  0.46999998093E+01 0. -1.
</event>
<event>
 5   0  0.1562618E-06  0.3492435E+04  0.7818609E-02  0.8115585E-01
        1   -1    0    0  501    0  0.00000000000E+00  0.00000000000E+00  0.20715329789E+04  0.20715329789E+04  0.50400001928E-02 0. -1.
       -1   -1    0    0    0  501  0.00000000000E+00  0.00000000000E+00 -0.14719901977E+04  0.14719901977E+04  0.50400001928E-02 0.  1.
    10030    2    1    2    0    0  0.00000000000E+00  0.00000000000E+00  0.59954278124E+03  0.35435231766E+04  0.34924353905E+04 0.  0.
        2    1    3    3  502    0  0.89534747692E+03 -0.13354642353E+04 -0.39149082083E+03  0.16548041851E+04  0.25500000920E-02 0.  1.
       -2    1    3    3    0  502 -0.89534747692E+03  0.13354642353E+04  0.99103360207E+03  0.18887189915E+04  0.25500000920E-02 0. -1.
</event>
<event>
 5   0  0.1654257E-06  0.3436063E+04  0.7818609E-02  0.8129111E-01
       -1   -1    0    0    0  501  0.00000000000E+00  0.00000000000E+00  0.13678109531E+04  0.13678109531E+04  0.50400001928E-02 0. -1.
        1   -1    0    0  501    0  0.00000000000E+00  0.00000000000E+00 -0.21579247319E+04  0.21579247319E+04  0.50400001928E-02 0.  1.
    10030    2    1    2    0    0  0.00000000000E+00  0.00000000000E+00 -0.79011377879E+03  0.35257356850E+04  0.34360634943E+04 0.  0.
        3    1    3    3  502    0 -0.62142424806E+03  0.77540351769E+03 -0.18331367755E+04  0.20851400814E+04  0.10100000352E+00 0.  1.
       -3    1    3    3    0  502  0.62142424806E+03 -0.77540351769E+03  0.10430229967E+04  0.14405956036E+04  0.10100000352E+00 0. -1.
</event>
<event>
 5   0  0.4173467E-06  0.3183376E+04  0.7818609E-02  0.8193221E-01
       -2   -1    0    0    0  501  0.00000000000E+00  0.00000000000E+00  0.19667129519E+04  0.19667129519E+04  0.25500000920E-02 0.  1.
        2   -1    0    0  501    0  0.00000000000E+00  0.00000000000E+00 -0.12881749413E+04  0.12881749413E+04  0.25500000920E-02 0. -1.
    10030    2    1    2    0    0  0.00000000000E+00  0.00000000000E+00  0.67853801067E+03  0.32548878932E+04  0.31833757814E+04 0.  0.
        4    1    3    3  502    0 -0.77044311160E+02  0.14930366373E+03 -0.12790827006E+04  0.12900703770E+04  0.12699999809E+01 0. -1.
       -4    1    3    3    0  502  0.77044311160E+02 -0.14930366373E+03  0.19576207112E+04  0.19648175162E+04  0.12699999809E+01 0.  1.
</event>
<event>
 5   0  0.1562618E-06  0.1943192E+04  0.7818609E-02  0.8633651E-01
        1   -1    0    0  501    0  0.00000000000E+00  0.00000000000E+00  0.18385314366E+04  0.18385314366E+04  0.50400001928E-02 0.  1.
       -1   -1    0    0    0  501  0.00000000000E+00  0.00000000000E+00 -0.51345259126E+03  0.51345259129E+03  0.50400001928E-02 0. -1.
    10030    2    1    2    0    0  0.00000000000E+00  0.00000000000E+00  0.13250788454E+04  0.23519840279E+04  0.19431919414E+04 0.  0.
        2    1    3    3  502    0 -0.48504609720E+02 -0.36725064455E+01  0.18370566678E+04  0.18377005700E+04  0.25500000920E-02 0.  1.
       -2    1    3    3    0  502  0.48504609720E+02  0.36725064455E+01 -0.51197782238E+03  0.51428345792E+03  0.25500000920E-02 0. -1.
</event>
<event>
 5   0  0.1550164E-06  0.3410922E+04  0.7818609E-02  0.8135231E-01
       -1   -1    0    0    0  501  0.00000000000E+00  0.00000000000E+00  0.17381121279E+04  0.17381121279E+04  0.50400001928E-02 0.  1.
        1   -1    0    0  501    0  0.00000000000E+00  0.00000000000E+00 -0.16734233681E+04  0.16734233681E+04  0.50400001928E-02 0. -1.
    10030    2    1    2    0    0  0.00000000000E+00  0.00000000000E+00  0.64688759836E+02  0.34115354960E+04  0.34109221341E+04 0.  0.
        4    1    3    3  502    0 -0.16764944315E+04  0.38341849101E+02  0.34303211435E+03  0.17116589381E+04  0.12699999809E+01 0.  1.
       -4    1    3    3    0  502  0.16764944315E+04 -0.38341849101E+02 -0.27834335452E+03  0.16998765579E+04  0.12699999809E+01 0. -1.
</event>
<event>
 5   0  0.4173467E-06  0.1930036E+04  0.7818609E-02  0.8640048E-01
        2   -1    0    0  501    0  0.00000000000E+00  0.00000000000E+00  0.10593803808E+04  0.10593803808E+04  0.25500000920E-02 0.  1.
       -2   -1    0    0    0  501  0.00000000000E+00  0.00000000000E+00 -0.87906086501E+03  0.87906086501E+03  0.25500000920E-02 0. -1.
    10030    2    1    2    0    0  0.00000000000E+00  0.00000000000E+00  0.18031951583E+03  0.19384412459E+04  0.19300360970E+04 0.  0.
        4    1    3    3  502    0  0.19464775153E+03  0.46605485519E+03  0.91603229121E+03  0.10460457192E+04  0.12699999809E+01 0.  1.
       -4    1    3    3    0  502 -0.19464775153E+03 -0.46605485519E+03 -0.73571277539E+03  0.89239552665E+03  0.12699999809E+01 0. -1.
</event>
<event>
 5   0  0.2101998E-06  0.3305735E+04  0.7818609E-02  0.8161438E-01
       -1   -1    0    0    0  501  0.00000000000E+00  0.00000000000E+00  0.11795926207E+04  0.11795926207E+04  0.50400001928E-02 0. -1.
        1   -1    0    0  501    0  0.00000000000E+00  0.00000000000E+00 -0.23160287372E+04  0.23160287372E+04  0.50400001928E-02 0.  1.
    10030    2    1    2    0    0  0.00000000000E+00  0.00000000000E+00 -0.11364361165E+04  0.34956213579E+04  0.33057346583E+04 0.  0.
        5    1    3    3  502    0 -0.74992490730E+01  0.27444844526E+03 -0.22917408692E+04  0.23081326845E+04  0.46999998093E+01 0.  1.
       -5    1    3    3    0  502  0.74992490730E+01 -0.27444844526E+03  0.11553047527E+04  0.11874886734E+04  0.46999998093E+01 0. -1.
</event>
<event>
 5   0  0.2101998E-06  0.2919831E+04  0.7818609E-02  0.8267001E-01
       -1   -1    0    0    0  501  0.00000000000E+00  0.00000000000E+00  0.15340403128E+04  0.15340403128E+04  0.50400001928E-02 0. -1.
        1   -1    0    0  501    0  0.00000000000E+00  0.00000000000E+00 -0.13893725414E+04  0.13893725415E+04  0.50400001928E-02 0.  1.
    10030    2    1    2    0    0  0.00000000000E+00  0.00000000000E+00  0.14466777131E+03  0.29234128542E+04  0.29198311513E+04 0.  0.
        5    1    3    3  502    0  0.69657767160E+03 -0.77430373357E+03 -0.95193846658E+03  0.14110193686E+04  0.46999998093E+01 0.  1.
       -5    1    3    3    0  502 -0.69657767160E+03  0.77430373357E+03  0.10966062379E+04  0.15123934856E+04  0.46999998093E+01 0. -1.
</event>
<event>
 5   0  0.1562618E-06  0.1918753E+04  0.7818609E-02  0.8645578E-01
       -1   -1    0    0    0  501  0.00000000000E+00  0.00000000000E+00  0.10394540208E+04  0.10394540208E+04  0.50400001928E-02 0. -1.
        1   -1    0    0  501    0  0.00000000000E+00  0.00000000000E+00 -0.88546778564E+03  0.88546778565E+03  0.50400001928E-02 0.  1.
    10030    2    1    2    0    0  0.00000000000E+00  0.00000000000E+00  0.15398623520E+03  0.19249218065E+04  0.19187527721E+04 0.  0.
        2    1    3    3  502    0  0.33009748083E+03 -0.74447897329E+03 -0.43177619734E+03  0.92176134282E+03  0.25500000920E-02 0.  1.
       -2    1    3    3    0  502 -0.33009748083E+03  0.74447897329E+03  0.58576243253E+03  0.10031604637E+04  0.25500000920E-02 0. -1.
</event>
<event>
 5   0  0.4173467E-06  0.2356569E+04  0.7818609E-02  0.8455945E-01
        2   -1    0    0  501    0  0.00000000000E+00  0.00000000000E+00  0.21632811152E+04  0.21632811152E+04  0.25500000920E-02 0. -1.
       -2   -1    0    0    0  501  0.00000000000E+00  0.00000000000E+00 -0.64178160603E+03  0.64178160604E+03  0.25500000920E-02 0.  1.
    10030    2    1    2    0    0  0.00000000000E+00  0.00000000000E+00  0.15214995091E+04  0.28050627212E+04  0.23565687161E+04 0.  0.
        4    1    3    3  502    0 -0.22927242940E+03  0.65675006493E+03  0.18927814127E+04  0.20165588471E+04  0.12699999809E+01 0. -1.
       -4    1    3    3    0  502  0.22927242940E+03 -0.65675006493E+03 -0.37128190356E+03  0.78850387411E+03  0.12699999809E+01 0.  1.
</event>
<event>
 5   0  0.1562618E-06  0.3396224E+04  0.7818609E-02  0.8138834E-01
        1   -1    0    0  501    0  0.00000000000E+00  0.00000000000E+00  0.13571286465E+04  0.13571286465E+04  0.50400001928E-02 0. -1.
       -1   -1    0    0    0  501  0.00000000000E+00  0.00000000000E+00 -0.21247687863E+04  0.21247687864E+04  0.50400001928E-02 0.  1.
    10030    2    1    2    0    0  0.00000000000E+00  0.00000000000E+00 -0.76764013981E+03  0.34818974329E+04  0.33962241311E+04 0.  0.
        2    1    3    3  502    0 -0.12582299437E+04  0.80321690607E+03 -0.12137369738E+04  0.19239172100E+04  0.25500000920E-02 0.  1.
       -2    1    3    3    0  502  0.12582299437E+04 -0.80321690607E+03  0.44609683398E+03  0.15579802229E+04  0.25500000920E-02 0. -1.
</event>
<event>
 5   0  0.4189587E-06  0.3397250E+04  0.7818609E-02  0.8138582E-01
        2   -1    0    0  501    0  0.00000000000E+00  0.00000000000E+00  0.19297868217E+04  0.19297868217E+04  0.25500000920E-02 0.  1.
       -2   -1    0    0    0  501  0.00000000000E+00  0.00000000000E+00 -0.14951531448E+04  0.14951531448E+04  0.25500000920E-02 0. -1.
    10030    2    1    2    0    0  0.00000000000E+00  0.00000000000E+00  0.43463367683E+03  0.34249399665E+04  0.33972499674E+04 0.  0.
        1    1    3    3  502    0 -0.12644772790E+04 -0.40520316639E+03 -0.85067333454E+03  0.15769392878E+04  0.50400001928E-02 0. -1.
       -1    1    3    3    0  502  0.12644772790E+04  0.40520316639E+03  0.12853070114E+04  0.18480006787E+04  0.50400001928E-02 0.  1.
</event>
<event>
 5   0  0.4189587E-06  0.3366380E+04  0.7818609E-02  0.8146207E-01
        2   -1    0    0  501    0  0.00000000000E+00  0.00000000000E+00  0.23205508544E+04  0.23205508544E+04  0.25500000920E-02 0. -1.
       -2   -1    0    0    0  501  0.00000000000E+00  0.00000000000E+00 -0.12208862911E+04  0.12208862911E+04  0.25500000920E-02 0.  1.
    10030    2    1    2    0    0  0.00000000000E+00  0.00000000000E+00  0.10996645633E+04  0.35414371456E+04  0.33663800891E+04 0.  0.
        1    1    3    3  502    0  0.68347677206E+03 -0.10568414564E+04  0.17255702313E+04  0.21358012513E+04  0.50400001928E-02 0. -1.
       -1    1    3    3    0  502 -0.68347677206E+03  0.10568414564E+04 -0.62590566800E+03  0.14056358943E+04  0.50400001928E-02 0.  1.
</event>
<event>
 5   0  0.4189587E-06  0.3432435E+04  0.7818609E-02  0.8129991E-01
        2   -1    0    0  501    0  0.00000000000E+00  0.00000000000E+00  0.13583654506E+04  0.13583654506E+04  0.25500000920E-02 0.  1.
       -2   -1    0    0    0  501  0.00000000000E+00  0.00000000000E+00 -0.21683431436E+04  0.21683431436E+04  0.25500000920E-02 0. -1.
    10030    2    1    2    0    0  0.00000000000E+00  0.00000000000E+00 -0.80997769305E+03  0.35267085942E+04  0.34324349441E+04 0.  0.
        1    1    3    3  502    0 -0.14624415992E+04 -0.42628687454E+03 -0.12172368918E+04  0.19499029672E+04  0.50400001928E-02 0. -1.
       -1    1    3    3    0  502  0.14624415992E+04  0.42628687454E+03  0.40725919874E+03  0.15768056271E+04  0.50400001928E-02 0.  1.
</event>
<event>
 5   0  0.1550164E-06  0.1793367E+04  0.7818609E-02  0.8709835E-01
       -1   -1    0    0    0  501  0.00000000000E+00  0.00000000000E+00  0.69471970799E+03  0.69471970800E+03  0.50400001928E-02 0. -1.
        1   -1    0    0  501    0  0.00000000000E+00  0.00000000000E+00 -0.11573607394E+04  0.11573607394E+04  0.50400001928E-02 0.  1.
    10030    2    1    2    0    0  0.00000000000E+00  0.00000000000E+00 -0.46264103144E+03  0.18520804474E+04  0.17933670176E+04 0.  0.
        4    1    3    3  502    0  0.56565756358E+03  0.30451764677E+03 -0.87737316860E+03  0.10874211541E+04  0.12699999809E+01 0.  1.
       -4    1    3    3    0  502 -0.56565756358E+03 -0.30451764677E+03  0.41473213717E+03  0.76465929337E+03  0.12699999809E+01 0. -1.
</event>
<event>
 5   0  0.1654257E-06  0.3378274E+04  0.7818609E-02  0.8143259E-01
       -1   -1    0    0    0  501  0.00000000000E+00  0.00000000000E+00  0.10914100308E+04  0.10914100309E+04  0.50400001928E-02 0. -1.
        1   -1    0    0  501    0  0.00000000000E+00  0.00000000000E+00 -0.26142174946E+04  0.26142174946E+04  0.50400001928E-02 0.  1.
    10030    2    1    2    0    0  0.00000000000E+00  0.00000000000E+00 -0.15228074638E+04  0.37056275255E+04  0.33782736399E+04 0.  0.
        3    1    3    3  502    0 -0.13803278663E+04 -0.96044209289E+03 -0.93632108427E+03  0.19246950967E+04  0.10100000352E+00 0.  1.
       -3    1    3    3    0  502  0.13803278663E+04  0.96044209289E+03 -0.58648637949E+03  0.17809324288E+04  0.10100000352E+00 0. -1.
</event>
<event>
 5   0  0.4189587E-06  0.3380596E+04  0.7818609E-02  0.8142685E-01
       -2   -1    0    0    0  501  0.00000000000E+00  0.00000000000E+00  0.10907595978E+04  0.10907595978E+04  0.25500000920E-02 0.  1.
        2   -1    0    0  501    0  0.00000000000E+00  0.00000000000E+00 -0.26193738324E+04  0.26193738324E+04  0.25500000920E-02 0. -1.
    10030    2    1    2    0    0  0.00000000000E+00  0.00000000000E+00 -0.15286142346E+04  0.37101334302E+04  0.33805958930E+04 0.  0.
        1    1    3    3  502    0 -0.30255002818E+03  0.94672473000E+03 -0.22647994736E+04  0.24732854444E+04  0.50400001928E-02 0. -1.
       -1    1    3    3    0  502  0.30255002818E+03 -0.94672473000E+03  0.73618523899E+03  0.12368479858E+04  0.50400001928E-02 0.  1.
</event>
<event>
 5   0  0.1654257E-06  0.3033253E+04  0.7818609E-02  0.8234298E-01
        1   -1    0    0  501    0  0.00000000000E+00  0.00000000000E+00  0.21614994865E+04  0.21614994866E+04  0.50400001928E-02 0. -1.
       -1   -1    0    0    0  501  0.00000000000E+00  0.00000000000E+00 -0.10641484946E+04  0.10641484946E+04  0.50400001928E-02 0.  1.
    10030    2    1    2    0    0  0.00000000000E+00  0.00000000000E+00  0.10973509919E+04  0.32256479812E+04  0.30332533193E+04 0.  0.
        3    1    3    3  502    0 -0.11311781619E+04 -0.16522505019E+03  0.16085318074E+04  0.19733823595E+04  0.10100000352E+00 0. -1.
       -3    1    3    3    0  502  0.11311781619E+04  0.16522505019E+03 -0.51118081546E+03  0.12522656217E+04  0.10100000352E+00 0.  1.
</event>
<event>
 5   0  0.2722449E-06  0.3197779E+04  0.7818609E-02  0.8189404E-01
       -2   -1    0    0    0  501  0.00000000000E+00  0.00000000000E+00  0.19396317722E+04  0.19396317722E+04  0.25500000920E-02 0.  1.
        2   -1    0    0  501    0  0.00000000000E+00  0.00000000000E+00 -0.13180063851E+04  0.13180063851E+04  0.25500000920E-02 0. -1.
    10030    2    1    2    0    0  0.00000000000E+00  0.00000000000E+00  0.62162538708E+03  0.32576381573E+04  0.31977786418E+04 0.  0.
        2    1    3    3  502    0 -0.97662748213E+02  0.93842172027E+03 -0.10041929559E+04  0.13778885405E+04  0.25500000920E-02 0. -1.
       -2    1    3    3    0  502  0.97662748213E+02 -0.93842172027E+03  0.16258183430E+04  0.18797496168E+04  0.25500000920E-02 0.  1.
</event>
<event>
 5   0  0.1571391E-06  0.3358510E+04  0.7818609E-02  0.8148165E-01
       -1   -1    0    0    0  501  0.00000000000E+00  0.00000000000E+00  0.13217824914E+04  0.13217824914E+04  0.50400001928E-02 0.  1.
        1   -1    0    0  501    0  0.00000000000E+00  0.00000000000E+00 -0.21334051480E+04  0.21334051480E+04  0.50400001928E-02 0. -1.
    10030    2    1    2    0    0  0.00000000000E+00  0.00000000000E+00 -0.81162265657E+03  0.34551876395E+04  0.33585101291E+04 0.  0.
        1    1    3    3  502    0 -0.77904592045E+03 -0.10516094795E+04 -0.14882888737E+04  0.19818675069E+04  0.50400001928E-02 0. -1.
       -1    1    3    3    0  502  0.77904592045E+03  0.10516094795E+04  0.67666621711E+03  0.14733201325E+04  0.50400001928E-02 0.  1.
</event>
<event>
 5   0  0.1571391E-06  0.3335853E+04  0.7818609E-02  0.8153832E-01
        1   -1    0    0  501    0  0.00000000000E+00  0.00000000000E+00  0.12167852525E+04  0.12167852525E+04  0.50400001928E-02 0. -1.
       -1   -1    0    0    0  501  0.00000000000E+00  0.00000000000E+00 -0.22863352063E+04  0.22863352063E+04  0.50400001928E-02 0.  1.
    10030    2    1    2    0    0  0.00000000000E+00  0.00000000000E+00 -0.10695499537E+04  0.35031204588E+04  0.33358530911E+04 0.  0.
        1    1    3    3  502    0 -0.57634394835E+03 -0.15575221503E+04 -0.69722953337E+03  0.18011597980E+04  0.50400001928E-02 0.  1.
       -1    1    3    3    0  502  0.57634394835E+03  0.15575221503E+04 -0.37232042038E+03  0.17019606608E+04  0.50400001928E-02 0. -1.
</event>
<event>
 5   0  0.1562618E-06  0.3284012E+04  0.7818609E-02  0.8166976E-01
       -1   -1    0    0    0  501  0.00000000000E+00  0.00000000000E+00  0.15933563058E+04  0.15933563058E+04  0.50400001928E-02 0.  1.
        1   -1    0    0  501    0  0.00000000000E+00  0.00000000000E+00 -0.16921406852E+04  0.16921406853E+04  0.50400001928E-02 0. -1.
    10030    2    1    2    0    0  0.00000000000E+00  0.00000000000E+00 -0.98784379453E+02  0.32854969910E+04  0.32840115902E+04 0.  0.
        2    1    3    3  502    0 -0.16333040032E+03 -0.87238124138E+03 -0.14314862572E+04  0.16843036408E+04  0.25500000920E-02 0. -1.
       -2    1    3    3    0  502  0.16333040032E+03  0.87238124138E+03  0.13327018777E+04  0.16011933502E+04  0.25500000920E-02 0.  1.
</event>
<event>
 5   0  0.2722449E-06  0.3529368E+04  0.7818609E-02  0.8106865E-01
       -2   -1    0    0    0  501  0.00000000000E+00  0.00000000000E+00  0.21975261482E+04  0.21975261482E+04  0.25500000920E-02 0. -1.
        2   -1    0    0  501    0  0.00000000000E+00  0.00000000000E+00 -0.14170979533E+04  0.14170979533E+04  0.25500000920E-02 0.  1.
    10030    2    1    2    0    0  0.00000000000E+00  0.00000000000E+00  0.78042819494E+03  0.36146241015E+04  0.35293681060E+04 0.  0.
        2    1    3    3  502    0  0.44782108394E+03 -0.18875795232E+03 -0.13472137910E+04  0.14321865404E+04  0.25500000920E-02 0.  1.
       -2    1    3    3    0  502 -0.44782108394E+03  0.18875795232E+03  0.21276419860E+04  0.21824375611E+04  0.25500000920E-02 0. -1.
</event>
<event>
 5   0  0.1654257E-06  0.3237557E+04  0.7818609E-02  0.8178968E-01
       -1   -1    0    0    0  501  0.00000000000E+00  0.00000000000E+00  0.11807077177E+04  0.11807077177E+04  0.50400001928E-02 0.  1.
        1   -1    0    0  501    0  0.00000000000E+00  0.00000000000E+00 -0.22193837751E+04  0.22193837751E+04  0.50400001928E-02 0. -1.
    10030    2    1    2    0    0  0.00000000000E+00  0.00000000000E+00 -0.10386760574E+04  0.34000914928E+04  0.32375568269E+04 0.  0.
        3    1    3    3  502    0  0.10472038383E+04 -0.85442796615E+03  0.41632172409E+03  0.14142159724E+04  0.10100000352E+00 0.  1.
       -3    1    3    3    0  502 -0.10472038383E+04  0.85442796615E+03 -0.14549977815E+04  0.19858755204E+04  0.10100000352E+00 0. -1.
</event>
<event>
 5   0  0.2101998E-06  0.3458159E+04  0.7818609E-02  0.8123778E-01
        1   -1    0    0  501    0  0.00000000000E+00  0.00000000000E+00  0.13013054737E+04  0.13013054737E+04  0.50400001928E-02 0.  1.
       -1   -1    0    0    0  501  0.00000000000E+00  0.00000000000E+00 -0.22974744791E+04  0.22974744791E+04  0.50400001928E-02 0. -1.
    10030    2    1    2    0    0  0.00000000000E+00  0.00000000000E+00 -0.99616900545E+03  0.35987799528E+04  0.34581591145E+04 0.  0.
        5    1    3    3  502    0 -0.14234554726E+04  0.62556194966E+03 -0.12852422539E+04  0.20172810852E+04  0.46999998093E+01 0. -1.
       -5    1    3    3    0  502  0.14234554726E+04 -0.62556194966E+03  0.28907324847E+03  0.15814988676E+04  0.46999998093E+01 0.  1.
</event>
<event>
 5   0  0.1562618E-06  0.2216771E+04  0.7818609E-02  0.8511480E-01
        1   -1    0    0  501    0  0.00000000000E+00  0.00000000000E+00  0.78476209399E+03  0.78476209401E+03  0.50400001928E-02 0.  1.
       -1   -1    0    0    0  501  0.00000000000E+00  0.00000000000E+00 -0.15654655713E+04  0.15654655713E+04  0.50400001928E-02 0. -1.
    10030    2    1    2    0    0  0.00000000000E+00  0.00000000000E+00 -0.78070347729E+03  0.23502276653E+04  0.22167706601E+04 0.  0.
        2    1    3    3  502    0  0.57573901305E+02 -0.82234674165E+03  0.39516458949E+03  0.91417939728E+03  0.25500000920E-02 0.  1.
       -2    1    3    3    0  502 -0.57573901305E+02  0.82234674165E+03 -0.11758680668E+04  0.14360482680E+04  0.25500000920E-02 0. -1.
</event>
<event>
 5   0  0.2722449E-06  0.3166583E+04  0.7818609E-02  0.8197699E-01
       -2   -1    0    0    0  501  0.00000000000E+00  0.00000000000E+00  0.18230281615E+04  0.18230281615E+04  0.25500000920E-02 0.  1.
        2   -1    0    0  501    0  0.00000000000E+00  0.00000000000E+00 -0.13750814048E+04  0.13750814048E+04  0.25500000920E-02 0. -1.
    10030    2    1    2    0    0  0.00000000000E+00  0.00000000000E+00  0.44794675676E+03  0.31981095663E+04  0.31665830956E+04 0.  0.
        2    1    3    3  502    0 -0.46461711004E+03 -0.96639312976E+03  0.14004864463E+04  0.17638443884E+04  0.25500000920E-02 0.  1.
       -2    1    3    3    0  502  0.46461711004E+03  0.96639312976E+03 -0.95253968958E+03  0.14342651779E+04  0.25500000920E-02 0. -1.
</event>
<event>
 5   0  0.2722449E-06  0.3265927E+04  0.7818609E-02  0.8171620E-01
        2   -1    0    0  501    0  0.00000000000E+00  0.00000000000E+00  0.19989288037E+04  0.19989288037E+04  0.25500000920E-02 0.  1.
       -2   -1    0    0    0  501  0.00000000000E+00  0.00000000000E+00 -0.13339997738E+04  0.13339997738E+04  0.25500000920E-02 0. -1.
    10030    2    1    2    0    0  0.00000000000E+00  0.00000000000E+00  0.66492902997E+03  0.33329285775E+04  0.32659274774E+04 0.  0.
        2    1    3    3  502    0 -0.63184428137E+03 -0.75083646056E+03  0.16644569392E+04  0.19322006854E+04  0.25500000920E-02 0.  1.
       -2    1    3    3    0  502  0.63184428137E+03  0.75083646056E+03 -0.99952790919E+03  0.14007278921E+04  0.25500000920E-02 0. -1.
</event>
<event>
 5   0  0.4173467E-06  0.3470027E+04  0.7818609E-02  0.8120930E-01
        2   -1    0    0  501    0  0.00000000000E+00  0.00000000000E+00  0.23448901399E+04  0.23448901399E+04  0.25500000920E-02 0. -1.
       -2   -1    0    0    0  501  0.00000000000E+00  0.00000000000E+00 -0.12837582072E+04  0.12837582072E+04  0.25500000920E-02 0.  1.
    10030    2    1    2    0    0  0.00000000000E+00  0.00000000000E+00  0.10611319328E+04  0.36286483471E+04  0.34700270673E+04 0.  0.
        4    1    3    3  502    0  0.19549122397E+03 -0.12089250736E+04 -0.75466181394E+03  0.14384827835E+04  0.12699999809E+01 0.  1.
       -4    1    3    3    0  502 -0.19549122397E+03  0.12089250736E+04  0.18157937467E+04  0.21901655635E+04  0.12699999809E+01 0. -1.
</event>
<event>
 5   0  0.1550164E-06  0.3367010E+04  0.7818609E-02  0.8146051E-01
       -1   -1    0    0    0  501  0.00000000000E+00  0.00000000000E+00  0.26764256093E+04  0.26764256093E+04  0.50400001928E-02 0.  1.
        1   -1    0    0  501    0  0.00000000000E+00  0.00000000000E+00 -0.10589455323E+04  0.10589455323E+04  0.50400001928E-02 0. -1.
    10030    2    1    2    0    0  0.00000000000E+00  0.00000000000E+00  0.16174800770E+04  0.37353711416E+04  0.33670099147E+04 0.  0.
        4    1    3    3  502    0  0.15689017860E+04 -0.39921366905E+03  0.13211869486E+04  0.20895839140E+04  0.12699999809E+01 0.  1.
       -4    1    3    3    0  502 -0.15689017860E+04  0.39921366905E+03  0.29629312841E+03  0.16457872276E+04  0.12699999809E+01 0. -1.
</event>
<event>
 5   0  0.2722449E-06  0.2128847E+04  0.7818609E-02  0.8548641E-01
        2   -1    0    0  501    0  0.00000000000E+00  0.00000000000E+00  0.17902307849E+04  0.17902307849E+04  0.25500000920E-02 0.  1.
       -2   -1    0    0    0  501  0.00000000000E+00  0.00000000000E+00 -0.63287791951E+03  0.63287791951E+03  0.25500000920E-02 0. -1.
    10030    2    1    2    0    0  0.00000000000E+00  0.00000000000E+00  0.11573528654E+04  0.24231087044E+04  0.21288471383E+04 0.  0.
        2    1    3    3  502    0  0.93022843820E+01 -0.83070452640E+02  0.17864891598E+04  0.17884436671E+04  0.25500000920E-02 0.  1.
       -2    1    3    3    0  502 -0.93022843820E+01  0.83070452640E+02 -0.62913629438E+03  0.63466503725E+03  0.25500000920E-02 0. -1.
</event>
<event>
 5   0  0.4173467E-06  0.3313588E+04  0.7818609E-02  0.8159446E-01
        2   -1    0    0  501    0  0.00000000000E+00  0.00000000000E+00  0.18770125104E+04  0.18770125104E+04  0.25500000920E-02 0. -1.
       -2   -1    0    0    0  501  0.00000000000E+00  0.00000000000E+00 -0.14624125852E+04  0.14624125852E+04  0.25500000920E-02 0.  1.
    10030    2    1    2    0    0  0.00000000000E+00  0.00000000000E+00  0.41459992519E+03  0.33394250957E+04  0.33135882170E+04 0.  0.
        4    1    3    3  502    0 -0.20918468833E+03 -0.15441777081E+04  0.77446876964E+03  0.17401283045E+04  0.12699999809E+01 0. -1.
       -4    1    3    3    0  502  0.20918468833E+03  0.15441777081E+04 -0.35986884445E+03  0.15992967912E+04  0.12699999809E+01 0.  1.
</event>
<event>
 5   0  0.4344980E-06  0.3391188E+04  0.7818609E-02  0.8140073E-01
       -2   -1    0    0    0  501  0.00000000000E+00  0.00000000000E+00  0.19235538787E+04  0.19235538787E+04  0.25500000920E-02 0.  1.
        2   -1    0    0  501    0  0.00000000000E+00  0.00000000000E+00 -0.14946494092E+04  0.14946494092E+04  0.25500000920E-02 0. -1.
    10030    2    1    2    0    0  0.00000000000E+00  0.00000000000E+00  0.42890446948E+03  0.34182032879E+04  0.33911877968E+04 0.  0.
        3    1    3    3  502    0  0.87592694642E+03  0.93440955977E+03 -0.90555645505E+03  0.15685667803E+04  0.10100000352E+00 0. -1.
       -3    1    3    3    0  502 -0.87592694642E+03 -0.93440955977E+03  0.13344609245E+04  0.18496365076E+04  0.10100000352E+00 0.  1.
</event>
<event>
 5   0  0.4400349E-06  0.3280946E+04  0.7818609E-02  0.8167761E-01
       -2   -1    0    0    0  501  0.00000000000E+00  0.00000000000E+00  0.24665549505E+04  0.24665549505E+04  0.25500000920E-02 0.  1.
        2   -1    0    0  501    0  0.00000000000E+00  0.00000000000E+00 -0.10910568033E+04  0.10910568033E+04  0.25500000920E-02 0. -1.
    10030    2    1    2    0    0  0.00000000000E+00  0.00000000000E+00  0.13754981472E+04  0.35576117537E+04  0.32809459364E+04 0.  0.
        5    1    3    3  502    0 -0.16072217500E+03 -0.39644584824E+03  0.24050024237E+04  0.24427565733E+04  0.46999998093E+01 0.  1.
       -5    1    3    3    0  502  0.16072217500E+03  0.39644584824E+03 -0.10295042765E+04  0.11148551805E+04  0.46999998093E+01 0. -1.
</event>
<event>
 5   0  0.4344980E-06  0.3444258E+04  0.7818609E-02  0.8127129E-01
       -2   -1    0    0    0  501  0.00000000000E+00  0.00000000000E+00  0.11197875125E+04  0.11197875125E+04  0.25500000920E-02 0.  1.
        2   -1    0    0  501    0  0.00000000000E+00  0.00000000000E+00 -0.26484741232E+04  0.26484741232E+04  0.25500000920E-02 0. -1.
    10030    2    1    2    0    0  0.00000000000E+00  0.00000000000E+00 -0.15286866106E+04  0.37682616357E+04  0.34442579755E+04 0.  0.
        3    1    3    3  502    0  0.14089988084E+03  0.82943578014E+03 -0.24083321184E+04  0.25510547020E+04  0.10100000352E+00 0. -1.
       -3    1    3    3    0  502 -0.14089988084E+03 -0.82943578014E+03  0.87964550780E+03  0.12172069337E+04  0.10100000352E+00 0.  1.
</event>
<event>
 5   0  0.2101998E-06  0.3342311E+04  0.7818609E-02  0.8152212E-01
       -1   -1    0    0    0  501  0.00000000000E+00  0.00000000000E+00  0.21531449945E+04  0.21531449945E+04  0.50400001928E-02 0. -1.
        1   -1    0    0  501    0  0.00000000000E+00  0.00000000000E+00 -0.12970611590E+04  0.12970611590E+04  0.50400001928E-02 0.  1.
    10030    2    1    2    0    0  0.00000000000E+00  0.00000000000E+00  0.85608383557E+03  0.34502061535E+04  0.33423110220E+04 0.  0.
        5    1    3    3  502    0 -0.12890207982E+04  0.10607580338E+04  0.34837259744E+03  0.17053350935E+04  0.46999998093E+01 0.  1.
       -5    1    3    3    0  502  0.12890207982E+04 -0.10607580338E+04  0.50771123814E+03  0.17448710600E+04  0.46999998093E+01 0. -1.
</event>
<event>
 5   0  0.4400349E-06  0.3290808E+04  0.7818609E-02  0.8165238E-01
        2   -1    0    0  501    0  0.00000000000E+00  0.00000000000E+00  0.16201647723E+04  0.16201647723E+04  0.25500000920E-02 0.  1.
       -2   -1    0    0    0  501  0.00000000000E+00  0.00000000000E+00 -0.16710365603E+04  0.16710365603E+04  0.25500000920E-02 0. -1.
    10030    2    1    2    0    0  0.00000000000E+00  0.00000000000E+00 -0.50871787933E+02  0.32912013326E+04  0.32908081489E+04 0.  0.
        5    1    3    3  502    0  0.39331378971E+03  0.15411548881E+04  0.39589623694E+03  0.16390881754E+04  0.46999998093E+01 0.  1.
       -5    1    3    3    0  502 -0.39331378971E+03 -0.15411548881E+04 -0.44676802487E+03  0.16521131572E+04  0.46999998093E+01 0. -1.
</event>
<event>
 5   0  0.4173467E-06  0.3384649E+04  0.7818609E-02  0.8141684E-01
       -2   -1    0    0    0  501  0.00000000000E+00  0.00000000000E+00  0.18029587824E+04  0.18029587824E+04  0.25500000920E-02 0.  1.
        2   -1    0    0  501    0  0.00000000000E+00  0.00000000000E+00 -0.15884787209E+04  0.15884787209E+04  0.25500000920E-02 0. -1.
    10030    2    1    2    0    0  0.00000000000E+00  0.00000000000E+00  0.21448006144E+03  0.33914375033E+04  0.33846486733E+04 0.  0.
        4    1    3    3  502    0  0.51624381594E+03 -0.26846097459E+03 -0.14850921919E+04  0.15950170543E+04  0.12699999809E+01 0. -1.
       -4    1    3    3    0  502 -0.51624381594E+03  0.26846097459E+03  0.16995722533E+04  0.17964204490E+04  0.12699999809E+01 0.  1.
</event>
<event>
 5   0  0.1550164E-06  0.3426735E+04  0.7818609E-02  0.8131376E-01
       -1   -1    0    0    0  501  0.00000000000E+00  0.00000000000E+00  0.13805068403E+04  0.13805068403E+04  0.50400001928E-02 0.  1.
        1   -1    0    0  501    0  0.00000000000E+00  0.00000000000E+00 -0.21264860338E+04  0.21264860338E+04  0.50400001928E-02 0. -1.
    10030    2    1    2    0    0  0.00000000000E+00  0.00000000000E+00 -0.74597919348E+03  0.35069928741E+04  0.34267351899E+04 0.  0.
        4    1    3    3  502    0 -0.50559794394E+03  0.10323404353E+04  0.92730734423E+03  0.14769077760E+04  0.12699999809E+01 0.  1.
       -4    1    3    3    0  502  0.50559794394E+03 -0.10323404353E+04 -0.16732865377E+04  0.20300850981E+04  0.12699999809E+01 0. -1.
</event>
<event>
 5   0  0.4344980E-06  0.3451503E+04  0.7818609E-02  0.8125380E-01
        2   -1    0    0  501    0  0.00000000000E+00  0.00000000000E+00  0.28175602661E+04  0.28175602661E+04  0.25500000920E-02 0. -1.
       -2   -1    0    0    0  501  0.00000000000E+00  0.00000000000E+00 -0.10570204670E+04  0.10570204670E+04  0.25500000920E-02 0.  1.
    10030    2    1    2    0    0  0.00000000000E+00  0.00000000000E+00  0.17605397991E+04  0.38745807331E+04  0.34515033642E+04 0.  0.
        3    1    3    3  502    0 -0.69481146668E+03 -0.70061611441E+03  0.24696563715E+04  0.26594789936E+04  0.10100000352E+00 0. -1.
       -3    1    3    3    0  502  0.69481146668E+03  0.70061611441E+03 -0.70911657236E+03  0.12151017395E+04  0.10100000352E+00 0.  1.
</event>
<event>
 5   0  0.1654257E-06  0.3557656E+04  0.7818609E-02  0.8100261E-01
        1   -1    0    0  501    0  0.00000000000E+00  0.00000000000E+00  0.19765521605E+04  0.19765521605E+04  0.50400001928E-02 0.  1.
       -1   -1    0    0    0  501  0.00000000000E+00  0.00000000000E+00 -0.16008829998E+04  0.16008829998E+04  0.50400001928E-02 0. -1.
    10030    2    1    2    0    0  0.00000000000E+00  0.00000000000E+00  0.37566916065E+03  0.35774351603E+04  0.35576558304E+04 0.  0.
        3    1    3    3  502    0  0.11451742344E+04 -0.12556230579E+04 -0.34064939542E+03  0.17332210798E+04  0.10100000352E+00 0. -1.
       -3    1    3    3    0  502 -0.11451742344E+04  0.12556230579E+04  0.71631855607E+03  0.18442140805E+04  0.10100000352E+00 0.  1.
</event>
<event>
 5   0  0.1654257E-06  0.2817226E+04  0.7818609E-02  0.8297940E-01
        1   -1    0    0  501    0  0.00000000000E+00  0.00000000000E+00  0.15559952544E+04  0.15559952545E+04  0.50400001928E-02 0.  1.
       -1   -1    0    0    0  501  0.00000000000E+00  0.00000000000E+00 -0.12751904414E+04  0.12751904414E+04  0.50400001928E-02 0. -1.
    10030    2    1    2    0    0  0.00000000000E+00  0.00000000000E+00  0.28080481305E+03  0.28311856959E+04  0.28172257810E+04 0.  0.
        3    1    3    3  502    0 -0.50756889622E+03 -0.42459499595E+03 -0.11092557146E+04  0.12916483057E+04  0.10100000352E+00 0. -1.
       -3    1    3    3    0  502  0.50756889622E+03  0.42459499595E+03  0.13900605277E+04  0.15395373902E+04  0.10100000352E+00 0.  1.
</event>
<event>
 5   0  0.2101998E-06  0.2105199E+04  0.7818609E-02  0.8558957E-01
       -1   -1    0    0    0  501  0.00000000000E+00  0.00000000000E+00  0.88288048808E+03  0.88288048809E+03  0.50400001928E-02 0. -1.
        1   -1    0    0  501    0  0.00000000000E+00  0.00000000000E+00 -0.12549435647E+04  0.12549435647E+04  0.50400001928E-02 0.  1.
    10030    2    1    2    0    0  0.00000000000E+00  0.00000000000E+00 -0.37206307658E+03  0.21378240528E+04  0.21051985055E+04 0.  0.
        5    1    3    3  502    0  0.42022947339E+03 -0.52723778016E+03  0.63480882414E+03  0.92605443703E+03  0.46999998093E+01 0. -1.
       -5    1    3    3    0  502 -0.42022947339E+03  0.52723778016E+03 -0.10068719007E+04  0.12117696157E+04  0.46999998093E+01 0.  1.
</event>
<event>
 5   0  0.2722449E-06  0.3153903E+04  0.7818609E-02  0.8201098E-01
        2   -1    0    0  501    0  0.00000000000E+00  0.00000000000E+00  0.24505536558E+04  0.24505536558E+04  0.25500000920E-02 0.  1.
       -2   -1    0    0    0  501  0.00000000000E+00  0.00000000000E+00 -0.10147814674E+04  0.10147814674E+04  0.25500000920E-02 0. -1.
    10030    2    1    2    0    0  0.00000000000E+00  0.00000000000E+00  0.14357721885E+04  0.34653351232E+04  0.31539032545E+04 0.  0.
        2    1    3    3  502    0 -0.33623309648E+03 -0.41650365882E+03 -0.91190797911E+03  0.10574044427E+04  0.25500000920E-02 0. -1.
       -2    1    3    3    0  502  0.33623309648E+03  0.41650365882E+03  0.23476801676E+04  0.24079306805E+04  0.25500000920E-02 0.  1.
</event>
<event>
 5   0  0.4400349E-06  0.3317488E+04  0.7818609E-02  0.8158460E-01
        2   -1    0    0  501    0  0.00000000000E+00  0.00000000000E+00  0.91657428169E+03  0.91657428169E+03  0.25500000920E-02 0. -1.
       -2   -1    0    0    0  501  0.00000000000E+00  0.00000000000E+00 -0.30018635927E+04  0.30018635927E+04  0.25500000920E-02 0.  1.
    10030    2    1    2    0    0  0.00000000000E+00  0.00000000000E+00 -0.20852893110E+04  0.39184378744E+04  0.33174875832E+04 0.  0.
        5    1    3    3  502    0 -0.13922868441E+04  0.90136077277E+03 -0.10689228940E+04  0.19732035228E+04  0.46999998093E+01 0.  1.
       -5    1    3    3    0  502  0.13922868441E+04 -0.90136077277E+03 -0.10163664170E+04  0.19452343516E+04  0.46999998093E+01 0. -1.
</event>
<event>
 5   0  0.1550164E-06  0.1820681E+04  0.7818609E-02  0.8695378E-01
       -1   -1    0    0    0  501  0.00000000000E+00  0.00000000000E+00  0.94925349599E+03  0.94925349600E+03  0.50400001928E-02 0.  1.
        1   -1    0    0  501    0  0.00000000000E+00  0.00000000000E+00 -0.87302291524E+03  0.87302291526E+03  0.50400001928E-02 0. -1.
    10030    2    1    2    0    0  0.00000000000E+00  0.00000000000E+00  0.76230580744E+02  0.18222764113E+04  0.18206812510E+04 0.  0.
        4    1    3    3  502    0 -0.77823000093E+03  0.18200891391E+03 -0.39809824694E+03  0.89289025429E+03  0.12699999809E+01 0. -1.
       -4    1    3    3    0  502  0.77823000093E+03 -0.18200891391E+03  0.47432882768E+03  0.92938615697E+03  0.12699999809E+01 0.  1.
</event>
<event>
 5   0  0.2722449E-06  0.3304874E+04  0.7818609E-02  0.8161656E-01
       -2   -1    0    0    0  501  0.00000000000E+00  0.00000000000E+00  0.11288469657E+04  0.11288469657E+04  0.25500000920E-02 0. -1.
        2   -1    0    0  501    0  0.00000000000E+00  0.00000000000E+00 -0.24188823439E+04  0.24188823439E+04  0.25500000920E-02 0.  1.
    10030    2    1    2    0    0  0.00000000000E+00  0.00000000000E+00 -0.12900353782E+04  0.35477293096E+04  0.33048739730E+04 0.  0.
        2    1    3    3  502    0 -0.11964658280E+04  0.10242177298E+04 -0.10828045989E+03  0.15786947436E+04  0.25500000920E-02 0. -1.
       -2    1    3    3    0  502  0.11964658280E+04 -0.10242177298E+04 -0.11817549183E+04  0.19690345661E+04  0.25500000920E-02 0.  1.
</event>
<event>
 5   0  0.2101998E-06  0.2868441E+04  0.7818609E-02  0.8282330E-01
       -1   -1    0    0    0  501  0.00000000000E+00  0.00000000000E+00  0.91645146910E+03  0.91645146911E+03  0.50400001928E-02 0.  1.
        1   -1    0    0  501    0  0.00000000000E+00  0.00000000000E+00 -0.22445136258E+04  0.22445136258E+04  0.50400001928E-02 0. -1.
    10030    2    1    2    0    0  0.00000000000E+00  0.00000000000E+00 -0.13280621567E+04  0.31609650949E+04  0.28684405587E+04 0.  0.
        5    1    3    3  502    0 -0.10218230184E+04 -0.83926616854E+03 -0.51984674052E+02  0.13233346058E+04  0.46999998093E+01 0.  1.
       -5    1    3    3    0  502  0.10218230184E+04  0.83926616854E+03 -0.12760774826E+04  0.18376304890E+04  0.46999998093E+01 0. -1.
</event>
<event>
 5   0  0.2722449E-06  0.2121189E+04  0.7818609E-02  0.8551966E-01
       -2   -1    0    0    0  501  0.00000000000E+00  0.00000000000E+00  0.52322401604E+03  0.52322401605E+03  0.25500000920E-02 0. -1.
        2   -1    0    0  501    0  0.00000000000E+00  0.00000000000E+00 -0.21498646337E+04  0.21498646337E+04  0.25500000920E-02 0.  1.
    10030    2    1    2    0    0  0.00000000000E+00  0.00000000000E+00 -0.16266406177E+04  0.26730886498E+04  0.21211891076E+04 0.  0.
        2    1    3    3  502    0 -0.24955292230E+03 -0.29273480265E+03 -0.20588581100E+04  0.20944849111E+04  0.25500000920E-02 0.  1.
       -2    1    3    3    0  502  0.24955292230E+03  0.29273480265E+03  0.43221749233E+03  0.57860373866E+03  0.25500000920E-02 0. -1.
</event>
<event>
 5   0  0.4344980E-06  0.1745880E+04  0.7818609E-02  0.8735622E-01
       -2   -1    0    0    0  501  0.00000000000E+00  0.00000000000E+00  0.11454572069E+04  0.11454572069E+04  0.25500000920E-02 0.  1.
        2   -1    0    0  501    0  0.00000000000E+00  0.00000000000E+00 -0.66525738013E+03  0.66525738014E+03  0.25500000920E-02 0. -1.
    10030    2    1    2    0    0  0.00000000000E+00  0.00000000000E+00  0.48019982680E+03  0.18107145871E+04  0.17458795612E+04 0.  0.
        3    1    3    3  502    0  0.37923227917E+03 -0.73323885199E+03 -0.54285104018E+02  0.82728666033E+03  0.10100000352E+00 0. -1.
       -3    1    3    3    0  502 -0.37923227917E+03  0.73323885199E+03  0.53448493082E+03  0.98342792675E+03  0.10100000352E+00 0.  1.
</event>
<event>
 5   0  0.1562618E-06  0.1976034E+04  0.7818609E-02  0.8617908E-01
       -1   -1    0    0    0  501  0.00000000000E+00  0.00000000000E+00  0.84121388651E+03  0.84121388653E+03  0.50400001928E-02 0.  1.
        1   -1    0    0  501    0  0.00000000000E+00  0.00000000000E+00 -0.11604398019E+04  0.11604398019E+04  0.50400001928E-02 0. -1.
    10030    2    1    2    0    0  0.00000000000E+00  0.00000000000E+00 -0.31922591535E+03  0.20016536884E+04  0.19760344894E+04 0.  0.
        2    1    3    3  502    0  0.13956329875E+03  0.95595314609E+03  0.50082395114E+02  0.96738440042E+03  0.25500000920E-02 0. -1.
       -2    1    3    3    0  502 -0.13956329875E+03 -0.95595314609E+03 -0.36930831047E+03  0.10342692880E+04  0.25500000920E-02 0.  1.
</event>
<event>
 5   0  0.2101998E-06  0.3473336E+04  0.7818609E-02  0.8120138E-01
        1   -1    0    0  501    0  0.00000000000E+00  0.00000000000E+00  0.22284509913E+04  0.22284509913E+04  0.50400001928E-02 0.  1.
       -1   -1    0    0    0  501  0.00000000000E+00  0.00000000000E+00 -0.13534134715E+04  0.13534134715E+04  0.50400001928E-02 0. -1.
    10030    2    1    2    0    0  0.00000000000E+00  0.00000000000E+00  0.87503751980E+03  0.35818644628E+04  0.34733359136E+04 0.  0.
        5    1    3    3  502    0  0.12541844610E+04  0.11485319037E+04  0.80049589774E+03  0.18796063333E+04  0.46999998093E+01 0. -1.
       -5    1    3    3    0  502 -0.12541844610E+04 -0.11485319037E+04  0.74541622060E+02  0.17022581295E+04  0.46999998093E+01 0.  1.
</event>
<event>
 5   0  0.4189587E-06  0.3417647E+04  0.7818609E-02  0.8133589E-01
        2   -1    0    0  501    0  0.00000000000E+00  0.00000000000E+00  0.27999415362E+04  0.27999415362E+04  0.25500000920E-02 0.  1.
       -2   -1    0    0    0  501  0.00000000000E+00  0.00000000000E+00 -0.10429067129E+04  0.10429067129E+04  0.25500000920E-02 0. -1.
    10030    2    1    2    0    0  0.00000000000E+00  0.00000000000E+00  0.17570348233E+04  0.38428482491E+04  0.34176470408E+04 0.  0.
        1    1    3    3  502    0 -0.37091504029E+03 -0.14229274175E+04 -0.10028911502E+03  0.14738922312E+04  0.50400001928E-02 0. -1.
       -1    1    3    3    0  502  0.37091504029E+03  0.14229274175E+04  0.18573239384E+04  0.23689560179E+04  0.50400001928E-02 0.  1.
</event>
<event>
 5   0  0.4189587E-06  0.3363282E+04  0.7818609E-02  0.8146977E-01
       -2   -1    0    0    0  501  0.00000000000E+00  0.00000000000E+00  0.10871113099E+04  0.10871113099E+04  0.25500000920E-02 0. -1.
        2   -1    0    0  501    0  0.00000000000E+00  0.00000000000E+00 -0.26013130640E+04  0.26013130640E+04  0.25500000920E-02 0.  1.
    10030    2    1    2    0    0  0.00000000000E+00  0.00000000000E+00 -0.15142017540E+04  0.36884243739E+04  0.33632822376E+04 0.  0.
        1    1    3    3  502    0  0.11290855386E+04 -0.90609284693E+02  0.60598718054E+03  0.12846262721E+04  0.50400001928E-02 0. -1.
       -1    1    3    3    0  502 -0.11290855386E+04  0.90609284693E+02 -0.21201889346E+04  0.24037981018E+04  0.50400001928E-02 0.  1.
</event>
<event>
 5   0  0.2722449E-06  0.3382185E+04  0.7818609E-02  0.8142293E-01
       -2   -1    0    0    0  501  0.00000000000E+00  0.00000000000E+00  0.15644171726E+04  0.15644171726E+04  0.25500000920E-02 0.  1.
        2   -1    0    0  501    0  0.00000000000E+00  0.00000000000E+00 -0.18280251075E+04  0.18280251075E+04  0.25500000920E-02 0. -1.
    10030    2    1    2    0    0  0.00000000000E+00  0.00000000000E+00 -0.26360793491E+03  0.33924422801E+04  0.33821850157E+04 0.  0.
        2    1    3    3  502    0 -0.73080737085E+02 -0.12407242114E+04 -0.12820409140E+04  0.17855996942E+04  0.25500000920E-02 0. -1.
       -2    1    3    3    0  502  0.73080737085E+02  0.12407242114E+04  0.10184329791E+04  0.16068425859E+04  0.25500000920E-02 0.  1.
</event>
<event>
 5   0  0.1550164E-06  0.2177199E+04  0.7818609E-02  0.8527979E-01
        1   -1    0    0  501    0  0.00000000000E+00  0.00000000000E+00  0.94852861598E+03  0.94852861599E+03  0.50400001928E-02 0.  1.
       -1   -1    0    0    0  501  0.00000000000E+00  0.00000000000E+00 -0.12493554203E+04  0.12493554203E+04  0.50400001928E-02 0. -1.
    10030    2    1    2    0    0  0.00000000000E+00  0.00000000000E+00 -0.30082680435E+03  0.21978840363E+04  0.21771994559E+04 0.  0.
        4    1    3    3  502    0 -0.82651208283E+03  0.42035097009E+03 -0.72612138772E+03  0.11777398031E+04  0.12699999809E+01 0.  1.
       -4    1    3    3    0  502  0.82651208283E+03 -0.42035097009E+03  0.42529458336E+03  0.10201442333E+04  0.12699999809E+01 0. -1.
</event>
<event>
 5   0  0.4173467E-06  0.2910394E+04  0.7818609E-02  0.8269792E-01
        2   -1    0    0  501    0  0.00000000000E+00  0.00000000000E+00  0.14573105676E+04  0.14573105676E+04  0.25500000920E-02 0. -1.
       -2   -1    0    0    0  501  0.00000000000E+00  0.00000000000E+00 -0.14530867816E+04  0.14530867816E+04  0.25500000920E-02 0.  1.
    10030    2    1    2    0    0  0.00000000000E+00  0.00000000000E+00  0.42237859685E+01  0.29103973492E+04  0.29103942842E+04 0.  0.
        4    1    3    3  502    0  0.67966823625E+03 -0.12792164855E+04  0.14086859333E+03  0.14554000487E+04  0.12699999809E+01 0.  1.
       -4    1    3    3    0  502 -0.67966823625E+03  0.12792164855E+04 -0.13664480736E+03  0.14549973005E+04  0.12699999809E+01 0. -1.
</event>
<event>
 5   0  0.4189587E-06  0.3256275E+04  0.7818609E-02  0.8174111E-01
        2   -1    0    0  501    0  0.00000000000E+00  0.00000000000E+00  0.18393358618E+04  0.18393358618E+04  0.25500000920E-02 0.  1.
       -2   -1    0    0    0  501  0.00000000000E+00  0.00000000000E+00 -0.14411894210E+04  0.14411894210E+04  0.25500000920E-02 0. -1.
    10030    2    1    2    0    0  0.00000000000E+00  0.00000000000E+00  0.39814644087E+03  0.32805252828E+04  0.32562747953E+04 0.  0.
        1    1    3    3  502    0  0.36004380895E+03 -0.13339345536E+04  0.10667763348E+04  0.17455728820E+04  0.50400001928E-02 0.  1.
       -1    1    3    3    0  502 -0.36004380895E+03  0.13339345536E+04 -0.66862989397E+03  0.15349524008E+04  0.50400001928E-02 0. -1.
</event>
<event>
 5   0  0.4400349E-06  0.3468751E+04  0.7818609E-02  0.8121236E-01
        2   -1    0    0  501    0  0.00000000000E+00  0.00000000000E+00  0.22713209649E+04  0.22713209649E+04  0.25500000920E-02 0.  1.
       -2   -1    0    0    0  501  0.00000000000E+00  0.00000000000E+00 -0.13243655318E+04  0.13243655318E+04  0.25500000920E-02 0. -1.
    10030    2    1    2    0    0  0.00000000000E+00  0.00000000000E+00  0.94695543312E+03  0.35956864966E+04  0.34687514742E+04 0.  0.
        5    1    3    3  502    0  0.20186445856E+03 -0.92078127427E+03  0.19825852614E+04  0.21952798964E+04  0.46999998093E+01 0.  1.
       -5    1    3    3    0  502 -0.20186445856E+03  0.92078127427E+03 -0.10356298283E+04  0.14004066002E+04  0.46999998093E+01 0. -1.
</event>
<event>
 5   0  0.1550164E-06  0.3389548E+04  0.7818609E-02  0.8140476E-01
        1   -1    0    0  501    0  0.00000000000E+00  0.00000000000E+00  0.11240041821E+04  0.11240041821E+04  0.50400001928E-02 0.  1.
       -1   -1    0    0    0  501  0.00000000000E+00  0.00000000000E+00 -0.25553811741E+04  0.25553811741E+04  0.50400001928E-02 0. -1.
    10030    2    1    2    0    0  0.00000000000E+00  0.00000000000E+00 -0.14313769921E+04  0.36793853562E+04  0.33895481271E+04 0.  0.
        4    1    3    3  502    0  0.16900593467E+04  0.64137481655E+02 -0.83382112363E+03  0.18856493553E+04  0.12699999809E+01 0.  1.
       -4    1    3    3    0  502 -0.16900593467E+04 -0.64137481655E+02 -0.59755586843E+03  0.17937360009E+04  0.12699999809E+01 0. -1.
</event>
<event>
 5   0  0.4173467E-06  0.1983459E+04  0.7818609E-02  0.8614393E-01
        2   -1    0    0  501    0  0.00000000000E+00  0.00000000000E+00  0.12782311326E+04  0.12782311326E+04  0.25500000920E-02 0.  1.
       -2   -1    0    0    0  501  0.00000000000E+00  0.00000000000E+00 -0.76944418109E+03  0.76944418110E+03  0.25500000920E-02 0. -1.
    10030    2    1    2    0    0  0.00000000000E+00  0.00000000000E+00  0.50878695153E+03  0.20476753137E+04  0.19834591068E+04 0.  0.
        4    1    3    3  502    0  0.12512839413E+03  0.87513902370E+03  0.71838925691E+03  0.11391269302E+04  0.12699999809E+01 0.  1.
       -4    1    3    3    0  502 -0.12512839413E+03 -0.87513902370E+03 -0.20960230538E+03  0.90854838349E+03  0.12699999809E+01 0. -1.
</event>
<event>
 5   0  0.2101998E-06  0.3403665E+04  0.7818609E-02  0.8137007E-01
        1   -1    0    0  501    0  0.00000000000E+00  0.00000000000E+00  0.11611756667E+04  0.11611756667E+04  0.50400001928E-02 0.  1.
       -1   -1    0    0    0  501  0.00000000000E+00  0.00000000000E+00 -0.24942248525E+04  0.24942248525E+04  0.50400001928E-02 0. -1.
    10030    2    1    2    0    0  0.00000000000E+00  0.00000000000E+00 -0.13330491859E+04  0.36554005192E+04  0.34036646168E+04 0.  0.
        5    1    3    3  502    0  0.19259554833E+03  0.11368796761E+04 -0.20107447795E+04  0.23179096405E+04  0.46999998093E+01 0. -1.
       -5    1    3    3    0  502 -0.19259554833E+03 -0.11368796761E+04  0.67769559363E+03  0.13374908787E+04  0.46999998093E+01 0.  1.
</event>
<event>
 5   0  0.1550164E-06  0.3374716E+04  0.7818609E-02  0.8144140E-01
       -1   -1    0    0    0  501  0.00000000000E+00  0.00000000000E+00  0.11739225049E+04  0.11739225049E+04  0.50400001928E-02 0. -1.
        1   -1    0    0  501    0  0.00000000000E+00  0.00000000000E+00 -0.24253535414E+04  0.24253535414E+04  0.50400001928E-02 0.  1.
    10030    2    1    2    0    0  0.00000000000E+00  0.00000000000E+00 -0.12514310365E+04  0.35992760464E+04  0.33747160501E+04 0.  0.
        4    1    3    3  502    0 -0.34858263238E+03  0.56086666079E+03 -0.22818096219E+04  0.23754448060E+04  0.12699999809E+01 0.  1.
       -4    1    3    3    0  502  0.34858263238E+03 -0.56086666079E+03  0.10303785854E+04  0.12238312404E+04  0.12699999809E+01 0. -1.
</event>
<event>
 5   0  0.4189587E-06  0.2114331E+04  0.7818609E-02  0.8554957E-01
       -2   -1    0    0    0  501  0.00000000000E+00  0.00000000000E+00  0.15129726697E+04  0.15129726697E+04  0.25500000920E-02 0. -1.
        2   -1    0    0  501    0  0.00000000000E+00  0.00000000000E+00 -0.73867762255E+03  0.73867762255E+03  0.25500000920E-02 0.  1.
    10030    2    1    2    0    0  0.00000000000E+00  0.00000000000E+00  0.77429504713E+03  0.22516502922E+04  0.21143311516E+04 0.  0.
        1    1    3    3  502    0  0.90687178514E+03 -0.33180036986E+03  0.84531129020E+03  0.12833780026E+04  0.50400001928E-02 0. -1.
       -1    1    3    3    0  502 -0.90687178514E+03  0.33180036986E+03 -0.71016243067E+02  0.96827228966E+03  0.50400001928E-02 0.  1.
</event>
<event>
 5   0  0.1550164E-06  0.2428463E+04  0.7818609E-02  0.8428924E-01
        1   -1    0    0  501    0  0.00000000000E+00  0.00000000000E+00  0.11440774836E+04  0.11440774836E+04  0.50400001928E-02 0.  1.
       -1   -1    0    0    0  501  0.00000000000E+00  0.00000000000E+00 -0.12886877097E+04  0.12886877097E+04  0.50400001928E-02 0. -1.
    10030    2    1    2    0    0  0.00000000000E+00  0.00000000000E+00 -0.14461022614E+03  0.24327651933E+04  0.24284633759E+04 0.  0.
        4    1    3    3  502    0 -0.69198106631E+03  0.97180951882E+02  0.92246704017E+03  0.11572506153E+04  0.12699999809E+01 0.  1.
       -4    1    3    3    0  502  0.69198106631E+03 -0.97180951882E+02 -0.10670772663E+04  0.12755145780E+04  0.12699999809E+01 0. -1.
</event>
<event>
 5   0  0.1550164E-06  0.3316006E+04  0.7818609E-02  0.8158835E-01
       -1   -1    0    0    0  501  0.00000000000E+00  0.00000000000E+00  0.12842188970E+04  0.12842188971E+04  0.50400001928E-02 0. -1.
        1   -1    0    0  501    0  0.00000000000E+00  0.00000000000E+00 -0.21405804969E+04  0.21405804969E+04  0.50400001928E-02 0.  1.
    10030    2    1    2    0    0  0.00000000000E+00  0.00000000000E+00 -0.85636159989E+03  0.34247993940E+04  0.33160059860E+04 0.  0.
        4    1    3    3  502    0  0.10978456798E+03 -0.15241990801E+04  0.23614622613E+03  0.15462865647E+04  0.12699999809E+01 0. -1.
       -4    1    3    3    0  502 -0.10978456798E+03  0.15241990801E+04 -0.10925078260E+04  0.18785128293E+04  0.12699999809E+01 0.  1.
</event>
<event>
 5   0  0.1562618E-06  0.2639656E+04  0.7818609E-02  0.8354854E-01
       -1   -1    0    0    0  501  0.00000000000E+00  0.00000000000E+00  0.12311103148E+04  0.12311103148E+04  0.50400001928E-02 0.  1.
        1   -1    0    0  501    0  0.00000000000E+00  0.00000000000E+00 -0.14149389598E+04  0.14149389598E+04  0.50400001928E-02 0. -1.
    10030    2    1    2    0    0  0.00000000000E+00  0.00000000000E+00 -0.18382864495E+03  0.26460492746E+04  0.26396559990E+04 0.  0.
        2    1    3    3  502    0 -0.36671448034E+03  0.54049787079E+03 -0.12415697864E+04  0.14028945052E+04  0.25500000920E-02 0. -1.
       -2    1    3    3    0  502  0.36671448034E+03 -0.54049787079E+03  0.10577411414E+04  0.12431547694E+04  0.25500000920E-02 0.  1.
</event>
<event>
 5   0  0.4189587E-06  0.3219737E+04  0.7818609E-02  0.8183624E-01
        2   -1    0    0  501    0  0.00000000000E+00  0.00000000000E+00  0.24721465984E+04  0.24721465984E+04  0.25500000920E-02 0. -1.
       -2   -1    0    0    0  501  0.00000000000E+00  0.00000000000E+00 -0.10483509981E+04  0.10483509981E+04  0.25500000920E-02 0.  1.
    10030    2    1    2    0    0  0.00000000000E+00  0.00000000000E+00  0.14237956002E+04  0.35204975965E+04  0.32197374762E+04 0.  0.
        1    1    3    3  502    0  0.15385807962E+04 -0.46437781663E+03  0.81446731133E+03  0.18017310077E+04  0.50400001928E-02 0. -1.
       -1    1    3    3    0  502 -0.15385807962E+04  0.46437781663E+03  0.60932828892E+03  0.17187665888E+04  0.50400001928E-02 0.  1.
</event>
<event>
 5   0  0.2101998E-06  0.2449433E+04  0.7818609E-02  0.8421225E-01
        1   -1    0    0  501    0  0.00000000000E+00  0.00000000000E+00  0.86341949031E+03  0.86341949033E+03  0.50400001928E-02 0.  1.
       -1   -1    0    0    0  501  0.00000000000E+00  0.00000000000E+00 -0.17371980793E+04  0.17371980793E+04  0.50400001928E-02 0. -1.
    10030    2    1    2    0    0  0.00000000000E+00  0.00000000000E+00 -0.87377858898E+03  0.26006175696E+04  0.24494331428E+04 0.  0.
        5    1    3    3  502    0 -0.70872105846E+03 -0.32983129977E+03 -0.14378598930E+04  0.16366237768E+04  0.46999998093E+01 0. -1.
       -5    1    3    3    0  502  0.70872105846E+03  0.32983129977E+03  0.56408130401E+03  0.96399379279E+03  0.46999998093E+01 0.  1.
</event>
<event>
 5   0  0.4189587E-06  0.3417677E+04  0.7818609E-02  0.8133581E-01
       -2   -1    0    0    0  501  0.00000000000E+00  0.00000000000E+00  0.22225369487E+04  0.22225369487E+04  0.25500000920E-02 0. -1.
        2   -1    0    0  501    0  0.00000000000E+00  0.00000000000E+00 -0.13138719240E+04  0.13138719240E+04  0.25500000920E-02 0.  1.
    10030    2    1    2    0    0  0.00000000000E+00  0.00000000000E+00  0.90866502471E+03  0.35364088726E+04  0.34176769284E+04 0.  0.
        1    1    3    3  502    0  0.39456113858E+03  0.29004972721E+02 -0.12658311659E+04  0.13262157898E+04  0.50400001928E-02 0.  1.
       -1    1    3    3    0  502 -0.39456113858E+03 -0.29004972721E+02  0.21744961906E+04  0.22101930828E+04  0.50400001928E-02 0. -1.
</event>
<event>
 5   0  0.3736297E-06  0.1710401E+04  0.7818609E-02  0.8755454E-01
       -2   -1    0    0    0  501  0.00000000000E+00  0.00000000000E+00  0.51497185060E+03  0.51497185061E+03  0.25500000920E-02 0. -1.
        2   -1    0    0  501    0  0.00000000000E+00  0.00000000000E+00 -0.14202099896E+04  0.14202099896E+04  0.25500000920E-02 0.  1.
    10030    2    1    2    0    0  0.00000000000E+00  0.00000000000E+00 -0.90523813902E+03  0.19351818402E+04  0.17104013174E+04 0.  0.
        2    1    3    3  502    0 -0.70941441005E+03 -0.43968863401E+03 -0.24163653639E+03  0.86889764402E+03  0.25500000920E-02 0. -1.
       -2    1    3    3    0  502  0.70941441005E+03  0.43968863401E+03 -0.66360160263E+03  0.10662841962E+04  0.25500000920E-02 0.  1.
</event>
<event>
 5   0  0.4173467E-06  0.3363774E+04  0.7818609E-02  0.8146855E-01
        2   -1    0    0  501    0  0.00000000000E+00  0.00000000000E+00  0.21985164727E+04  0.21985164727E+04  0.25500000920E-02 0. -1.
       -2   -1    0    0    0  501  0.00000000000E+00  0.00000000000E+00 -0.12866603394E+04  0.12866603394E+04  0.25500000920E-02 0.  1.
    10030    2    1    2    0    0  0.00000000000E+00  0.00000000000E+00  0.91185613337E+03  0.34851768121E+04  0.33637740417E+04 0.  0.
        4    1    3    3  502    0  0.57626310755E+03 -0.37162263271E+03  0.20471158875E+04  0.21589042637E+04  0.12699999809E+01 0. -1.
       -4    1    3    3    0  502 -0.57626310755E+03  0.37162263271E+03 -0.11352597541E+04  0.13262725483E+04  0.12699999809E+01 0.  1.
</event>
<event>
 5   0  0.4189587E-06  0.3438523E+04  0.7818609E-02  0.8128516E-01
       -2   -1    0    0    0  501  0.00000000000E+00  0.00000000000E+00  0.23372716484E+04  0.23372716484E+04  0.25500000920E-02 0.  1.
        2   -1    0    0  501    0  0.00000000000E+00  0.00000000000E+00 -0.12646625654E+04  0.12646625654E+04  0.25500000920E-02 0. -1.
    10030    2    1    2    0    0  0.00000000000E+00  0.00000000000E+00  0.10726090830E+04  0.36019342139E+04  0.34385229149E+04 0.  0.
        1    1    3    3  502    0  0.43659997440E+03  0.11178082154E+04 -0.75336058575E+03  0.14169216338E+04  0.50400001928E-02 0. -1.
       -1    1    3    3    0  502 -0.43659997440E+03 -0.11178082154E+04  0.18259696687E+04  0.21850125801E+04  0.50400001928E-02 0.  1.
</event>
<event>
 5   0  0.1571391E-06  0.3352543E+04  0.7818609E-02  0.8149653E-01
        1   -1    0    0  501    0  0.00000000000E+00  0.00000000000E+00  0.19492029624E+04  0.19492029624E+04  0.50400001928E-02 0.  1.
       -1   -1    0    0    0  501  0.00000000000E+00  0.00000000000E+00 -0.14415563136E+04  0.14415563136E+04  0.50400001928E-02 0. -1.
    10030    2    1    2    0    0  0.00000000000E+00  0.00000000000E+00  0.50764664878E+03  0.33907592760E+04  0.33525428182E+04 0.  0.
        1    1    3    3  502    0 -0.12280824376E+04  0.62139035367E+03  0.12215867538E+04  0.18402680897E+04  0.50400001928E-02 0.  1.
       -1    1    3    3    0  502  0.12280824376E+04 -0.62139035367E+03 -0.71394010497E+03  0.15504911863E+04  0.50400001928E-02 0. -1.
</event>
<event>
 5   0  0.2101998E-06  0.2004708E+04  0.7818609E-02  0.8604423E-01
        1   -1    0    0  501    0  0.00000000000E+00  0.00000000000E+00  0.72890927188E+03  0.72890927189E+03  0.50400001928E-02 0.  1.
       -1   -1    0    0    0  501  0.00000000000E+00  0.00000000000E+00 -0.13783794490E+04  0.13783794491E+04  0.50400001928E-02 0. -1.
    10030    2    1    2    0    0  0.00000000000E+00  0.00000000000E+00 -0.64947017717E+03  0.21072887210E+04  0.20047080192E+04 0.  0.
        5    1    3    3  502    0 -0.90385601836E+03  0.10022643878E+03  0.11836815967E+03  0.91707914172E+03  0.46999998093E+01 0.  1.
       -5    1    3    3    0  502  0.90385601836E+03 -0.10022643878E+03 -0.76783833684E+03  0.11902095792E+04  0.46999998093E+01 0. -1.
</event>
<event>
 5   0  0.1401125E-06  0.3293783E+04  0.7818609E-02  0.8164479E-01
        3   -1    0    0  501    0  0.00000000000E+00  0.00000000000E+00  0.19377531006E+04  0.19377531032E+04  0.10100000352E+00 0. -1.
       -3   -1    0    0    0  501  0.00000000000E+00  0.00000000000E+00 -0.13996888588E+04  0.13996888624E+04  0.10100000352E+00 0.  1.
    10030    2    1    2    0    0  0.00000000000E+00  0.00000000000E+00  0.53806424183E+03  0.33374419657E+04  0.32937828929E+04 0.  0.
        1    1    3    3  502    0  0.12030373753E+04 -0.25162395895E+01 -0.87057400896E+03  0.14849930515E+04  0.50400001928E-02 0.  1.
       -1    1    3    3    0  502 -0.12030373753E+04  0.25162395895E+01  0.14086382508E+04  0.18524489141E+04  0.50400001928E-02 0. -1.
</event>
<event>
 5   0  0.2722449E-06  0.3518963E+04  0.7818609E-02  0.8109311E-01
        2   -1    0    0  501    0  0.00000000000E+00  0.00000000000E+00  0.25449553036E+04  0.25449553036E+04  0.25500000920E-02 0.  1.
       -2   -1    0    0    0  501  0.00000000000E+00  0.00000000000E+00 -0.12164362676E+04  0.12164362676E+04  0.25500000920E-02 0. -1.
    10030    2    1    2    0    0  0.00000000000E+00  0.00000000000E+00  0.13285190361E+04  0.37613915712E+04  0.35189634443E+04 0.  0.
        2    1    3    3  502    0  0.11200571460E+04 -0.10679361840E+03 -0.78164865085E+03  0.13700027374E+04  0.25500000920E-02 0. -1.
       -2    1    3    3    0  502 -0.11200571460E+04  0.10679361840E+03  0.21101676869E+04  0.23913888338E+04  0.25500000920E-02 0.  1.
</event>
<event>
 5   0  0.2722449E-06  0.3363915E+04  0.7818609E-02  0.8146820E-01
       -2   -1    0    0    0  501  0.00000000000E+00  0.00000000000E+00  0.12458510114E+04  0.12458510114E+04  0.25500000920E-02 0.  1.
        2   -1    0    0  501    0  0.00000000000E+00  0.00000000000E+00 -0.22707218644E+04  0.22707218644E+04  0.25500000920E-02 0. -1.
    10030    2    1    2    0    0  0.00000000000E+00  0.00000000000E+00 -0.10248708530E+04  0.35165728758E+04  0.33639150592E+04 0.  0.
        2    1    3    3  502    0  0.13035585570E+04  0.64825602382E+03 -0.13929667013E+04  0.20149086865E+04  0.25500000920E-02 0. -1.
       -2    1    3    3    0  502 -0.13035585570E+04 -0.64825602382E+03  0.36809584826E+03  0.15016641893E+04  0.25500000920E-02 0.  1.
</event>
<event>
 5   0  0.4400349E-06  0.3411951E+04  0.7818609E-02  0.8134979E-01
       -2   -1    0    0    0  501  0.00000000000E+00  0.00000000000E+00  0.13406620030E+04  0.13406620030E+04  0.25500000920E-02 0.  1.
        2   -1    0    0  501    0  0.00000000000E+00  0.00000000000E+00 -0.21708317967E+04  0.21708317967E+04  0.25500000920E-02 0. -1.
    10030    2    1    2    0    0  0.00000000000E+00  0.00000000000E+00 -0.83016979370E+03  0.35114937997E+04  0.34119505886E+04 0.  0.
        5    1    3    3  502    0  0.75568104786E+03  0.51307910343E+03  0.10677934558E+04  0.14051722196E+04  0.46999998093E+01 0.  1.
       -5    1    3    3    0  502 -0.75568104786E+03 -0.51307910343E+03 -0.18979632495E+04  0.21063215801E+04  0.46999998093E+01 0. -1.
</event>
<event>
 5   0  0.4400349E-06  0.3352330E+04  0.7818609E-02  0.8149706E-01
        2   -1    0    0  501    0  0.00000000000E+00  0.00000000000E+00  0.27252650712E+04  0.27252650712E+04  0.25500000920E-02 0.  1.
       -2   -1    0    0    0  501  0.00000000000E+00  0.00000000000E+00 -0.10309198772E+04  0.10309198772E+04  0.25500000920E-02 0. -1.
    10030    2    1    2    0    0  0.00000000000E+00  0.00000000000E+00  0.16943451940E+04  0.37561849484E+04  0.33523304924E+04 0.  0.
        5    1    3    3  502    0  0.15875134928E+04  0.42919466968E+03  0.48392485737E+03  0.17142381725E+04  0.46999998093E+01 0. -1.
       -5    1    3    3    0  502 -0.15875134928E+04 -0.42919466968E+03  0.12104203366E+04  0.20419467759E+04  0.46999998093E+01 0.  1.
</event>
<event>
 5   0  0.4173467E-06  0.3427425E+04  0.7818609E-02  0.8131208E-01
        2   -1    0    0  501    0  0.00000000000E+00  0.00000000000E+00  0.18960317793E+04  0.18960317793E+04  0.25500000920E-02 0.  1.
       -2   -1    0    0    0  501  0.00000000000E+00  0.00000000000E+00 -0.15489243853E+04  0.15489243853E+04  0.25500000920E-02 0. -1.
    10030    2    1    2    0    0  0.00000000000E+00  0.00000000000E+00  0.34710739403E+03  0.34449561646E+04  0.34274246065E+04 0.  0.
        4    1    3    3  502    0 -0.48894596070E+03  0.91625607641E+03 -0.11965825580E+04  0.15844256944E+04  0.12699999809E+01 0. -1.
       -4    1    3    3    0  502  0.48894596070E+03 -0.91625607641E+03  0.15436899520E+04  0.18605304703E+04  0.12699999809E+01 0.  1.
</event>
<event>
 5   0  0.1550164E-06  0.2255986E+04  0.7818609E-02  0.8495480E-01
       -1   -1    0    0    0  501  0.00000000000E+00  0.00000000000E+00  0.15904335399E+04  0.15904335399E+04  0.50400001928E-02 0. -1.
        1   -1    0    0  501    0  0.00000000000E+00  0.00000000000E+00 -0.80001325779E+03  0.80001325780E+03  0.50400001928E-02 0.  1.
    10030    2    1    2    0    0  0.00000000000E+00  0.00000000000E+00  0.79042028210E+03  0.23904467977E+04  0.22559857425E+04 0.  0.
        4    1    3    3  502    0  0.60348748958E+03 -0.83860055349E+03  0.87486966066E+03  0.13538266412E+04  0.12699999809E+01 0. -1.
       -4    1    3    3    0  502 -0.60348748958E+03  0.83860055349E+03 -0.84449378557E+02  0.10366201565E+04  0.12699999809E+01 0.  1.
</event>
<event>
 5   0  0.2101998E-06  0.2965998E+04  0.7818609E-02  0.8253507E-01
       -1   -1    0    0    0  501  0.00000000000E+00  0.00000000000E+00  0.15144538652E+04  0.15144538652E+04  0.50400001928E-02 0.  1.
        1   -1    0    0  501    0  0.00000000000E+00  0.00000000000E+00 -0.14521976496E+04  0.14521976496E+04  0.50400001928E-02 0. -1.
    10030    2    1    2    0    0  0.00000000000E+00  0.00000000000E+00  0.62256215583E+02  0.29666515148E+04  0.29659982087E+04 0.  0.
        5    1    3    3  502    0 -0.12322033324E+04  0.70577726859E+03 -0.39653787616E+03  0.14743510378E+04  0.46999998093E+01 0. -1.
       -5    1    3    3    0  502  0.12322033324E+04 -0.70577726859E+03  0.45879409175E+03  0.14923004771E+04  0.46999998093E+01 0.  1.
</event>
<event>
 5   0  0.1550164E-06  0.3425199E+04  0.7818609E-02  0.8131749E-01
        1   -1    0    0  501    0  0.00000000000E+00  0.00000000000E+00  0.21479093085E+04  0.21479093085E+04  0.50400001928E-02 0.  1.
       -1   -1    0    0    0  501  0.00000000000E+00  0.00000000000E+00 -0.13655121960E+04  0.13655121960E+04  0.50400001928E-02 0. -1.
    10030    2    1    2    0    0  0.00000000000E+00  0.00000000000E+00  0.78239711246E+03  0.35134215045E+04  0.34251985967E+04 0.  0.
        4    1    3    3  502    0 -0.25133589890E+03  0.74255342679E+03  0.19530595315E+04  0.21045185845E+04  0.12699999809E+01 0.  1.
       -4    1    3    3    0  502  0.25133589890E+03 -0.74255342679E+03 -0.11706624191E+04  0.14089029200E+04  0.12699999809E+01 0. -1.
</event>
<event>
 5   0  0.1654257E-06  0.3366691E+04  0.7818609E-02  0.8146130E-01
       -1   -1    0    0    0  501  0.00000000000E+00  0.00000000000E+00  0.16613455272E+04  0.16613455272E+04  0.50400001928E-02 0.  1.
        1   -1    0    0  501    0  0.00000000000E+00  0.00000000000E+00 -0.17056372788E+04  0.17056372789E+04  0.50400001928E-02 0. -1.
    10030    2    1    2    0    0  0.00000000000E+00  0.00000000000E+00 -0.44291751639E+02  0.33669828061E+04  0.33666914704E+04 0.  0.
        3    1    3    3  502    0 -0.92552245642E+03 -0.49594279960E+02 -0.14274726001E+04  0.17019780975E+04  0.10100000352E+00 0. -1.
       -3    1    3    3    0  502  0.92552245642E+03  0.49594279960E+02  0.13831808485E+04  0.16650047086E+04  0.10100000352E+00 0.  1.
</event>
<event>
 5   0  0.4189587E-06  0.3281526E+04  0.7818609E-02  0.8167612E-01
       -2   -1    0    0    0  501  0.00000000000E+00  0.00000000000E+00  0.11718659705E+04  0.11718659705E+04  0.25500000920E-02 0. -1.
        2   -1    0    0  501    0  0.00000000000E+00  0.00000000000E+00 -0.22972788889E+04  0.22972788889E+04  0.25500000920E-02 0.  1.
    10030    2    1    2    0    0  0.00000000000E+00  0.00000000000E+00 -0.11254129184E+04  0.34691448594E+04  0.32815258369E+04 0.  0.
        1    1    3    3  502    0  0.69460044092E+03 -0.94149319046E+02  0.10056105242E+04  0.12258003072E+04  0.50400001928E-02 0. -1.
       -1    1    3    3    0  502 -0.69460044092E+03  0.94149319046E+02 -0.21310234426E+04  0.22433445522E+04  0.50400001928E-02 0.  1.
</event>
<event>
 5   0  0.4173467E-06  0.3357754E+04  0.7818609E-02  0.8148353E-01
       -2   -1    0    0    0  501  0.00000000000E+00  0.00000000000E+00  0.12922217339E+04  0.12922217339E+04  0.25500000920E-02 0.  1.
        2   -1    0    0  501    0  0.00000000000E+00  0.00000000000E+00 -0.21812267478E+04  0.21812267478E+04  0.25500000920E-02 0. -1.
    10030    2    1    2    0    0  0.00000000000E+00  0.00000000000E+00 -0.88900501389E+03  0.34734484817E+04  0.33577543746E+04 0.  0.
        4    1    3    3  502    0  0.13479356171E+04  0.93843534684E+02 -0.14752742341E+04  0.20005431051E+04  0.12699999809E+01 0. -1.
       -4    1    3    3    0  502 -0.13479356171E+04 -0.93843534684E+02  0.58626922022E+03  0.14729053765E+04  0.12699999809E+01 0.  1.
</event>
<event>
 5   0  0.1401125E-06  0.3263883E+04  0.7818609E-02  0.8172147E-01
       -3   -1    0    0    0  501  0.00000000000E+00  0.00000000000E+00  0.29186676389E+04  0.29186676406E+04  0.10100000352E+00 0. -1.
        3   -1    0    0  501    0  0.00000000000E+00  0.00000000000E+00 -0.91248235331E+03  0.91248235890E+03  0.10100000352E+00 0.  1.
    10030    2    1    2    0    0  0.00000000000E+00  0.00000000000E+00  0.20061852856E+04  0.38311499995E+04  0.32638827980E+04 0.  0.
        2    1    3    3  502    0  0.11127753927E+04  0.79591554882E+03  0.20473682841E+04  0.24624109174E+04  0.25500000920E-02 0. -1.
       -2    1    3    3    0  502 -0.11127753927E+04 -0.79591554882E+03 -0.41182998529E+02  0.13687390821E+04  0.25500000920E-02 0.  1.
</event>
<event>
 5   0  0.2722449E-06  0.3185305E+04  0.7818609E-02  0.8192709E-01
       -2   -1    0    0    0  501  0.00000000000E+00  0.00000000000E+00  0.91417686088E+03  0.91417686088E+03  0.25500000920E-02 0.  1.
        2   -1    0    0  501    0  0.00000000000E+00  0.00000000000E+00 -0.27746727559E+04  0.27746727559E+04  0.25500000920E-02 0. -1.
    10030    2    1    2    0    0  0.00000000000E+00  0.00000000000E+00 -0.18604958950E+04  0.36888496167E+04  0.31853047766E+04 0.  0.
        2    1    3    3  502    0 -0.67420827060E+03  0.26326786767E+03 -0.25732071135E+04  0.26730622161E+04  0.25500000920E-02 0. -1.
       -2    1    3    3    0  502  0.67420827060E+03 -0.26326786767E+03  0.71271121850E+03  0.10157874006E+04  0.25500000920E-02 0.  1.
</event>
<event>
 5   0  0.1562618E-06  0.3309500E+04  0.7818609E-02  0.8160482E-01
        1   -1    0    0  501    0  0.00000000000E+00  0.00000000000E+00  0.21676337219E+04  0.21676337219E+04  0.50400001928E-02 0.  1.
       -1   -1    0    0    0  501  0.00000000000E+00  0.00000000000E+00 -0.12632195127E+04  0.12632195127E+04  0.50400001928E-02 0. -1.
    10030    2    1    2    0    0  0.00000000000E+00  0.00000000000E+00  0.90441420923E+03  0.34308532347E+04  0.33094997894E+04 0.  0.
        2    1    3    3  502    0 -0.75979447407E+03  0.11792041115E+04  0.13621084796E+04  0.19552875721E+04  0.25500000920E-02 0.  1.
       -2    1    3    3    0  502  0.75979447407E+03 -0.11792041115E+04 -0.45769427036E+03  0.14755656626E+04  0.25500000920E-02 0. -1.
</event>
<event>
 5   0  0.4344980E-06  0.3309433E+04  0.7818609E-02  0.8160499E-01
        2   -1    0    0  501    0  0.00000000000E+00  0.00000000000E+00  0.17644526987E+04  0.17644526987E+04  0.25500000920E-02 0. -1.
       -2   -1    0    0    0  501  0.00000000000E+00  0.00000000000E+00 -0.15518048879E+04  0.15518048879E+04  0.25500000920E-02 0.  1.
    10030    2    1    2    0    0  0.00000000000E+00  0.00000000000E+00  0.21264781080E+03  0.33162575865E+04  0.33094327745E+04 0.  0.
        3    1    3    3  502    0  0.44530388809E+03  0.37342237473E+03  0.16588240926E+04  0.17576794939E+04  0.10100000352E+00 0. -1.
       -3    1    3    3    0  502 -0.44530388809E+03 -0.37342237473E+03 -0.14461762818E+04  0.15585780927E+04  0.10100000352E+00 0.  1.
</event>
<event>
 5   0  0.4344980E-06  0.3389984E+04  0.7818609E-02  0.8140369E-01
        2   -1    0    0  501    0  0.00000000000E+00  0.00000000000E+00  0.30480593425E+04  0.30480593425E+04  0.25500000920E-02 0. -1.
       -2   -1    0    0    0  501  0.00000000000E+00  0.00000000000E+00 -0.94256643396E+03  0.94256643396E+03  0.25500000920E-02 0.  1.
    10030    2    1    2    0    0  0.00000000000E+00  0.00000000000E+00  0.21054929085E+04  0.39906257764E+04  0.33899843215E+04 0.  0.
        3    1    3    3  502    0  0.74456311178E+03 -0.14822315765E+04  0.64222615410E+03  0.17787183917E+04  0.10100000352E+00 0.  1.
       -3    1    3    3    0  502 -0.74456311178E+03  0.14822315765E+04  0.14632667544E+04  0.22119073847E+04  0.10100000352E+00 0. -1.
</event>
<event>
 5   0  0.4189587E-06  0.3411268E+04  0.7818609E-02  0.8135146E-01
        2   -1    0    0  501    0  0.00000000000E+00  0.00000000000E+00  0.26602343611E+04  0.26602343611E+04  0.25500000920E-02 0.  1.
       -2   -1    0    0    0  501  0.00000000000E+00  0.00000000000E+00 -0.10935829296E+04  0.10935829296E+04  0.25500000920E-02 0. -1.
    10030    2    1    2    0    0  0.00000000000E+00  0.00000000000E+00  0.15666514315E+04  0.37538172906E+04  0.34112677326E+04 0.  0.
        1    1    3    3  502    0  0.15694840478E+04  0.65390818434E+03  0.93223128404E+03  0.19390542170E+04  0.50400001928E-02 0. -1.
       -1    1    3    3    0  502 -0.15694840478E+04 -0.65390818434E+03  0.63442014747E+03  0.18147630736E+04  0.50400001928E-02 0.  1.
</event>
<event>
 5   0  0.4344980E-06  0.3526089E+04  0.7818609E-02  0.8107635E-01
       -2   -1    0    0    0  501  0.00000000000E+00  0.00000000000E+00  0.16931038158E+04  0.16931038158E+04  0.25500000920E-02 0.  1.
        2   -1    0    0  501    0  0.00000000000E+00  0.00000000000E+00 -0.18358748247E+04  0.18358748247E+04  0.25500000920E-02 0. -1.
    10030    2    1    2    0    0  0.00000000000E+00  0.00000000000E+00 -0.14277100896E+03  0.35289786405E+04  0.35260894322E+04 0.  0.
        3    1    3    3  502    0 -0.13663313331E+04 -0.26545858098E+03 -0.11543983672E+04  0.18083045016E+04  0.10100000352E+00 0. -1.
       -3    1    3    3    0  502  0.13663313331E+04  0.26545858098E+03  0.10116273583E+04  0.17206741389E+04  0.10100000352E+00 0.  1.
</event>
<event>
 5   0  0.2722449E-06  0.3309071E+04  0.7818609E-02  0.8160591E-01
       -2   -1    0    0    0  501  0.00000000000E+00  0.00000000000E+00  0.12923874680E+04  0.12923874680E+04  0.25500000920E-02 0. -1.
        2   -1    0    0  501    0  0.00000000000E+00  0.00000000000E+00 -0.21181628146E+04  0.21181628146E+04  0.25500000920E-02 0.  1.
    10030    2    1    2    0    0  0.00000000000E+00  0.00000000000E+00 -0.82577534662E+03  0.34105502825E+04  0.33090706107E+04 0.  0.
        2    1    3    3  502    0 -0.10170465928E+04  0.93921820501E+03  0.52097435911E+03  0.14791649304E+04  0.25500000920E-02 0. -1.
       -2    1    3    3    0  502  0.10170465928E+04 -0.93921820501E+03 -0.13467497057E+04  0.19313853521E+04  0.25500000920E-02 0.  1.
</event>
<event>
 5   0  0.4400349E-06  0.2992188E+04  0.7818609E-02  0.8245965E-01
        2   -1    0    0  501    0  0.00000000000E+00  0.00000000000E+00  0.19014803389E+04  0.19014803389E+04  0.25500000920E-02 0. -1.
       -2   -1    0    0    0  501  0.00000000000E+00  0.00000000000E+00 -0.11771338869E+04  0.11771338869E+04  0.25500000920E-02 0.  1.
    10030    2    1    2    0    0  0.00000000000E+00  0.00000000000E+00  0.72434645199E+03  0.30786142258E+04  0.29921877897E+04 0.  0.
        5    1    3    3  502    0 -0.80027158282E+03 -0.12064744399E+04 -0.25894322246E+02  0.14480013074E+04  0.46999998093E+01 0.  1.
       -5    1    3    3    0  502  0.80027158282E+03  0.12064744399E+04  0.75024077424E+03  0.16306129184E+04  0.46999998093E+01 0. -1.
</event>
<event>
 5   0  0.2722449E-06  0.3372509E+04  0.7818609E-02  0.8144687E-01
       -2   -1    0    0    0  501  0.00000000000E+00  0.00000000000E+00  0.14472486614E+04  0.14472486614E+04  0.25500000920E-02 0.  1.
        2   -1    0    0  501    0  0.00000000000E+00  0.00000000000E+00 -0.19647312808E+04  0.19647312808E+04  0.25500000920E-02 0. -1.
    10030    2    1    2    0    0  0.00000000000E+00  0.00000000000E+00 -0.51748261940E+03  0.34119799422E+04  0.33725092831E+04 0.  0.
        2    1    3    3  502    0  0.16767068092E+04 -0.11239787217E+03 -0.11755259915E+03  0.16845763916E+04  0.25500000920E-02 0. -1.
       -2    1    3    3    0  502 -0.16767068092E+04  0.11239787217E+03 -0.39993002025E+03  0.17274035506E+04  0.25500000920E-02 0.  1.
</event>
<event>
 5   0  0.4173467E-06  0.3362087E+04  0.7818609E-02  0.8147275E-01
        2   -1    0    0  501    0  0.00000000000E+00  0.00000000000E+00  0.15257431905E+04  0.15257431905E+04  0.25500000920E-02 0. -1.
       -2   -1    0    0    0  501  0.00000000000E+00  0.00000000000E+00 -0.18521515096E+04  0.18521515096E+04  0.25500000920E-02 0.  1.
    10030    2    1    2    0    0  0.00000000000E+00  0.00000000000E+00 -0.32640831911E+03  0.33778947001E+04  0.33620871813E+04 0.  0.
        4    1    3    3  502    0 -0.14086430444E+04  0.24084084823E+03  0.72618466005E+03  0.16030050886E+04  0.12699999809E+01 0. -1.
       -4    1    3    3    0  502  0.14086430444E+04 -0.24084084823E+03 -0.10525929792E+04  0.17748896116E+04  0.12699999809E+01 0.  1.
</event>
<event>
 5   0  0.4173467E-06  0.3379065E+04  0.7818609E-02  0.8143064E-01
        2   -1    0    0  501    0  0.00000000000E+00  0.00000000000E+00  0.17282214077E+04  0.17282214077E+04  0.25500000920E-02 0.  1.
       -2   -1    0    0    0  501  0.00000000000E+00  0.00000000000E+00 -0.16517092938E+04  0.16517092938E+04  0.25500000920E-02 0. -1.
    10030    2    1    2    0    0  0.00000000000E+00  0.00000000000E+00  0.76512113951E+02  0.33799307015E+04  0.33790645811E+04 0.  0.
        4    1    3    3  502    0  0.14006976627E+04 -0.71918487538E+03  0.65106055909E+03  0.17038375191E+04  0.12699999809E+01 0.  1.
       -4    1    3    3    0  502 -0.14006976627E+04  0.71918487538E+03 -0.57454844514E+03  0.16760931823E+04  0.12699999809E+01 0. -1.
</event>
<event>
 5   0  0.1571391E-06  0.1712864E+04  0.7818609E-02  0.8754061E-01
       -1   -1    0    0    0  501  0.00000000000E+00  0.00000000000E+00  0.54662382673E+03  0.54662382676E+03  0.50400001928E-02 0. -1.
        1   -1    0    0  501    0  0.00000000000E+00  0.00000000000E+00 -0.13418298146E+04  0.13418298146E+04  0.50400001928E-02 0.  1.
    10030    2    1    2    0    0  0.00000000000E+00  0.00000000000E+00 -0.79520598785E+03  0.18884536413E+04  0.17128644408E+04 0.  0.
        1    1    3    3  502    0 -0.65963614746E+03  0.19421799572E+03  0.16525684434E+03  0.70721305242E+03  0.50400001928E-02 0. -1.
       -1    1    3    3    0  502  0.65963614746E+03 -0.19421799572E+03 -0.96046283218E+03  0.11812405889E+04  0.50400001928E-02 0.  1.
</event>
<event>
 5   0  0.1654257E-06  0.3457280E+04  0.7818609E-02  0.8123989E-01
        1   -1    0    0  501    0  0.00000000000E+00  0.00000000000E+00  0.27242985679E+04  0.27242985679E+04  0.50400001928E-02 0.  1.
       -1   -1    0    0    0  501  0.00000000000E+00  0.00000000000E+00 -0.10968681891E+04  0.10968681892E+04  0.50400001928E-02 0. -1.
    10030    2    1    2    0    0  0.00000000000E+00  0.00000000000E+00  0.16274303787E+04  0.38211667570E+04  0.34572801083E+04 0.  0.
        3    1    3    3  502    0 -0.10990847008E+04 -0.68026368820E+03  0.20823265227E+04  0.24508834371E+04  0.10100000352E+00 0.  1.
       -3    1    3    3    0  502  0.10990847008E+04  0.68026368820E+03 -0.45489614392E+03  0.13702833200E+04  0.10100000352E+00 0. -1.
</event>
<event>
 5   0  0.4400349E-06  0.3467242E+04  0.7818609E-02  0.8121597E-01
        2   -1    0    0  501    0  0.00000000000E+00  0.00000000000E+00  0.19212561631E+04  0.19212561631E+04  0.25500000920E-02 0. -1.
       -2   -1    0    0    0  501  0.00000000000E+00  0.00000000000E+00 -0.15643110817E+04  0.15643110817E+04  0.25500000920E-02 0.  1.
    10030    2    1    2    0    0  0.00000000000E+00  0.00000000000E+00  0.35694508139E+03  0.34855672448E+04  0.34672423087E+04 0.  0.
        5    1    3    3  502    0 -0.16695183651E+04 -0.42819653753E+03  0.36594237734E+03  0.17619817705E+04  0.46999998093E+01 0. -1.
       -5    1    3    3    0  502  0.16695183651E+04  0.42819653753E+03 -0.89972959466E+01  0.17235854743E+04  0.46999998093E+01 0.  1.
</event>
<event>
 5   0  0.2101998E-06  0.3396579E+04  0.7818609E-02  0.8138746E-01
       -1   -1    0    0    0  501  0.00000000000E+00  0.00000000000E+00  0.21115338124E+04  0.21115338124E+04  0.50400001928E-02 0. -1.
        1   -1    0    0  501    0  0.00000000000E+00  0.00000000000E+00 -0.13659203902E+04  0.13659203902E+04  0.50400001928E-02 0.  1.
    10030    2    1    2    0    0  0.00000000000E+00  0.00000000000E+00  0.74561342227E+03  0.34774542026E+04  0.33965789194E+04 0.  0.
        5    1    3    3  502    0 -0.63789717102E+03  0.15593163234E+04  0.59187543503E+03  0.17856984118E+04  0.46999998093E+01 0. -1.
       -5    1    3    3    0  502  0.63789717102E+03 -0.15593163234E+04  0.15373798724E+03  0.16917557908E+04  0.46999998093E+01 0.  1.
</event>
<event>
 5   0  0.4189587E-06  0.3505082E+04  0.7818609E-02  0.8112587E-01
        2   -1    0    0  501    0  0.00000000000E+00  0.00000000000E+00  0.18519202097E+04  0.18519202097E+04  0.25500000920E-02 0.  1.
       -2   -1    0    0    0  501  0.00000000000E+00  0.00000000000E+00 -0.16584945126E+04  0.16584945126E+04  0.25500000920E-02 0. -1.
    10030    2    1    2    0    0  0.00000000000E+00  0.00000000000E+00  0.19342569711E+03  0.35104147222E+04  0.35050817425E+04 0.  0.
        1    1    3    3  502    0 -0.65265335941E+03 -0.16264813227E+04  0.97981620275E+02  0.17552772711E+04  0.50400001928E-02 0.  1.
       -1    1    3    3    0  502  0.65265335941E+03  0.16264813227E+04  0.95444076834E+02  0.17551374511E+04  0.50400001928E-02 0. -1.
</event>
<event>
 5   0  0.2722449E-06  0.1905788E+04  0.7818609E-02  0.8651981E-01
       -2   -1    0    0    0  501  0.00000000000E+00  0.00000000000E+00  0.70777134860E+03  0.70777134861E+03  0.25500000920E-02 0.  1.
        2   -1    0    0  501    0  0.00000000000E+00  0.00000000000E+00 -0.12829103318E+04  0.12829103318E+04  0.25500000920E-02 0. -1.
    10030    2    1    2    0    0  0.00000000000E+00  0.00000000000E+00 -0.57513898324E+03  0.19906816805E+04  0.19057882104E+04 0.  0.
        2    1    3    3  502    0  0.15037471251E+03  0.73339806297E+03  0.32820015119E+03  0.81743538716E+03  0.25500000920E-02 0.  1.
       -2    1    3    3    0  502 -0.15037471251E+03 -0.73339806297E+03 -0.90333913444E+03  0.11732462933E+04  0.25500000920E-02 0. -1.
</event>
<event>
 5   0  0.1550164E-06  0.3489168E+04  0.7818609E-02  0.8116362E-01
       -1   -1    0    0    0  501  0.00000000000E+00  0.00000000000E+00  0.14249056545E+04  0.14249056545E+04  0.50400001928E-02 0. -1.
        1   -1    0    0  501    0  0.00000000000E+00  0.00000000000E+00 -0.21359829264E+04  0.21359829264E+04  0.50400001928E-02 0.  1.
    10030    2    1    2    0    0  0.00000000000E+00  0.00000000000E+00 -0.71107727190E+03  0.35608885810E+04  0.34891684682E+04 0.  0.
        4    1    3    3  502    0  0.13924820462E+04  0.74935444914E+03 -0.11075943856E+04  0.19306230278E+04  0.12699999809E+01 0.  1.
       -4    1    3    3    0  502 -0.13924820462E+04 -0.74935444914E+03  0.39651711373E+03  0.16302655532E+04  0.12699999809E+01 0. -1.
</event>
<event>
 5   0  0.1562618E-06  0.3405207E+04  0.7818609E-02  0.8136629E-01
       -1   -1    0    0    0  501  0.00000000000E+00  0.00000000000E+00  0.17663741032E+04  0.17663741032E+04  0.50400001928E-02 0. -1.
        1   -1    0    0  501    0  0.00000000000E+00  0.00000000000E+00 -0.16411353594E+04  0.16411353594E+04  0.50400001928E-02 0.  1.
    10030    2    1    2    0    0  0.00000000000E+00  0.00000000000E+00  0.12523874380E+03  0.34075094626E+04  0.34052071883E+04 0.  0.
        2    1    3    3  502    0 -0.12304868888E+04  0.11152830764E+04  0.43824587721E+03  0.17175604132E+04  0.25500000920E-02 0. -1.
       -2    1    3    3    0  502  0.12304868888E+04 -0.11152830764E+04 -0.31300713340E+03  0.16899490494E+04  0.25500000920E-02 0.  1.
</event>
<event>
 5   0  0.1562618E-06  0.2050611E+04  0.7818609E-02  0.8583317E-01
        1   -1    0    0  501    0  0.00000000000E+00  0.00000000000E+00  0.88571585691E+03  0.88571585692E+03  0.50400001928E-02 0. -1.
       -1   -1    0    0    0  501  0.00000000000E+00  0.00000000000E+00 -0.11868946011E+04  0.11868946011E+04  0.50400001928E-02 0.  1.
    10030    2    1    2    0    0  0.00000000000E+00  0.00000000000E+00 -0.30117874415E+03  0.20726104580E+04  0.20506110003E+04 0.  0.
        2    1    3    3  502    0  0.26463251422E+03 -0.79401759926E+03  0.44801186328E+03  0.94932025427E+03  0.25500000920E-02 0. -1.
       -2    1    3    3    0  502 -0.26463251422E+03  0.79401759926E+03 -0.74919060744E+03  0.11232902037E+04  0.25500000920E-02 0.  1.
</event>
<event>
 5   0  0.2722449E-06  0.2869483E+04  0.7818609E-02  0.8282015E-01
       -2   -1    0    0    0  501  0.00000000000E+00  0.00000000000E+00  0.20298332965E+04  0.20298332965E+04  0.25500000920E-02 0. -1.
        2   -1    0    0  501    0  0.00000000000E+00  0.00000000000E+00 -0.10141143896E+04  0.10141143896E+04  0.25500000920E-02 0.  1.
    10030    2    1    2    0    0  0.00000000000E+00  0.00000000000E+00  0.10157189069E+04  0.30439476861E+04  0.28694829879E+04 0.  0.
        2    1    3    3  502    0  0.13486506477E+02  0.14344139679E+04  0.53706205204E+03  0.15317183047E+04  0.25500000920E-02 0. -1.
       -2    1    3    3    0  502 -0.13486506477E+02 -0.14344139679E+04  0.47865685488E+03  0.15122293814E+04  0.25500000920E-02 0.  1.
</event>
<event>
 5   0  0.1550164E-06  0.3437263E+04  0.7818609E-02  0.8128821E-01
        1   -1    0    0  501    0  0.00000000000E+00  0.00000000000E+00  0.15397335555E+04  0.15397335555E+04  0.50400001928E-02 0. -1.
       -1   -1    0    0    0  501  0.00000000000E+00  0.00000000000E+00 -0.19183148149E+04  0.19183148149E+04  0.50400001928E-02 0.  1.
    10030    2    1    2    0    0  0.00000000000E+00  0.00000000000E+00 -0.37858125939E+03  0.34580483703E+04  0.34372626844E+04 0.  0.
        4    1    3    3  502    0  0.81032854003E+03 -0.13693898791E+04 -0.84270342548E+03  0.18005587077E+04  0.12699999809E+01 0.  1.
       -4    1    3    3    0  502 -0.81032854003E+03  0.13693898791E+04  0.46412216608E+03  0.16574896626E+04  0.12699999809E+01 0. -1.
</event>
<event>
 5   0  0.1562618E-06  0.3468130E+04  0.7818609E-02  0.8121384E-01
        1   -1    0    0  501    0  0.00000000000E+00  0.00000000000E+00  0.11535285589E+04  0.11535285590E+04  0.50400001928E-02 0.  1.
       -1   -1    0    0    0  501  0.00000000000E+00  0.00000000000E+00 -0.26067687913E+04  0.26067687913E+04  0.50400001928E-02 0. -1.
    10030    2    1    2    0    0  0.00000000000E+00  0.00000000000E+00 -0.14532402323E+04  0.37602973502E+04  0.34681304747E+04 0.  0.
        2    1    3    3  502    0 -0.11994827322E+02  0.10389844889E+04  0.77862424980E+03  0.12984176394E+04  0.25500000920E-02 0.  1.
       -2    1    3    3    0  502  0.11994827322E+02 -0.10389844889E+04 -0.22318644821E+04  0.24618797108E+04  0.25500000920E-02 0. -1.
</event>
<event>
 5   0  0.1654257E-06  0.3378774E+04  0.7818609E-02  0.8143136E-01
        1   -1    0    0  501    0  0.00000000000E+00  0.00000000000E+00  0.20613269931E+04  0.20613269931E+04  0.50400001928E-02 0.  1.
       -1   -1    0    0    0  501  0.00000000000E+00  0.00000000000E+00 -0.13845584953E+04  0.13845584953E+04  0.50400001928E-02 0. -1.
    10030    2    1    2    0    0  0.00000000000E+00  0.00000000000E+00  0.67676849780E+03  0.34458854884E+04  0.33787736236E+04 0.  0.
        3    1    3    3  502    0 -0.47699579673E+03 -0.63464718888E+03 -0.11824516592E+04  0.14242520778E+04  0.10100000352E+00 0. -1.
       -3    1    3    3    0  502  0.47699579673E+03  0.63464718888E+03  0.18592201570E+04  0.20216334106E+04  0.10100000352E+00 0.  1.
</event>
<event>
 5   0  0.1550164E-06  0.3618973E+04  0.7818609E-02  0.8086160E-01
       -1   -1    0    0    0  501  0.00000000000E+00  0.00000000000E+00  0.29581334965E+04  0.29581334965E+04  0.50400001928E-02 0. -1.
        1   -1    0    0  501    0  0.00000000000E+00  0.00000000000E+00 -0.11068604060E+04  0.11068604061E+04  0.50400001928E-02 0.  1.
    10030    2    1    2    0    0  0.00000000000E+00  0.00000000000E+00  0.18512730904E+04  0.40649939025E+04  0.36189726957E+04 0.  0.
        4    1    3    3  502    0 -0.14463750961E+04 -0.80954590999E+03  0.17409561121E+04  0.24038084982E+04  0.12699999809E+01 0. -1.
       -4    1    3    3    0  502  0.14463750961E+04  0.80954590999E+03  0.11031697831E+03  0.16611854043E+04  0.12699999809E+01 0.  1.
</event>
<event>
 5   0  0.4173467E-06  0.3397828E+04  0.7818609E-02  0.8138439E-01
       -2   -1    0    0    0  501  0.00000000000E+00  0.00000000000E+00  0.12286175120E+04  0.12286175120E+04  0.25500000920E-02 0. -1.
        2   -1    0    0  501    0  0.00000000000E+00  0.00000000000E+00 -0.23492335613E+04  0.23492335613E+04  0.25500000920E-02 0.  1.
    10030    2    1    2    0    0  0.00000000000E+00  0.00000000000E+00 -0.11206160494E+04  0.35778510733E+04  0.33978284201E+04 0.  0.
        4    1    3    3  502    0  0.72159325351E+03  0.18992570465E+02  0.10591115012E+04  0.12817083624E+04  0.12699999809E+01 0. -1.
       -4    1    3    3    0  502 -0.72159325351E+03 -0.18992570465E+02 -0.21797275506E+04  0.22961427109E+04  0.12699999809E+01 0.  1.
</event>
<event>
 5   0  0.2722449E-06  0.2278751E+04  0.7818609E-02  0.8486347E-01
       -2   -1    0    0    0  501  0.00000000000E+00  0.00000000000E+00  0.65553871333E+03  0.65553871333E+03  0.25500000920E-02 0. -1.
        2   -1    0    0  501    0  0.00000000000E+00  0.00000000000E+00 -0.19803203080E+04  0.19803203080E+04  0.25500000920E-02 0.  1.
    10030    2    1    2    0    0  0.00000000000E+00  0.00000000000E+00 -0.13247815947E+04  0.26358590213E+04  0.22787510849E+04 0.  0.
        2    1    3    3  502    0 -0.81500328699E+03  0.72085532811E+03 -0.27130256907E+03  0.11213687377E+04  0.25500000920E-02 0. -1.
       -2    1    3    3    0  502  0.81500328699E+03 -0.72085532811E+03 -0.10534790256E+04  0.15144902837E+04  0.25500000920E-02 0.  1.
</event>
<event>
 5   0  0.4344980E-06  0.3430995E+04  0.7818609E-02  0.8130341E-01
        2   -1    0    0  501    0  0.00000000000E+00  0.00000000000E+00  0.10352837494E+04  0.10352837494E+04  0.25500000920E-02 0. -1.
       -2   -1    0    0    0  501  0.00000000000E+00  0.00000000000E+00 -0.28426324011E+04  0.28426324011E+04  0.25500000920E-02 0.  1.
    10030    2    1    2    0    0  0.00000000000E+00  0.00000000000E+00 -0.18073486517E+04  0.38779161505E+04  0.34309946839E+04 0.  0.
        3    1    3    3  502    0  0.96995730359E+03  0.31837090851E+03 -0.24619393252E+04  0.26652058940E+04  0.10100000352E+00 0.  1.
       -3    1    3    3    0  502 -0.96995730359E+03 -0.31837090851E+03  0.65459067348E+03  0.12127102565E+04  0.10100000352E+00 0. -1.
</event>
<event>
 5   0  0.4344980E-06  0.3294702E+04  0.7818609E-02  0.8164245E-01
       -2   -1    0    0    0  501  0.00000000000E+00  0.00000000000E+00  0.15315781587E+04  0.15315781587E+04  0.25500000920E-02 0. -1.
        2   -1    0    0  501    0  0.00000000000E+00  0.00000000000E+00 -0.17718747158E+04  0.17718747158E+04  0.25500000920E-02 0.  1.
    10030    2    1    2    0    0  0.00000000000E+00  0.00000000000E+00 -0.24029655704E+03  0.33034528745E+04  0.32947015736E+04 0.  0.
        3    1    3    3  502    0  0.10239102354E+04  0.12679458748E+04 -0.36096469471E+03  0.16692436709E+04  0.10100000352E+00 0.  1.
       -3    1    3    3    0  502 -0.10239102354E+04 -0.12679458748E+04  0.12066813767E+03  0.16342092037E+04  0.10100000352E+00 0. -1.
</event>
<event>
 5   0  0.4173467E-06  0.2601539E+04  0.7818609E-02  0.8367679E-01
        2   -1    0    0  501    0  0.00000000000E+00  0.00000000000E+00  0.11310387086E+04  0.11310387087E+04  0.25500000920E-02 0. -1.
       -2   -1    0    0    0  501  0.00000000000E+00  0.00000000000E+00 -0.14959706190E+04  0.14959706190E+04  0.25500000920E-02 0.  1.
    10030    2    1    2    0    0  0.00000000000E+00  0.00000000000E+00 -0.36493191035E+03  0.26270093276E+04  0.26015385272E+04 0.  0.
        4    1    3    3  502    0  0.10539698764E+04  0.46422016491E+03  0.42814119635E+03  0.12286819599E+04  0.12699999809E+01 0. -1.
       -4    1    3    3    0  502 -0.10539698764E+04 -0.46422016491E+03 -0.79307310670E+03  0.13983273677E+04  0.12699999809E+01 0.  1.
</event>
<event>
 5   0  0.1654257E-06  0.3401445E+04  0.7818609E-02  0.8137552E-01
        1   -1    0    0  501    0  0.00000000000E+00  0.00000000000E+00  0.13207683484E+04  0.13207683484E+04  0.50400001928E-02 0.  1.
       -1   -1    0    0    0  501  0.00000000000E+00  0.00000000000E+00 -0.21899811000E+04  0.21899811000E+04  0.50400001928E-02 0. -1.
    10030    2    1    2    0    0  0.00000000000E+00  0.00000000000E+00 -0.86921275162E+03  0.35107494485E+04  0.34014454107E+04 0.  0.
        3    1    3    3  502    0 -0.11615520206E+04 -0.11200689275E+04 -0.98918085732E+03  0.18926796553E+04  0.10100000352E+00 0. -1.
       -3    1    3    3    0  502  0.11615520206E+04  0.11200689275E+04  0.11996810569E+03  0.16180697932E+04  0.10100000352E+00 0.  1.
</event>
<event>
 5   0  0.1571391E-06  0.3265138E+04  0.7818609E-02  0.8171823E-01
       -1   -1    0    0    0  501  0.00000000000E+00  0.00000000000E+00  0.17017430353E+04  0.17017430353E+04  0.50400001928E-02 0.  1.
        1   -1    0    0  501    0  0.00000000000E+00  0.00000000000E+00 -0.15662071912E+04  0.15662071912E+04  0.50400001928E-02 0. -1.
    10030    2    1    2    0    0  0.00000000000E+00  0.00000000000E+00  0.13553584414E+03  0.32679502265E+04  0.32651383918E+04 0.  0.
        1    1    3    3  502    0  0.10799131004E+04 -0.27496485276E+03 -0.11263497212E+04  0.15844499579E+04  0.50400001928E-02 0. -1.
       -1    1    3    3    0  502 -0.10799131004E+04  0.27496485276E+03  0.12618855653E+04  0.16835002686E+04  0.50400001928E-02 0.  1.
</event>
<event>
 5   0  0.4344980E-06  0.3239998E+04  0.7818609E-02  0.8178333E-01
        2   -1    0    0  501    0  0.00000000000E+00  0.00000000000E+00  0.14720710293E+04  0.14720710293E+04  0.25500000920E-02 0. -1.
       -2   -1    0    0    0  501  0.00000000000E+00  0.00000000000E+00 -0.17827925473E+04  0.17827925473E+04  0.25500000920E-02 0.  1.
    10030    2    1    2    0    0  0.00000000000E+00  0.00000000000E+00 -0.31072151801E+03  0.32548635767E+04  0.32399983088E+04 0.  0.
        3    1    3    3  502    0 -0.86879129202E+03  0.94678758742E+03 -0.11463919373E+04  0.17220393517E+04  0.10100000352E+00 0.  1.
       -3    1    3    3    0  502  0.86879129202E+03 -0.94678758742E+03  0.83567041927E+03  0.15328242250E+04  0.10100000352E+00 0. -1.
</event>
<event>
 5   0  0.1562618E-06  0.3476732E+04  0.7818609E-02  0.8119326E-01
       -1   -1    0    0    0  501  0.00000000000E+00  0.00000000000E+00  0.16339569839E+04  0.16339569839E+04  0.50400001928E-02 0. -1.
        1   -1    0    0  501    0  0.00000000000E+00  0.00000000000E+00 -0.18494470063E+04  0.18494470063E+04  0.50400001928E-02 0.  1.
    10030    2    1    2    0    0  0.00000000000E+00  0.00000000000E+00 -0.21549002241E+03  0.34834039902E+04  0.34767322889E+04 0.  0.
        2    1    3    3  502    0 -0.12267263854E+04  0.85589414274E+03 -0.99516722991E+03  0.17965996281E+04  0.25500000920E-02 0.  1.
       -2    1    3    3    0  502  0.12267263854E+04 -0.85589414274E+03  0.77967720749E+03  0.16868043621E+04  0.25500000920E-02 0. -1.
</event>
<event>
 5   0  0.4189587E-06  0.3370020E+04  0.7818609E-02  0.8145304E-01
        2   -1    0    0  501    0  0.00000000000E+00  0.00000000000E+00  0.15014691567E+04  0.15014691567E+04  0.25500000920E-02 0.  1.
       -2   -1    0    0    0  501  0.00000000000E+00  0.00000000000E+00 -0.18909875677E+04  0.18909875677E+04  0.25500000920E-02 0. -1.
    10030    2    1    2    0    0  0.00000000000E+00  0.00000000000E+00 -0.38951841101E+03  0.33924567244E+04  0.33700204799E+04 0.  0.
        1    1    3    3  502    0 -0.12027276229E+04 -0.23978830537E+02 -0.13825003349E+04  0.18326035838E+04  0.50400001928E-02 0. -1.
       -1    1    3    3    0  502  0.12027276229E+04  0.23978830537E+02  0.99298192387E+03  0.15598531407E+04  0.50400001928E-02 0.  1.
</event>
<event>
 5   0  0.4189587E-06  0.3415818E+04  0.7818609E-02  0.8134035E-01
       -2   -1    0    0    0  501  0.00000000000E+00  0.00000000000E+00  0.14003614236E+04  0.14003614236E+04  0.25500000920E-02 0.  1.
        2   -1    0    0  501    0  0.00000000000E+00  0.00000000000E+00 -0.20830006606E+04  0.20830006606E+04  0.25500000920E-02 0. -1.
    10030    2    1    2    0    0  0.00000000000E+00  0.00000000000E+00 -0.68263923694E+03  0.34833620842E+04  0.34158183620E+04 0.  0.
        1    1    3    3  502    0 -0.86568926235E+03  0.13387752294E+03  0.11538276067E+04  0.14486749933E+04  0.50400001928E-02 0.  1.
       -1    1    3    3    0  502  0.86568926235E+03 -0.13387752294E+03 -0.18364668437E+04  0.20346870909E+04  0.50400001928E-02 0. -1.
</event>
<event>
 5   0  0.1571391E-06  0.3276939E+04  0.7818609E-02  0.8168788E-01
        1   -1    0    0  501    0  0.00000000000E+00  0.00000000000E+00  0.16662536453E+04  0.16662536453E+04  0.50400001928E-02 0. -1.
       -1   -1    0    0    0  501  0.00000000000E+00  0.00000000000E+00 -0.16111488235E+04  0.16111488235E+04  0.50400001928E-02 0.  1.
    10030    2    1    2    0    0  0.00000000000E+00  0.00000000000E+00  0.55104821835E+02  0.32774024689E+04  0.32769391818E+04 0.  0.
        1    1    3    3  502    0 -0.12319360716E+04 -0.76889654239E+03  0.78641802552E+03  0.16514604713E+04  0.50400001928E-02 0. -1.
       -1    1    3    3    0  502  0.12319360716E+04  0.76889654239E+03 -0.73131320368E+03  0.16259419975E+04  0.50400001928E-02 0.  1.
</event>
<event>
 5   0  0.4344980E-06  0.3390443E+04  0.7818609E-02  0.8140256E-01
       -2   -1    0    0    0  501  0.00000000000E+00  0.00000000000E+00  0.10334588658E+04  0.10334588658E+04  0.25500000920E-02 0.  1.
        2   -1    0    0  501    0  0.00000000000E+00  0.00000000000E+00 -0.27807352764E+04  0.27807352764E+04  0.25500000920E-02 0. -1.
    10030    2    1    2    0    0  0.00000000000E+00  0.00000000000E+00 -0.17472764105E+04  0.38141941422E+04  0.33904427586E+04 0.  0.
        3    1    3    3  502    0 -0.45603958707E+03  0.16309271214E+04 -0.95990427324E+03  0.19466154228E+04  0.10100000352E+00 0. -1.
       -3    1    3    3    0  502  0.45603958707E+03 -0.16309271214E+04 -0.78737213727E+03  0.18675787194E+04  0.10100000352E+00 0.  1.
</event>
<event>
 5   0  0.4173467E-06  0.3280696E+04  0.7818609E-02  0.8167825E-01
       -2   -1    0    0    0  501  0.00000000000E+00  0.00000000000E+00  0.21787253267E+04  0.21787253267E+04  0.25500000920E-02 0.  1.
        2   -1    0    0  501    0  0.00000000000E+00  0.00000000000E+00 -0.12350073842E+04  0.12350073842E+04  0.25500000920E-02 0. -1.
    10030    2    1    2    0    0  0.00000000000E+00  0.00000000000E+00  0.94371794254E+03  0.34137327109E+04  0.32806961862E+04 0.  0.
        4    1    3    3  502    0 -0.91955639106E+03  0.96861396904E+03 -0.51909518294E+03  0.14329195369E+04  0.12699999809E+01 0. -1.
       -4    1    3    3    0  502  0.91955639106E+03 -0.96861396904E+03  0.14628131255E+04  0.19808131740E+04  0.12699999809E+01 0.  1.
</event>
<event>
 5   0  0.1562618E-06  0.2642093E+04  0.7818609E-02  0.8354042E-01
        1   -1    0    0  501    0  0.00000000000E+00  0.00000000000E+00  0.19669320544E+04  0.19669320544E+04  0.50400001928E-02 0. -1.
       -1   -1    0    0    0  501  0.00000000000E+00  0.00000000000E+00 -0.88725144220E+03  0.88725144221E+03  0.50400001928E-02 0.  1.
    10030    2    1    2    0    0  0.00000000000E+00  0.00000000000E+00  0.10796806122E+04  0.28541834966E+04  0.26420925813E+04 0.  0.
        2    1    3    3  502    0  0.32608275716E+03  0.50113755154E+03  0.18124076996E+04  0.19084785772E+04  0.25500000920E-02 0. -1.
       -2    1    3    3    0  502 -0.32608275716E+03 -0.50113755154E+03 -0.73272708737E+03  0.94570491944E+03  0.25500000920E-02 0.  1.
</event>
<event>
 5   0  0.2722449E-06  0.2995092E+04  0.7818609E-02  0.8245134E-01
       -2   -1    0    0    0  501  0.00000000000E+00  0.00000000000E+00  0.15712178083E+04  0.15712178083E+04  0.25500000920E-02 0.  1.
        2   -1    0    0  501    0  0.00000000000E+00  0.00000000000E+00 -0.14273289756E+04  0.14273289756E+04  0.25500000920E-02 0. -1.
    10030    2    1    2    0    0  0.00000000000E+00  0.00000000000E+00  0.14388883272E+03  0.29985467838E+04  0.29950924558E+04 0.  0.
        2    1    3    3  502    0  0.12617761575E+04 -0.34773832849E+03 -0.65666116947E+03  0.14643103866E+04  0.25500000920E-02 0.  1.
       -2    1    3    3    0  502 -0.12617761575E+04  0.34773832849E+03  0.80055000219E+03  0.15342363973E+04  0.25500000920E-02 0. -1.
</event>
<event>
 5   0  0.2722449E-06  0.3510150E+04  0.7818609E-02  0.8111389E-01
        2   -1    0    0  501    0  0.00000000000E+00  0.00000000000E+00  0.22350555896E+04  0.22350555896E+04  0.25500000920E-02 0.  1.
       -2   -1    0    0    0  501  0.00000000000E+00  0.00000000000E+00 -0.13781705054E+04  0.13781705054E+04  0.25500000920E-02 0. -1.
    10030    2    1    2    0    0  0.00000000000E+00  0.00000000000E+00  0.85688508429E+03  0.36132260950E+04  0.35101496786E+04 0.  0.
        2    1    3    3  502    0 -0.13239995725E+04  0.73997627480E+03 -0.48052132403E+03  0.15910501243E+04  0.25500000920E-02 0. -1.
       -2    1    3    3    0  502  0.13239995725E+04 -0.73997627480E+03  0.13374064083E+04  0.20221759707E+04  0.25500000920E-02 0.  1.
</event>
<event>
 5   0  0.1788920E-06  0.1731430E+04  0.7818609E-02  0.8743639E-01
       -1   -1    0    0    0  501  0.00000000000E+00  0.00000000000E+00  0.57208440975E+03  0.57208440977E+03  0.50400001928E-02 0.  1.
        1   -1    0    0  501    0  0.00000000000E+00  0.00000000000E+00 -0.13100563982E+04  0.13100563982E+04  0.50400001928E-02 0. -1.
    10030    2    1    2    0    0  0.00000000000E+00  0.00000000000E+00 -0.73797198843E+03  0.18821408080E+04  0.17314304391E+04 0.  0.
        1    1    3    3  502    0 -0.61222502833E+03 -0.90147486292E+02 -0.10270891873E+04  0.11991072734E+04  0.50400001928E-02 0. -1.
       -1    1    3    3    0  502  0.61222502833E+03  0.90147486292E+02  0.28911719883E+03  0.68303353452E+03  0.50400001928E-02 0.  1.
</event>
<event>
 5   0  0.1562618E-06  0.3324332E+04  0.7818609E-02  0.8156732E-01
       -1   -1    0    0    0  501  0.00000000000E+00  0.00000000000E+00  0.17463458486E+04  0.17463458486E+04  0.50400001928E-02 0. -1.
        1   -1    0    0  501    0  0.00000000000E+00  0.00000000000E+00 -0.15820437281E+04  0.15820437281E+04  0.50400001928E-02 0.  1.
    10030    2    1    2    0    0  0.00000000000E+00  0.00000000000E+00  0.16430212048E+03  0.33283895767E+04  0.33243318107E+04 0.  0.
        2    1    3    3  502    0 -0.15684577970E+04 -0.29581638328E+03  0.54664438686E+03  0.16871239668E+04  0.25500000920E-02 0. -1.
       -2    1    3    3    0  502  0.15684577970E+04  0.29581638328E+03 -0.38234226637E+03  0.16412656099E+04  0.25500000920E-02 0.  1.
</event>
<event>
 5   0  0.2101998E-06  0.3365316E+04  0.7818609E-02  0.8146472E-01
        1   -1    0    0  501    0  0.00000000000E+00  0.00000000000E+00  0.27587078041E+04  0.27587078041E+04  0.50400001928E-02 0. -1.
       -1   -1    0    0    0  501  0.00000000000E+00  0.00000000000E+00 -0.10263275721E+04  0.10263275721E+04  0.50400001928E-02 0.  1.
    10030    2    1    2    0    0  0.00000000000E+00  0.00000000000E+00  0.17323802320E+04  0.37850353762E+04  0.33653159630E+04 0.  0.
        5    1    3    3  502    0 -0.77334839237E+03  0.14938654094E+04  0.82100221934E+03  0.18718355514E+04  0.46999998093E+01 0.  1.
       -5    1    3    3    0  502  0.77334839237E+03 -0.14938654094E+04  0.91137801270E+03  0.19131998248E+04  0.46999998093E+01 0. -1.
</event>
<event>
 5   0  0.1562618E-06  0.3449238E+04  0.7818609E-02  0.8125926E-01
       -1   -1    0    0    0  501  0.00000000000E+00  0.00000000000E+00  0.13679887323E+04  0.13679887323E+04  0.50400001928E-02 0. -1.
        1   -1    0    0  501    0  0.00000000000E+00  0.00000000000E+00 -0.21742218415E+04  0.21742218415E+04  0.50400001928E-02 0.  1.
    10030    2    1    2    0    0  0.00000000000E+00  0.00000000000E+00 -0.80623310923E+03  0.35422105739E+04  0.34492381656E+04 0.  0.
        2    1    3    3  502    0 -0.14549776073E+03 -0.16448933333E+04  0.10775309949E+03  0.16548276064E+04  0.25500000920E-02 0. -1.
       -2    1    3    3    0  502  0.14549776073E+03  0.16448933333E+04 -0.91398620871E+03  0.18873829675E+04  0.25500000920E-02 0.  1.
</event>
<event>
 5   0  0.1571391E-06  0.2654565E+04  0.7818609E-02  0.8349899E-01
       -1   -1    0    0    0  501  0.00000000000E+00  0.00000000000E+00  0.16604879321E+04  0.16604879321E+04  0.50400001928E-02 0.  1.
        1   -1    0    0  501    0  0.00000000000E+00  0.00000000000E+00 -0.10609403367E+04  0.10609403367E+04  0.50400001928E-02 0. -1.
    10030    2    1    2    0    0  0.00000000000E+00  0.00000000000E+00  0.59954759536E+03  0.27214282688E+04  0.26545648425E+04 0.  0.
        1    1    3    3  502    0  0.56392175085E+03 -0.81110527244E+03 -0.60899581379E+03  0.11605065296E+04  0.50400001928E-02 0. -1.
       -1    1    3    3    0  502 -0.56392175085E+03  0.81110527244E+03  0.12085434092E+04  0.15609217392E+04  0.50400001928E-02 0.  1.
</event>
<event>
 5   0  0.4344980E-06  0.3271881E+04  0.7818609E-02  0.8170087E-01
        2   -1    0    0  501    0  0.00000000000E+00  0.00000000000E+00  0.16842914082E+04  0.16842914082E+04  0.25500000920E-02 0.  1.
       -2   -1    0    0    0  501  0.00000000000E+00  0.00000000000E+00 -0.15889774364E+04  0.15889774365E+04  0.25500000920E-02 0. -1.
    10030    2    1    2    0    0  0.00000000000E+00  0.00000000000E+00  0.95313971704E+02  0.32732688446E+04  0.32718808315E+04 0.  0.
        3    1    3    3  502    0  0.72366054808E+03 -0.48026624831E+03 -0.13392791369E+04  0.15962483750E+04  0.10100000352E+00 0. -1.
       -3    1    3    3    0  502 -0.72366054808E+03  0.48026624831E+03  0.14345931086E+04  0.16770204696E+04  0.10100000352E+00 0.  1.
</event>
<event>
 5   0  0.1562618E-06  0.2518534E+04  0.7818609E-02  0.8396412E-01
        1   -1    0    0  501    0  0.00000000000E+00  0.00000000000E+00  0.12229435456E+04  0.12229435456E+04  0.50400001928E-02 0.  1.
       -1   -1    0    0    0  501  0.00000000000E+00  0.00000000000E+00 -0.12966688745E+04  0.12966688745E+04  0.50400001928E-02 0. -1.
    10030    2    1    2    0    0  0.00000000000E+00  0.00000000000E+00 -0.73725328861E+02  0.25196124201E+04  0.25185335661E+04 0.  0.
        2    1    3    3  502    0  0.66518254832E+03  0.58566536325E+03 -0.93183018548E+03  0.12859934817E+04  0.25500000920E-02 0.  1.
       -2    1    3    3    0  502 -0.66518254832E+03 -0.58566536325E+03  0.85810485662E+03  0.12336189384E+04  0.25500000920E-02 0. -1.
</event>
<event>
 5   0  0.4400349E-06  0.2472648E+04  0.7818609E-02  0.8412795E-01
       -2   -1    0    0    0  501  0.00000000000E+00  0.00000000000E+00  0.91161078768E+03  0.91161078769E+03  0.25500000920E-02 0.  1.
        2   -1    0    0  501    0  0.00000000000E+00  0.00000000000E+00 -0.16766998250E+04  0.16766998250E+04  0.25500000920E-02 0. -1.
    10030    2    1    2    0    0  0.00000000000E+00  0.00000000000E+00 -0.76508903729E+03  0.25883106127E+04  0.24726484976E+04 0.  0.
        5    1    3    3  502    0 -0.11828247838E+03 -0.10432997905E+04  0.30068101836E+03  0.10921979501E+04  0.46999998093E+01 0.  1.
       -5    1    3    3    0  502  0.11828247838E+03  0.10432997905E+04 -0.10657700556E+04  0.14961126625E+04  0.46999998093E+01 0. -1.
</event>
<event>
 5   0  0.4344980E-06  0.1781325E+04  0.7818609E-02  0.8716294E-01
       -2   -1    0    0    0  501  0.00000000000E+00  0.00000000000E+00  0.20424915432E+04  0.20424915432E+04  0.25500000920E-02 0. -1.
        2   -1    0    0  501    0  0.00000000000E+00  0.00000000000E+00 -0.38838839233E+03  0.38838839234E+03  0.25500000920E-02 0.  1.
    10030    2    1    2    0    0  0.00000000000E+00  0.00000000000E+00  0.16541031509E+04  0.24308799356E+04  0.17813253570E+04 0.  0.
        3    1    3    3  502    0  0.27475304040E+03  0.82238280885E+03  0.11049751511E+04  0.14045543109E+04  0.10100000352E+00 0. -1.
       -3    1    3    3    0  502 -0.27475304040E+03 -0.82238280885E+03  0.54912799978E+03  0.10263256247E+04  0.10100000352E+00 0.  1.
</event>
<event>
 5   0  0.4189587E-06  0.3334745E+04  0.7818609E-02  0.8154110E-01
       -2   -1    0    0    0  501  0.00000000000E+00  0.00000000000E+00  0.10789190656E+04  0.10789190656E+04  0.25500000920E-02 0. -1.
        2   -1    0    0  501    0  0.00000000000E+00  0.00000000000E+00 -0.25767751338E+04  0.25767751338E+04  0.25500000920E-02 0.  1.
    10030    2    1    2    0    0  0.00000000000E+00  0.00000000000E+00 -0.14978560682E+04  0.36556941995E+04  0.33347454594E+04 0.  0.
        1    1    3    3  502    0 -0.40549067931E+03  0.16107901790E+04 -0.90803123337E+03  0.18930368228E+04  0.50400001928E-02 0.  1.
       -1    1    3    3    0  502  0.40549067931E+03 -0.16107901790E+04 -0.58982483483E+03  0.17626573767E+04  0.50400001928E-02 0. -1.
</event>
<event>
 5   0  0.2101998E-06  0.1902263E+04  0.7818609E-02  0.8653731E-01
        1   -1    0    0  501    0  0.00000000000E+00  0.00000000000E+00  0.10796806693E+04  0.10796806693E+04  0.50400001928E-02 0. -1.
       -1   -1    0    0    0  501  0.00000000000E+00  0.00000000000E+00 -0.83788759163E+03  0.83788759165E+03  0.50400001928E-02 0.  1.
    10030    2    1    2    0    0  0.00000000000E+00  0.00000000000E+00  0.24179307770E+03  0.19175682610E+04  0.19022629006E+04 0.  0.
        5    1    3    3  502    0 -0.64976328471E+03  0.38322050906E+03 -0.46305588197E+03  0.88515146983E+03  0.46999998093E+01 0.  1.
       -5    1    3    3    0  502  0.64976328471E+03 -0.38322050906E+03  0.70484895967E+03  0.10324167912E+04  0.46999998093E+01 0. -1.
</event>
<event>
 5   0  0.4400349E-06  0.3789765E+04  0.7818609E-02  0.8048355E-01
       -2   -1    0    0    0  501  0.00000000000E+00  0.00000000000E+00  0.28676215555E+04  0.28676215555E+04  0.25500000920E-02 0. -1.
        2   -1    0    0  501    0  0.00000000000E+00  0.00000000000E+00 -0.12521110007E+04  0.12521110007E+04  0.25500000920E-02 0.  1.
    10030    2    1    2    0    0  0.00000000000E+00  0.00000000000E+00  0.16155105548E+04  0.41197325562E+04  0.37897654256E+04 0.  0.
        5    1    3    3  502    0  0.18149726193E+04 -0.49185196251E+03  0.55394308184E+03  0.19603364481E+04  0.46999998093E+01 0. -1.
       -5    1    3    3    0  502 -0.18149726193E+04  0.49185196251E+03  0.10615674730E+04  0.21593961081E+04  0.46999998093E+01 0.  1.
</event>
<event>
 5   0  0.4189587E-06  0.2249090E+04  0.7818609E-02  0.8498269E-01
        2   -1    0    0  501    0  0.00000000000E+00  0.00000000000E+00  0.12568659791E+04  0.12568659791E+04  0.25500000920E-02 0. -1.
       -2   -1    0    0    0  501  0.00000000000E+00  0.00000000000E+00 -0.10061547589E+04  0.10061547589E+04  0.25500000920E-02 0.  1.
    10030    2    1    2    0    0  0.00000000000E+00  0.00000000000E+00  0.25071122021E+03  0.22630207380E+04  0.22490902038E+04 0.  0.
        1    1    3    3  502    0  0.11164554257E+04 -0.11580324170E+03  0.56238237399E+02  0.11238531255E+04  0.50400001928E-02 0. -1.
       -1    1    3    3    0  502 -0.11164554257E+04  0.11580324170E+03  0.19447298281E+03  0.11391676125E+04  0.50400001928E-02 0.  1.
</event>
<event>
 5   0  0.1571391E-06  0.3389442E+04  0.7818609E-02  0.8140502E-01
        1   -1    0    0  501    0  0.00000000000E+00  0.00000000000E+00  0.24845390777E+04  0.24845390777E+04  0.50400001928E-02 0.  1.
       -1   -1    0    0    0  501  0.00000000000E+00  0.00000000000E+00 -0.11559807361E+04  0.11559807361E+04  0.50400001928E-02 0. -1.
    10030    2    1    2    0    0  0.00000000000E+00  0.00000000000E+00  0.13285583416E+04  0.36405198138E+04  0.33894420260E+04 0.  0.
        1    1    3    3  502    0 -0.58424530838E+03 -0.15531084426E+04  0.10341591853E+04  0.19552426027E+04  0.50400001928E-02 0.  1.
       -1    1    3    3    0  502  0.58424530838E+03  0.15531084426E+04  0.29439915627E+03  0.16852772111E+04  0.50400001928E-02 0. -1.
</event>
<event>
 5   0  0.1654257E-06  0.3311099E+04  0.7818609E-02  0.8160077E-01
       -1   -1    0    0    0  501  0.00000000000E+00  0.00000000000E+00  0.14838771745E+04  0.14838771745E+04  0.50400001928E-02 0. -1.
        1   -1    0    0  501    0  0.00000000000E+00  0.00000000000E+00 -0.18470832396E+04  0.18470832397E+04  0.50400001928E-02 0.  1.
    10030    2    1    2    0    0  0.00000000000E+00  0.00000000000E+00 -0.36320606518E+03  0.33309604141E+04  0.33110993091E+04 0.  0.
        3    1    3    3  502    0  0.11717294490E+03 -0.23930580224E+02  0.14795261150E+04  0.14843516116E+04  0.10100000352E+00 0. -1.
       -3    1    3    3    0  502 -0.11717294490E+03  0.23930580224E+02 -0.18427321802E+04  0.18466088026E+04  0.10100000352E+00 0.  1.
</event>
<event>
 5   0  0.1562618E-06  0.3398067E+04  0.7818609E-02  0.8138381E-01
        1   -1    0    0  501    0  0.00000000000E+00  0.00000000000E+00  0.15946374809E+04  0.15946374809E+04  0.50400001928E-02 0. -1.
       -1   -1    0    0    0  501  0.00000000000E+00  0.00000000000E+00 -0.18102642536E+04  0.18102642536E+04  0.50400001928E-02 0.  1.
    10030    2    1    2    0    0  0.00000000000E+00  0.00000000000E+00 -0.21562677267E+03  0.34049017346E+04  0.33980672326E+04 0.  0.
        2    1    3    3  502    0 -0.36270128163E+03 -0.16063017463E+04  0.31130735856E+03  0.16759086465E+04  0.25500000920E-02 0. -1.
       -2    1    3    3    0  502  0.36270128163E+03  0.16063017463E+04 -0.52693413123E+03  0.17289930881E+04  0.25500000920E-02 0.  1.
</event>
<event>
 5   0  0.4189587E-06  0.2439979E+04  0.7818609E-02  0.8424686E-01
        2   -1    0    0  501    0  0.00000000000E+00  0.00000000000E+00  0.13785761519E+04  0.13785761519E+04  0.25500000920E-02 0.  1.
       -2   -1    0    0    0  501  0.00000000000E+00  0.00000000000E+00 -0.10796457292E+04  0.10796457292E+04  0.25500000920E-02 0. -1.
    10030    2    1    2    0    0  0.00000000000E+00  0.00000000000E+00  0.29893042269E+03  0.24582218811E+04  0.24399785694E+04 0.  0.
        1    1    3    3  502    0  0.17828665470E+03 -0.10936423369E+04 -0.36477662652E+03  0.11665769068E+04  0.50400001928E-02 0. -1.
       -1    1    3    3    0  502 -0.17828665470E+03  0.10936423369E+04  0.66370704921E+03  0.12916449742E+04  0.50400001928E-02 0.  1.
</event>
<event>
 5   0  0.4400349E-06  0.3112930E+04  0.7818609E-02  0.8212198E-01
        2   -1    0    0  501    0  0.00000000000E+00  0.00000000000E+00  0.14045807639E+04  0.14045807639E+04  0.25500000920E-02 0.  1.
       -2   -1    0    0    0  501  0.00000000000E+00  0.00000000000E+00 -0.17247731241E+04  0.17247731241E+04  0.25500000920E-02 0. -1.
    10030    2    1    2    0    0  0.00000000000E+00  0.00000000000E+00 -0.32019236021E+03  0.31293538880E+04  0.31129299074E+04 0.  0.
        5    1    3    3  502    0 -0.91058960052E+03 -0.11731251113E+04  0.30837229143E+03  0.15167437185E+04  0.46999998093E+01 0. -1.
       -5    1    3    3    0  502  0.91058960052E+03  0.11731251113E+04 -0.62856465164E+03  0.16126101695E+04  0.46999998093E+01 0.  1.
</event>
<event>
 5   0  0.2722449E-06  0.3268097E+04  0.7818609E-02  0.8171061E-01
       -2   -1    0    0    0  501  0.00000000000E+00  0.00000000000E+00  0.14776946019E+04  0.14776946019E+04  0.25500000920E-02 0.  1.
        2   -1    0    0  501    0  0.00000000000E+00  0.00000000000E+00 -0.18069464531E+04  0.18069464531E+04  0.25500000920E-02 0. -1.
    10030    2    1    2    0    0  0.00000000000E+00  0.00000000000E+00 -0.32925185122E+03  0.32846410550E+04  0.32680973178E+04 0.  0.
        2    1    3    3  502    0 -0.12598151607E+04 -0.22852595369E+03 -0.11850272487E+04  0.17446053796E+04  0.25500000920E-02 0. -1.
       -2    1    3    3    0  502  0.12598151607E+04  0.22852595369E+03  0.85577539746E+03  0.15400356754E+04  0.25500000920E-02 0.  1.
</event>
<event>
 5   0  0.4344980E-06  0.2543457E+04  0.7818609E-02  0.8387665E-01
       -2   -1    0    0    0  501  0.00000000000E+00  0.00000000000E+00  0.82932007974E+03  0.82932007974E+03  0.25500000920E-02 0.  1.
        2   -1    0    0  501    0  0.00000000000E+00  0.00000000000E+00 -0.19501433317E+04  0.19501433317E+04  0.25500000920E-02 0. -1.
    10030    2    1    2    0    0  0.00000000000E+00  0.00000000000E+00 -0.11208232519E+04  0.27794634114E+04  0.25434567214E+04 0.  0.
        3    1    3    3  502    0  0.60602611652E+03 -0.91288056656E+03 -0.12658109423E+04  0.16741851554E+04  0.10100000352E+00 0. -1.
       -3    1    3    3    0  502 -0.60602611652E+03  0.91288056656E+03  0.14498769035E+03  0.11052782560E+04  0.10100000352E+00 0.  1.
</event>
<event>
 5   0  0.1562618E-06  0.2377864E+04  0.7818609E-02  0.8447838E-01
       -1   -1    0    0    0  501  0.00000000000E+00  0.00000000000E+00  0.14188223664E+04  0.14188223664E+04  0.50400001928E-02 0.  1.
        1   -1    0    0  501    0  0.00000000000E+00  0.00000000000E+00 -0.99629065454E+03  0.99629065455E+03  0.50400001928E-02 0. -1.
    10030    2    1    2    0    0  0.00000000000E+00  0.00000000000E+00  0.42253171187E+03  0.24151130210E+04  0.23778641375E+04 0.  0.
        2    1    3    3  502    0  0.78859769069E+03 -0.93722210336E+02  0.11099365913E+04  0.13647818167E+04  0.25500000920E-02 0.  1.
       -2    1    3    3    0  502 -0.78859769069E+03  0.93722210336E+02 -0.68740487941E+03  0.10503312043E+04  0.25500000920E-02 0. -1.
</event>
<event>
 5   0  0.1571391E-06  0.1784583E+04  0.7818609E-02  0.8714541E-01
        1   -1    0    0  501    0  0.00000000000E+00  0.00000000000E+00  0.72519111697E+03  0.72519111699E+03  0.50400001928E-02 0. -1.
       -1   -1    0    0    0  501  0.00000000000E+00  0.00000000000E+00 -0.10978959034E+04  0.10978959034E+04  0.50400001928E-02 0.  1.
    10030    2    1    2    0    0  0.00000000000E+00  0.00000000000E+00 -0.37270478641E+03  0.18230870204E+04  0.17845832640E+04 0.  0.
        1    1    3    3  502    0 -0.11431087110E+03  0.66384778095E+03 -0.78414751595E+03  0.10337544091E+04  0.50400001928E-02 0.  1.
       -1    1    3    3    0  502  0.11431087110E+03 -0.66384778095E+03  0.41144272954E+03  0.78933261129E+03  0.50400001928E-02 0. -1.
</event>
<event>
 5   0  0.4344980E-06  0.3519964E+04  0.7818609E-02  0.8109075E-01
       -2   -1    0    0    0  501  0.00000000000E+00  0.00000000000E+00  0.14599659859E+04  0.14599659859E+04  0.25500000920E-02 0.  1.
        2   -1    0    0  501    0  0.00000000000E+00  0.00000000000E+00 -0.21216498855E+04  0.21216498855E+04  0.25500000920E-02 0. -1.
    10030    2    1    2    0    0  0.00000000000E+00  0.00000000000E+00 -0.66168389961E+03  0.35816158714E+04  0.35199640150E+04 0.  0.
        3    1    3    3  502    0  0.15429926263E+03  0.15179201064E+04  0.56181904198E+03  0.16258937106E+04  0.10100000352E+00 0.  1.
       -3    1    3    3    0  502 -0.15429926263E+03 -0.15179201064E+04 -0.12235029416E+04  0.19557221608E+04  0.10100000352E+00 0. -1.
</event>
<event>
 5   0  0.4344980E-06  0.3377804E+04  0.7818609E-02  0.8143376E-01
        2   -1    0    0  501    0  0.00000000000E+00  0.00000000000E+00  0.18450569851E+04  0.18450569851E+04  0.25500000920E-02 0.  1.
       -2   -1    0    0    0  501  0.00000000000E+00  0.00000000000E+00 -0.15459628288E+04  0.15459628288E+04  0.25500000920E-02 0. -1.
    10030    2    1    2    0    0  0.00000000000E+00  0.00000000000E+00  0.29909415629E+03  0.33910198139E+04  0.33778037337E+04 0.  0.
        3    1    3    3  502    0 -0.35693094938E+03  0.16029314695E+04 -0.24645860649E+03  0.16605814805E+04  0.10100000352E+00 0. -1.
       -3    1    3    3    0  502  0.35693094938E+03 -0.16029314695E+04  0.54555276278E+03  0.17304383334E+04  0.10100000352E+00 0.  1.
</event>
<event>
 5   0  0.1654257E-06  0.3441300E+04  0.7818609E-02  0.8127844E-01
        1   -1    0    0  501    0  0.00000000000E+00  0.00000000000E+00  0.12245115224E+04  0.12245115225E+04  0.50400001928E-02 0.  1.
       -1   -1    0    0    0  501  0.00000000000E+00  0.00000000000E+00 -0.24178108785E+04  0.24178108786E+04  0.50400001928E-02 0. -1.
    10030    2    1    2    0    0  0.00000000000E+00  0.00000000000E+00 -0.11932993561E+04  0.36423224010E+04  0.34413004983E+04 0.  0.
        3    1    3    3  502    0  0.15015383073E+04  0.25040182728E+03 -0.14455739384E+04  0.20992861608E+04  0.10100000352E+00 0. -1.
       -3    1    3    3    0  502 -0.15015383073E+04 -0.25040182728E+03  0.25227458234E+03  0.15430362402E+04  0.10100000352E+00 0.  1.
</event>
<event>
 5   0  0.1562618E-06  0.3381383E+04  0.7818609E-02  0.8142491E-01
        1   -1    0    0  501    0  0.00000000000E+00  0.00000000000E+00  0.18194984702E+04  0.18194984702E+04  0.50400001928E-02 0.  1.
       -1   -1    0    0    0  501  0.00000000000E+00  0.00000000000E+00 -0.15710028200E+04  0.15710028200E+04  0.50400001928E-02 0. -1.
    10030    2    1    2    0    0  0.00000000000E+00  0.00000000000E+00  0.24849565017E+03  0.33905012902E+04  0.33813826922E+04 0.  0.
        2    1    3    3  502    0 -0.12991599695E+03  0.22046031587E+03  0.17999686224E+04  0.18180670942E+04  0.25500000920E-02 0.  1.
       -2    1    3    3    0  502  0.12991599695E+03 -0.22046031587E+03 -0.15514729723E+04  0.15724341960E+04  0.25500000920E-02 0. -1.
</event>
<event>
 5   0  0.1562618E-06  0.3338106E+04  0.7818609E-02  0.8153266E-01
       -1   -1    0    0    0  501  0.00000000000E+00  0.00000000000E+00  0.16717282167E+04  0.16717282167E+04  0.50400001928E-02 0. -1.
        1   -1    0    0  501    0  0.00000000000E+00  0.00000000000E+00 -0.16663818630E+04  0.16663818630E+04  0.50400001928E-02 0.  1.
    10030    2    1    2    0    0  0.00000000000E+00  0.00000000000E+00  0.53463537235E+01  0.33381100798E+04  0.33381057984E+04 0.  0.
        2    1    3    3  502    0  0.51875989524E+02 -0.11536157084E+03  0.16669283480E+04  0.16717205292E+04  0.25500000920E-02 0. -1.
       -2    1    3    3    0  502 -0.51875989524E+02  0.11536157084E+03 -0.16615819943E+04  0.16663895505E+04  0.25500000920E-02 0.  1.
</event>
<event>
 5   0  0.2722449E-06  0.3380449E+04  0.7818609E-02  0.8142721E-01
        2   -1    0    0  501    0  0.00000000000E+00  0.00000000000E+00  0.24149072097E+04  0.24149072097E+04  0.25500000920E-02 0.  1.
       -2   -1    0    0    0  501  0.00000000000E+00  0.00000000000E+00 -0.11830099035E+04  0.11830099035E+04  0.25500000920E-02 0. -1.
    10030    2    1    2    0    0  0.00000000000E+00  0.00000000000E+00  0.12318973062E+04  0.35979171132E+04  0.33804491685E+04 0.  0.
        2    1    3    3  502    0 -0.53854358978E+03  0.12686939585E+04  0.16572787737E+04  0.21555014480E+04  0.25500000920E-02 0.  1.
       -2    1    3    3    0  502  0.53854358978E+03 -0.12686939585E+04 -0.42538146749E+03  0.14424156653E+04  0.25500000920E-02 0. -1.
</event>
<event>
 5   0  0.1654257E-06  0.3432620E+04  0.7818609E-02  0.8129946E-01
       -1   -1    0    0    0  501  0.00000000000E+00  0.00000000000E+00  0.13219888185E+04  0.13219888185E+04  0.50400001928E-02 0. -1.
        1   -1    0    0  501    0  0.00000000000E+00  0.00000000000E+00 -0.22282492157E+04  0.22282492157E+04  0.50400001928E-02 0.  1.
    10030    2    1    2    0    0  0.00000000000E+00  0.00000000000E+00 -0.90626039721E+03  0.35502380343E+04  0.34326203100E+04 0.  0.
        3    1    3    3  502    0  0.10864100419E+04  0.12870257173E+04 -0.11166842786E+03  0.16879549236E+04  0.10100000352E+00 0. -1.
       -3    1    3    3    0  502 -0.10864100419E+04 -0.12870257173E+04 -0.79459196935E+03  0.18622831106E+04  0.10100000352E+00 0.  1.
</event>
<event>
 5   0  0.4344980E-06  0.3356375E+04  0.7818609E-02  0.8148697E-01
       -2   -1    0    0    0  501  0.00000000000E+00  0.00000000000E+00  0.12890893922E+04  0.12890893922E+04  0.25500000920E-02 0. -1.
        2   -1    0    0  501    0  0.00000000000E+00  0.00000000000E+00 -0.21847306434E+04  0.21847306434E+04  0.25500000920E-02 0.  1.
    10030    2    1    2    0    0  0.00000000000E+00  0.00000000000E+00 -0.89564125119E+03  0.34738200356E+04  0.33563748880E+04 0.  0.
        3    1    3    3  502    0 -0.67720526994E+03  0.14793557563E+04 -0.87356926945E+03  0.18466791032E+04  0.10100000352E+00 0. -1.
       -3    1    3    3    0  502  0.67720526994E+03 -0.14793557563E+04 -0.22071981746E+02  0.16271409324E+04  0.10100000352E+00 0.  1.
</event>
<event>
 5   0  0.4400349E-06  0.3401579E+04  0.7818609E-02  0.8137519E-01
        2   -1    0    0  501    0  0.00000000000E+00  0.00000000000E+00  0.12661270083E+04  0.12661270084E+04  0.25500000920E-02 0.  1.
       -2   -1    0    0    0  501  0.00000000000E+00  0.00000000000E+00 -0.22846721817E+04  0.22846721817E+04  0.25500000920E-02 0. -1.
    10030    2    1    2    0    0  0.00000000000E+00  0.00000000000E+00 -0.10185451734E+04  0.35507991901E+04  0.34015791359E+04 0.  0.
        5    1    3    3  502    0 -0.93019958637E+03  0.58992051987E+03 -0.18620325531E+04  0.21634381916E+04  0.46999998093E+01 0. -1.
       -5    1    3    3    0  502  0.93019958637E+03 -0.58992051987E+03  0.84348737972E+03  0.13873609984E+04  0.46999998093E+01 0.  1.
</event>
<event>
 5   0  0.4173467E-06  0.3396841E+04  0.7818609E-02  0.8138682E-01
        2   -1    0    0  501    0  0.00000000000E+00  0.00000000000E+00  0.24974901234E+04  0.24974901234E+04  0.25500000920E-02 0.  1.
       -2   -1    0    0    0  501  0.00000000000E+00  0.00000000000E+00 -0.11550127880E+04  0.11550127880E+04  0.25500000920E-02 0. -1.
    10030    2    1    2    0    0  0.00000000000E+00  0.00000000000E+00  0.13424773354E+04  0.36525029114E+04  0.33968414920E+04 0.  0.
        4    1    3    3  502    0 -0.83568353828E+03  0.12859812193E+04  0.14558994075E+04  0.21146534870E+04  0.12699999809E+01 0.  1.
       -4    1    3    3    0  502  0.83568353828E+03 -0.12859812193E+04 -0.11342207206E+03  0.15378494243E+04  0.12699999809E+01 0. -1.
</event>
<event>
 5   0  0.1654257E-06  0.3484645E+04  0.7818609E-02  0.8117438E-01
        1   -1    0    0  501    0  0.00000000000E+00  0.00000000000E+00  0.19068663290E+04  0.19068663290E+04  0.50400001928E-02 0. -1.
       -1   -1    0    0    0  501  0.00000000000E+00  0.00000000000E+00 -0.15919775790E+04  0.15919775790E+04  0.50400001928E-02 0.  1.
    10030    2    1    2    0    0  0.00000000000E+00  0.00000000000E+00  0.31488874993E+03  0.34988439080E+04  0.34846454293E+04 0.  0.
        3    1    3    3  502    0  0.13408698160E+04 -0.88941603980E+03  0.82852059285E+03  0.18098174323E+04  0.10100000352E+00 0. -1.
       -3    1    3    3    0  502 -0.13408698160E+04  0.88941603980E+03 -0.51363184292E+03  0.16890264757E+04  0.10100000352E+00 0.  1.
</event>
<event>
 5   0  0.4400349E-06  0.3322254E+04  0.7818609E-02  0.8157256E-01
       -2   -1    0    0    0  501  0.00000000000E+00  0.00000000000E+00  0.22344595195E+04  0.22344595195E+04  0.25500000920E-02 0.  1.
        2   -1    0    0  501    0  0.00000000000E+00  0.00000000000E+00 -0.12349039617E+04  0.12349039617E+04  0.25500000920E-02 0. -1.
    10030    2    1    2    0    0  0.00000000000E+00  0.00000000000E+00  0.99955555774E+03  0.34693634812E+04  0.33222540017E+04 0.  0.
        5    1    3    3  502    0  0.29281549945E+03 -0.16297574294E+04  0.63780705843E+03  0.17744492467E+04  0.46999998093E+01 0.  1.
       -5    1    3    3    0  502 -0.29281549945E+03  0.16297574294E+04  0.36174849931E+03  0.16949142345E+04  0.46999998093E+01 0. -1.
</event>
<event>
 5   0  0.2722449E-06  0.3373413E+04  0.7818609E-02  0.8144463E-01
        2   -1    0    0  501    0  0.00000000000E+00  0.00000000000E+00  0.10310359302E+04  0.10310359302E+04  0.25500000920E-02 0. -1.
       -2   -1    0    0    0  501  0.00000000000E+00  0.00000000000E+00 -0.27593398948E+04  0.27593398948E+04  0.25500000920E-02 0.  1.
    10030    2    1    2    0    0  0.00000000000E+00  0.00000000000E+00 -0.17283039646E+04  0.37903758250E+04  0.33734128565E+04 0.  0.
        2    1    3    3  502    0  0.96660162417E+03  0.90816184751E+03 -0.20350203710E+04  0.24290707177E+04  0.25500000920E-02 0.  1.
       -2    1    3    3    0  502 -0.96660162417E+03 -0.90816184751E+03  0.30671640640E+03  0.13613051073E+04  0.25500000920E-02 0. -1.
</event>
<event>
 5   0  0.2722449E-06  0.2954287E+04  0.7818609E-02  0.8256906E-01
        2   -1    0    0  501    0  0.00000000000E+00  0.00000000000E+00  0.18470396665E+04  0.18470396665E+04  0.25500000920E-02 0. -1.
       -2   -1    0    0    0  501  0.00000000000E+00  0.00000000000E+00 -0.11813247387E+04  0.11813247387E+04  0.25500000920E-02 0.  1.
    10030    2    1    2    0    0  0.00000000000E+00  0.00000000000E+00  0.66571492781E+03  0.30283644053E+04  0.29542874955E+04 0.  0.
        2    1    3    3  502    0 -0.14022377235E+04 -0.42651936619E+03  0.14449952901E+03  0.14727761259E+04  0.25500000920E-02 0. -1.
       -2    1    3    3    0  502  0.14022377235E+04  0.42651936619E+03  0.52121539880E+03  0.15555882794E+04  0.25500000920E-02 0.  1.
</event>
<event>
 5   0  0.2722449E-06  0.3358293E+04  0.7818609E-02  0.8148219E-01
       -2   -1    0    0    0  501  0.00000000000E+00  0.00000000000E+00  0.13614612952E+04  0.13614612952E+04  0.25500000920E-02 0.  1.
        2   -1    0    0  501    0  0.00000000000E+00  0.00000000000E+00 -0.20709612079E+04  0.20709612079E+04  0.25500000920E-02 0. -1.
    10030    2    1    2    0    0  0.00000000000E+00  0.00000000000E+00 -0.70949991269E+03  0.34324225030E+04  0.33582933334E+04 0.  0.
        2    1    3    3  502    0 -0.22709819239E+03 -0.10489745040E+04  0.96511553739E+03  0.14433880627E+04  0.25500000920E-02 0.  1.
       -2    1    3    3    0  502  0.22709819239E+03  0.10489745040E+04 -0.16746154501E+04  0.19890344403E+04  0.25500000920E-02 0. -1.
</event>
<event>
 5   0  0.2722449E-06  0.3329435E+04  0.7818609E-02  0.8155446E-01
        2   -1    0    0  501    0  0.00000000000E+00  0.00000000000E+00  0.17033126989E+04  0.17033126989E+04  0.25500000920E-02 0.  1.
       -2   -1    0    0    0  501  0.00000000000E+00  0.00000000000E+00 -0.16269966452E+04  0.16269966452E+04  0.25500000920E-02 0. -1.
    10030    2    1    2    0    0  0.00000000000E+00  0.00000000000E+00  0.76316053792E+02  0.33303093441E+04  0.33294348150E+04 0.  0.
        2    1    3    3  502    0  0.94974412850E+03 -0.12614592282E+03 -0.13235802368E+04  0.16339496158E+04  0.25500000920E-02 0. -1.
       -2    1    3    3    0  502 -0.94974412850E+03  0.12614592282E+03  0.13998962906E+04  0.16963597284E+04  0.25500000920E-02 0.  1.
</event>
<event>
 5   0  0.2722449E-06  0.1846347E+04  0.7818609E-02  0.8682034E-01
        2   -1    0    0  501    0  0.00000000000E+00  0.00000000000E+00  0.77437044890E+03  0.77437044891E+03  0.25500000920E-02 0.  1.
       -2   -1    0    0    0  501  0.00000000000E+00  0.00000000000E+00 -0.11005706923E+04  0.11005706923E+04  0.25500000920E-02 0. -1.
    10030    2    1    2    0    0  0.00000000000E+00  0.00000000000E+00 -0.32620024336E+03  0.18749411412E+04  0.18463471191E+04 0.  0.
        2    1    3    3  502    0  0.57982841657E+03  0.40254936934E+02  0.56524392003E+03  0.81075405750E+03  0.25500000920E-02 0.  1.
       -2    1    3    3    0  502 -0.57982841657E+03 -0.40254936934E+02 -0.89144416339E+03  0.10641870837E+04  0.25500000920E-02 0. -1.
</event>
<event>
 5   0  0.4189587E-06  0.3394979E+04  0.7818609E-02  0.8139140E-01
        2   -1    0    0  501    0  0.00000000000E+00  0.00000000000E+00  0.16467210096E+04  0.16467210096E+04  0.25500000920E-02 0. -1.
       -2   -1    0    0    0  501  0.00000000000E+00  0.00000000000E+00 -0.17498228508E+04  0.17498228508E+04  0.25500000920E-02 0.  1.
    10030    2    1    2    0    0  0.00000000000E+00  0.00000000000E+00 -0.10310184114E+03  0.33965438604E+04  0.33949786753E+04 0.  0.
        1    1    3    3  502    0  0.16618738611E+04  0.30754212820E+03  0.10683555517E+03  0.16934641203E+04  0.50400001928E-02 0. -1.
       -1    1    3    3    0  502 -0.16618738611E+04 -0.30754212820E+03 -0.20993739631E+03  0.17030797401E+04  0.50400001928E-02 0.  1.
</event>
<event>
 5   0  0.1562618E-06  0.3446222E+04  0.7818609E-02  0.8126654E-01
       -1   -1    0    0    0  501  0.00000000000E+00  0.00000000000E+00  0.14058259260E+04  0.14058259261E+04  0.50400001928E-02 0.  1.
        1   -1    0    0  501    0  0.00000000000E+00  0.00000000000E+00 -0.21120047752E+04  0.21120047752E+04  0.50400001928E-02 0. -1.
    10030    2    1    2    0    0  0.00000000000E+00  0.00000000000E+00 -0.70617884914E+03  0.35178307012E+04  0.34462217392E+04 0.  0.
        2    1    3    3  502    0  0.56325322885E+03  0.15789306588E+04  0.53732741173E+02  0.16772487688E+04  0.25500000920E-02 0.  1.
       -2    1    3    3    0  502 -0.56325322885E+03 -0.15789306588E+04 -0.75991159031E+03  0.18405819324E+04  0.25500000920E-02 0. -1.
</event>
<event>
 5   0  0.1550164E-06  0.3584783E+04  0.7818609E-02  0.8093986E-01
        1   -1    0    0  501    0  0.00000000000E+00  0.00000000000E+00  0.25325558177E+04  0.25325558177E+04  0.50400001928E-02 0. -1.
       -1   -1    0    0    0  501  0.00000000000E+00  0.00000000000E+00 -0.12685475595E+04  0.12685475595E+04  0.50400001928E-02 0.  1.
    10030    2    1    2    0    0  0.00000000000E+00  0.00000000000E+00  0.12640082582E+04  0.38011033771E+04  0.35847831185E+04 0.  0.
        4    1    3    3  502    0 -0.40603420562E+03  0.20734776678E+03 -0.12060370299E+04  0.12893346357E+04  0.12699999809E+01 0.  1.
       -4    1    3    3    0  502  0.40603420562E+03 -0.20734776678E+03  0.24700452881E+04  0.25117687414E+04  0.12699999809E+01 0. -1.
</event>
<event>
 5   0  0.1654257E-06  0.3441849E+04  0.7818609E-02  0.8127711E-01
       -1   -1    0    0    0  501  0.00000000000E+00  0.00000000000E+00  0.17348350250E+04  0.17348350250E+04  0.50400001928E-02 0.  1.
        1   -1    0    0  501    0  0.00000000000E+00  0.00000000000E+00 -0.17071253311E+04  0.17071253311E+04  0.50400001928E-02 0. -1.
    10030    2    1    2    0    0  0.00000000000E+00  0.00000000000E+00  0.27709693910E+02  0.34419603561E+04  0.34418488151E+04 0.  0.
        3    1    3    3  502    0  0.10289535076E+03 -0.14200251919E+04  0.98059285645E+03  0.17287629563E+04  0.10100000352E+00 0.  1.
       -3    1    3    3    0  502 -0.10289535076E+03  0.14200251919E+04 -0.95288316254E+03  0.17131973998E+04  0.10100000352E+00 0. -1.
</event>
<event>
 5   0  0.1562618E-06  0.2856704E+04  0.7818609E-02  0.8285877E-01
       -1   -1    0    0    0  501  0.00000000000E+00  0.00000000000E+00  0.80312114207E+03  0.80312114209E+03  0.50400001928E-02 0.  1.
        1   -1    0    0  501    0  0.00000000000E+00  0.00000000000E+00 -0.25403250321E+04  0.25403250322E+04  0.50400001928E-02 0. -1.
    10030    2    1    2    0    0  0.00000000000E+00  0.00000000000E+00 -0.17372038901E+04  0.33434461742E+04  0.28567035136E+04 0.  0.
        2    1    3    3  502    0  0.13793363703E+04 -0.34224276157E+03 -0.10361340866E+04  0.17587702453E+04  0.25500000920E-02 0.  1.
       -2    1    3    3    0  502 -0.13793363703E+04  0.34224276157E+03 -0.70106980342E+03  0.15846759289E+04  0.25500000920E-02 0. -1.
</event>
<event>
 5   0  0.1571391E-06  0.2244844E+04  0.7818609E-02  0.8499991E-01
        1   -1    0    0  501    0  0.00000000000E+00  0.00000000000E+00  0.19482434967E+04  0.19482434967E+04  0.50400001928E-02 0.  1.
       -1   -1    0    0    0  501  0.00000000000E+00  0.00000000000E+00 -0.64664984069E+03  0.64664984071E+03  0.50400001928E-02 0. -1.
    10030    2    1    2    0    0  0.00000000000E+00  0.00000000000E+00  0.13015936560E+04  0.25948933374E+04  0.22448441788E+04 0.  0.
        1    1    3    3  502    0 -0.10464442113E+04  0.18722194324E+03  0.23444556582E+03  0.10886056525E+04  0.50400001928E-02 0.  1.
       -1    1    3    3    0  502  0.10464442113E+04 -0.18722194324E+03  0.10671480902E+04  0.15062876849E+04  0.50400001928E-02 0. -1.
</event>
<event>
 5   0  0.2722449E-06  0.2966088E+04  0.7818609E-02  0.8253482E-01
        2   -1    0    0  501    0  0.00000000000E+00  0.00000000000E+00  0.11880501110E+04  0.11880501110E+04  0.25500000920E-02 0.  1.
       -2   -1    0    0    0  501  0.00000000000E+00  0.00000000000E+00 -0.18512849648E+04  0.18512849648E+04  0.25500000920E-02 0. -1.
    10030    2    1    2    0    0  0.00000000000E+00  0.00000000000E+00 -0.66323485378E+03  0.30393350758E+04  0.29660878665E+04 0.  0.
        2    1    3    3  502    0 -0.17549751909E+03  0.10571391750E+04  0.71892058917E+03  0.12904221898E+04  0.25500000920E-02 0.  1.
       -2    1    3    3    0  502  0.17549751909E+03 -0.10571391750E+04 -0.13821554429E+04  0.17489128860E+04  0.25500000920E-02 0. -1.
</event>
<event>
 5   0  0.2722449E-06  0.2146893E+04  0.7818609E-02  0.8540864E-01
        2   -1    0    0  501    0  0.00000000000E+00  0.00000000000E+00  0.20095771710E+04  0.20095771710E+04  0.25500000920E-02 0. -1.
       -2   -1    0    0    0  501  0.00000000000E+00  0.00000000000E+00 -0.57339772447E+03  0.57339772448E+03  0.25500000920E-02 0.  1.
    10030    2    1    2    0    0  0.00000000000E+00  0.00000000000E+00  0.14361794465E+04  0.25829748955E+04  0.21468926168E+04 0.  0.
        2    1    3    3  502    0  0.15168663808E+01 -0.74976136520E+03 -0.20615788430E+03  0.77758953111E+03  0.25500000920E-02 0.  1.
       -2    1    3    3    0  502 -0.15168663808E+01  0.74976136520E+03  0.16423373308E+04  0.18053853644E+04  0.25500000920E-02 0. -1.
</event>
<event>
 5   0  0.2722449E-06  0.2084329E+04  0.7818609E-02  0.8568178E-01
       -2   -1    0    0    0  501  0.00000000000E+00  0.00000000000E+00  0.87417191098E+03  0.87417191099E+03  0.25500000920E-02 0. -1.
        2   -1    0    0  501    0  0.00000000000E+00  0.00000000000E+00 -0.12424404252E+04  0.12424404252E+04  0.25500000920E-02 0.  1.
    10030    2    1    2    0    0  0.00000000000E+00  0.00000000000E+00 -0.36826851426E+03  0.21166123362E+04  0.20843286889E+04 0.  0.
        2    1    3    3  502    0  0.25706395043E+03  0.94934350092E+03 -0.53410468903E+03  0.11191973804E+04  0.25500000920E-02 0.  1.
       -2    1    3    3    0  502 -0.25706395043E+03 -0.94934350092E+03  0.16583617477E+03  0.99741495588E+03  0.25500000920E-02 0. -1.
</event>
<event>
 5   0  0.2101998E-06  0.2417652E+04  0.7818609E-02  0.8432924E-01
       -1   -1    0    0    0  501  0.00000000000E+00  0.00000000000E+00  0.25114498697E+04  0.25114498697E+04  0.50400001928E-02 0.  1.
        1   -1    0    0  501    0  0.00000000000E+00  0.00000000000E+00 -0.58183940183E+03  0.58183940185E+03  0.50400001928E-02 0. -1.
    10030    2    1    2    0    0  0.00000000000E+00  0.00000000000E+00  0.19296104679E+04  0.30932892716E+04  0.24176521586E+04 0.  0.
        5    1    3    3  502    0  0.34969497228E+03  0.36670624580E+02 -0.51495380003E+03  0.62356299963E+03  0.46999998093E+01 0. -1.
       -5    1    3    3    0  502 -0.34969497228E+03 -0.36670624580E+02  0.24445642679E+04  0.24697262720E+04  0.46999998093E+01 0.  1.
</event>
<event>
 5   0  0.1550164E-06  0.3367951E+04  0.7818609E-02  0.8145817E-01
       -1   -1    0    0    0  501  0.00000000000E+00  0.00000000000E+00  0.18059927348E+04  0.18059927348E+04  0.50400001928E-02 0. -1.
        1   -1    0    0  501    0  0.00000000000E+00  0.00000000000E+00 -0.15702018882E+04  0.15702018882E+04  0.50400001928E-02 0.  1.
    10030    2    1    2    0    0  0.00000000000E+00  0.00000000000E+00  0.23579084654E+03  0.33761946230E+04  0.33679508324E+04 0.  0.
        4    1    3    3  502    0 -0.66342140065E+03  0.12931945651E+04 -0.73465170757E+03  0.16285560729E+04  0.12699999809E+01 0.  1.
       -4    1    3    3    0  502  0.66342140065E+03 -0.12931945651E+04  0.97044255412E+03  0.17476385501E+04  0.12699999809E+01 0. -1.
</event>
<event>
 5   0  0.1654257E-06  0.2312573E+04  0.7818609E-02  0.8472980E-01
        1   -1    0    0  501    0  0.00000000000E+00  0.00000000000E+00  0.95757184541E+03  0.95757184542E+03  0.50400001928E-02 0.  1.
       -1   -1    0    0    0  501  0.00000000000E+00  0.00000000000E+00 -0.13962379438E+04  0.13962379438E+04  0.50400001928E-02 0. -1.
    10030    2    1    2    0    0  0.00000000000E+00  0.00000000000E+00 -0.43866609840E+03  0.23538097892E+04  0.23125727184E+04 0.  0.
        3    1    3    3  502    0 -0.73843918635E+03  0.88414926777E+03 -0.32104379713E+03  0.11958601463E+04  0.10100000352E+00 0. -1.
       -3    1    3    3    0  502  0.73843918635E+03 -0.88414926777E+03 -0.11762230127E+03  0.11579496429E+04  0.10100000352E+00 0.  1.
</event>
<event>
 5   0  0.1550164E-06  0.3433351E+04  0.7818609E-02  0.8129769E-01
        1   -1    0    0  501    0  0.00000000000E+00  0.00000000000E+00  0.12199908134E+04  0.12199908134E+04  0.50400001928E-02 0. -1.
       -1   -1    0    0    0  501  0.00000000000E+00  0.00000000000E+00 -0.24155709213E+04  0.24155709213E+04  0.50400001928E-02 0.  1.
    10030    2    1    2    0    0  0.00000000000E+00  0.00000000000E+00 -0.11955801078E+04  0.36355617347E+04  0.34333507442E+04 0.  0.
        4    1    3    3  502    0  0.46866881076E+03 -0.16509484968E+04 -0.64133794426E+03  0.18321018981E+04  0.12699999809E+01 0.  1.
       -4    1    3    3    0  502 -0.46866881076E+03  0.16509484968E+04 -0.55424216359E+03  0.18034598366E+04  0.12699999809E+01 0. -1.
</event>
<event>
 5   0  0.1562618E-06  0.2512981E+04  0.7818609E-02  0.8398375E-01
        1   -1    0    0  501    0  0.00000000000E+00  0.00000000000E+00  0.11825033283E+04  0.11825033283E+04  0.50400001928E-02 0.  1.
       -1   -1    0    0    0  501  0.00000000000E+00  0.00000000000E+00 -0.13351074400E+04  0.13351074400E+04  0.50400001928E-02 0. -1.
    10030    2    1    2    0    0  0.00000000000E+00  0.00000000000E+00 -0.15260411175E+03  0.25176107683E+04  0.25129814893E+04 0.  0.
        2    1    3    3  502    0 -0.57569694670E+03  0.10435868786E+04  0.32226047123E+03  0.12346466535E+04  0.25500000920E-02 0.  1.
       -2    1    3    3    0  502  0.57569694670E+03 -0.10435868786E+04 -0.47486458297E+03  0.12829641148E+04  0.25500000920E-02 0. -1.
</event>
<event>
 5   0  0.4189587E-06  0.3392601E+04  0.7818609E-02  0.8139725E-01
       -2   -1    0    0    0  501  0.00000000000E+00  0.00000000000E+00  0.10346397614E+04  0.10346397614E+04  0.25500000920E-02 0. -1.
        2   -1    0    0  501    0  0.00000000000E+00  0.00000000000E+00 -0.27810993800E+04  0.27810993801E+04  0.25500000920E-02 0.  1.
    10030    2    1    2    0    0  0.00000000000E+00  0.00000000000E+00 -0.17464596186E+04  0.38157391415E+04  0.33926013613E+04 0.  0.
        1    1    3    3  502    0  0.12644904561E+04 -0.35857366984E+02  0.39786429133E+03  0.13260911955E+04  0.50400001928E-02 0.  1.
       -1    1    3    3    0  502 -0.12644904561E+04  0.35857366984E+02 -0.21443239099E+04  0.24896479460E+04  0.50400001928E-02 0. -1.
</event>
<event>
 5   0  0.2722449E-06  0.3592850E+04  0.7818609E-02  0.8092131E-01
        2   -1    0    0  501    0  0.00000000000E+00  0.00000000000E+00  0.12544134713E+04  0.12544134713E+04  0.25500000920E-02 0.  1.
       -2   -1    0    0    0  501  0.00000000000E+00  0.00000000000E+00 -0.25726314146E+04  0.25726314146E+04  0.25500000920E-02 0. -1.
    10030    2    1    2    0    0  0.00000000000E+00  0.00000000000E+00 -0.13182179432E+04  0.38270448859E+04  0.35928504023E+04 0.  0.
        2    1    3    3  502    0  0.73897449610E+03 -0.62145677362E+03  0.95451275110E+03  0.13577136736E+04  0.25500000920E-02 0.  1.
       -2    1    3    3    0  502 -0.73897449610E+03  0.62145677362E+03 -0.22727306943E+04  0.24693312123E+04  0.25500000920E-02 0. -1.
</event>
<event>
 5   0  0.4189587E-06  0.3476310E+04  0.7818609E-02  0.8119427E-01
       -2   -1    0    0    0  501  0.00000000000E+00  0.00000000000E+00  0.15492855661E+04  0.15492855661E+04  0.25500000920E-02 0. -1.
        2   -1    0    0  501    0  0.00000000000E+00  0.00000000000E+00 -0.19500491501E+04  0.19500491501E+04  0.25500000920E-02 0.  1.
    10030    2    1    2    0    0  0.00000000000E+00  0.00000000000E+00 -0.40076358395E+03  0.34993347162E+04  0.34763101136E+04 0.  0.
        1    1    3    3  502    0  0.15734166478E+04  0.41210927053E+03 -0.81739260424E+03  0.18203309226E+04  0.50400001928E-02 0. -1.
       -1    1    3    3    0  502 -0.15734166478E+04 -0.41210927053E+03  0.41662902029E+03  0.16790037936E+04  0.50400001928E-02 0.  1.
</event>
<event>
 5   0  0.4344980E-06  0.3258531E+04  0.7818609E-02  0.8173528E-01
       -2   -1    0    0    0  501  0.00000000000E+00  0.00000000000E+00  0.12440004919E+04  0.12440004919E+04  0.25500000920E-02 0. -1.
        2   -1    0    0  501    0  0.00000000000E+00  0.00000000000E+00 -0.21338466805E+04  0.21338466805E+04  0.25500000920E-02 0.  1.
    10030    2    1    2    0    0  0.00000000000E+00  0.00000000000E+00 -0.88984618858E+03  0.33778471724E+04  0.32585311538E+04 0.  0.
        3    1    3    3  502    0  0.84290967026E+03 -0.43651243478E+03 -0.18175953456E+04  0.20505347274E+04  0.10100000352E+00 0.  1.
       -3    1    3    3    0  502 -0.84290967026E+03  0.43651243478E+03  0.92774915700E+03  0.13273124449E+04  0.10100000352E+00 0. -1.
</event>
<event>
 5   0  0.1654257E-06  0.2169218E+04  0.7818609E-02  0.8531350E-01
       -1   -1    0    0    0  501  0.00000000000E+00  0.00000000000E+00  0.18968222542E+04  0.18968222542E+04  0.50400001928E-02 0.  1.
        1   -1    0    0  501    0  0.00000000000E+00  0.00000000000E+00 -0.62018305605E+03  0.62018305607E+03  0.50400001928E-02 0. -1.
    10030    2    1    2    0    0  0.00000000000E+00  0.00000000000E+00  0.12766391981E+04  0.25170053102E+04  0.21692183130E+04 0.  0.
        3    1    3    3  502    0 -0.78038457966E+03 -0.31895948463E+03 -0.15346460607E+03  0.85690526928E+03  0.10100000352E+00 0.  1.
       -3    1    3    3    0  502  0.78038457966E+03  0.31895948463E+03  0.14301038042E+04  0.16601000410E+04  0.10100000352E+00 0. -1.
</event>
<event>
 5   0  0.1562618E-06  0.2462360E+04  0.7818609E-02  0.8416519E-01
       -1   -1    0    0    0  501  0.00000000000E+00  0.00000000000E+00  0.20100271514E+04  0.20100271514E+04  0.50400001928E-02 0. -1.
        1   -1    0    0  501    0  0.00000000000E+00  0.00000000000E+00 -0.75412107713E+03  0.75412107715E+03  0.50400001928E-02 0.  1.
    10030    2    1    2    0    0  0.00000000000E+00  0.00000000000E+00  0.12559060743E+04  0.27641482285E+04  0.24623597142E+04 0.  0.
        2    1    3    3  502    0 -0.17923475833E+03 -0.86915224512E+03  0.15859210486E+04  0.18173321920E+04  0.25500000920E-02 0. -1.
       -2    1    3    3    0  502  0.17923475833E+03  0.86915224512E+03 -0.33001497430E+03  0.94681603655E+03  0.25500000920E-02 0.  1.
</event>
<event>
 5   0  0.1654257E-06  0.3700628E+04  0.7818609E-02  0.8067823E-01
       -1   -1    0    0    0  501  0.00000000000E+00  0.00000000000E+00  0.20384302753E+04  0.20384302753E+04  0.50400001928E-02 0. -1.
        1   -1    0    0  501    0  0.00000000000E+00  0.00000000000E+00 -0.16795581194E+04  0.16795581194E+04  0.50400001928E-02 0.  1.
    10030    2    1    2    0    0  0.00000000000E+00  0.00000000000E+00  0.35887215589E+03  0.37179883948E+04  0.37006281196E+04 0.  0.
        3    1    3    3  502    0  0.18135260174E+04  0.27530037421E+03 -0.64592627676E+02  0.18354397646E+04  0.10100000352E+00 0. -1.
       -3    1    3    3    0  502 -0.18135260174E+04 -0.27530037421E+03  0.42346478356E+03  0.18825486301E+04  0.10100000352E+00 0.  1.
</event>
<event>
 5   0  0.2722449E-06  0.3387860E+04  0.7818609E-02  0.8140892E-01
        2   -1    0    0  501    0  0.00000000000E+00  0.00000000000E+00  0.10434808476E+04  0.10434808476E+04  0.25500000920E-02 0.  1.
       -2   -1    0    0    0  501  0.00000000000E+00  0.00000000000E+00 -0.27498339253E+04  0.27498339253E+04  0.25500000920E-02 0. -1.
    10030    2    1    2    0    0  0.00000000000E+00  0.00000000000E+00 -0.17063530777E+04  0.37933147728E+04  0.33878601122E+04 0.  0.
        2    1    3    3  502    0  0.15123013513E+04  0.61654146692E+03 -0.13566838299E+04  0.21231509065E+04  0.25500000920E-02 0. -1.
       -2    1    3    3    0  502 -0.15123013513E+04 -0.61654146692E+03 -0.34966924786E+03  0.16701638664E+04  0.25500000920E-02 0.  1.
</event>
<event>
 5   0  0.4173467E-06  0.3463774E+04  0.7818609E-02  0.8122429E-01
        2   -1    0    0  501    0  0.00000000000E+00  0.00000000000E+00  0.19833304827E+04  0.19833304827E+04  0.25500000920E-02 0.  1.
       -2   -1    0    0    0  501  0.00000000000E+00  0.00000000000E+00 -0.15123209745E+04  0.15123209745E+04  0.25500000920E-02 0. -1.
    10030    2    1    2    0    0  0.00000000000E+00  0.00000000000E+00  0.47100950822E+03  0.34956514573E+04  0.34637738312E+04 0.  0.
        4    1    3    3  502    0  0.13415460388E+04 -0.78688213752E+03  0.10044231190E+04  0.18514309837E+04  0.12699999809E+01 0.  1.
       -4    1    3    3    0  502 -0.13415460388E+04  0.78688213752E+03 -0.53341361078E+03  0.16442204735E+04  0.12699999809E+01 0. -1.
</event>
<event>
 5   0  0.4173467E-06  0.3265533E+04  0.7818609E-02  0.8171721E-01
       -2   -1    0    0    0  501  0.00000000000E+00  0.00000000000E+00  0.21012430232E+04  0.21012430232E+04  0.25500000920E-02 0. -1.
        2   -1    0    0  501    0  0.00000000000E+00  0.00000000000E+00 -0.12687380791E+04  0.12687380791E+04  0.25500000920E-02 0.  1.
    10030    2    1    2    0    0  0.00000000000E+00  0.00000000000E+00  0.83250494414E+03  0.33699811023E+04  0.32655333634E+04 0.  0.
        4    1    3    3  502    0  0.23045113693E+03 -0.36892640202E+03  0.20403458943E+04  0.20861992709E+04  0.12699999809E+01 0. -1.
       -4    1    3    3    0  502 -0.23045113693E+03  0.36892640202E+03 -0.12078409502E+04  0.12837818313E+04  0.12699999809E+01 0.  1.
</event>
<event>
 5   0  0.4344980E-06  0.2095404E+04  0.7818609E-02  0.8563271E-01
        2   -1    0    0  501    0  0.00000000000E+00  0.00000000000E+00  0.63510160681E+03  0.63510160682E+03  0.25500000920E-02 0.  1.
       -2   -1    0    0    0  501  0.00000000000E+00  0.00000000000E+00 -0.17283519652E+04  0.17283519652E+04  0.25500000920E-02 0. -1.
    10030    2    1    2    0    0  0.00000000000E+00  0.00000000000E+00 -0.10932503584E+04  0.23634535720E+04  0.20954036463E+04 0.  0.
        3    1    3    3  502    0  0.64336028164E+03 -0.87456746502E+01  0.38600409886E+03  0.75032533834E+03  0.10100000352E+00 0.  1.
       -3    1    3    3    0  502 -0.64336028164E+03  0.87456746502E+01 -0.14792544572E+04  0.16131282337E+04  0.10100000352E+00 0. -1.
</event>
<event>
 5   0  0.1562618E-06  0.3300473E+04  0.7818609E-02  0.8162775E-01
       -1   -1    0    0    0  501  0.00000000000E+00  0.00000000000E+00  0.22833912018E+04  0.22833912018E+04  0.50400001928E-02 0.  1.
        1   -1    0    0  501    0  0.00000000000E+00  0.00000000000E+00 -0.11926470402E+04  0.11926470402E+04  0.50400001928E-02 0. -1.
    10030    2    1    2    0    0  0.00000000000E+00  0.00000000000E+00  0.10907441616E+04  0.34760382420E+04  0.33004725471E+04 0.  0.
        2    1    3    3  502    0 -0.95183045846E+03  0.63763703023E+02  0.19635646175E+04  0.21830329907E+04  0.25500000920E-02 0.  1.
       -2    1    3    3    0  502  0.95183045846E+03 -0.63763703023E+02 -0.87282045595E+03  0.12930052513E+04  0.25500000920E-02 0. -1.
</event>
<event>
 5   0  0.4189587E-06  0.3421149E+04  0.7818609E-02  0.8132735E-01
        2   -1    0    0  501    0  0.00000000000E+00  0.00000000000E+00  0.23683835806E+04  0.23683835807E+04  0.25500000920E-02 0. -1.
       -2   -1    0    0    0  501  0.00000000000E+00  0.00000000000E+00 -0.12354692579E+04  0.12354692579E+04  0.25500000920E-02 0.  1.
    10030    2    1    2    0    0  0.00000000000E+00  0.00000000000E+00  0.11329143227E+04  0.36038528386E+04  0.34211489911E+04 0.  0.
        1    1    3    3  502    0  0.70928183722E+03 -0.44183883641E+03  0.21387358810E+04  0.22961910745E+04  0.50400001928E-02 0. -1.
       -1    1    3    3    0  502 -0.70928183722E+03  0.44183883641E+03 -0.10058215583E+04  0.13076617640E+04  0.50400001928E-02 0.  1.
</event>
<event>
 5   0  0.1562618E-06  0.3198604E+04  0.7818609E-02  0.8189186E-01
        1   -1    0    0  501    0  0.00000000000E+00  0.00000000000E+00  0.16331104491E+04  0.16331104491E+04  0.50400001928E-02 0. -1.
       -1   -1    0    0    0  501  0.00000000000E+00  0.00000000000E+00 -0.15661933113E+04  0.15661933113E+04  0.50400001928E-02 0.  1.
    10030    2    1    2    0    0  0.00000000000E+00  0.00000000000E+00  0.66917137799E+02  0.31993037604E+04  0.31986038592E+04 0.  0.
        2    1    3    3  502    0 -0.59601121107E+03 -0.14746581170E+04 -0.13367298615E+03  0.15961561305E+04  0.25500000920E-02 0.  1.
       -2    1    3    3    0  502  0.59601121107E+03  0.14746581170E+04  0.20059012395E+03  0.16031476300E+04  0.25500000920E-02 0. -1.
</event>
<event>
 5   0  0.4400349E-06  0.2232156E+04  0.7818609E-02  0.8505162E-01
       -2   -1    0    0    0  501  0.00000000000E+00  0.00000000000E+00  0.86663220963E+03  0.86663220964E+03  0.25500000920E-02 0. -1.
        2   -1    0    0  501    0  0.00000000000E+00  0.00000000000E+00 -0.14373220244E+04  0.14373220244E+04  0.25500000920E-02 0.  1.
    10030    2    1    2    0    0  0.00000000000E+00  0.00000000000E+00 -0.57068981478E+03  0.23039542340E+04  0.22321555161E+04 0.  0.
        5    1    3    3  502    0  0.11135808997E+04  0.82223312280E+00 -0.20848927001E+03  0.11329399639E+04  0.46999998093E+01 0. -1.
       -5    1    3    3    0  502 -0.11135808997E+04 -0.82223312280E+00 -0.36220054477E+03  0.11710142701E+04  0.46999998093E+01 0.  1.
</event>
<event>
 5   0  0.4189587E-06  0.2488351E+04  0.7818609E-02  0.8407147E-01
        2   -1    0    0  501    0  0.00000000000E+00  0.00000000000E+00  0.10957733073E+04  0.10957733073E+04  0.25500000920E-02 0. -1.
       -2   -1    0    0    0  501  0.00000000000E+00  0.00000000000E+00 -0.14126757490E+04  0.14126757490E+04  0.25500000920E-02 0.  1.
    10030    2    1    2    0    0  0.00000000000E+00  0.00000000000E+00 -0.31690244164E+03  0.25084490563E+04  0.24883507611E+04 0.  0.
        1    1    3    3  502    0 -0.93791870349E+03  0.53990403545E+03 -0.77723683689E+03  0.13323981997E+04  0.50400001928E-02 0.  1.
       -1    1    3    3    0  502  0.93791870349E+03 -0.53990403545E+03  0.46033439526E+03  0.11760508566E+04  0.50400001928E-02 0. -1.
</event>
<event>
 5   0  0.1562618E-06  0.3300570E+04  0.7818609E-02  0.8162750E-01
        1   -1    0    0  501    0  0.00000000000E+00  0.00000000000E+00  0.20963153211E+04  0.20963153211E+04  0.50400001928E-02 0.  1.
       -1   -1    0    0    0  501  0.00000000000E+00  0.00000000000E+00 -0.12991559754E+04  0.12991559754E+04  0.50400001928E-02 0. -1.
    10030    2    1    2    0    0  0.00000000000E+00  0.00000000000E+00  0.79715934568E+03  0.33954712965E+04  0.33005699967E+04 0.  0.
        2    1    3    3  502    0  0.14442184183E+04  0.34864901989E+02  0.12193016264E+04  0.18904176409E+04  0.25500000920E-02 0. -1.
       -2    1    3    3    0  502 -0.14442184183E+04 -0.34864901989E+02 -0.42214228069E+03  0.15050536556E+04  0.25500000920E-02 0.  1.
</event>
<event>
 5   0  0.4400349E-06  0.3123322E+04  0.7818609E-02  0.8209366E-01
        2   -1    0    0  501    0  0.00000000000E+00  0.00000000000E+00  0.17292692632E+04  0.17292692632E+04  0.25500000920E-02 0.  1.
       -2   -1    0    0    0  501  0.00000000000E+00  0.00000000000E+00 -0.14102983886E+04  0.14102983886E+04  0.25500000920E-02 0. -1.
    10030    2    1    2    0    0  0.00000000000E+00  0.00000000000E+00  0.31897087467E+03  0.31395676518E+04  0.31233223691E+04 0.  0.
        5    1    3    3  502    0 -0.13455737151E+04 -0.74686450831E+03  0.42617340584E+03  0.15968785421E+04  0.46999998093E+01 0.  1.
       -5    1    3    3    0  502  0.13455737151E+04  0.74686450831E+03 -0.10720253117E+03  0.15426891097E+04  0.46999998093E+01 0. -1.
</event>
<event>
 5   0  0.2101998E-06  0.3366021E+04  0.7818609E-02  0.8146296E-01
       -1   -1    0    0    0  501  0.00000000000E+00  0.00000000000E+00  0.15967357727E+04  0.15967357727E+04  0.50400001928E-02 0. -1.
        1   -1    0    0  501    0  0.00000000000E+00  0.00000000000E+00 -0.17739471568E+04  0.17739471568E+04  0.50400001928E-02 0.  1.
    10030    2    1    2    0    0  0.00000000000E+00  0.00000000000E+00 -0.17721138413E+03  0.33706829295E+04  0.33660213215E+04 0.  0.
        5    1    3    3  502    0  0.14930255164E+04 -0.46306035466E+03  0.53591874940E+03  0.16525075130E+04  0.46999998093E+01 0. -1.
       -5    1    3    3    0  502 -0.14930255164E+04  0.46306035466E+03 -0.71313013353E+03  0.17181754165E+04  0.46999998093E+01 0.  1.
</event>
<event>
 5   0  0.2722449E-06  0.3423522E+04  0.7818609E-02  0.8132157E-01
       -2   -1    0    0    0  501  0.00000000000E+00  0.00000000000E+00  0.11659046350E+04  0.11659046350E+04  0.25500000920E-02 0.  1.
        2   -1    0    0  501    0  0.00000000000E+00  0.00000000000E+00 -0.25131781374E+04  0.25131781374E+04  0.25500000920E-02 0. -1.
    10030    2    1    2    0    0  0.00000000000E+00  0.00000000000E+00 -0.13472735024E+04  0.36790827725E+04  0.34235221858E+04 0.  0.
        2    1    3    3  502    0  0.12752707476E+04 -0.45530863237E+03  0.45167186159E+03  0.14274553937E+04  0.25500000920E-02 0.  1.
       -2    1    3    3    0  502 -0.12752707476E+04  0.45530863237E+03 -0.17989453640E+04  0.22516273788E+04  0.25500000920E-02 0. -1.
</event>
<event>
 5   0  0.2722449E-06  0.3367155E+04  0.7818609E-02  0.8146015E-01
       -2   -1    0    0    0  501  0.00000000000E+00  0.00000000000E+00  0.14963118571E+04  0.14963118571E+04  0.25500000920E-02 0. -1.
        2   -1    0    0  501    0  0.00000000000E+00  0.00000000000E+00 -0.18942791827E+04  0.18942791827E+04  0.25500000920E-02 0.  1.
    10030    2    1    2    0    0  0.00000000000E+00  0.00000000000E+00 -0.39796732564E+03  0.33905910398E+04  0.33671545267E+04 0.  0.
        2    1    3    3  502    0  0.11467123770E+04 -0.13766844629E+03  0.10345039135E+04  0.15505161153E+04  0.25500000920E-02 0. -1.
       -2    1    3    3    0  502 -0.11467123770E+04  0.13766844629E+03 -0.14324712392E+04  0.18400749245E+04  0.25500000920E-02 0.  1.
</event>
<event>
 5   0  0.1654257E-06  0.3429002E+04  0.7818609E-02  0.8130825E-01
       -1   -1    0    0    0  501  0.00000000000E+00  0.00000000000E+00  0.15784081215E+04  0.15784081215E+04  0.50400001928E-02 0. -1.
        1   -1    0    0  501    0  0.00000000000E+00  0.00000000000E+00 -0.18623284530E+04  0.18623284530E+04  0.50400001928E-02 0.  1.
    10030    2    1    2    0    0  0.00000000000E+00  0.00000000000E+00 -0.28392033145E+03  0.34407365745E+04  0.34290023943E+04 0.  0.
        3    1    3    3  502    0  0.82016204475E+03 -0.66391619637E+03  0.12139834013E+04  0.16084794696E+04  0.10100000352E+00 0. -1.
       -3    1    3    3    0  502 -0.82016204475E+03  0.66391619637E+03 -0.14979037327E+04  0.18322571048E+04  0.10100000352E+00 0.  1.
</event>
<event>
 5   0  0.4173467E-06  0.3338508E+04  0.7818609E-02  0.8153166E-01
        2   -1    0    0  501    0  0.00000000000E+00  0.00000000000E+00  0.18094837272E+04  0.18094837272E+04  0.25500000920E-02 0. -1.
       -2   -1    0    0    0  501  0.00000000000E+00  0.00000000000E+00 -0.15398914811E+04  0.15398914811E+04  0.25500000920E-02 0.  1.
    10030    2    1    2    0    0  0.00000000000E+00  0.00000000000E+00  0.26959224611E+03  0.33493752082E+04  0.33385077963E+04 0.  0.
        4    1    3    3  502    0  0.13764650361E+04 -0.37744147457E+03  0.10032286000E+04  0.17445880027E+04  0.12699999809E+01 0. -1.
       -4    1    3    3    0  502 -0.13764650361E+04  0.37744147457E+03 -0.73363635389E+03  0.16047872055E+04  0.12699999809E+01 0.  1.
</event>
<event>
 5   0  0.1550164E-06  0.2381667E+04  0.7818609E-02  0.8446399E-01
       -1   -1    0    0    0  501  0.00000000000E+00  0.00000000000E+00  0.10629070565E+04  0.10629070565E+04  0.50400001928E-02 0. -1.
        1   -1    0    0  501    0  0.00000000000E+00  0.00000000000E+00 -0.13341566256E+04  0.13341566256E+04  0.50400001928E-02 0.  1.
    10030    2    1    2    0    0  0.00000000000E+00  0.00000000000E+00 -0.27124956910E+03  0.23970636821E+04  0.23816670563E+04 0.  0.
        4    1    3    3  502    0  0.80431324663E+03 -0.70868377901E+03 -0.65756223104E+03  0.12575938128E+04  0.12699999809E+01 0.  1.
       -4    1    3    3    0  502 -0.80431324663E+03  0.70868377901E+03  0.38631266194E+03  0.11394698693E+04  0.12699999809E+01 0. -1.
</event>
<event>
 5   0  0.2722449E-06  0.3277667E+04  0.7818609E-02  0.8168601E-01
       -2   -1    0    0    0  501  0.00000000000E+00  0.00000000000E+00  0.13461429252E+04  0.13461429252E+04  0.25500000920E-02 0. -1.
        2   -1    0    0  501    0  0.00000000000E+00  0.00000000000E+00 -0.19951637895E+04  0.19951637895E+04  0.25500000920E-02 0.  1.
    10030    2    1    2    0    0  0.00000000000E+00  0.00000000000E+00 -0.64902086428E+03  0.33413067147E+04  0.32776672313E+04 0.  0.
        2    1    3    3  502    0 -0.96084991384E+03  0.12807185346E+04  0.31998334113E+02  0.16014045133E+04  0.25500000920E-02 0. -1.
       -2    1    3    3    0  502  0.96084991384E+03 -0.12807185346E+04 -0.68101919840E+03  0.17399022014E+04  0.25500000920E-02 0.  1.
</event>
<event>
 5   0  0.1654257E-06  0.3374626E+04  0.7818609E-02  0.8144162E-01
       -1   -1    0    0    0  501  0.00000000000E+00  0.00000000000E+00  0.23430018689E+04  0.23430018689E+04  0.50400001928E-02 0. -1.
        1   -1    0    0  501    0  0.00000000000E+00  0.00000000000E+00 -0.12151186484E+04  0.12151186484E+04  0.50400001928E-02 0.  1.
    10030    2    1    2    0    0  0.00000000000E+00  0.00000000000E+00  0.11278832205E+04  0.35581205173E+04  0.33746260617E+04 0.  0.
        3    1    3    3  502    0  0.12037615877E+02 -0.16793657041E+04  0.73594106789E+03  0.18335821056E+04  0.10100000352E+00 0. -1.
       -3    1    3    3    0  502 -0.12037615877E+02  0.16793657041E+04  0.39194215262E+03  0.17245384117E+04  0.10100000352E+00 0.  1.
</event>
<event>
 5   0  0.4189587E-06  0.3386489E+04  0.7818609E-02  0.8141230E-01
        2   -1    0    0  501    0  0.00000000000E+00  0.00000000000E+00  0.14137845751E+04  0.14137845751E+04  0.25500000920E-02 0.  1.
       -2   -1    0    0    0  501  0.00000000000E+00  0.00000000000E+00 -0.20279442427E+04  0.20279442427E+04  0.25500000920E-02 0. -1.
    10030    2    1    2    0    0  0.00000000000E+00  0.00000000000E+00 -0.61415966753E+03  0.34417288178E+04  0.33864886178E+04 0.  0.
        1    1    3    3  502    0 -0.44809937662E+03 -0.13629377688E+04 -0.12210171712E+04  0.18839520550E+04  0.50400001928E-02 0. -1.
       -1    1    3    3    0  502  0.44809937662E+03  0.13629377688E+04  0.60685750367E+03  0.15577767628E+04  0.50400001928E-02 0.  1.
</event>
<event>
 5   0  0.4400349E-06  0.1757369E+04  0.7818609E-02  0.8729305E-01
        2   -1    0    0  501    0  0.00000000000E+00  0.00000000000E+00  0.11372677441E+04  0.11372677441E+04  0.25500000920E-02 0. -1.
       -2   -1    0    0    0  501  0.00000000000E+00  0.00000000000E+00 -0.67889567497E+03  0.67889567497E+03  0.25500000920E-02 0.  1.
    10030    2    1    2    0    0  0.00000000000E+00  0.00000000000E+00  0.45837206912E+03  0.18161634191E+04  0.17573686611E+04 0.  0.
        5    1    3    3  502    0  0.52658156471E+03  0.24528570807E+03  0.91049220703E+03  0.10800330421E+04  0.46999998093E+01 0. -1.
       -5    1    3    3    0  502 -0.52658156471E+03 -0.24528570807E+03 -0.45212013790E+03  0.73613037702E+03  0.46999998093E+01 0.  1.
</event>
<event>
 5   0  0.1571391E-06  0.1892385E+04  0.7818609E-02  0.8658656E-01
        1   -1    0    0  501    0  0.00000000000E+00  0.00000000000E+00  0.10716231742E+04  0.10716231742E+04  0.50400001928E-02 0. -1.
       -1   -1    0    0    0  501  0.00000000000E+00  0.00000000000E+00 -0.83544299390E+03  0.83544299392E+03  0.50400001928E-02 0.  1.
    10030    2    1    2    0    0  0.00000000000E+00  0.00000000000E+00  0.23618018031E+03  0.19070661681E+04  0.18923848161E+04 0.  0.
        1    1    3    3  502    0 -0.16167807092E+03 -0.69121673781E+03  0.74853095458E+03  0.10316098910E+04  0.50400001928E-02 0. -1.
       -1    1    3    3    0  502  0.16167807092E+03  0.69121673781E+03 -0.51235077427E+03  0.87545627713E+03  0.50400001928E-02 0.  1.
</event>
<event>
 5   0  0.1562618E-06  0.1939314E+04  0.7818609E-02  0.8635531E-01
       -1   -1    0    0    0  501  0.00000000000E+00  0.00000000000E+00  0.68571249110E+03  0.68571249112E+03  0.50400001928E-02 0. -1.
        1   -1    0    0  501    0  0.00000000000E+00  0.00000000000E+00 -0.13711795021E+04  0.13711795021E+04  0.50400001928E-02 0.  1.
    10030    2    1    2    0    0  0.00000000000E+00  0.00000000000E+00 -0.68546701099E+03  0.20568919932E+04  0.19393142212E+04 0.  0.
        2    1    3    3  502    0 -0.36213733687E+03  0.58454223455E+03  0.38238420581E+03  0.78679778570E+03  0.25500000920E-02 0. -1.
       -2    1    3    3    0  502  0.36213733687E+03 -0.58454223455E+03 -0.10678512168E+04  0.12700942075E+04  0.25500000920E-02 0.  1.
</event>
<event>
 5   0  0.1550164E-06  0.1696232E+04  0.7818609E-02  0.8763516E-01
        1   -1    0    0  501    0  0.00000000000E+00  0.00000000000E+00  0.56069046178E+03  0.56069046180E+03  0.50400001928E-02 0. -1.
       -1   -1    0    0    0  501  0.00000000000E+00  0.00000000000E+00 -0.12828839190E+04  0.12828839190E+04  0.50400001928E-02 0.  1.
    10030    2    1    2    0    0  0.00000000000E+00  0.00000000000E+00 -0.72219345723E+03  0.18435743808E+04  0.16962320325E+04 0.  0.
        4    1    3    3  502    0  0.58493943286E+03 -0.56553265176E+03 -0.10088891948E+03  0.81985456473E+03  0.12699999809E+01 0. -1.
       -4    1    3    3    0  502 -0.58493943286E+03  0.56553265176E+03 -0.62130453775E+03  0.10237198161E+04  0.12699999809E+01 0.  1.
</event>
<event>
 5   0  0.2722449E-06  0.3401757E+04  0.7818609E-02  0.8137475E-01
       -2   -1    0    0    0  501  0.00000000000E+00  0.00000000000E+00  0.11208740058E+04  0.11208740058E+04  0.25500000920E-02 0.  1.
        2   -1    0    0  501    0  0.00000000000E+00  0.00000000000E+00 -0.25810109149E+04  0.25810109149E+04  0.25500000920E-02 0. -1.
    10030    2    1    2    0    0  0.00000000000E+00  0.00000000000E+00 -0.14601369091E+04  0.37018849207E+04  0.34017572184E+04 0.  0.
        2    1    3    3  502    0  0.16341145487E+04 -0.20937445830E+02 -0.21707657030E+03  0.16486027333E+04  0.25500000920E-02 0.  1.
       -2    1    3    3    0  502 -0.16341145487E+04  0.20937445830E+02 -0.12430603388E+04  0.20532821873E+04  0.25500000920E-02 0. -1.
</event>
<event>
 5   0  0.4454351E-06  0.1698810E+04  0.7818609E-02  0.8762043E-01
       -2   -1    0    0    0  501  0.00000000000E+00  0.00000000000E+00  0.60427519859E+03  0.60427519859E+03  0.25500000920E-02 0. -1.
        2   -1    0    0  501    0  0.00000000000E+00  0.00000000000E+00 -0.11939737467E+04  0.11939737467E+04  0.25500000920E-02 0.  1.
    10030    2    1    2    0    0  0.00000000000E+00  0.00000000000E+00 -0.58969854807E+03  0.17982489453E+04  0.16988098456E+04 0.  0.
        2    1    3    3  502    0  0.67949291553E+03  0.50913361707E+03 -0.31992248348E+03  0.90734671307E+03  0.25500000920E-02 0. -1.
       -2    1    3    3    0  502 -0.67949291553E+03 -0.50913361707E+03 -0.26977606460E+03  0.89090223219E+03  0.25500000920E-02 0.  1.
</event>
<event>
 5   0  0.2722449E-06  0.2517142E+04  0.7818609E-02  0.8396904E-01
       -2   -1    0    0    0  501  0.00000000000E+00  0.00000000000E+00  0.18464284214E+04  0.18464284215E+04  0.25500000920E-02 0. -1.
        2   -1    0    0  501    0  0.00000000000E+00  0.00000000000E+00 -0.85787269048E+03  0.85787269048E+03  0.25500000920E-02 0.  1.
    10030    2    1    2    0    0  0.00000000000E+00  0.00000000000E+00  0.98855573097E+03  0.27043011119E+04  0.25171416469E+04 0.  0.
        2    1    3    3  502    0 -0.57612399818E+03  0.71503779327E+02  0.16939848758E+04  0.17907027702E+04  0.25500000920E-02 0. -1.
       -2    1    3    3    0  502  0.57612399818E+03 -0.71503779327E+02 -0.70542914480E+03  0.91359834177E+03  0.25500000920E-02 0.  1.
</event>
<event>
 5   0  0.4344980E-06  0.3497623E+04  0.7818609E-02  0.8114353E-01
       -2   -1    0    0    0  501  0.00000000000E+00  0.00000000000E+00  0.19362519848E+04  0.19362519848E+04  0.25500000920E-02 0.  1.
        2   -1    0    0  501    0  0.00000000000E+00  0.00000000000E+00 -0.15795166386E+04  0.15795166386E+04  0.25500000920E-02 0. -1.
    10030    2    1    2    0    0  0.00000000000E+00  0.00000000000E+00  0.35673534621E+03  0.35157686235E+04  0.34976233226E+04 0.  0.
        3    1    3    3  502    0  0.83524026905E+03  0.10639351695E+04  0.12926119318E+04  0.18709436037E+04  0.10100000352E+00 0.  1.
       -3    1    3    3    0  502 -0.83524026905E+03 -0.10639351695E+04 -0.93587658557E+03  0.16448250197E+04  0.10100000352E+00 0. -1.
</event>
<event>
 5   0  0.2722449E-06  0.3277556E+04  0.7818609E-02  0.8168630E-01
       -2   -1    0    0    0  501  0.00000000000E+00  0.00000000000E+00  0.14135680077E+04  0.14135680077E+04  0.25500000920E-02 0.  1.
        2   -1    0    0  501    0  0.00000000000E+00  0.00000000000E+00 -0.18998686461E+04  0.18998686461E+04  0.25500000920E-02 0. -1.
    10030    2    1    2    0    0  0.00000000000E+00  0.00000000000E+00 -0.48630063834E+03  0.33134366538E+04  0.32775561243E+04 0.  0.
        2    1    3    3  502    0 -0.81293567084E+03  0.75989840093E+02 -0.16796046391E+04  0.18675413260E+04  0.25500000920E-02 0. -1.
       -2    1    3    3    0  502  0.81293567084E+03 -0.75989840093E+02  0.11933040007E+04  0.14458953278E+04  0.25500000920E-02 0.  1.
</event>
<event>
 5   0  0.4173467E-06  0.3263147E+04  0.7818609E-02  0.8172336E-01
        2   -1    0    0  501    0  0.00000000000E+00  0.00000000000E+00  0.24005410410E+04  0.24005410410E+04  0.25500000920E-02 0. -1.
       -2   -1    0    0    0  501  0.00000000000E+00  0.00000000000E+00 -0.11089301105E+04  0.11089301105E+04  0.25500000920E-02 0.  1.
    10030    2    1    2    0    0  0.00000000000E+00  0.00000000000E+00  0.12916109305E+04  0.35094711515E+04  0.32631470956E+04 0.  0.
        4    1    3    3  502    0  0.11653685704E+04  0.41569666211E+03  0.17896415242E+04  0.21757081647E+04  0.12699999809E+01 0. -1.
       -4    1    3    3    0  502 -0.11653685704E+04 -0.41569666211E+03 -0.49803059375E+03  0.13337629868E+04  0.12699999809E+01 0.  1.
</event>
<event>
 5   0  0.2722449E-06  0.3508949E+04  0.7818609E-02  0.8111672E-01
       -2   -1    0    0    0  501  0.00000000000E+00  0.00000000000E+00  0.12590947814E+04  0.12590947814E+04  0.25500000920E-02 0. -1.
        2   -1    0    0  501    0  0.00000000000E+00  0.00000000000E+00 -0.24447569157E+04  0.24447569157E+04  0.25500000920E-02 0.  1.
    10030    2    1    2    0    0  0.00000000000E+00  0.00000000000E+00 -0.11856621343E+04  0.37038516972E+04  0.35089489449E+04 0.  0.
        2    1    3    3  502    0 -0.52417880598E+03  0.14096160210E+04 -0.15465667214E+04  0.21572318770E+04  0.25500000920E-02 0. -1.
       -2    1    3    3    0  502  0.52417880598E+03 -0.14096160210E+04  0.36090458712E+03  0.15466198202E+04  0.25500000920E-02 0.  1.
</event>
<event>
 5   0  0.4173467E-06  0.3504617E+04  0.7818609E-02  0.8112697E-01
        2   -1    0    0  501    0  0.00000000000E+00  0.00000000000E+00  0.20517453556E+04  0.20517453556E+04  0.25500000920E-02 0. -1.
       -2   -1    0    0    0  501  0.00000000000E+00  0.00000000000E+00 -0.14965724941E+04  0.14965724941E+04  0.25500000920E-02 0.  1.
    10030    2    1    2    0    0  0.00000000000E+00  0.00000000000E+00  0.55517286154E+03  0.35483178497E+04  0.35046173338E+04 0.  0.
        4    1    3    3  502    0  0.35944367358E+02  0.41891072489E+03 -0.14447445240E+04  0.15046815428E+04  0.12699999809E+01 0.  1.
       -4    1    3    3    0  502 -0.35944367358E+02 -0.41891072489E+03  0.19999173855E+04  0.20436363069E+04  0.12699999809E+01 0. -1.
</event>
<event>
 5   0  0.4344980E-06  0.3449737E+04  0.7818609E-02  0.8125806E-01
        2   -1    0    0  501    0  0.00000000000E+00  0.00000000000E+00  0.34284566033E+04  0.34284566033E+04  0.25500000920E-02 0. -1.
       -2   -1    0    0    0  501  0.00000000000E+00  0.00000000000E+00 -0.86778761524E+03  0.86778761524E+03  0.25500000920E-02 0.  1.
    10030    2    1    2    0    0  0.00000000000E+00  0.00000000000E+00  0.25606689880E+04  0.42962442185E+04  0.34497374855E+04 0.  0.
        3    1    3    3  502    0  0.77233798608E+02 -0.17082751006E+04  0.15615906328E+04  0.23157578012E+04  0.10100000352E+00 0. -1.
       -3    1    3    3    0  502 -0.77233798608E+02  0.17082751006E+04  0.99907835527E+03  0.19804864174E+04  0.10100000352E+00 0.  1.
</event>
<event>
 5   0  0.1562618E-06  0.2452945E+04  0.7818609E-02  0.8419943E-01
       -1   -1    0    0    0  501  0.00000000000E+00  0.00000000000E+00  0.89745355067E+03  0.89745355068E+03  0.50400001928E-02 0. -1.
        1   -1    0    0  501    0  0.00000000000E+00  0.00000000000E+00 -0.16761144349E+04  0.16761144349E+04  0.50400001928E-02 0.  1.
    10030    2    1    2    0    0  0.00000000000E+00  0.00000000000E+00 -0.77866088427E+03  0.25735679856E+04  0.24529450471E+04 0.  0.
        2    1    3    3  502    0  0.32327899449E+03 -0.33818442439E+03 -0.15788173948E+04  0.16466761610E+04  0.25500000920E-02 0.  1.
       -2    1    3    3    0  502 -0.32327899449E+03  0.33818442439E+03  0.80015651052E+03  0.92689182460E+03  0.25500000920E-02 0. -1.
</event>
<event>
 5   0  0.4344980E-06  0.1862922E+04  0.7818609E-02  0.8673536E-01
       -2   -1    0    0    0  501  0.00000000000E+00  0.00000000000E+00  0.64950080235E+03  0.64950080235E+03  0.25500000920E-02 0.  1.
        2   -1    0    0  501    0  0.00000000000E+00  0.00000000000E+00 -0.13358256139E+04  0.13358256139E+04  0.25500000920E-02 0. -1.
    10030    2    1    2    0    0  0.00000000000E+00  0.00000000000E+00 -0.68632481155E+03  0.19853264163E+04  0.18629222292E+04 0.  0.
        3    1    3    3  502    0  0.50703534185E+02 -0.88555712125E+03 -0.64616317138E+03  0.10974101866E+04  0.10100000352E+00 0.  1.
       -3    1    3    3    0  502 -0.50703534185E+02  0.88555712125E+03 -0.40161640178E+02  0.88791622967E+03  0.10100000352E+00 0. -1.
</event>
<event>
 5   0  0.4344980E-06  0.3397014E+04  0.7818609E-02  0.8138640E-01
       -2   -1    0    0    0  501  0.00000000000E+00  0.00000000000E+00  0.14203032158E+04  0.14203032158E+04  0.25500000920E-02 0. -1.
        2   -1    0    0  501    0  0.00000000000E+00  0.00000000000E+00 -0.20312042095E+04  0.20312042095E+04  0.25500000920E-02 0.  1.
    10030    2    1    2    0    0  0.00000000000E+00  0.00000000000E+00 -0.61090099373E+03  0.34515074254E+04  0.33970139068E+04 0.  0.
        3    1    3    3  502    0  0.39231721759E+03  0.14731222677E+04 -0.10664133180E+04  0.18604406440E+04  0.10100000352E+00 0. -1.
       -3    1    3    3    0  502 -0.39231721759E+03 -0.14731222677E+04  0.45551232426E+03  0.15910667813E+04  0.10100000352E+00 0.  1.
</event>
<event>
 5   0  0.4400349E-06  0.3421999E+04  0.7818609E-02  0.8132528E-01
        2   -1    0    0  501    0  0.00000000000E+00  0.00000000000E+00  0.18901210848E+04  0.18901210848E+04  0.25500000920E-02 0.  1.
       -2   -1    0    0    0  501  0.00000000000E+00  0.00000000000E+00 -0.15488525751E+04  0.15488525751E+04  0.25500000920E-02 0. -1.
    10030    2    1    2    0    0  0.00000000000E+00  0.00000000000E+00  0.34126850965E+03  0.34389736599E+04  0.34219987781E+04 0.  0.
        5    1    3    3  502    0  0.16669638476E+04  0.97270804484E+02  0.54567003647E+03  0.17567037193E+04  0.46999998093E+01 0.  1.
       -5    1    3    3    0  502 -0.16669638476E+04 -0.97270804484E+02 -0.20440152682E+03  0.16822699406E+04  0.46999998093E+01 0. -1.
</event>
<event>
 5   0  0.1550164E-06  0.3308759E+04  0.7818609E-02  0.8160670E-01
        1   -1    0    0  501    0  0.00000000000E+00  0.00000000000E+00  0.21137847523E+04  0.21137847523E+04  0.50400001928E-02 0. -1.
       -1   -1    0    0    0  501  0.00000000000E+00  0.00000000000E+00 -0.12948204731E+04  0.12948204731E+04  0.50400001928E-02 0.  1.
    10030    2    1    2    0    0  0.00000000000E+00  0.00000000000E+00  0.81896427927E+03  0.34086052254E+04  0.33087591469E+04 0.  0.
        4    1    3    3  502    0  0.10304564195E+04 -0.11469661780E+04 -0.20827869929E+03  0.15558770759E+04  0.12699999809E+01 0.  1.
       -4    1    3    3    0  502 -0.10304564195E+04  0.11469661780E+04  0.10272429786E+04  0.18527281495E+04  0.12699999809E+01 0. -1.
</event>
<event>
 5   0  0.2101998E-06  0.3320715E+04  0.7818609E-02  0.8157644E-01
       -1   -1    0    0    0  501  0.00000000000E+00  0.00000000000E+00  0.30587260082E+04  0.30587260082E+04  0.50400001928E-02 0.  1.
        1   -1    0    0  501    0  0.00000000000E+00  0.00000000000E+00 -0.90128579307E+03  0.90128579308E+03  0.50400001928E-02 0. -1.
    10030    2    1    2    0    0  0.00000000000E+00  0.00000000000E+00  0.21574402151E+04  0.39600118013E+04  0.33207145593E+04 0.  0.
        5    1    3    3  502    0 -0.15998804134E+04  0.16903967895E+03  0.58910113218E+03  0.17132582947E+04  0.46999998093E+01 0. -1.
       -5    1    3    3    0  502  0.15998804134E+04 -0.16903967895E+03  0.15683390829E+04  0.22467535066E+04  0.46999998093E+01 0.  1.
</event>
<event>
 5   0  0.1654257E-06  0.3418782E+04  0.7818609E-02  0.8133312E-01
       -1   -1    0    0    0  501  0.00000000000E+00  0.00000000000E+00  0.20285693647E+04  0.20285693647E+04  0.50400001928E-02 0. -1.
        1   -1    0    0  501    0  0.00000000000E+00  0.00000000000E+00 -0.14404323036E+04  0.14404323036E+04  0.50400001928E-02 0.  1.
    10030    2    1    2    0    0  0.00000000000E+00  0.00000000000E+00  0.58813706113E+03  0.34690016684E+04  0.34187815626E+04 0.  0.
        3    1    3    3  502    0  0.11932092273E+04  0.12069562925E+04  0.87298115886E+02  0.16994448280E+04  0.10100000352E+00 0. -1.
       -3    1    3    3    0  502 -0.11932092273E+04 -0.12069562925E+04  0.50083894524E+03  0.17695568404E+04  0.10100000352E+00 0.  1.
</event>
<event>
 5   0  0.4189587E-06  0.1685707E+04  0.7818609E-02  0.8769558E-01
        2   -1    0    0  501    0  0.00000000000E+00  0.00000000000E+00  0.13684119519E+04  0.13684119519E+04  0.25500000920E-02 0. -1.
       -2   -1    0    0    0  501  0.00000000000E+00  0.00000000000E+00 -0.51914360178E+03  0.51914360179E+03  0.25500000920E-02 0.  1.
    10030    2    1    2    0    0  0.00000000000E+00  0.00000000000E+00  0.84926835008E+03  0.18875555537E+04  0.16857073405E+04 0.  0.
        1    1    3    3  502    0  0.63008124234E+03  0.49524612065E+03  0.13235986824E+03  0.81227472367E+03  0.50400001928E-02 0. -1.
       -1    1    3    3    0  502 -0.63008124234E+03 -0.49524612065E+03  0.71690848184E+03  0.10752808300E+04  0.50400001928E-02 0.  1.
</event>
<event>
 5   0  0.4189587E-06  0.2936282E+04  0.7818609E-02  0.8262164E-01
        2   -1    0    0  501    0  0.00000000000E+00  0.00000000000E+00  0.24244520613E+04  0.24244520613E+04  0.25500000920E-02 0.  1.
       -2   -1    0    0    0  501  0.00000000000E+00  0.00000000000E+00 -0.88904146931E+03  0.88904146931E+03  0.25500000920E-02 0. -1.
    10030    2    1    2    0    0  0.00000000000E+00  0.00000000000E+00  0.15354105920E+04  0.33134935306E+04  0.29362822908E+04 0.  0.
        1    1    3    3  502    0 -0.27694125494E+03  0.14414394858E+04  0.80328638670E+03  0.16732343736E+04  0.50400001928E-02 0. -1.
       -1    1    3    3    0  502  0.27694125494E+03 -0.14414394858E+04  0.73212420527E+03  0.16402591570E+04  0.50400001928E-02 0.  1.
</event>
<event>
 5   0  0.1550164E-06  0.1999510E+04  0.7818609E-02  0.8606850E-01
       -1   -1    0    0    0  501  0.00000000000E+00  0.00000000000E+00  0.87899908076E+03  0.87899908078E+03  0.50400001928E-02 0.  1.
        1   -1    0    0  501    0  0.00000000000E+00  0.00000000000E+00 -0.11370999749E+04  0.11370999749E+04  0.50400001928E-02 0. -1.
    10030    2    1    2    0    0  0.00000000000E+00  0.00000000000E+00 -0.25810089417E+03  0.20160990557E+04  0.19995097726E+04 0.  0.
        4    1    3    3  502    0  0.89393891981E+03 -0.40066153517E+03  0.72234870654E+02  0.98228099216E+03  0.12699999809E+01 0. -1.
       -4    1    3    3    0  502 -0.89393891981E+03  0.40066153517E+03 -0.33033576482E+03  0.10338180636E+04  0.12699999809E+01 0.  1.
</event>
<event>
 5   0  0.2722449E-06  0.3352256E+04  0.7818609E-02  0.8149725E-01
        2   -1    0    0  501    0  0.00000000000E+00  0.00000000000E+00  0.26372264988E+04  0.26372264988E+04  0.25500000920E-02 0.  1.
       -2   -1    0    0    0  501  0.00000000000E+00  0.00000000000E+00 -0.10652877274E+04  0.10652877274E+04  0.25500000920E-02 0. -1.
    10030    2    1    2    0    0  0.00000000000E+00  0.00000000000E+00  0.15719387715E+04  0.37025142262E+04  0.33522559708E+04 0.  0.
        2    1    3    3  502    0 -0.15103033284E+04 -0.28966675683E+02 -0.16246575985E+02  0.15106684492E+04  0.25500000920E-02 0. -1.
       -2    1    3    3    0  502  0.15103033284E+04  0.28966675683E+02  0.15881853474E+04  0.21918457770E+04  0.25500000920E-02 0.  1.
</event>
<event>
 5   0  0.1401125E-06  0.3366414E+04  0.7818609E-02  0.8146199E-01
       -3   -1    0    0    0  501  0.00000000000E+00  0.00000000000E+00  0.20675884550E+04  0.20675884575E+04  0.10100000352E+00 0. -1.
        3   -1    0    0  501    0  0.00000000000E+00  0.00000000000E+00 -0.13702848652E+04  0.13702848689E+04  0.10100000352E+00 0.  1.
    10030    2    1    2    0    0  0.00000000000E+00  0.00000000000E+00  0.69730358987E+03  0.34378733264E+04  0.33664136276E+04 0.  0.
        2    1    3    3  502    0 -0.12141405735E+04 -0.75104678285E+03 -0.56188931884E+03  0.15342516771E+04  0.25500000920E-02 0.  1.
       -2    1    3    3    0  502  0.12141405735E+04  0.75104678285E+03  0.12591929087E+04  0.19036216493E+04  0.25500000920E-02 0. -1.
</event>
<event>
 5   0  0.4400349E-06  0.3419866E+04  0.7818609E-02  0.8133048E-01
        2   -1    0    0  501    0  0.00000000000E+00  0.00000000000E+00  0.17223640109E+04  0.17223640109E+04  0.25500000920E-02 0.  1.
       -2   -1    0    0    0  501  0.00000000000E+00  0.00000000000E+00 -0.16975920520E+04  0.16975920520E+04  0.25500000920E-02 0. -1.
    10030    2    1    2    0    0  0.00000000000E+00  0.00000000000E+00  0.24771958926E+02  0.34199560629E+04  0.34198663457E+04 0.  0.
        5    1    3    3  502    0 -0.25360925818E+03  0.85811354442E+03 -0.14447633798E+04  0.16994233801E+04  0.46999998093E+01 0. -1.
       -5    1    3    3    0  502  0.25360925818E+03 -0.85811354442E+03  0.14695353388E+04  0.17205326829E+04  0.46999998093E+01 0.  1.
</event>
<event>
 5   0  0.4400349E-06  0.3398807E+04  0.7818609E-02  0.8138199E-01
       -2   -1    0    0    0  501  0.00000000000E+00  0.00000000000E+00  0.15899004521E+04  0.15899004521E+04  0.25500000920E-02 0. -1.
        2   -1    0    0  501    0  0.00000000000E+00  0.00000000000E+00 -0.18164485457E+04  0.18164485457E+04  0.25500000920E-02 0.  1.
    10030    2    1    2    0    0  0.00000000000E+00  0.00000000000E+00 -0.22654809357E+03  0.34063489978E+04  0.33988070637E+04 0.  0.
        5    1    3    3  502    0  0.18549690127E+03  0.15978858981E+04 -0.66248807188E+03  0.17397014051E+04  0.46999998093E+01 0.  1.
       -5    1    3    3    0  502 -0.18549690127E+03 -0.15978858981E+04  0.43593997831E+03  0.16666475927E+04  0.46999998093E+01 0. -1.
</event>
<event>
 5   0  0.1571391E-06  0.2794009E+04  0.7818609E-02  0.8305131E-01
        1   -1    0    0  501    0  0.00000000000E+00  0.00000000000E+00  0.23469856030E+04  0.23469856030E+04  0.50400001928E-02 0. -1.
       -1   -1    0    0    0  501  0.00000000000E+00  0.00000000000E+00 -0.83154406526E+03  0.83154406527E+03  0.50400001928E-02 0.  1.
    10030    2    1    2    0    0  0.00000000000E+00  0.00000000000E+00  0.15154415377E+04  0.31785296682E+04  0.27940092694E+04 0.  0.
        1    1    3    3  502    0 -0.43107254522E+03  0.79016346835E+03 -0.45769534640E+03  0.10097855595E+04  0.50400001928E-02 0. -1.
       -1    1    3    3    0  502  0.43107254522E+03 -0.79016346835E+03  0.19731368841E+04  0.21687441088E+04  0.50400001928E-02 0.  1.
</event>
<event>
 5   0  0.1562618E-06  0.3358624E+04  0.7818609E-02  0.8148137E-01
       -1   -1    0    0    0  501  0.00000000000E+00  0.00000000000E+00  0.18883085636E+04  0.18883085636E+04  0.50400001928E-02 0.  1.
        1   -1    0    0  501    0  0.00000000000E+00  0.00000000000E+00 -0.14934466416E+04  0.14934466416E+04  0.50400001928E-02 0. -1.
    10030    2    1    2    0    0  0.00000000000E+00  0.00000000000E+00  0.39486192200E+03  0.33817552051E+04  0.33586235767E+04 0.  0.
        2    1    3    3  502    0  0.11955831858E+04 -0.10444997294E+04 -0.35377818184E+03  0.16265170891E+04  0.25500000920E-02 0. -1.
       -2    1    3    3    0  502 -0.11955831858E+04  0.10444997294E+04  0.74864010384E+03  0.17552381161E+04  0.25500000920E-02 0.  1.
</event>
<event>
 5   0  0.4344980E-06  0.3408873E+04  0.7818609E-02  0.8135732E-01
       -2   -1    0    0    0  501  0.00000000000E+00  0.00000000000E+00  0.17775251470E+04  0.17775251470E+04  0.25500000920E-02 0.  1.
        2   -1    0    0  501    0  0.00000000000E+00  0.00000000000E+00 -0.16343535982E+04  0.16343535982E+04  0.25500000920E-02 0. -1.
    10030    2    1    2    0    0  0.00000000000E+00  0.00000000000E+00  0.14317154885E+03  0.34118787452E+04  0.34088734913E+04 0.  0.
        3    1    3    3  502    0 -0.54588998352E+03 -0.30885425485E+03 -0.15146514035E+04  0.16393766221E+04  0.10100000352E+00 0. -1.
       -3    1    3    3    0  502  0.54588998352E+03  0.30885425485E+03  0.16578229523E+04  0.17725021231E+04  0.10100000352E+00 0.  1.
</event>
<event>
 5   0  0.4173467E-06  0.3358043E+04  0.7818609E-02  0.8148281E-01
       -2   -1    0    0    0  501  0.00000000000E+00  0.00000000000E+00  0.17359474845E+04  0.17359474845E+04  0.25500000920E-02 0.  1.
        2   -1    0    0  501    0  0.00000000000E+00  0.00000000000E+00 -0.16239619857E+04  0.16239619857E+04  0.25500000920E-02 0. -1.
    10030    2    1    2    0    0  0.00000000000E+00  0.00000000000E+00  0.11198549887E+03  0.33599094702E+04  0.33580427180E+04 0.  0.
        4    1    3    3  502    0 -0.90582379388E+03  0.11192390984E+04  0.92012684407E+03  0.17087562515E+04  0.12699999809E+01 0.  1.
       -4    1    3    3    0  502  0.90582379388E+03 -0.11192390984E+04 -0.80814134520E+03  0.16511532187E+04  0.12699999809E+01 0. -1.
</event>
<event>
 5   0  0.4400349E-06  0.3581547E+04  0.7818609E-02  0.8094732E-01
        2   -1    0    0  501    0  0.00000000000E+00  0.00000000000E+00  0.19430444935E+04  0.19430444935E+04  0.25500000920E-02 0.  1.
       -2   -1    0    0    0  501  0.00000000000E+00  0.00000000000E+00 -0.16504358758E+04  0.16504358758E+04  0.25500000920E-02 0. -1.
    10030    2    1    2    0    0  0.00000000000E+00  0.00000000000E+00  0.29260861768E+03  0.35934803692E+04  0.35815473417E+04 0.  0.
        5    1    3    3  502    0 -0.22931942298E+03  0.68549593861E+03 -0.14975550183E+04  0.16628846029E+04  0.46999998093E+01 0. -1.
       -5    1    3    3    0  502  0.22931942298E+03 -0.68549593861E+03  0.17901636360E+04  0.19305957664E+04  0.46999998093E+01 0.  1.
</event>
<event>
 5   0  0.4400349E-06  0.3199772E+04  0.7818609E-02  0.8188877E-01
        2   -1    0    0  501    0  0.00000000000E+00  0.00000000000E+00  0.26071643997E+04  0.26071643997E+04  0.25500000920E-02 0.  1.
       -2   -1    0    0    0  501  0.00000000000E+00  0.00000000000E+00 -0.98176964157E+03  0.98176964157E+03  0.25500000920E-02 0. -1.
    10030    2    1    2    0    0  0.00000000000E+00  0.00000000000E+00  0.16253947581E+04  0.35889340412E+04  0.31997717782E+04 0.  0.
        5    1    3    3  502    0  0.12356274136E+04  0.10119450189E+04  0.70745038141E+03  0.17468016369E+04  0.46999998093E+01 0.  1.
       -5    1    3    3    0  502 -0.12356274136E+04 -0.10119450189E+04  0.91794437668E+03  0.18421324043E+04  0.46999998093E+01 0. -1.
</event>
<event>
 5   0  0.4189587E-06  0.3290052E+04  0.7818609E-02  0.8165431E-01
        2   -1    0    0  501    0  0.00000000000E+00  0.00000000000E+00  0.12576431610E+04  0.12576431610E+04  0.25500000920E-02 0. -1.
       -2   -1    0    0    0  501  0.00000000000E+00  0.00000000000E+00 -0.21517311456E+04  0.21517311456E+04  0.25500000920E-02 0.  1.
    10030    2    1    2    0    0  0.00000000000E+00  0.00000000000E+00 -0.89408798459E+03  0.34093743067E+04  0.32900516468E+04 0.  0.
        1    1    3    3  502    0 -0.12430406253E+03 -0.53989155522E+03 -0.20521472772E+04  0.21256158728E+04  0.50400001928E-02 0.  1.
       -1    1    3    3    0  502  0.12430406253E+03  0.53989155522E+03  0.11580592926E+04  0.12837584339E+04  0.50400001928E-02 0. -1.
</event>
<event>
 5   0  0.2722449E-06  0.2274973E+04  0.7818609E-02  0.8487855E-01
        2   -1    0    0  501    0  0.00000000000E+00  0.00000000000E+00  0.24823039277E+04  0.24823039277E+04  0.25500000920E-02 0. -1.
       -2   -1    0    0    0  501  0.00000000000E+00  0.00000000000E+00 -0.52123987671E+03  0.52123987672E+03  0.25500000920E-02 0.  1.
    10030    2    1    2    0    0  0.00000000000E+00  0.00000000000E+00  0.19610640509E+04  0.30035438044E+04  0.22749732247E+04 0.  0.
        2    1    3    3  502    0 -0.39330104773E+02 -0.11290407092E+04  0.11556637475E+04  0.16161183365E+04  0.25500000920E-02 0. -1.
       -2    1    3    3    0  502  0.39330104773E+02  0.11290407092E+04  0.80540030346E+03  0.13874254679E+04  0.25500000920E-02 0.  1.
</event>
<event>
 5   0  0.2101998E-06  0.3178186E+04  0.7818609E-02  0.8194602E-01
       -1   -1    0    0    0  501  0.00000000000E+00  0.00000000000E+00  0.10865984945E+04  0.10865984945E+04  0.50400001928E-02 0. -1.
        1   -1    0    0  501    0  0.00000000000E+00  0.00000000000E+00 -0.23239651324E+04  0.23239651324E+04  0.50400001928E-02 0.  1.
    10030    2    1    2    0    0  0.00000000000E+00  0.00000000000E+00 -0.12373666379E+04  0.34105636269E+04  0.31781862841E+04 0.  0.
        5    1    3    3  502    0 -0.13643681534E+04 -0.47856359411E+03 -0.13261847395E+04  0.19619662650E+04  0.46999998093E+01 0. -1.
       -5    1    3    3    0  502  0.13643681534E+04  0.47856359411E+03  0.88818101574E+02  0.14485973619E+04  0.46999998093E+01 0.  1.
</event>
<event>
 5   0  0.4344980E-06  0.2168312E+04  0.7818609E-02  0.8531734E-01
        2   -1    0    0  501    0  0.00000000000E+00  0.00000000000E+00  0.11504444857E+04  0.11504444857E+04  0.25500000920E-02 0. -1.
       -2   -1    0    0    0  501  0.00000000000E+00  0.00000000000E+00 -0.10216873904E+04  0.10216873904E+04  0.25500000920E-02 0.  1.
    10030    2    1    2    0    0  0.00000000000E+00  0.00000000000E+00  0.12875709531E+03  0.21721318761E+04  0.21683123616E+04 0.  0.
        3    1    3    3  502    0 -0.44391017639E+03 -0.31327793028E+03  0.10042184241E+04  0.11417766681E+04  0.10100000352E+00 0. -1.
       -3    1    3    3    0  502  0.44391017639E+03  0.31327793028E+03 -0.87546132876E+03  0.10303552080E+04  0.10100000352E+00 0.  1.
</event>
<event>
 5   0  0.2722449E-06  0.2460563E+04  0.7818609E-02  0.8417171E-01
        2   -1    0    0  501    0  0.00000000000E+00  0.00000000000E+00  0.13543049617E+04  0.13543049617E+04  0.25500000920E-02 0. -1.
       -2   -1    0    0    0  501  0.00000000000E+00  0.00000000000E+00 -0.11176161087E+04  0.11176161087E+04  0.25500000920E-02 0.  1.
    10030    2    1    2    0    0  0.00000000000E+00  0.00000000000E+00  0.23668885303E+03  0.24719210704E+04  0.24605633837E+04 0.  0.
        2    1    3    3  502    0  0.35077618628E+03 -0.88058337594E+03  0.90626180933E+03  0.13114043930E+04  0.25500000920E-02 0. -1.
       -2    1    3    3    0  502 -0.35077618628E+03  0.88058337594E+03 -0.66957295630E+03  0.11605166775E+04  0.25500000920E-02 0.  1.
</event>
<event>
 5   0  0.4173467E-06  0.2911368E+04  0.7818609E-02  0.8269503E-01
        2   -1    0    0  501    0  0.00000000000E+00  0.00000000000E+00  0.20521825867E+04  0.20521825868E+04  0.25500000920E-02 0.  1.
       -2   -1    0    0    0  501  0.00000000000E+00  0.00000000000E+00 -0.10325671713E+04  0.10325671714E+04  0.25500000920E-02 0. -1.
    10030    2    1    2    0    0  0.00000000000E+00  0.00000000000E+00  0.10196154154E+04  0.30847497581E+04  0.29113683166E+04 0.  0.
        4    1    3    3  502    0 -0.80254641471E+03  0.11916375506E+04  0.26146968146E+03  0.14602906584E+04  0.12699999809E+01 0. -1.
       -4    1    3    3    0  502  0.80254641471E+03 -0.11916375506E+04  0.75814573394E+03  0.16244590997E+04  0.12699999809E+01 0.  1.
</event>
<event>
 5   0  0.1550164E-06  0.2957205E+04  0.7818609E-02  0.8256058E-01
       -1   -1    0    0    0  501  0.00000000000E+00  0.00000000000E+00  0.10037641289E+04  0.10037641289E+04  0.50400001928E-02 0.  1.
        1   -1    0    0  501    0  0.00000000000E+00  0.00000000000E+00 -0.21780664111E+04  0.21780664111E+04  0.50400001928E-02 0. -1.
    10030    2    1    2    0    0  0.00000000000E+00  0.00000000000E+00 -0.11743022822E+04  0.31818305401E+04  0.29572047166E+04 0.  0.
        4    1    3    3  502    0  0.33967851796E+03 -0.55246235192E+03  0.84256584664E+03  0.10632567727E+04  0.12699999809E+01 0.  1.
       -4    1    3    3    0  502 -0.33967851796E+03  0.55246235192E+03 -0.20168681288E+04  0.21185737674E+04  0.12699999809E+01 0. -1.
</event>
<event>
 5   0  0.4189587E-06  0.3195605E+04  0.7818609E-02  0.8189979E-01
       -2   -1    0    0    0  501  0.00000000000E+00  0.00000000000E+00  0.13926189309E+04  0.13926189309E+04  0.25500000920E-02 0.  1.
        2   -1    0    0  501    0  0.00000000000E+00  0.00000000000E+00 -0.18332167596E+04  0.18332167596E+04  0.25500000920E-02 0. -1.
    10030    2    1    2    0    0  0.00000000000E+00  0.00000000000E+00 -0.44059782877E+03  0.32258356905E+04  0.31956047089E+04 0.  0.
        1    1    3    3  502    0 -0.51388386621E+03  0.17257133842E+03 -0.17375531103E+04  0.18201506272E+04  0.50400001928E-02 0. -1.
       -1    1    3    3    0  502  0.51388386621E+03 -0.17257133842E+03  0.12969552815E+04  0.14056850633E+04  0.50400001928E-02 0.  1.
</event>
<event>
 5   0  0.4344980E-06  0.3457932E+04  0.7818609E-02  0.8123832E-01
       -2   -1    0    0    0  501  0.00000000000E+00  0.00000000000E+00  0.13312017436E+04  0.13312017436E+04  0.25500000920E-02 0.  1.
        2   -1    0    0  501    0  0.00000000000E+00  0.00000000000E+00 -0.22455827931E+04  0.22455827931E+04  0.25500000920E-02 0. -1.
    10030    2    1    2    0    0  0.00000000000E+00  0.00000000000E+00 -0.91438104950E+03  0.35767845367E+04  0.34579321738E+04 0.  0.
        3    1    3    3  502    0 -0.13302756677E+04  0.17005815238E+03  0.67154023163E+03  0.14998397981E+04  0.10100000352E+00 0.  1.
       -3    1    3    3    0  502  0.13302756677E+04 -0.17005815238E+03 -0.15859212811E+04  0.20769447386E+04  0.10100000352E+00 0. -1.
</event>
<event>
 5   0  0.1571391E-06  0.3411435E+04  0.7818609E-02  0.8135106E-01
       -1   -1    0    0    0  501  0.00000000000E+00  0.00000000000E+00  0.11700778724E+04  0.11700778724E+04  0.50400001928E-02 0. -1.
        1   -1    0    0  501    0  0.00000000000E+00  0.00000000000E+00 -0.24865628018E+04  0.24865628018E+04  0.50400001928E-02 0.  1.
    10030    2    1    2    0    0  0.00000000000E+00  0.00000000000E+00 -0.13164849295E+04  0.36566406742E+04  0.34114349548E+04 0.  0.
        1    1    3    3  502    0 -0.47175801589E+03  0.38012308815E+03 -0.23673488183E+04  0.24436426938E+04  0.50400001928E-02 0.  1.
       -1    1    3    3    0  502  0.47175801589E+03 -0.38012308815E+03  0.10508638888E+04  0.12129979804E+04  0.50400001928E-02 0. -1.
</event>
<event>
 5   0  0.1401125E-06  0.2740387E+04  0.7818609E-02  0.8322018E-01
       -3   -1    0    0    0  501  0.00000000000E+00  0.00000000000E+00  0.16710938049E+04  0.16710938079E+04  0.10100000352E+00 0. -1.
        3   -1    0    0  501    0  0.00000000000E+00  0.00000000000E+00 -0.11234739225E+04  0.11234739271E+04  0.10100000352E+00 0.  1.
    10030    2    1    2    0    0  0.00000000000E+00  0.00000000000E+00  0.54761988232E+03  0.27945677350E+04  0.27403870694E+04 0.  0.
        5    1    3    3  502    0 -0.82034251271E+03 -0.10959485884E+04  0.33277252330E+03  0.14088380989E+04  0.46999998093E+01 0.  1.
       -5    1    3    3    0  502  0.82034251271E+03  0.10959485884E+04  0.21484735902E+03  0.13857296361E+04  0.46999998093E+01 0. -1.
</event>
<event>
 5   0  0.1562618E-06  0.3428328E+04  0.7818609E-02  0.8130989E-01
        1   -1    0    0  501    0  0.00000000000E+00  0.00000000000E+00  0.10844484304E+04  0.10844484304E+04  0.50400001928E-02 0. -1.
       -1   -1    0    0    0  501  0.00000000000E+00  0.00000000000E+00 -0.27095410499E+04  0.27095410499E+04  0.50400001928E-02 0.  1.
    10030    2    1    2    0    0  0.00000000000E+00  0.00000000000E+00 -0.16250926195E+04  0.37939894803E+04  0.34283276032E+04 0.  0.
        2    1    3    3  502    0  0.11109247432E+04 -0.83593366475E+03 -0.19221995303E+04  0.23722963372E+04  0.25500000920E-02 0.  1.
       -2    1    3    3    0  502 -0.11109247432E+04  0.83593366475E+03  0.29710691083E+03  0.14216931432E+04  0.25500000920E-02 0. -1.
</event>
<event>
 5   0  0.4173467E-06  0.3332904E+04  0.7818609E-02  0.8154573E-01
        2   -1    0    0  501    0  0.00000000000E+00  0.00000000000E+00  0.10672616754E+04  0.10672616754E+04  0.25500000920E-02 0. -1.
       -2   -1    0    0    0  501  0.00000000000E+00  0.00000000000E+00 -0.26020439064E+04  0.26020439064E+04  0.25500000920E-02 0.  1.
    10030    2    1    2    0    0  0.00000000000E+00  0.00000000000E+00 -0.15347822310E+04  0.36693055818E+04  0.33329036824E+04 0.  0.
        4    1    3    3  502    0  0.43910203307E+03  0.28289588736E+00  0.10024257716E+04  0.10943809739E+04  0.12699999809E+01 0. -1.
       -4    1    3    3    0  502 -0.43910203307E+03 -0.28289588736E+00 -0.25372080026E+04  0.25749246079E+04  0.12699999809E+01 0.  1.
</event>
<event>
 5   0  0.1571391E-06  0.1876646E+04  0.7818609E-02  0.8666569E-01
        1   -1    0    0  501    0  0.00000000000E+00  0.00000000000E+00  0.10484790971E+04  0.10484790971E+04  0.50400001928E-02 0. -1.
       -1   -1    0    0    0  501  0.00000000000E+00  0.00000000000E+00 -0.83973985964E+03  0.83973985965E+03  0.50400001928E-02 0.  1.
    10030    2    1    2    0    0  0.00000000000E+00  0.00000000000E+00  0.20873923743E+03  0.18882189567E+04  0.18766456137E+04 0.  0.
        1    1    3    3  502    0  0.46989361680E+03  0.21887159811E+03  0.89133434175E+03  0.10311070247E+04  0.50400001928E-02 0. -1.
       -1    1    3    3    0  502 -0.46989361680E+03 -0.21887159811E+03 -0.68259510432E+03  0.85711193203E+03  0.50400001928E-02 0.  1.
</event>
<event>
 5   0  0.4400349E-06  0.2972591E+04  0.7818609E-02  0.8251601E-01
        2   -1    0    0  501    0  0.00000000000E+00  0.00000000000E+00  0.16727445248E+04  0.16727445248E+04  0.25500000920E-02 0.  1.
       -2   -1    0    0    0  501  0.00000000000E+00  0.00000000000E+00 -0.13206285443E+04  0.13206285443E+04  0.25500000920E-02 0. -1.
    10030    2    1    2    0    0  0.00000000000E+00  0.00000000000E+00  0.35211598051E+03  0.29933730692E+04  0.29725909015E+04 0.  0.
        5    1    3    3  502    0  0.44493931095E+03 -0.12390501324E+04  0.87068918863E+03  0.15783972802E+04  0.46999998093E+01 0.  1.
       -5    1    3    3    0  502 -0.44493931095E+03  0.12390501324E+04 -0.51857320812E+03  0.14149757889E+04  0.46999998093E+01 0. -1.
</event>
<event>
 5   0  0.2722449E-06  0.2326787E+04  0.7818609E-02  0.8467434E-01
       -2   -1    0    0    0  501  0.00000000000E+00  0.00000000000E+00  0.61626453827E+03  0.61626453827E+03  0.25500000920E-02 0.  1.
        2   -1    0    0  501    0  0.00000000000E+00  0.00000000000E+00 -0.21962719691E+04  0.21962719691E+04  0.25500000920E-02 0. -1.
    10030    2    1    2    0    0  0.00000000000E+00  0.00000000000E+00 -0.15800074309E+04  0.28125365074E+04  0.23267870818E+04 0.  0.
        2    1    3    3  502    0 -0.14380020321E+03  0.75330658725E+03 -0.18474720555E+04  0.20003255507E+04  0.25500000920E-02 0. -1.
       -2    1    3    3    0  502  0.14380020321E+03 -0.75330658725E+03  0.26746462461E+03  0.81221095675E+03  0.25500000920E-02 0.  1.
</event>
<event>
 5   0  0.4344980E-06  0.3386237E+04  0.7818609E-02  0.8141293E-01
        2   -1    0    0  501    0  0.00000000000E+00  0.00000000000E+00  0.23917656576E+04  0.23917656576E+04  0.25500000920E-02 0.  1.
       -2   -1    0    0    0  501  0.00000000000E+00  0.00000000000E+00 -0.11985494552E+04  0.11985494552E+04  0.25500000920E-02 0. -1.
    10030    2    1    2    0    0  0.00000000000E+00  0.00000000000E+00  0.11932162024E+04  0.35903151128E+04  0.33862365103E+04 0.  0.
        3    1    3    3  502    0 -0.10192065571E+04 -0.47831077618E+03 -0.74415243473E+03  0.13495651377E+04  0.10100000352E+00 0. -1.
       -3    1    3    3    0  502  0.10192065571E+04  0.47831077618E+03  0.19373686371E+04  0.22407499751E+04  0.10100000352E+00 0.  1.
</event>
<event>
 5   0  0.1654257E-06  0.3734783E+04  0.7818609E-02  0.8060297E-01
       -1   -1    0    0    0  501  0.00000000000E+00  0.00000000000E+00  0.13556731273E+04  0.13556731273E+04  0.50400001928E-02 0. -1.
        1   -1    0    0  501    0  0.00000000000E+00  0.00000000000E+00 -0.25722652098E+04  0.25722652098E+04  0.50400001928E-02 0.  1.
    10030    2    1    2    0    0  0.00000000000E+00  0.00000000000E+00 -0.12165920825E+04  0.39279383370E+04  0.37347828966E+04 0.  0.
        3    1    3    3  502    0  0.99785630084E+03  0.15696283431E+04 -0.78333831066E+03  0.20181846426E+04  0.10100000352E+00 0.  1.
       -3    1    3    3    0  502 -0.99785630084E+03 -0.15696283431E+04 -0.43325377183E+03  0.19097536944E+04  0.10100000352E+00 0. -1.
</event>
<event>
 5   0  0.1562618E-06  0.3410594E+04  0.7818609E-02  0.8135311E-01
        1   -1    0    0  501    0  0.00000000000E+00  0.00000000000E+00  0.19585955427E+04  0.19585955427E+04  0.50400001928E-02 0.  1.
       -1   -1    0    0    0  501  0.00000000000E+00  0.00000000000E+00 -0.14847568333E+04  0.14847568333E+04  0.50400001928E-02 0. -1.
    10030    2    1    2    0    0  0.00000000000E+00  0.00000000000E+00  0.47383870938E+03  0.34433523761E+04  0.34105941511E+04 0.  0.
        2    1    3    3  502    0 -0.17080560988E+03 -0.15510050012E+04  0.93145634606E+03  0.18172512195E+04  0.25500000920E-02 0. -1.
       -2    1    3    3    0  502  0.17080560988E+03  0.15510050012E+04 -0.45761763668E+03  0.16261011566E+04  0.25500000920E-02 0.  1.
</event>
<event>
 5   0  0.4344980E-06  0.3399674E+04  0.7818609E-02  0.8137986E-01
        2   -1    0    0  501    0  0.00000000000E+00  0.00000000000E+00  0.16964106459E+04  0.16964106459E+04  0.25500000920E-02 0. -1.
       -2   -1    0    0    0  501  0.00000000000E+00  0.00000000000E+00 -0.17032701858E+04  0.17032701858E+04  0.25500000920E-02 0.  1.
    10030    2    1    2    0    0  0.00000000000E+00  0.00000000000E+00 -0.68595398783E+01  0.33996808317E+04  0.33996739114E+04 0.  0.
        3    1    3    3  502    0 -0.15263771518E+04 -0.57172638702E+03 -0.48586975798E+03  0.17008138356E+04  0.10100000352E+00 0.  1.
       -3    1    3    3    0  502  0.15263771518E+04  0.57172638702E+03  0.47901021811E+03  0.16988669961E+04  0.10100000352E+00 0. -1.
</event>
<event>
 5   0  0.4400349E-06  0.3410607E+04  0.7818609E-02  0.8135308E-01
       -2   -1    0    0    0  501  0.00000000000E+00  0.00000000000E+00  0.14539135121E+04  0.14539135121E+04  0.25500000920E-02 0. -1.
        2   -1    0    0  501    0  0.00000000000E+00  0.00000000000E+00 -0.20001603319E+04  0.20001603319E+04  0.25500000920E-02 0.  1.
    10030    2    1    2    0    0  0.00000000000E+00  0.00000000000E+00 -0.54624681982E+03  0.34540738439E+04  0.34106070620E+04 0.  0.
        5    1    3    3  502    0 -0.31703234583E+03 -0.63437039488E+03 -0.18437275839E+04  0.19754211702E+04  0.46999998093E+01 0.  1.
       -5    1    3    3    0  502  0.31703234583E+03  0.63437039488E+03  0.12974807641E+04  0.14786526737E+04  0.46999998093E+01 0. -1.
</event>
<event>
 5   0  0.4173467E-06  0.3434768E+04  0.7818609E-02  0.8129425E-01
       -2   -1    0    0    0  501  0.00000000000E+00  0.00000000000E+00  0.16346584623E+04  0.16346584623E+04  0.25500000920E-02 0.  1.
        2   -1    0    0  501    0  0.00000000000E+00  0.00000000000E+00 -0.18042961705E+04  0.18042961705E+04  0.25500000920E-02 0. -1.
    10030    2    1    2    0    0  0.00000000000E+00  0.00000000000E+00 -0.16963770820E+03  0.34389546327E+04  0.34347681165E+04 0.  0.
        4    1    3    3  502    0 -0.10296148650E+04  0.42689230801E+03  0.12233196970E+04  0.16549490950E+04  0.12699999809E+01 0.  1.
       -4    1    3    3    0  502  0.10296148650E+04 -0.42689230801E+03 -0.13929574052E+04  0.17840055377E+04  0.12699999809E+01 0. -1.
</event>
<event>
 5   0  0.1562618E-06  0.3396011E+04  0.7818609E-02  0.8138886E-01
       -1   -1    0    0    0  501  0.00000000000E+00  0.00000000000E+00  0.17194846097E+04  0.17194846097E+04  0.50400001928E-02 0.  1.
        1   -1    0    0  501    0  0.00000000000E+00  0.00000000000E+00 -0.16767944086E+04  0.16767944086E+04  0.50400001928E-02 0. -1.
    10030    2    1    2    0    0  0.00000000000E+00  0.00000000000E+00  0.42690201147E+02  0.33962790183E+04  0.33960107062E+04 0.  0.
        2    1    3    3  502    0  0.35358777369E+03 -0.46610852699E+03  0.16155038856E+04  0.17181776034E+04  0.25500000920E-02 0.  1.
       -2    1    3    3    0  502 -0.35358777369E+03  0.46610852699E+03 -0.15728136844E+04  0.16781014149E+04  0.25500000920E-02 0. -1.
</event>
<event>
 5   0  0.1550164E-06  0.2275726E+04  0.7818609E-02  0.8487554E-01
       -1   -1    0    0    0  501  0.00000000000E+00  0.00000000000E+00  0.10150072502E+04  0.10150072502E+04  0.50400001928E-02 0.  1.
        1   -1    0    0  501    0  0.00000000000E+00  0.00000000000E+00 -0.12755890906E+04  0.12755890906E+04  0.50400001928E-02 0. -1.
    10030    2    1    2    0    0  0.00000000000E+00  0.00000000000E+00 -0.26058184044E+03  0.22905963408E+04  0.22757259723E+04 0.  0.
        4    1    3    3  502    0 -0.59371794177E+03  0.42575106684E+01 -0.11073094116E+04  0.12564453298E+04  0.12699999809E+01 0. -1.
       -4    1    3    3    0  502  0.59371794177E+03 -0.42575106684E+01  0.84672757120E+03  0.10341510110E+04  0.12699999809E+01 0.  1.
</event>
<event>
 5   0  0.1654257E-06  0.2158107E+04  0.7818609E-02  0.8536070E-01
       -1   -1    0    0    0  501  0.00000000000E+00  0.00000000000E+00  0.54531061161E+03  0.54531061163E+03  0.50400001928E-02 0. -1.
        1   -1    0    0  501    0  0.00000000000E+00  0.00000000000E+00 -0.21352164496E+04  0.21352164496E+04  0.50400001928E-02 0.  1.
    10030    2    1    2    0    0  0.00000000000E+00  0.00000000000E+00 -0.15899058380E+04  0.26805270613E+04  0.21581067519E+04 0.  0.
        3    1    3    3  502    0  0.55615176832E+03  0.91588700879E+03 -0.95305464845E+03  0.14340386938E+04  0.10100000352E+00 0. -1.
       -3    1    3    3    0  502 -0.55615176832E+03 -0.91588700879E+03 -0.63685118957E+03  0.12464883674E+04  0.10100000352E+00 0.  1.
</event>
<event>
 5   0  0.1571391E-06  0.1685586E+04  0.7818609E-02  0.8769628E-01
       -1   -1    0    0    0  501  0.00000000000E+00  0.00000000000E+00  0.88552472152E+03  0.88552472154E+03  0.50400001928E-02 0. -1.
        1   -1    0    0  501    0  0.00000000000E+00  0.00000000000E+00 -0.80212353693E+03  0.80212353695E+03  0.50400001928E-02 0.  1.
    10030    2    1    2    0    0  0.00000000000E+00  0.00000000000E+00  0.83401184589E+02  0.16876482585E+04  0.16855862146E+04 0.  0.
        1    1    3    3  502    0 -0.53282071701E+03  0.34219613139E+03 -0.51513092938E+03  0.81630630479E+03  0.50400001928E-02 0.  1.
       -1    1    3    3    0  502  0.53282071701E+03 -0.34219613139E+03  0.59853211396E+03  0.87134195370E+03  0.50400001928E-02 0. -1.
</event>
<event>
 5   0  0.2722449E-06  0.3442461E+04  0.7818609E-02  0.8127563E-01
       -2   -1    0    0    0  501  0.00000000000E+00  0.00000000000E+00  0.13033156550E+04  0.13033156550E+04  0.25500000920E-02 0.  1.
        2   -1    0    0  501    0  0.00000000000E+00  0.00000000000E+00 -0.22731517909E+04  0.22731517909E+04  0.25500000920E-02 0. -1.
    10030    2    1    2    0    0  0.00000000000E+00  0.00000000000E+00 -0.96983613588E+03  0.35764674459E+04  0.34424609310E+04 0.  0.
        2    1    3    3  502    0 -0.65041460502E+03  0.52466524426E+03 -0.20482611819E+04  0.22121678612E+04  0.25500000920E-02 0. -1.
       -2    1    3    3    0  502  0.65041460502E+03 -0.52466524426E+03  0.10784250460E+04  0.13642995847E+04  0.25500000920E-02 0.  1.
</event>
<event>
 5   0  0.1562618E-06  0.3217705E+04  0.7818609E-02  0.8184157E-01
        1   -1    0    0  501    0  0.00000000000E+00  0.00000000000E+00  0.13500364270E+04  0.13500364270E+04  0.50400001928E-02 0.  1.
       -1   -1    0    0    0  501  0.00000000000E+00  0.00000000000E+00 -0.19172867897E+04  0.19172867897E+04  0.50400001928E-02 0. -1.
    10030    2    1    2    0    0  0.00000000000E+00  0.00000000000E+00 -0.56725036271E+03  0.32673232166E+04  0.32177053979E+04 0.  0.
        2    1    3    3  502    0  0.71535867359E+02  0.87230343306E+03  0.10871456506E+04  0.13956777297E+04  0.25500000920E-02 0.  1.
       -2    1    3    3    0  502 -0.71535867359E+02 -0.87230343306E+03 -0.16543960133E+04  0.18716454869E+04  0.25500000920E-02 0. -1.
</event>
<event>
 5   0  0.4344980E-06  0.3412444E+04  0.7818609E-02  0.8134859E-01
       -2   -1    0    0    0  501  0.00000000000E+00  0.00000000000E+00  0.16308952264E+04  0.16308952264E+04  0.25500000920E-02 0.  1.
        2   -1    0    0  501    0  0.00000000000E+00  0.00000000000E+00 -0.17850282947E+04  0.17850282947E+04  0.25500000920E-02 0. -1.
    10030    2    1    2    0    0  0.00000000000E+00  0.00000000000E+00 -0.15413306824E+03  0.34159235211E+04  0.34124443584E+04 0.  0.
        3    1    3    3  502    0  0.11435569799E+03 -0.10694383588E+04 -0.14029616089E+04  0.17677887077E+04  0.10100000352E+00 0. -1.
       -3    1    3    3    0  502 -0.11435569799E+03  0.10694383588E+04  0.12488285406E+04  0.16481348134E+04  0.10100000352E+00 0.  1.
</event>
<event>
 5   0  0.2722449E-06  0.3463795E+04  0.7818609E-02  0.8122424E-01
       -2   -1    0    0    0  501  0.00000000000E+00  0.00000000000E+00  0.20955422993E+04  0.20955422993E+04  0.25500000920E-02 0.  1.
        2   -1    0    0  501    0  0.00000000000E+00  0.00000000000E+00 -0.14313569407E+04  0.14313569407E+04  0.25500000920E-02 0. -1.
    10030    2    1    2    0    0  0.00000000000E+00  0.00000000000E+00  0.66418535856E+03  0.35268992400E+04  0.34637950370E+04 0.  0.
        2    1    3    3  502    0 -0.27548937615E+03 -0.14839460889E+04 -0.53278084162E+03  0.16005767136E+04  0.25500000920E-02 0. -1.
       -2    1    3    3    0  502  0.27548937615E+03  0.14839460889E+04  0.11969662002E+04  0.19263225263E+04  0.25500000920E-02 0.  1.
</event>
<event>
 5   0  0.1571391E-06  0.2728900E+04  0.7818609E-02  0.8325688E-01
       -1   -1    0    0    0  501  0.00000000000E+00  0.00000000000E+00  0.91968231803E+03  0.91968231804E+03  0.50400001928E-02 0.  1.
        1   -1    0    0  501    0  0.00000000000E+00  0.00000000000E+00 -0.20243120888E+04  0.20243120888E+04  0.50400001928E-02 0. -1.
    10030    2    1    2    0    0  0.00000000000E+00  0.00000000000E+00 -0.11046297708E+04  0.29439944069E+04  0.27289001699E+04 0.  0.
        1    1    3    3  502    0  0.45120547117E+03  0.10695757787E+04 -0.13258717986E+04  0.17622470741E+04  0.50400001928E-02 0. -1.
       -1    1    3    3    0  502 -0.45120547117E+03 -0.10695757787E+04  0.22124202781E+03  0.11817473328E+04  0.50400001928E-02 0.  1.
</event>
<event>
 5   0  0.4344980E-06  0.3405279E+04  0.7818609E-02  0.8136612E-01
        2   -1    0    0  501    0  0.00000000000E+00  0.00000000000E+00  0.18240022278E+04  0.18240022278E+04  0.25500000920E-02 0.  1.
       -2   -1    0    0    0  501  0.00000000000E+00  0.00000000000E+00 -0.15893518564E+04  0.15893518564E+04  0.25500000920E-02 0. -1.
    10030    2    1    2    0    0  0.00000000000E+00  0.00000000000E+00  0.23465037146E+03  0.34133540842E+04  0.34052790352E+04 0.  0.
        3    1    3    3  502    0 -0.34621409265E+02 -0.12887410128E+04 -0.99748536918E+03  0.16300396044E+04  0.10100000352E+00 0. -1.
       -3    1    3    3    0  502  0.34621409265E+02  0.12887410128E+04  0.12321357406E+04  0.17833144798E+04  0.10100000352E+00 0.  1.
</event>
<event>
 5   0  0.1401125E-06  0.3477139E+04  0.7818609E-02  0.8119229E-01
       -3   -1    0    0    0  501  0.00000000000E+00  0.00000000000E+00  0.20490034425E+04  0.20490034449E+04  0.10100000352E+00 0. -1.
        3   -1    0    0  501    0  0.00000000000E+00  0.00000000000E+00 -0.14751682137E+04  0.14751682172E+04  0.10100000352E+00 0.  1.
    10030    2    1    2    0    0  0.00000000000E+00  0.00000000000E+00  0.57383522872E+03  0.35241716621E+04  0.34771394902E+04 0.  0.
        3    1    3    3  502    0  0.20570395306E+03  0.17105671230E+04  0.50805727259E+02  0.17236401106E+04  0.10100000352E+00 0.  1.
       -3    1    3    3    0  502 -0.20570395306E+03 -0.17105671230E+04  0.52302950146E+03  0.18005315516E+04  0.10100000352E+00 0. -1.
</event>
<event>
 5   0  0.4189587E-06  0.1909795E+04  0.7818609E-02  0.8649996E-01
       -2   -1    0    0    0  501  0.00000000000E+00  0.00000000000E+00  0.13911353204E+04  0.13911353204E+04  0.25500000920E-02 0.  1.
        2   -1    0    0  501    0  0.00000000000E+00  0.00000000000E+00 -0.65545682173E+03  0.65545682174E+03  0.25500000920E-02 0. -1.
    10030    2    1    2    0    0  0.00000000000E+00  0.00000000000E+00  0.73567849864E+03  0.20465921421E+04  0.19097948955E+04 0.  0.
        1    1    3    3  502    0  0.26947603871E+03 -0.80848564723E+03 -0.93786455793E+02  0.85735772961E+03  0.50400001928E-02 0. -1.
       -1    1    3    3    0  502 -0.26947603871E+03  0.80848564723E+03  0.82946495443E+03  0.11892344125E+04  0.50400001928E-02 0.  1.
</event>
<event>
 5   0  0.4344980E-06  0.2800045E+04  0.7818609E-02  0.8303254E-01
        2   -1    0    0  501    0  0.00000000000E+00  0.00000000000E+00  0.23090720854E+04  0.23090720854E+04  0.25500000920E-02 0.  1.
       -2   -1    0    0    0  501  0.00000000000E+00  0.00000000000E+00 -0.84885293980E+03  0.84885293981E+03  0.25500000920E-02 0. -1.
    10030    2    1    2    0    0  0.00000000000E+00  0.00000000000E+00  0.14602191456E+04  0.31579250252E+04  0.28000447338E+04 0.  0.
        3    1    3    3  502    0  0.18888177807E+03 -0.10814175763E+04  0.17100236063E+04  0.20320730904E+04  0.10100000352E+00 0.  1.
       -3    1    3    3    0  502 -0.18888177807E+03  0.10814175763E+04 -0.24980446072E+03  0.11258519348E+04  0.10100000352E+00 0. -1.
</event>
<event>
 5   0  0.1550164E-06  0.3278217E+04  0.7818609E-02  0.8168460E-01
       -1   -1    0    0    0  501  0.00000000000E+00  0.00000000000E+00  0.10800382968E+04  0.10800382968E+04  0.50400001928E-02 0.  1.
        1   -1    0    0  501    0  0.00000000000E+00  0.00000000000E+00 -0.24875752581E+04  0.24875752581E+04  0.50400001928E-02 0. -1.
    10030    2    1    2    0    0  0.00000000000E+00  0.00000000000E+00 -0.14075369613E+04  0.35676135549E+04  0.32782169208E+04 0.  0.
        4    1    3    3  502    0  0.12265075169E+04 -0.10198890723E+04 -0.11141238986E+04  0.19457050350E+04  0.12699999809E+01 0. -1.
       -4    1    3    3    0  502 -0.12265075169E+04  0.10198890723E+04 -0.29341306263E+03  0.16219085199E+04  0.12699999809E+01 0.  1.
</event>
<event>
 5   0  0.4400349E-06  0.3475475E+04  0.7818609E-02  0.8119627E-01
       -2   -1    0    0    0  501  0.00000000000E+00  0.00000000000E+00  0.24035582072E+04  0.24035582072E+04  0.25500000920E-02 0. -1.
        2   -1    0    0  501    0  0.00000000000E+00  0.00000000000E+00 -0.12563590723E+04  0.12563590723E+04  0.25500000920E-02 0.  1.
    10030    2    1    2    0    0  0.00000000000E+00  0.00000000000E+00  0.11471991349E+04  0.36599172796E+04  0.34754753111E+04 0.  0.
        5    1    3    3  502    0  0.10875659204E+04  0.11809436005E+04 -0.12673733961E+03  0.16104384068E+04  0.46999998093E+01 0.  1.
       -5    1    3    3    0  502 -0.10875659204E+04 -0.11809436005E+04  0.12739364745E+04  0.20494788728E+04  0.46999998093E+01 0. -1.
</event>
<event>
 5   0  0.4189587E-06  0.3404478E+04  0.7818609E-02  0.8136808E-01
        2   -1    0    0  501    0  0.00000000000E+00  0.00000000000E+00  0.25971715273E+04  0.25971715273E+04  0.25500000920E-02 0. -1.
       -2   -1    0    0    0  501  0.00000000000E+00  0.00000000000E+00 -0.11156817989E+04  0.11156817989E+04  0.25500000920E-02 0.  1.
    10030    2    1    2    0    0  0.00000000000E+00  0.00000000000E+00  0.14814897284E+04  0.37128533262E+04  0.34044776408E+04 0.  0.
        1    1    3    3  502    0  0.10635838483E+04  0.12529652268E+03 -0.70224760082E+03  0.12806488644E+04  0.50400001928E-02 0.  1.
       -1    1    3    3    0  502 -0.10635838483E+04 -0.12529652268E+03  0.21837373292E+04  0.24322044618E+04  0.50400001928E-02 0. -1.
</event>
<event>
 5   0  0.4189587E-06  0.3399216E+04  0.7818609E-02  0.8138099E-01
       -2   -1    0    0    0  501  0.00000000000E+00  0.00000000000E+00  0.11967246848E+04  0.11967246848E+04  0.25500000920E-02 0. -1.
        2   -1    0    0  501    0  0.00000000000E+00  0.00000000000E+00 -0.24138105950E+04  0.24138105950E+04  0.25500000920E-02 0.  1.
    10030    2    1    2    0    0  0.00000000000E+00  0.00000000000E+00 -0.12170859101E+04  0.36105352798E+04  0.33992156292E+04 0.  0.
        1    1    3    3  502    0  0.87021294201E+03 -0.11246562463E+04 -0.15972970833E+04  0.21385696643E+04  0.50400001928E-02 0.  1.
       -1    1    3    3    0  502 -0.87021294201E+03  0.11246562463E+04  0.38021117321E+03  0.14719656154E+04  0.50400001928E-02 0. -1.
</event>
<event>
 5   0  0.2101998E-06  0.3275372E+04  0.7818609E-02  0.8169190E-01
        1   -1    0    0  501    0  0.00000000000E+00  0.00000000000E+00  0.14682305490E+04  0.14682305490E+04  0.50400001928E-02 0. -1.
       -1   -1    0    0    0  501  0.00000000000E+00  0.00000000000E+00 -0.18266995049E+04  0.18266995050E+04  0.50400001928E-02 0.  1.
    10030    2    1    2    0    0  0.00000000000E+00  0.00000000000E+00 -0.35846895595E+03  0.32949300540E+04  0.32753723556E+04 0.  0.
        5    1    3    3  502    0 -0.10515582381E+04  0.11946352230E+04  0.20916143297E+03  0.16052098427E+04  0.46999998093E+01 0.  1.
       -5    1    3    3    0  502  0.10515582381E+04 -0.11946352230E+04 -0.56763038892E+03  0.16897202113E+04  0.46999998093E+01 0. -1.
</event>
<event>
 5   0  0.4344980E-06  0.2626314E+04  0.7818609E-02  0.8359318E-01
        2   -1    0    0  501    0  0.00000000000E+00  0.00000000000E+00  0.17154632923E+04  0.17154632923E+04  0.25500000920E-02 0.  1.
       -2   -1    0    0    0  501  0.00000000000E+00  0.00000000000E+00 -0.10051984567E+04  0.10051984567E+04  0.25500000920E-02 0. -1.
    10030    2    1    2    0    0  0.00000000000E+00  0.00000000000E+00  0.71026483557E+03  0.27206617490E+04  0.26263138076E+04 0.  0.
        3    1    3    3  502    0  0.10428661664E+04  0.38255957463E+03 -0.37035427993E+03  0.11709329495E+04  0.10100000352E+00 0. -1.
       -3    1    3    3    0  502 -0.10428661664E+04 -0.38255957463E+03  0.10806191155E+04  0.15497287996E+04  0.10100000352E+00 0.  1.
</event>
<event>
 5   0  0.1562618E-06  0.3423777E+04  0.7818609E-02  0.8132095E-01
       -1   -1    0    0    0  501  0.00000000000E+00  0.00000000000E+00  0.12872323895E+04  0.12872323895E+04  0.50400001928E-02 0. -1.
        1   -1    0    0  501    0  0.00000000000E+00  0.00000000000E+00 -0.22766378474E+04  0.22766378474E+04  0.50400001928E-02 0.  1.
    10030    2    1    2    0    0  0.00000000000E+00  0.00000000000E+00 -0.98940545788E+03  0.35638702369E+04  0.34237768480E+04 0.  0.
        2    1    3    3  502    0 -0.57034963152E+03  0.55244875160E+03 -0.20733545654E+04  0.22202021257E+04  0.25500000920E-02 0.  1.
       -2    1    3    3    0  502  0.57034963152E+03 -0.55244875160E+03  0.10839491075E+04  0.13436681111E+04  0.25500000920E-02 0. -1.
</event>
<event>
 5   0  0.1562618E-06  0.3469274E+04  0.7818609E-02  0.8121111E-01
       -1   -1    0    0    0  501  0.00000000000E+00  0.00000000000E+00  0.17512087078E+04  0.17512087078E+04  0.50400001928E-02 0. -1.
        1   -1    0    0  501    0  0.00000000000E+00  0.00000000000E+00 -0.17182217919E+04  0.17182217919E+04  0.50400001928E-02 0.  1.
    10030    2    1    2    0    0  0.00000000000E+00  0.00000000000E+00  0.32986915834E+02  0.34694304997E+04  0.34692736784E+04 0.  0.
        2    1    3    3  502    0  0.44993725970E+03  0.95585618017E+02  0.16891074963E+04  0.17506182571E+04  0.25500000920E-02 0. -1.
       -2    1    3    3    0  502 -0.44993725970E+03 -0.95585618017E+02 -0.16561205805E+04  0.17188122426E+04  0.25500000920E-02 0.  1.
</event>
<event>
 5   0  0.4189587E-06  0.3337533E+04  0.7818609E-02  0.8153410E-01
       -2   -1    0    0    0  501  0.00000000000E+00  0.00000000000E+00  0.10769656449E+04  0.10769656449E+04  0.25500000920E-02 0.  1.
        2   -1    0    0  501    0  0.00000000000E+00  0.00000000000E+00 -0.25857667266E+04  0.25857667266E+04  0.25500000920E-02 0. -1.
    10030    2    1    2    0    0  0.00000000000E+00  0.00000000000E+00 -0.15088010818E+04  0.36627323715E+04  0.33375331790E+04 0.  0.
        1    1    3    3  502    0  0.99483390334E+03  0.43401869298E+03 -0.21454707417E+04  0.24043941908E+04  0.50400001928E-02 0. -1.
       -1    1    3    3    0  502 -0.99483390334E+03 -0.43401869298E+03  0.63666965995E+03  0.12583381807E+04  0.50400001928E-02 0.  1.
</event>
<event>
 5   0  0.1654257E-06  0.3380476E+04  0.7818609E-02  0.8142715E-01
        1   -1    0    0  501    0  0.00000000000E+00  0.00000000000E+00  0.20145102441E+04  0.20145102441E+04  0.50400001928E-02 0. -1.
       -1   -1    0    0    0  501  0.00000000000E+00  0.00000000000E+00 -0.14181634087E+04  0.14181634087E+04  0.50400001928E-02 0.  1.
    10030    2    1    2    0    0  0.00000000000E+00  0.00000000000E+00  0.59634683535E+03  0.34326736528E+04  0.33804761290E+04 0.  0.
        3    1    3    3  502    0  0.22745971099E+03  0.54838279285E+03  0.19051525137E+04  0.19955118938E+04  0.10100000352E+00 0. -1.
       -3    1    3    3    0  502 -0.22745971099E+03 -0.54838279285E+03 -0.13088056784E+04  0.14371617590E+04  0.10100000352E+00 0.  1.
</event>
<event>
 5   0  0.1550164E-06  0.3342695E+04  0.7818609E-02  0.8152116E-01
       -1   -1    0    0    0  501  0.00000000000E+00  0.00000000000E+00  0.21846273899E+04  0.21846273899E+04  0.50400001928E-02 0. -1.
        1   -1    0    0  501    0  0.00000000000E+00  0.00000000000E+00 -0.12786631302E+04  0.12786631302E+04  0.50400001928E-02 0.  1.
    10030    2    1    2    0    0  0.00000000000E+00  0.00000000000E+00  0.90596425966E+03  0.34632905201E+04  0.33426950185E+04 0.  0.
        4    1    3    3  502    0  0.14094636956E+04  0.44009777476E+03  0.12642557669E+04  0.19438668209E+04  0.12699999809E+01 0. -1.
       -4    1    3    3    0  502 -0.14094636956E+04 -0.44009777476E+03 -0.35829150722E+03  0.15194236991E+04  0.12699999809E+01 0.  1.
</event>
<event>
 5   0  0.1562618E-06  0.3293504E+04  0.7818609E-02  0.8164550E-01
       -1   -1    0    0    0  501  0.00000000000E+00  0.00000000000E+00  0.11706300245E+04  0.11706300245E+04  0.50400001928E-02 0. -1.
        1   -1    0    0  501    0  0.00000000000E+00  0.00000000000E+00 -0.23165230107E+04  0.23165230107E+04  0.50400001928E-02 0.  1.
    10030    2    1    2    0    0  0.00000000000E+00  0.00000000000E+00 -0.11458929862E+04  0.34871530352E+04  0.32935035381E+04 0.  0.
        2    1    3    3  502    0  0.14906796026E+04  0.32726501057E+03  0.81937746532E+02  0.15283788336E+04  0.25500000920E-02 0. -1.
       -2    1    3    3    0  502 -0.14906796026E+04 -0.32726501057E+03 -0.12278307327E+04  0.19587742016E+04  0.25500000920E-02 0.  1.
</event>
<event>
 5   0  0.2722449E-06  0.3416111E+04  0.7818609E-02  0.8133963E-01
       -2   -1    0    0    0  501  0.00000000000E+00  0.00000000000E+00  0.13915370684E+04  0.13915370684E+04  0.25500000920E-02 0.  1.
        2   -1    0    0  501    0  0.00000000000E+00  0.00000000000E+00 -0.20965692120E+04  0.20965692120E+04  0.25500000920E-02 0. -1.
    10030    2    1    2    0    0  0.00000000000E+00  0.00000000000E+00 -0.70503214365E+03  0.34881062804E+04  0.34161111077E+04 0.  0.
        2    1    3    3  502    0 -0.16967001837E+03  0.15474971456E+04 -0.10701208862E+04  0.18890987380E+04  0.25500000920E-02 0. -1.
       -2    1    3    3    0  502  0.16967001837E+03 -0.15474971456E+04  0.36508874256E+03  0.15990075424E+04  0.25500000920E-02 0.  1.
</event>
<event>
 5   0  0.2722449E-06  0.3386125E+04  0.7818609E-02  0.8141320E-01
       -2   -1    0    0    0  501  0.00000000000E+00  0.00000000000E+00  0.17202923745E+04  0.17202923745E+04  0.25500000920E-02 0. -1.
        2   -1    0    0  501    0  0.00000000000E+00  0.00000000000E+00 -0.16662638097E+04  0.16662638097E+04  0.25500000920E-02 0.  1.
    10030    2    1    2    0    0  0.00000000000E+00  0.00000000000E+00  0.54028564808E+02  0.33865561842E+04  0.33861251753E+04 0.  0.
        2    1    3    3  502    0 -0.45120960661E+03 -0.15701168552E+04  0.47159744150E+03  0.17003708993E+04  0.25500000920E-02 0. -1.
       -2    1    3    3    0  502  0.45120960661E+03  0.15701168552E+04 -0.41756887670E+03  0.16861852849E+04  0.25500000920E-02 0.  1.
</event>
<event>
 5   0  0.2722449E-06  0.3274668E+04  0.7818609E-02  0.8169371E-01
        2   -1    0    0  501    0  0.00000000000E+00  0.00000000000E+00  0.25189169826E+04  0.25189169826E+04  0.25500000920E-02 0.  1.
       -2   -1    0    0    0  501  0.00000000000E+00  0.00000000000E+00 -0.10642919298E+04  0.10642919298E+04  0.25500000920E-02 0. -1.
    10030    2    1    2    0    0  0.00000000000E+00  0.00000000000E+00  0.14546250528E+04  0.35832089124E+04  0.32746682375E+04 0.  0.
        2    1    3    3  502    0 -0.88243333816E+03 -0.88018130221E+03  0.18891743652E+04  0.22632692070E+04  0.25500000920E-02 0.  1.
       -2    1    3    3    0  502  0.88243333816E+03  0.88018130221E+03 -0.43454931245E+03  0.13199397054E+04  0.25500000920E-02 0. -1.
</event>
<event>
 5   0  0.4400349E-06  0.3408601E+04  0.7818609E-02  0.8135798E-01
       -2   -1    0    0    0  501  0.00000000000E+00  0.00000000000E+00  0.12960506537E+04  0.12960506537E+04  0.25500000920E-02 0. -1.
        2   -1    0    0  501    0  0.00000000000E+00  0.00000000000E+00 -0.22411476605E+04  0.22411476605E+04  0.25500000920E-02 0.  1.
    10030    2    1    2    0    0  0.00000000000E+00  0.00000000000E+00 -0.94509700676E+03  0.35371983142E+04  0.34086014085E+04 0.  0.
        5    1    3    3  502    0 -0.32703179430E+03  0.14621929874E+03 -0.22016302272E+04  0.22305890758E+04  0.46999998093E+01 0.  1.
       -5    1    3    3    0  502  0.32703179430E+03 -0.14621929874E+03  0.12565332204E+04  0.13066092384E+04  0.46999998093E+01 0. -1.
</event>
<event>
 5   0  0.1550164E-06  0.3424580E+04  0.7818609E-02  0.8131900E-01
        1   -1    0    0  501    0  0.00000000000E+00  0.00000000000E+00  0.88669179574E+03  0.88669179576E+03  0.50400001928E-02 0. -1.
       -1   -1    0    0    0  501  0.00000000000E+00  0.00000000000E+00 -0.33066031665E+04  0.33066031665E+04  0.50400001928E-02 0.  1.
    10030    2    1    2    0    0  0.00000000000E+00  0.00000000000E+00 -0.24199113707E+04  0.41932949622E+04  0.34245804996E+04 0.  0.
        4    1    3    3  502    0  0.72860725410E+03 -0.92249544177E+03  0.31453114411E+03  0.12168803657E+04  0.12699999809E+01 0. -1.
       -4    1    3    3    0  502 -0.72860725410E+03  0.92249544177E+03 -0.27344425149E+04  0.29764145966E+04  0.12699999809E+01 0.  1.
</event>
<event>
 5   0  0.1654257E-06  0.3039386E+04  0.7818609E-02  0.8232573E-01
       -1   -1    0    0    0  501  0.00000000000E+00  0.00000000000E+00  0.95911148125E+03  0.95911148126E+03  0.50400001928E-02 0.  1.
        1   -1    0    0  501    0  0.00000000000E+00  0.00000000000E+00 -0.24079227938E+04  0.24079227938E+04  0.50400001928E-02 0. -1.
    10030    2    1    2    0    0  0.00000000000E+00  0.00000000000E+00 -0.14488113125E+04  0.33670342750E+04  0.30393857257E+04 0.  0.
        3    1    3    3  502    0  0.38436360212E+03 -0.14632136605E+04 -0.88393203523E+03  0.17521602233E+04  0.10100000352E+00 0. -1.
       -3    1    3    3    0  502 -0.38436360212E+03  0.14632136605E+04 -0.56487927727E+03  0.16148740517E+04  0.10100000352E+00 0.  1.
</event>
<event>
 5   0  0.4344980E-06  0.3446966E+04  0.7818609E-02  0.8126475E-01
       -2   -1    0    0    0  501  0.00000000000E+00  0.00000000000E+00  0.14664036809E+04  0.14664036809E+04  0.25500000920E-02 0. -1.
        2   -1    0    0  501    0  0.00000000000E+00  0.00000000000E+00 -0.20256317609E+04  0.20256317609E+04  0.25500000920E-02 0.  1.
    10030    2    1    2    0    0  0.00000000000E+00  0.00000000000E+00 -0.55922807995E+03  0.34920354418E+04  0.34469661271E+04 0.  0.
        3    1    3    3  502    0  0.59727233594E+03 -0.35198247720E+03  0.13189169621E+04  0.14900227753E+04  0.10100000352E+00 0. -1.
       -3    1    3    3    0  502 -0.59727233594E+03  0.35198247720E+03 -0.18781450421E+04  0.20020126665E+04  0.10100000352E+00 0.  1.
</event>
<event>
 5   0  0.1562618E-06  0.2719152E+04  0.7818609E-02  0.8328818E-01
        1   -1    0    0  501    0  0.00000000000E+00  0.00000000000E+00  0.21879373394E+04  0.21879373394E+04  0.50400001928E-02 0. -1.
       -1   -1    0    0    0  501  0.00000000000E+00  0.00000000000E+00 -0.84483513600E+03  0.84483513602E+03  0.50400001928E-02 0.  1.
    10030    2    1    2    0    0  0.00000000000E+00  0.00000000000E+00  0.13431022034E+04  0.30327724754E+04  0.27191515881E+04 0.  0.
        2    1    3    3  502    0  0.88528241399E+03  0.22548803468E+03 -0.45149852051E+03  0.10190293030E+04  0.25500000920E-02 0.  1.
       -2    1    3    3    0  502 -0.88528241399E+03 -0.22548803468E+03  0.17946007239E+04  0.20137431725E+04  0.25500000920E-02 0. -1.
</event>
<event>
 5   0  0.4344980E-06  0.1775929E+04  0.7818609E-02  0.8719206E-01
       -2   -1    0    0    0  501  0.00000000000E+00  0.00000000000E+00  0.10688430139E+04  0.10688430139E+04  0.25500000920E-02 0. -1.
        2   -1    0    0  501    0  0.00000000000E+00  0.00000000000E+00 -0.73769535070E+03  0.73769535070E+03  0.25500000920E-02 0.  1.
    10030    2    1    2    0    0  0.00000000000E+00  0.00000000000E+00  0.33114766315E+03  0.18065383646E+04  0.17759285143E+04 0.  0.
        3    1    3    3  502    0 -0.61968075096E+03 -0.63562030944E+03  0.18746452418E+03  0.90728185748E+03  0.10100000352E+00 0.  1.
       -3    1    3    3    0  502  0.61968075096E+03  0.63562030944E+03  0.14368313897E+03  0.89925650707E+03  0.10100000352E+00 0. -1.
</event>
<event>
 5   0  0.1550164E-06  0.3371952E+04  0.7818609E-02  0.8144825E-01
        1   -1    0    0  501    0  0.00000000000E+00  0.00000000000E+00  0.15313905833E+04  0.15313905833E+04  0.50400001928E-02 0.  1.
       -1   -1    0    0    0  501  0.00000000000E+00  0.00000000000E+00 -0.18561660407E+04  0.18561660407E+04  0.50400001928E-02 0. -1.
    10030    2    1    2    0    0  0.00000000000E+00  0.00000000000E+00 -0.32477545737E+03  0.33875566240E+04  0.33719520730E+04 0.  0.
        4    1    3    3  502    0 -0.16653857634E+04  0.22869497660E+03 -0.32551690933E+02  0.16813305323E+04  0.12699999809E+01 0.  1.
       -4    1    3    3    0  502  0.16653857634E+04 -0.22869497660E+03 -0.29222376643E+03  0.17062260917E+04  0.12699999809E+01 0. -1.
</event>
<event>
 5   0  0.2101998E-06  0.2162929E+04  0.7818609E-02  0.8534018E-01
       -1   -1    0    0    0  501  0.00000000000E+00  0.00000000000E+00  0.12175877506E+04  0.12175877506E+04  0.50400001928E-02 0. -1.
        1   -1    0    0  501    0  0.00000000000E+00  0.00000000000E+00 -0.96055959287E+03  0.96055959289E+03  0.50400001928E-02 0.  1.
    10030    2    1    2    0    0  0.00000000000E+00  0.00000000000E+00  0.25702815770E+03  0.21781473435E+04  0.21629291195E+04 0.  0.
        5    1    3    3  502    0  0.10802552415E+04 -0.45925782944E+01  0.17957611704E+03  0.10950991510E+04  0.46999998093E+01 0. -1.
       -5    1    3    3    0  502 -0.10802552415E+04  0.45925782944E+01  0.77452040664E+02  0.10830481925E+04  0.46999998093E+01 0.  1.
</event>
<event>
 5   0  0.1654257E-06  0.3465930E+04  0.7818609E-02  0.8121912E-01
       -1   -1    0    0    0  501  0.00000000000E+00  0.00000000000E+00  0.13307172760E+04  0.13307172760E+04  0.50400001928E-02 0. -1.
        1   -1    0    0  501    0  0.00000000000E+00  0.00000000000E+00 -0.22568038160E+04  0.22568038160E+04  0.50400001928E-02 0.  1.
    10030    2    1    2    0    0  0.00000000000E+00  0.00000000000E+00 -0.92608654005E+03  0.35875210920E+04  0.34659300780E+04 0.  0.
        3    1    3    3  502    0 -0.84567766162E+03 -0.14811454844E+04 -0.14534707128E+03  0.17117501087E+04  0.10100000352E+00 0. -1.
       -3    1    3    3    0  502  0.84567766162E+03  0.14811454844E+04 -0.78073946877E+03  0.18757709833E+04  0.10100000352E+00 0.  1.
</event>
<event>
 5   0  0.1571391E-06  0.3297380E+04  0.7818609E-02  0.8163562E-01
        1   -1    0    0  501    0  0.00000000000E+00  0.00000000000E+00  0.18327774062E+04  0.18327774062E+04  0.50400001928E-02 0.  1.
       -1   -1    0    0    0  501  0.00000000000E+00  0.00000000000E+00 -0.14830926650E+04  0.14830926650E+04  0.50400001928E-02 0. -1.
    10030    2    1    2    0    0  0.00000000000E+00  0.00000000000E+00  0.34968474123E+03  0.33158700712E+04  0.32973800070E+04 0.  0.
        1    1    3    3  502    0  0.27984492720E+03  0.91194771465E+03  0.15270823370E+04  0.18005394418E+04  0.50400001928E-02 0.  1.
       -1    1    3    3    0  502 -0.27984492720E+03 -0.91194771465E+03 -0.11773975958E+04  0.15153306293E+04  0.50400001928E-02 0. -1.
</event>
<event>
 5   0  0.2722449E-06  0.2952800E+04  0.7818609E-02  0.8257339E-01
        2   -1    0    0  501    0  0.00000000000E+00  0.00000000000E+00  0.21073419629E+04  0.21073419629E+04  0.25500000920E-02 0.  1.
       -2   -1    0    0    0  501  0.00000000000E+00  0.00000000000E+00 -0.10343630424E+04  0.10343630424E+04  0.25500000920E-02 0. -1.
    10030    2    1    2    0    0  0.00000000000E+00  0.00000000000E+00  0.10729789205E+04  0.31417050054E+04  0.29527997861E+04 0.  0.
        2    1    3    3  502    0  0.72142340519E+03  0.10389263202E+04  0.13467446437E+04  0.18475769980E+04  0.25500000920E-02 0.  1.
       -2    1    3    3    0  502 -0.72142340519E+03 -0.10389263202E+04 -0.27376572317E+03  0.12941280074E+04  0.25500000920E-02 0. -1.
</event>
<event>
 5   0  0.2722449E-06  0.3338347E+04  0.7818609E-02  0.8153206E-01
        2   -1    0    0  501    0  0.00000000000E+00  0.00000000000E+00  0.10529477713E+04  0.10529477713E+04  0.25500000920E-02 0. -1.
       -2   -1    0    0    0  501  0.00000000000E+00  0.00000000000E+00 -0.26460379722E+04  0.26460379722E+04  0.25500000920E-02 0.  1.
    10030    2    1    2    0    0  0.00000000000E+00  0.00000000000E+00 -0.15930902009E+04  0.36989857435E+04  0.33383467679E+04 0.  0.
        2    1    3    3  502    0 -0.16685823922E+04  0.43190958623E+02 -0.78507673972E+03  0.18445536440E+04  0.25500000920E-02 0.  1.
       -2    1    3    3    0  502  0.16685823922E+04 -0.43190958623E+02 -0.80801346114E+03  0.18544320995E+04  0.25500000920E-02 0. -1.
</event>
<event>
 5   0  0.1654257E-06  0.3367694E+04  0.7818609E-02  0.8145881E-01
        1   -1    0    0  501    0  0.00000000000E+00  0.00000000000E+00  0.24270156301E+04  0.24270156301E+04  0.50400001928E-02 0. -1.
       -1   -1    0    0    0  501  0.00000000000E+00  0.00000000000E+00 -0.11682416512E+04  0.11682416512E+04  0.50400001928E-02 0.  1.
    10030    2    1    2    0    0  0.00000000000E+00  0.00000000000E+00  0.12587739789E+04  0.35952572813E+04  0.33676940165E+04 0.  0.
        3    1    3    3  502    0  0.26204801186E+03 -0.73577514340E+03 -0.96316004944E+03  0.12400449642E+04  0.10100000352E+00 0.  1.
       -3    1    3    3    0  502 -0.26204801186E+03  0.73577514340E+03  0.22219340284E+04  0.23552123171E+04  0.10100000352E+00 0. -1.
</event>
<event>
 5   0  0.4189587E-06  0.1768493E+04  0.7818609E-02  0.8723236E-01
        2   -1    0    0  501    0  0.00000000000E+00  0.00000000000E+00  0.17332704258E+04  0.17332704258E+04  0.25500000920E-02 0. -1.
       -2   -1    0    0    0  501  0.00000000000E+00  0.00000000000E+00 -0.45110770479E+03  0.45110770479E+03  0.25500000920E-02 0.  1.
    10030    2    1    2    0    0  0.00000000000E+00  0.00000000000E+00  0.12821627210E+04  0.21843781306E+04  0.17684927408E+04 0.  0.
        1    1    3    3  502    0  0.14043082109E+03  0.17722489153E+03  0.16969565023E+04  0.17119552706E+04  0.50400001928E-02 0. -1.
       -1    1    3    3    0  502 -0.14043082109E+03 -0.17722489153E+03 -0.41479378127E+03  0.47242286005E+03  0.50400001928E-02 0.  1.
</event>
<event>
 5   0  0.1550164E-06  0.3342091E+04  0.7818609E-02  0.8152267E-01
       -1   -1    0    0    0  501  0.00000000000E+00  0.00000000000E+00  0.13525768554E+04  0.13525768554E+04  0.50400001928E-02 0.  1.
        1   -1    0    0  501    0  0.00000000000E+00  0.00000000000E+00 -0.20644990474E+04  0.20644990474E+04  0.50400001928E-02 0. -1.
    10030    2    1    2    0    0  0.00000000000E+00  0.00000000000E+00 -0.71192219208E+03  0.34170759028E+04  0.33420913390E+04 0.  0.
        4    1    3    3  502    0 -0.14789685581E+04 -0.77339312412E+03 -0.44093470539E+03  0.17262415670E+04  0.12699999809E+01 0.  1.
       -4    1    3    3    0  502  0.14789685581E+04  0.77339312412E+03 -0.27098748669E+03  0.16908343358E+04  0.12699999809E+01 0. -1.
</event>
<event>
 5   0  0.1550164E-06  0.3358765E+04  0.7818609E-02  0.8148102E-01
        1   -1    0    0  501    0  0.00000000000E+00  0.00000000000E+00  0.23102301075E+04  0.23102301075E+04  0.50400001928E-02 0. -1.
       -1   -1    0    0    0  501  0.00000000000E+00  0.00000000000E+00 -0.12207985989E+04  0.12207985989E+04  0.50400001928E-02 0.  1.
    10030    2    1    2    0    0  0.00000000000E+00  0.00000000000E+00  0.10894315086E+04  0.35310287065E+04  0.33587650579E+04 0.  0.
        4    1    3    3  502    0 -0.44951668894E+03 -0.16044204193E+04  0.32396051139E+03  0.16974045367E+04  0.12699999809E+01 0.  1.
       -4    1    3    3    0  502  0.44951668894E+03  0.16044204193E+04  0.76547099720E+03  0.18336241698E+04  0.12699999809E+01 0. -1.
</event>
<event>
 5   0  0.2101998E-06  0.2763349E+04  0.7818609E-02  0.8314738E-01
       -1   -1    0    0    0  501  0.00000000000E+00  0.00000000000E+00  0.10020342388E+04  0.10020342388E+04  0.50400001928E-02 0. -1.
        1   -1    0    0  501    0  0.00000000000E+00  0.00000000000E+00 -0.19051488372E+04  0.19051488372E+04  0.50400001928E-02 0.  1.
    10030    2    1    2    0    0  0.00000000000E+00  0.00000000000E+00 -0.90311459837E+03  0.29071830760E+04  0.27633489573E+04 0.  0.
        5    1    3    3  502    0  0.10025383577E+04  0.14902875590E+03  0.53631184798E+03  0.11467106073E+04  0.46999998093E+01 0. -1.
       -5    1    3    3    0  502 -0.10025383577E+04 -0.14902875590E+03 -0.14394264464E+04  0.17604724687E+04  0.46999998093E+01 0.  1.
</event>
<event>
 5   0  0.4344980E-06  0.2624197E+04  0.7818609E-02  0.8360028E-01
        2   -1    0    0  501    0  0.00000000000E+00  0.00000000000E+00  0.20343179073E+04  0.20343179073E+04  0.25500000920E-02 0. -1.
       -2   -1    0    0    0  501  0.00000000000E+00  0.00000000000E+00 -0.84628001018E+03  0.84628001018E+03  0.25500000920E-02 0.  1.
    10030    2    1    2    0    0  0.00000000000E+00  0.00000000000E+00  0.11880378971E+04  0.28805979175E+04  0.26241970805E+04 0.  0.
        3    1    3    3  502    0  0.13326840930E+03 -0.10295373694E+04 -0.28681427831E+03  0.10770190826E+04  0.10100000352E+00 0.  1.
       -3    1    3    3    0  502 -0.13326840930E+03  0.10295373694E+04  0.14748521754E+04  0.18035788348E+04  0.10100000352E+00 0. -1.
</event>
<event>
 5   0  0.1550164E-06  0.3384493E+04  0.7818609E-02  0.8141723E-01
       -1   -1    0    0    0  501  0.00000000000E+00  0.00000000000E+00  0.13952557187E+04  0.13952557187E+04  0.50400001928E-02 0.  1.
        1   -1    0    0  501    0  0.00000000000E+00  0.00000000000E+00 -0.20524539355E+04  0.20524539355E+04  0.50400001928E-02 0. -1.
    10030    2    1    2    0    0  0.00000000000E+00  0.00000000000E+00 -0.65719821681E+03  0.34477096541E+04  0.33844929255E+04 0.  0.
        4    1    3    3  502    0  0.33726240107E+03  0.80338728677E+03  0.11491936803E+04  0.14421597648E+04  0.12699999809E+01 0.  1.
       -4    1    3    3    0  502 -0.33726240107E+03 -0.80338728677E+03 -0.18063918971E+04  0.20055498893E+04  0.12699999809E+01 0. -1.
</event>
<event>
 5   0  0.4189587E-06  0.3092335E+04  0.7818609E-02  0.8217845E-01
        2   -1    0    0  501    0  0.00000000000E+00  0.00000000000E+00  0.14039760305E+04  0.14039760305E+04  0.25500000920E-02 0.  1.
       -2   -1    0    0    0  501  0.00000000000E+00  0.00000000000E+00 -0.17027595878E+04  0.17027595878E+04  0.25500000920E-02 0. -1.
    10030    2    1    2    0    0  0.00000000000E+00  0.00000000000E+00 -0.29878355725E+03  0.31067356183E+04  0.30923348118E+04 0.  0.
        1    1    3    3  502    0  0.36848244984E+03 -0.31412774869E+03  0.13258394637E+04  0.14114906453E+04  0.50400001928E-02 0.  1.
       -1    1    3    3    0  502 -0.36848244984E+03  0.31412774869E+03 -0.16246230209E+04  0.16952449730E+04  0.50400001928E-02 0. -1.
</event>
<event>
 5   0  0.1550164E-06  0.1985320E+04  0.7818609E-02  0.8613515E-01
        1   -1    0    0  501    0  0.00000000000E+00  0.00000000000E+00  0.18804624075E+04  0.18804624075E+04  0.50400001928E-02 0.  1.
       -1   -1    0    0    0  501  0.00000000000E+00  0.00000000000E+00 -0.52400634840E+03  0.52400634842E+03  0.50400001928E-02 0. -1.
    10030    2    1    2    0    0  0.00000000000E+00  0.00000000000E+00  0.13564560591E+04  0.24044687560E+04  0.19853203666E+04 0.  0.
        4    1    3    3  502    0 -0.84943051987E+02  0.98882210076E+03  0.65436681363E+03  0.11887733210E+04  0.12699999809E+01 0. -1.
       -4    1    3    3    0  502  0.84943051987E+02 -0.98882210076E+03  0.70208924551E+03  0.12156954350E+04  0.12699999809E+01 0.  1.
</event>
<event>
 5   0  0.2101998E-06  0.3283711E+04  0.7818609E-02  0.8167053E-01
        1   -1    0    0  501    0  0.00000000000E+00  0.00000000000E+00  0.14503561302E+04  0.14503561302E+04  0.50400001928E-02 0. -1.
       -1   -1    0    0    0  501  0.00000000000E+00  0.00000000000E+00 -0.18586396502E+04  0.18586396502E+04  0.50400001928E-02 0.  1.
    10030    2    1    2    0    0  0.00000000000E+00  0.00000000000E+00 -0.40828352000E+03  0.33089957804E+04  0.32837109559E+04 0.  0.
        5    1    3    3  502    0 -0.12532385978E+04  0.60393108116E+03 -0.10828236296E+04  0.17629148694E+04  0.46999998093E+01 0.  1.
       -5    1    3    3    0  502  0.12532385978E+04 -0.60393108116E+03  0.67454010965E+03  0.15460809110E+04  0.46999998093E+01 0. -1.
</event>
<event>
 5   0  0.4400349E-06  0.3389575E+04  0.7818609E-02  0.8140470E-01
       -2   -1    0    0    0  501  0.00000000000E+00  0.00000000000E+00  0.13045634835E+04  0.13045634835E+04  0.25500000920E-02 0. -1.
        2   -1    0    0  501    0  0.00000000000E+00  0.00000000000E+00 -0.22017361060E+04  0.22017361060E+04  0.25500000920E-02 0.  1.
    10030    2    1    2    0    0  0.00000000000E+00  0.00000000000E+00 -0.89717262254E+03  0.35062995896E+04  0.33895749139E+04 0.  0.
        5    1    3    3  502    0  0.45666225150E+03  0.10631043312E+04  0.83242488215E+03  0.14253717078E+04  0.46999998093E+01 0. -1.
       -5    1    3    3    0  502 -0.45666225150E+03 -0.10631043312E+04 -0.17295975047E+04  0.20809278818E+04  0.46999998093E+01 0.  1.
</event>
<event>
 5   0  0.1562618E-06  0.2421797E+04  0.7818609E-02  0.8431388E-01
        1   -1    0    0  501    0  0.00000000000E+00  0.00000000000E+00  0.11492509484E+04  0.11492509484E+04  0.50400001928E-02 0.  1.
       -1   -1    0    0    0  501  0.00000000000E+00  0.00000000000E+00 -0.12758532020E+04  0.12758532020E+04  0.50400001928E-02 0. -1.
    10030    2    1    2    0    0  0.00000000000E+00  0.00000000000E+00 -0.12660225355E+03  0.24251041504E+04  0.24217972685E+04 0.  0.
        2    1    3    3  502    0  0.88376669943E+03  0.33515537723E+03  0.69463582531E+03  0.11729840731E+04  0.25500000920E-02 0.  1.
       -2    1    3    3    0  502 -0.88376669943E+03 -0.33515537723E+03 -0.82123807886E+03  0.12521200773E+04  0.25500000920E-02 0. -1.
</event>
<event>
 5   0  0.2101998E-06  0.2015613E+04  0.7818609E-02  0.8599356E-01
       -1   -1    0    0    0  501  0.00000000000E+00  0.00000000000E+00  0.10984948738E+04  0.10984948738E+04  0.50400001928E-02 0. -1.
        1   -1    0    0  501    0  0.00000000000E+00  0.00000000000E+00 -0.92460498401E+03  0.92460498402E+03  0.50400001928E-02 0.  1.
    10030    2    1    2    0    0  0.00000000000E+00  0.00000000000E+00  0.17388988976E+03  0.20230998578E+04  0.20156128946E+04 0.  0.
        5    1    3    3  502    0  0.82973656822E+02  0.85837181599E+03  0.61038464020E+03  0.10565407239E+04  0.46999998093E+01 0.  1.
       -5    1    3    3    0  502 -0.82973656822E+02 -0.85837181599E+03 -0.43649475044E+03  0.96655913392E+03  0.46999998093E+01 0. -1.
</event>
<event>
 5   0  0.2722449E-06  0.3081933E+04  0.7818609E-02  0.8220714E-01
        2   -1    0    0  501    0  0.00000000000E+00  0.00000000000E+00  0.14850311680E+04  0.14850311680E+04  0.25500000920E-02 0.  1.
       -2   -1    0    0    0  501  0.00000000000E+00  0.00000000000E+00 -0.15990083352E+04  0.15990083352E+04  0.25500000920E-02 0. -1.
    10030    2    1    2    0    0  0.00000000000E+00  0.00000000000E+00 -0.11397716718E+03  0.30840395033E+04  0.30819326506E+04 0.  0.
        2    1    3    3  502    0 -0.52097004076E+03 -0.73216373225E+02 -0.15063594665E+04  0.15955843014E+04  0.25500000920E-02 0. -1.
       -2    1    3    3    0  502  0.52097004076E+03  0.73216373225E+02  0.13923822993E+04  0.14884552019E+04  0.25500000920E-02 0.  1.
</event>
<event>
 5   0  0.1550164E-06  0.3426725E+04  0.7818609E-02  0.8131378E-01
       -1   -1    0    0    0  501  0.00000000000E+00  0.00000000000E+00  0.12279517947E+04  0.12279517947E+04  0.50400001928E-02 0.  1.
        1   -1    0    0  501    0  0.00000000000E+00  0.00000000000E+00 -0.23906564845E+04  0.23906564845E+04  0.50400001928E-02 0. -1.
    10030    2    1    2    0    0  0.00000000000E+00  0.00000000000E+00 -0.11627046897E+04  0.36186082792E+04  0.34267249208E+04 0.  0.
        4    1    3    3  502    0 -0.13504570957E+04 -0.48471788413E+03  0.40752672997E+03  0.14915647633E+04  0.12699999809E+01 0.  1.
       -4    1    3    3    0  502  0.13504570957E+04  0.48471788413E+03 -0.15702314197E+04  0.21270435160E+04  0.12699999809E+01 0. -1.
</event>
<event>
 5   0  0.1550164E-06  0.3406301E+04  0.7818609E-02  0.8136362E-01
       -1   -1    0    0    0  501  0.00000000000E+00  0.00000000000E+00  0.12145409871E+04  0.12145409872E+04  0.50400001928E-02 0. -1.
        1   -1    0    0  501    0  0.00000000000E+00  0.00000000000E+00 -0.23883277830E+04  0.23883277830E+04  0.50400001928E-02 0.  1.
    10030    2    1    2    0    0  0.00000000000E+00  0.00000000000E+00 -0.11737867959E+04  0.36028687702E+04  0.34063012099E+04 0.  0.
        4    1    3    3  502    0  0.51137782952E+03  0.89123475762E+03  0.84976468971E+03  0.13333822852E+04  0.12699999809E+01 0. -1.
       -4    1    3    3    0  502 -0.51137782952E+03 -0.89123475762E+03 -0.20235514856E+04  0.22694864849E+04  0.12699999809E+01 0.  1.
</event>
<event>
 5   0  0.1571391E-06  0.2295504E+04  0.7818609E-02  0.8479696E-01
       -1   -1    0    0    0  501  0.00000000000E+00  0.00000000000E+00  0.60340098395E+03  0.60340098397E+03  0.50400001928E-02 0.  1.
        1   -1    0    0  501    0  0.00000000000E+00  0.00000000000E+00 -0.21831829876E+04  0.21831829876E+04  0.50400001928E-02 0. -1.
    10030    2    1    2    0    0  0.00000000000E+00  0.00000000000E+00 -0.15797820036E+04  0.27865839716E+04  0.22955040953E+04 0.  0.
        1    1    3    3  502    0  0.70038253479E+03 -0.88059211839E+03 -0.10649919883E+04  0.15492534038E+04  0.50400001928E-02 0.  1.
       -1    1    3    3    0  502 -0.70038253479E+03  0.88059211839E+03 -0.51479001532E+03  0.12373305678E+04  0.50400001928E-02 0. -1.
</event>
<event>
 5   0  0.2722449E-06  0.3254236E+04  0.7818609E-02  0.8174639E-01
       -2   -1    0    0    0  501  0.00000000000E+00  0.00000000000E+00  0.16537872969E+04  0.16537872969E+04  0.25500000920E-02 0.  1.
        2   -1    0    0  501    0  0.00000000000E+00  0.00000000000E+00 -0.16008786168E+04  0.16008786168E+04  0.25500000920E-02 0. -1.
    10030    2    1    2    0    0  0.00000000000E+00  0.00000000000E+00  0.52908680140E+02  0.32546659138E+04  0.32542358368E+04 0.  0.
        2    1    3    3  502    0  0.13054721653E+04  0.62183317332E+03 -0.71968624599E+03  0.16152035050E+04  0.25500000920E-02 0. -1.
       -2    1    3    3    0  502 -0.13054721653E+04 -0.62183317332E+03  0.77259492613E+03  0.16394624088E+04  0.25500000920E-02 0.  1.
</event>
<event>
 5   0  0.1571391E-06  0.1975552E+04  0.7818609E-02  0.8618137E-01
        1   -1    0    0  501    0  0.00000000000E+00  0.00000000000E+00  0.10673064459E+04  0.10673064459E+04  0.50400001928E-02 0. -1.
       -1   -1    0    0    0  501  0.00000000000E+00  0.00000000000E+00 -0.91417201337E+03  0.91417201338E+03  0.50400001928E-02 0.  1.
    10030    2    1    2    0    0  0.00000000000E+00  0.00000000000E+00  0.15313443251E+03  0.19814784593E+04  0.19755522595E+04 0.  0.
        1    1    3    3  502    0 -0.80712075068E+02  0.79249305680E+03  0.66239292611E+03  0.10360135485E+04  0.50400001928E-02 0. -1.
       -1    1    3    3    0  502  0.80712075068E+02 -0.79249305680E+03 -0.50925849360E+03  0.94546491075E+03  0.50400001928E-02 0.  1.
</event>
<event>
 5   0  0.4173467E-06  0.1825879E+04  0.7818609E-02  0.8692657E-01
       -2   -1    0    0    0  501  0.00000000000E+00  0.00000000000E+00  0.38741072746E+03  0.38741072747E+03  0.25500000920E-02 0. -1.
        2   -1    0    0  501    0  0.00000000000E+00  0.00000000000E+00 -0.21513570281E+04  0.21513570281E+04  0.25500000920E-02 0.  1.
    10030    2    1    2    0    0  0.00000000000E+00  0.00000000000E+00 -0.17639463006E+04  0.25387677556E+04  0.18258792855E+04 0.  0.
        4    1    3    3  502    0 -0.51899164627E+03 -0.25219168673E+03  0.10170896738E+03  0.58591748796E+03  0.12699999809E+01 0. -1.
       -4    1    3    3    0  502  0.51899164627E+03  0.25219168673E+03 -0.18656552680E+04  0.19528502676E+04  0.12699999809E+01 0.  1.
</event>
<event>
 5   0  0.4189587E-06  0.3324853E+04  0.7818609E-02  0.8156600E-01
       -2   -1    0    0    0  501  0.00000000000E+00  0.00000000000E+00  0.10290339942E+04  0.10290339942E+04  0.25500000920E-02 0. -1.
        2   -1    0    0  501    0  0.00000000000E+00  0.00000000000E+00 -0.26856850001E+04  0.26856850001E+04  0.25500000920E-02 0.  1.
    10030    2    1    2    0    0  0.00000000000E+00  0.00000000000E+00 -0.16566510059E+04  0.37147189943E+04  0.33248525758E+04 0.  0.
        1    1    3    3  502    0 -0.12250695764E+04 -0.10628963443E+04 -0.12359595278E+04  0.20391517991E+04  0.50400001928E-02 0.  1.
       -1    1    3    3    0  502  0.12250695764E+04  0.10628963443E+04 -0.42069147807E+03  0.16755671951E+04  0.50400001928E-02 0. -1.
</event>
<event>
 5   0  0.4173467E-06  0.2942853E+04  0.7818609E-02  0.8260240E-01
        2   -1    0    0  501    0  0.00000000000E+00  0.00000000000E+00  0.21207882532E+04  0.21207882532E+04  0.25500000920E-02 0.  1.
       -2   -1    0    0    0  501  0.00000000000E+00  0.00000000000E+00 -0.10208919592E+04  0.10208919592E+04  0.25500000920E-02 0. -1.
    10030    2    1    2    0    0  0.00000000000E+00  0.00000000000E+00  0.10998962940E+04  0.31416802124E+04  0.29428528165E+04 0.  0.
        4    1    3    3  502    0  0.13820769842E+04 -0.50458453111E+03  0.52992678056E+03  0.15638306637E+04  0.12699999809E+01 0. -1.
       -4    1    3    3    0  502 -0.13820769842E+04  0.50458453111E+03  0.56996951343E+03  0.15778495487E+04  0.12699999809E+01 0.  1.
</event>
<event>
 5   0  0.4173467E-06  0.3485996E+04  0.7818609E-02  0.8117117E-01
        2   -1    0    0  501    0  0.00000000000E+00  0.00000000000E+00  0.11505313417E+04  0.11505313417E+04  0.25500000920E-02 0. -1.
       -2   -1    0    0    0  501  0.00000000000E+00  0.00000000000E+00 -0.26405554116E+04  0.26405554116E+04  0.25500000920E-02 0.  1.
    10030    2    1    2    0    0  0.00000000000E+00  0.00000000000E+00 -0.14900240699E+04  0.37910867533E+04  0.34859958465E+04 0.  0.
        4    1    3    3  502    0  0.10014247892E+04 -0.12382831672E+04 -0.15154203094E+04  0.21983396320E+04  0.12699999809E+01 0.  1.
       -4    1    3    3    0  502 -0.10014247892E+04  0.12382831672E+04  0.25396239474E+02  0.15927471213E+04  0.12699999809E+01 0. -1.
</event>
<event>
 5   0  0.1571391E-06  0.3321983E+04  0.7818609E-02  0.8157324E-01
       -1   -1    0    0    0  501  0.00000000000E+00  0.00000000000E+00  0.20830376095E+04  0.20830376095E+04  0.50400001928E-02 0.  1.
        1   -1    0    0  501    0  0.00000000000E+00  0.00000000000E+00 -0.13244561970E+04  0.13244561970E+04  0.50400001928E-02 0. -1.
    10030    2    1    2    0    0  0.00000000000E+00  0.00000000000E+00  0.75858141244E+03  0.34074938065E+04  0.33219825831E+04 0.  0.
        1    1    3    3  502    0  0.77474776398E+02  0.94333369188E+03  0.17793468950E+04  0.20154295244E+04  0.50400001928E-02 0.  1.
       -1    1    3    3    0  502 -0.77474776398E+02 -0.94333369188E+03 -0.10207654825E+04  0.13920642821E+04  0.50400001928E-02 0. -1.
</event>
<event>
 5   0  0.4189587E-06  0.1742012E+04  0.7818609E-02  0.8737760E-01
        2   -1    0    0  501    0  0.00000000000E+00  0.00000000000E+00  0.22270919016E+04  0.22270919016E+04  0.25500000920E-02 0.  1.
       -2   -1    0    0    0  501  0.00000000000E+00  0.00000000000E+00 -0.34064649428E+03  0.34064649429E+03  0.25500000920E-02 0. -1.
    10030    2    1    2    0    0  0.00000000000E+00  0.00000000000E+00  0.18864454073E+04  0.25677383959E+04  0.17420115370E+04 0.  0.
        1    1    3    3  502    0  0.37293868508E+03  0.67849937243E+03  0.15313617220E+04  0.17159584450E+04  0.50400001928E-02 0.  1.
       -1    1    3    3    0  502 -0.37293868508E+03 -0.67849937243E+03  0.35508368534E+03  0.85177995095E+03  0.50400001928E-02 0. -1.
</event>
<event>
 5   0  0.1571391E-06  0.3086769E+04  0.7818609E-02  0.8219378E-01
       -1   -1    0    0    0  501  0.00000000000E+00  0.00000000000E+00  0.14503902868E+04  0.14503902868E+04  0.50400001928E-02 0.  1.
        1   -1    0    0  501    0  0.00000000000E+00  0.00000000000E+00 -0.16423417237E+04  0.16423417237E+04  0.50400001928E-02 0. -1.
    10030    2    1    2    0    0  0.00000000000E+00  0.00000000000E+00 -0.19195143699E+03  0.30927320105E+04  0.30867694981E+04 0.  0.
        1    1    3    3  502    0  0.10470763221E+04  0.50218486270E+03 -0.11145406325E+04  0.16095835741E+04  0.50400001928E-02 0. -1.
       -1    1    3    3    0  502 -0.10470763221E+04 -0.50218486270E+03  0.92258919548E+03  0.14831484364E+04  0.50400001928E-02 0.  1.
</event>
<event>
 5   0  0.2722449E-06  0.3315846E+04  0.7818609E-02  0.8158875E-01
        2   -1    0    0  501    0  0.00000000000E+00  0.00000000000E+00  0.10929193771E+04  0.10929193771E+04  0.25500000920E-02 0. -1.
       -2   -1    0    0    0  501  0.00000000000E+00  0.00000000000E+00 -0.25150146350E+04  0.25150146350E+04  0.25500000920E-02 0.  1.
    10030    2    1    2    0    0  0.00000000000E+00  0.00000000000E+00 -0.14220952579E+04  0.36079340121E+04  0.33158457312E+04 0.  0.
        2    1    3    3  502    0  0.57694742651E+03  0.13485809082E+04 -0.15518870265E+04  0.21353903957E+04  0.25500000920E-02 0.  1.
       -2    1    3    3    0  502 -0.57694742651E+03 -0.13485809082E+04  0.12979176862E+03  0.14725436164E+04  0.25500000920E-02 0. -1.
</event>
<event>
 5   0  0.2722449E-06  0.1957361E+04  0.7818609E-02  0.8626819E-01
        2   -1    0    0  501    0  0.00000000000E+00  0.00000000000E+00  0.25130571091E+04  0.25130571091E+04  0.25500000920E-02 0.  1.
       -2   -1    0    0    0  501  0.00000000000E+00  0.00000000000E+00 -0.38113560791E+03  0.38113560792E+03  0.25500000920E-02 0. -1.
    10030    2    1    2    0    0  0.00000000000E+00  0.00000000000E+00  0.21319215012E+04  0.28941927170E+04  0.19573610285E+04 0.  0.
        2    1    3    3  502    0 -0.26375687321E+03 -0.12533111101E+03  0.24471372342E+04  0.24644991821E+04  0.25500000920E-02 0.  1.
       -2    1    3    3    0  502  0.26375687321E+03  0.12533111101E+03 -0.31521573306E+03  0.42969353488E+03  0.25500000920E-02 0. -1.
</event>
<event>
 5   0  0.4173467E-06  0.3425020E+04  0.7818609E-02  0.8131793E-01
       -2   -1    0    0    0  501  0.00000000000E+00  0.00000000000E+00  0.19414970641E+04  0.19414970641E+04  0.25500000920E-02 0. -1.
        2   -1    0    0  501    0  0.00000000000E+00  0.00000000000E+00 -0.15105300750E+04  0.15105300750E+04  0.25500000920E-02 0.  1.
    10030    2    1    2    0    0  0.00000000000E+00  0.00000000000E+00  0.43096698906E+03  0.34520271392E+04  0.34250195363E+04 0.  0.
        4    1    3    3  502    0 -0.57361615200E+03 -0.15655878358E+04  0.60918800230E+03  0.17751654561E+04  0.12699999809E+01 0.  1.
       -4    1    3    3    0  502  0.57361615200E+03  0.15655878358E+04 -0.17822101324E+03  0.16768616830E+04  0.12699999809E+01 0. -1.
</event>
<event>
 5   0  0.4189587E-06  0.3494753E+04  0.7818609E-02  0.8115034E-01
       -2   -1    0    0    0  501  0.00000000000E+00  0.00000000000E+00  0.12739054873E+04  0.12739054873E+04  0.25500000920E-02 0.  1.
        2   -1    0    0  501    0  0.00000000000E+00  0.00000000000E+00 -0.23968226323E+04  0.23968226324E+04  0.25500000920E-02 0. -1.
    10030    2    1    2    0    0  0.00000000000E+00  0.00000000000E+00 -0.11229171450E+04  0.36707281197E+04  0.34947534983E+04 0.  0.
        1    1    3    3  502    0  0.68301992108E+03  0.60833226872E+03 -0.21253016114E+04  0.23137612887E+04  0.50400001928E-02 0. -1.
       -1    1    3    3    0  502 -0.68301992108E+03 -0.60833226872E+03  0.10023844664E+04  0.13569668309E+04  0.50400001928E-02 0.  1.
</event>
<event>
 5   0  0.2722449E-06  0.2166971E+04  0.7818609E-02  0.8532303E-01
       -2   -1    0    0    0  501  0.00000000000E+00  0.00000000000E+00  0.10458639933E+04  0.10458639933E+04  0.25500000920E-02 0.  1.
        2   -1    0    0  501    0  0.00000000000E+00  0.00000000000E+00 -0.11224601428E+04  0.11224601428E+04  0.25500000920E-02 0. -1.
    10030    2    1    2    0    0  0.00000000000E+00  0.00000000000E+00 -0.76596149432E+02  0.21683241361E+04  0.21669708325E+04 0.  0.
        2    1    3    3  502    0  0.87209197815E+03  0.48106634986E+03 -0.46514553491E+03  0.10992404741E+04  0.25500000920E-02 0. -1.
       -2    1    3    3    0  502 -0.87209197815E+03 -0.48106634986E+03  0.38854938547E+03  0.10690836620E+04  0.25500000920E-02 0.  1.
</event>
<event>
 5   0  0.1562618E-06  0.2480180E+04  0.7818609E-02  0.8410081E-01
       -1   -1    0    0    0  501  0.00000000000E+00  0.00000000000E+00  0.12073467420E+04  0.12073467420E+04  0.50400001928E-02 0. -1.
        1   -1    0    0  501    0  0.00000000000E+00  0.00000000000E+00 -0.12737211444E+04  0.12737211444E+04  0.50400001928E-02 0.  1.
    10030    2    1    2    0    0  0.00000000000E+00  0.00000000000E+00 -0.66374402431E+02  0.24810678864E+04  0.24801798918E+04 0.  0.
        2    1    3    3  502    0  0.75383354046E+03 -0.38771691583E+03 -0.93862654002E+03  0.12647565755E+04  0.25500000920E-02 0.  1.
       -2    1    3    3    0  502 -0.75383354046E+03  0.38771691583E+03  0.87225213759E+03  0.12163113109E+04  0.25500000920E-02 0. -1.
</event>
<event>
 5   0  0.1401125E-06  0.1711375E+04  0.7818609E-02  0.8754904E-01
       -4   -1    0    0    0  501  0.00000000000E+00  0.00000000000E+00  0.47528845230E+03  0.47529014905E+03  0.12699999809E+01 0.  1.
        4   -1    0    0  501    0  0.00000000000E+00  0.00000000000E+00 -0.15405349081E+04  0.15405354315E+04  0.12699999809E+01 0. -1.
    10030    2    1    2    0    0  0.00000000000E+00  0.00000000000E+00 -0.10652464558E+04  0.20158255806E+04  0.17113745236E+04 0.  0.
        5    1    3    3  502    0 -0.57489247354E+03 -0.33195299712E+03 -0.11685624132E+04  0.13439696247E+04  0.46999998093E+01 0. -1.
       -5    1    3    3    0  502  0.57489247354E+03  0.33195299712E+03  0.10331595748E+03  0.67185595592E+03  0.46999998093E+01 0.  1.
</event>
<event>
 5   0  0.1550164E-06  0.2622740E+04  0.7818609E-02  0.8360518E-01
        1   -1    0    0  501    0  0.00000000000E+00  0.00000000000E+00  0.19370045053E+04  0.19370045053E+04  0.50400001928E-02 0.  1.
       -1   -1    0    0    0  501  0.00000000000E+00  0.00000000000E+00 -0.88780987659E+03  0.88780987660E+03  0.50400001928E-02 0. -1.
    10030    2    1    2    0    0  0.00000000000E+00  0.00000000000E+00  0.10491946287E+04  0.28248143819E+04  0.26227403461E+04 0.  0.
        4    1    3    3  502    0  0.50817936026E+03  0.10090062213E+04  0.12417442093E+04  0.16787704164E+04  0.12699999809E+01 0.  1.
       -4    1    3    3    0  502 -0.50817936026E+03 -0.10090062213E+04 -0.19254958066E+03  0.11460439654E+04  0.12699999809E+01 0. -1.
</event>
<event>
 5   0  0.2101998E-06  0.1759959E+04  0.7818609E-02  0.8727887E-01
        1   -1    0    0  501    0  0.00000000000E+00  0.00000000000E+00  0.64832456211E+03  0.64832456213E+03  0.50400001928E-02 0.  1.
       -1   -1    0    0    0  501  0.00000000000E+00  0.00000000000E+00 -0.11944078676E+04  0.11944078676E+04  0.50400001928E-02 0. -1.
    10030    2    1    2    0    0  0.00000000000E+00  0.00000000000E+00 -0.54608330550E+03  0.18427324297E+04  0.17599590424E+04 0.  0.
        5    1    3    3  502    0 -0.41193088747E+03 -0.75649926327E+03 -0.46140163587E+03  0.97718562769E+03  0.46999998093E+01 0.  1.
       -5    1    3    3    0  502  0.41193088747E+03  0.75649926327E+03 -0.84681669627E+02  0.86554680206E+03  0.46999998093E+01 0. -1.
</event>
<event>
 5   0  0.2101998E-06  0.3364441E+04  0.7818609E-02  0.8146689E-01
       -1   -1    0    0    0  501  0.00000000000E+00  0.00000000000E+00  0.18267547580E+04  0.18267547581E+04  0.50400001928E-02 0.  1.
        1   -1    0    0  501    0  0.00000000000E+00  0.00000000000E+00 -0.15491218469E+04  0.15491218469E+04  0.50400001928E-02 0. -1.
    10030    2    1    2    0    0  0.00000000000E+00  0.00000000000E+00  0.27763291119E+03  0.33758766049E+04  0.33644409370E+04 0.  0.
        5    1    3    3  502    0  0.75012668315E+03 -0.74601876023E+03  0.14511647333E+04  0.17958661433E+04  0.46999998093E+01 0.  1.
       -5    1    3    3    0  502 -0.75012668315E+03  0.74601876023E+03 -0.11735318221E+04  0.15800104616E+04  0.46999998093E+01 0. -1.
</event>
<event>
 5   0  0.4344980E-06  0.3531804E+04  0.7818609E-02  0.8106294E-01
        2   -1    0    0  501    0  0.00000000000E+00  0.00000000000E+00  0.24011972822E+04  0.24011972822E+04  0.25500000920E-02 0.  1.
       -2   -1    0    0    0  501  0.00000000000E+00  0.00000000000E+00 -0.12986896546E+04  0.12986896546E+04  0.25500000920E-02 0. -1.
    10030    2    1    2    0    0  0.00000000000E+00  0.00000000000E+00  0.11025076276E+04  0.36998869369E+04  0.35318041107E+04 0.  0.
        3    1    3    3  502    0  0.76571244656E+03 -0.39567231465E+03 -0.10633754874E+04  0.13688095444E+04  0.10100000352E+00 0. -1.
       -3    1    3    3    0  502 -0.76571244656E+03  0.39567231465E+03  0.21658831151E+04  0.23310773925E+04  0.10100000352E+00 0.  1.
</event>
<event>
 5   0  0.4189587E-06  0.3403368E+04  0.7818609E-02  0.8137080E-01
        2   -1    0    0  501    0  0.00000000000E+00  0.00000000000E+00  0.27247627003E+04  0.27247627003E+04  0.25500000920E-02 0.  1.
       -2   -1    0    0    0  501  0.00000000000E+00  0.00000000000E+00 -0.10627450207E+04  0.10627450207E+04  0.25500000920E-02 0. -1.
    10030    2    1    2    0    0  0.00000000000E+00  0.00000000000E+00  0.16620176796E+04  0.37875077210E+04  0.34033677394E+04 0.  0.
        1    1    3    3  502    0  0.11220185193E+03  0.41614638661E+03 -0.10009940869E+04  0.10898422972E+04  0.50400001928E-02 0. -1.
       -1    1    3    3    0  502 -0.11220185193E+03 -0.41614638661E+03  0.26630117665E+04  0.26976654239E+04  0.50400001928E-02 0.  1.
</event>
<event>
 5   0  0.2101998E-06  0.3123648E+04  0.7818609E-02  0.8209278E-01
        1   -1    0    0  501    0  0.00000000000E+00  0.00000000000E+00  0.19713756105E+04  0.19713756105E+04  0.50400001928E-02 0.  1.
       -1   -1    0    0    0  501  0.00000000000E+00  0.00000000000E+00 -0.12373567277E+04  0.12373567277E+04  0.50400001928E-02 0. -1.
    10030    2    1    2    0    0  0.00000000000E+00  0.00000000000E+00  0.73401888287E+03  0.32087323382E+04  0.31236484274E+04 0.  0.
        5    1    3    3  502    0 -0.13650445188E+04 -0.26376440477E+03  0.10979780344E+04  0.17715801008E+04  0.46999998093E+01 0.  1.
       -5    1    3    3    0  502  0.13650445188E+04  0.26376440477E+03 -0.36395915151E+03  0.14371522374E+04  0.46999998093E+01 0. -1.
</event>
<event>
 5   0  0.4189587E-06  0.3327330E+04  0.7818609E-02  0.8155976E-01
        2   -1    0    0  501    0  0.00000000000E+00  0.00000000000E+00  0.14623747064E+04  0.14623747064E+04  0.25500000920E-02 0.  1.
       -2   -1    0    0    0  501  0.00000000000E+00  0.00000000000E+00 -0.18926618115E+04  0.18926618115E+04  0.25500000920E-02 0. -1.
    10030    2    1    2    0    0  0.00000000000E+00  0.00000000000E+00 -0.43028710514E+03  0.33550365179E+04  0.33273297167E+04 0.  0.
        1    1    3    3  502    0 -0.71861684166E+02 -0.48253400048E+03 -0.18189153942E+04  0.18832037528E+04  0.50400001928E-02 0. -1.
       -1    1    3    3    0  502  0.71861684166E+02  0.48253400048E+03  0.13886282890E+04  0.14718327651E+04  0.50400001928E-02 0.  1.
</event>
<event>
 5   0  0.1562618E-06  0.3428198E+04  0.7818609E-02  0.8131020E-01
       -1   -1    0    0    0  501  0.00000000000E+00  0.00000000000E+00  0.14840896242E+04  0.14840896242E+04  0.50400001928E-02 0. -1.
        1   -1    0    0  501    0  0.00000000000E+00  0.00000000000E+00 -0.19797564040E+04  0.19797564040E+04  0.50400001928E-02 0.  1.
    10030    2    1    2    0    0  0.00000000000E+00  0.00000000000E+00 -0.49566677979E+03  0.34638460281E+04  0.34281983242E+04 0.  0.
        2    1    3    3  502    0 -0.37755108804E+03  0.87668476162E+03 -0.16863706515E+04  0.19377737148E+04  0.25500000920E-02 0.  1.
       -2    1    3    3    0  502  0.37755108804E+03 -0.87668476162E+03  0.11907038718E+04  0.15260723133E+04  0.25500000920E-02 0. -1.
</event>
<event>
 5   0  0.4189587E-06  0.3593160E+04  0.7818609E-02  0.8092060E-01
        2   -1    0    0  501    0  0.00000000000E+00  0.00000000000E+00  0.25254912031E+04  0.25254912031E+04  0.25500000920E-02 0.  1.
       -2   -1    0    0    0  501  0.00000000000E+00  0.00000000000E+00 -0.12780480286E+04  0.12780480286E+04  0.25500000920E-02 0. -1.
    10030    2    1    2    0    0  0.00000000000E+00  0.00000000000E+00  0.12474431745E+04  0.38035392317E+04  0.35931596421E+04 0.  0.
        1    1    3    3  502    0 -0.97963038529E+03 -0.14892812870E+04  0.86057345025E+03  0.19794496980E+04  0.50400001928E-02 0.  1.
       -1    1    3    3    0  502  0.97963038529E+03  0.14892812870E+04  0.38686972426E+03  0.18240895337E+04  0.50400001928E-02 0. -1.
</event>
<event>
 5   0  0.2722449E-06  0.3416522E+04  0.7818609E-02  0.8133863E-01
        2   -1    0    0  501    0  0.00000000000E+00  0.00000000000E+00  0.25235981224E+04  0.25235981224E+04  0.25500000920E-02 0. -1.
       -2   -1    0    0    0  501  0.00000000000E+00  0.00000000000E+00 -0.11563472665E+04  0.11563472665E+04  0.25500000920E-02 0.  1.
    10030    2    1    2    0    0  0.00000000000E+00  0.00000000000E+00  0.13672508559E+04  0.36799453889E+04  0.34165220858E+04 0.  0.
        2    1    3    3  502    0  0.10048546539E+04 -0.10805334174E+03  0.21670377727E+04  0.23911213077E+04  0.25500000920E-02 0. -1.
       -2    1    3    3    0  502 -0.10048546539E+04  0.10805334174E+03 -0.79978691672E+03  0.12888240812E+04  0.25500000920E-02 0.  1.
</event>
<event>
 5   0  0.4344980E-06  0.3363353E+04  0.7818609E-02  0.8146960E-01
       -2   -1    0    0    0  501  0.00000000000E+00  0.00000000000E+00  0.19327040228E+04  0.19327040228E+04  0.25500000920E-02 0. -1.
        2   -1    0    0  501    0  0.00000000000E+00  0.00000000000E+00 -0.14632531762E+04  0.14632531762E+04  0.25500000920E-02 0.  1.
    10030    2    1    2    0    0  0.00000000000E+00  0.00000000000E+00  0.46945084665E+03  0.33959571990E+04  0.33633526725E+04 0.  0.
        3    1    3    3  502    0 -0.29265086226E+03  0.77022071058E+03  0.17149351242E+04  0.19026000528E+04  0.10100000352E+00 0. -1.
       -3    1    3    3    0  502  0.29265086226E+03 -0.77022071058E+03 -0.12454842776E+04  0.14933571462E+04  0.10100000352E+00 0.  1.
</event>
<event>
 5   0  0.1571391E-06  0.3247549E+04  0.7818609E-02  0.8176371E-01
        1   -1    0    0  501    0  0.00000000000E+00  0.00000000000E+00  0.27464409830E+04  0.27464409830E+04  0.50400001928E-02 0.  1.
       -1   -1    0    0    0  501  0.00000000000E+00  0.00000000000E+00 -0.96002167364E+03  0.96002167365E+03  0.50400001928E-02 0. -1.
    10030    2    1    2    0    0  0.00000000000E+00  0.00000000000E+00  0.17864193094E+04  0.37064626567E+04  0.32475485333E+04 0.  0.
        1    1    3    3  502    0  0.41041309712E+03  0.14997380720E+04  0.14273013162E+04  0.21106497203E+04  0.50400001928E-02 0. -1.
       -1    1    3    3    0  502 -0.41041309712E+03 -0.14997380720E+04  0.35911799320E+03  0.15958129363E+04  0.50400001928E-02 0.  1.
</event>
<event>
 5   0  0.1571391E-06  0.2268379E+04  0.7818609E-02  0.8490494E-01
       -1   -1    0    0    0  501  0.00000000000E+00  0.00000000000E+00  0.11562441017E+04  0.11562441017E+04  0.50400001928E-02 0.  1.
        1   -1    0    0  501    0  0.00000000000E+00  0.00000000000E+00 -0.11125552089E+04  0.11125552089E+04  0.50400001928E-02 0. -1.
    10030    2    1    2    0    0  0.00000000000E+00  0.00000000000E+00  0.43688892816E+02  0.22687993106E+04  0.22683786263E+04 0.  0.
        1    1    3    3  502    0  0.74466398917E+02  0.56827546807E+03 -0.95706232976E+03  0.11155494410E+04  0.50400001928E-02 0. -1.
       -1    1    3    3    0  502 -0.74466398917E+02 -0.56827546807E+03  0.10007512226E+04  0.11532498696E+04  0.50400001928E-02 0.  1.
</event>
<event>
 5   0  0.1550164E-06  0.3450269E+04  0.7818609E-02  0.8125678E-01
        1   -1    0    0  501    0  0.00000000000E+00  0.00000000000E+00  0.22973037666E+04  0.22973037666E+04  0.50400001928E-02 0.  1.
       -1   -1    0    0    0  501  0.00000000000E+00  0.00000000000E+00 -0.12954707137E+04  0.12954707138E+04  0.50400001928E-02 0. -1.
    10030    2    1    2    0    0  0.00000000000E+00  0.00000000000E+00  0.10018330528E+04  0.35927744803E+04  0.34502694099E+04 0.  0.
        4    1    3    3  502    0 -0.17022591747E+04  0.27449455058E+03  0.44336554000E+03  0.17803393416E+04  0.12699999809E+01 0. -1.
       -4    1    3    3    0  502  0.17022591747E+04 -0.27449455058E+03  0.55846751281E+03  0.18124351387E+04  0.12699999809E+01 0.  1.
</event>
<event>
 5   0  0.1654257E-06  0.3373873E+04  0.7818609E-02  0.8144349E-01
       -1   -1    0    0    0  501  0.00000000000E+00  0.00000000000E+00  0.14667540685E+04  0.14667540685E+04  0.50400001928E-02 0. -1.
        1   -1    0    0  501    0  0.00000000000E+00  0.00000000000E+00 -0.19401714155E+04  0.19401714155E+04  0.50400001928E-02 0.  1.
    10030    2    1    2    0    0  0.00000000000E+00  0.00000000000E+00 -0.47341734706E+03  0.34069254840E+04  0.33738727405E+04 0.  0.
        3    1    3    3  502    0  0.93311088098E+03 -0.55062021782E+03 -0.15423862296E+04  0.18848962390E+04  0.10100000352E+00 0.  1.
       -3    1    3    3    0  502 -0.93311088098E+03  0.55062021782E+03  0.10689688825E+04  0.15220292450E+04  0.10100000352E+00 0. -1.
</event>
<event>
 5   0  0.4189587E-06  0.3366649E+04  0.7818609E-02  0.8146141E-01
        2   -1    0    0  501    0  0.00000000000E+00  0.00000000000E+00  0.20250856533E+04  0.20250856533E+04  0.25500000920E-02 0.  1.
       -2   -1    0    0    0  501  0.00000000000E+00  0.00000000000E+00 -0.13992400671E+04  0.13992400671E+04  0.25500000920E-02 0. -1.
    10030    2    1    2    0    0  0.00000000000E+00  0.00000000000E+00  0.62584558624E+03  0.34243257204E+04  0.33666487701E+04 0.  0.
        1    1    3    3  502    0 -0.11916524250E+04  0.34143279855E+02  0.15217187366E+04  0.19330879905E+04  0.50400001928E-02 0.  1.
       -1    1    3    3    0  502  0.11916524250E+04 -0.34143279855E+02 -0.89587315039E+03  0.14912377299E+04  0.50400001928E-02 0. -1.
</event>
<event>
 5   0  0.1562618E-06  0.3288869E+04  0.7818609E-02  0.8165734E-01
        1   -1    0    0  501    0  0.00000000000E+00  0.00000000000E+00  0.16500313340E+04  0.16500313340E+04  0.50400001928E-02 0. -1.
       -1   -1    0    0    0  501  0.00000000000E+00  0.00000000000E+00 -0.16388562975E+04  0.16388562975E+04  0.50400001928E-02 0.  1.
    10030    2    1    2    0    0  0.00000000000E+00  0.00000000000E+00  0.11175036489E+02  0.32888876315E+04  0.32888686461E+04 0.  0.
        2    1    3    3  502    0 -0.30791015109E+03  0.10639197986E+04 -0.12099153823E+04  0.16403137600E+04  0.25500000920E-02 0.  1.
       -2    1    3    3    0  502  0.30791015109E+03 -0.10639197986E+04  0.12210904188E+04  0.16485738715E+04  0.25500000920E-02 0. -1.
</event>
<event>
 5   0  0.1562618E-06  0.3398812E+04  0.7818609E-02  0.8138198E-01
       -1   -1    0    0    0  501  0.00000000000E+00  0.00000000000E+00  0.16391663897E+04  0.16391663897E+04  0.50400001928E-02 0.  1.
        1   -1    0    0  501    0  0.00000000000E+00  0.00000000000E+00 -0.17618593465E+04  0.17618593465E+04  0.50400001928E-02 0. -1.
    10030    2    1    2    0    0  0.00000000000E+00  0.00000000000E+00 -0.12269295676E+03  0.34010257362E+04  0.33988119242E+04 0.  0.
        2    1    3    3  502    0 -0.43542284780E+03 -0.71811350578E+02 -0.17035219578E+04  0.17597548088E+04  0.25500000920E-02 0. -1.
       -2    1    3    3    0  502  0.43542284780E+03  0.71811350578E+02  0.15808290010E+04  0.16412709273E+04  0.25500000920E-02 0.  1.
</event>
<event>
 5   0  0.1571391E-06  0.2735148E+04  0.7818609E-02  0.8323690E-01
       -1   -1    0    0    0  501  0.00000000000E+00  0.00000000000E+00  0.14390632304E+04  0.14390632304E+04  0.50400001928E-02 0.  1.
        1   -1    0    0  501    0  0.00000000000E+00  0.00000000000E+00 -0.12996362829E+04  0.12996362830E+04  0.50400001928E-02 0. -1.
    10030    2    1    2    0    0  0.00000000000E+00  0.00000000000E+00  0.13942694748E+03  0.27386995134E+04  0.27351481040E+04 0.  0.
        1    1    3    3  502    0 -0.41773362073E+03  0.84338293326E+03 -0.92377573960E+03  0.13187713096E+04  0.50400001928E-02 0. -1.
       -1    1    3    3    0  502  0.41773362073E+03 -0.84338293326E+03  0.10632026871E+04  0.14199282038E+04  0.50400001928E-02 0.  1.
</event>
<event>
 5   0  0.1550164E-06  0.3459175E+04  0.7818609E-02  0.8123534E-01
       -1   -1    0    0    0  501  0.00000000000E+00  0.00000000000E+00  0.16498982957E+04  0.16498982958E+04  0.50400001928E-02 0.  1.
        1   -1    0    0  501    0  0.00000000000E+00  0.00000000000E+00 -0.18131254733E+04  0.18131254733E+04  0.50400001928E-02 0. -1.
    10030    2    1    2    0    0  0.00000000000E+00  0.00000000000E+00 -0.16322717753E+03  0.34630237690E+04  0.34591748313E+04 0.  0.
        4    1    3    3  502    0 -0.11152843880E+04 -0.11167853065E+04 -0.78979189863E+03  0.17648913686E+04  0.12699999809E+01 0. -1.
       -4    1    3    3    0  502  0.11152843880E+04  0.11167853065E+04  0.62656472110E+03  0.16981324005E+04  0.12699999809E+01 0.  1.
</event>
<event>
 5   0  0.2722449E-06  0.3111770E+04  0.7818609E-02  0.8212515E-01
        2   -1    0    0  501    0  0.00000000000E+00  0.00000000000E+00  0.24717672490E+04  0.24717672490E+04  0.25500000920E-02 0. -1.
       -2   -1    0    0    0  501  0.00000000000E+00  0.00000000000E+00 -0.97937163026E+03  0.97937163026E+03  0.25500000920E-02 0.  1.
    10030    2    1    2    0    0  0.00000000000E+00  0.00000000000E+00  0.14923956187E+04  0.34511388792E+04  0.31117703773E+04 0.  0.
        2    1    3    3  502    0 -0.59007744167E+03  0.80748552186E+02 -0.84794452495E+03  0.10362054011E+04  0.25500000920E-02 0.  1.
       -2    1    3    3    0  502  0.59007744167E+03 -0.80748552186E+02  0.23403401437E+04  0.24149334781E+04  0.25500000920E-02 0. -1.
</event>
<event>
 5   0  0.4344980E-06  0.3578261E+04  0.7818609E-02  0.8095490E-01
        2   -1    0    0  501    0  0.00000000000E+00  0.00000000000E+00  0.24048931813E+04  0.24048931813E+04  0.25500000920E-02 0.  1.
       -2   -1    0    0    0  501  0.00000000000E+00  0.00000000000E+00 -0.13310311495E+04  0.13310311495E+04  0.25500000920E-02 0. -1.
    10030    2    1    2    0    0  0.00000000000E+00  0.00000000000E+00  0.10738620318E+04  0.37359243307E+04  0.35782608823E+04 0.  0.
        3    1    3    3  502    0  0.16624009705E+04  0.60330595816E+03  0.25400642357E+03  0.17866377191E+04  0.10100000352E+00 0. -1.
       -3    1    3    3    0  502 -0.16624009705E+04 -0.60330595816E+03  0.81985560825E+03  0.19492866117E+04  0.10100000352E+00 0.  1.
</event>
<event>
 5   0  0.4189587E-06  0.3158556E+04  0.7818609E-02  0.8199849E-01
        2   -1    0    0  501    0  0.00000000000E+00  0.00000000000E+00  0.18353779701E+04  0.18353779701E+04  0.25500000920E-02 0.  1.
       -2   -1    0    0    0  501  0.00000000000E+00  0.00000000000E+00 -0.13589129358E+04  0.13589129358E+04  0.25500000920E-02 0. -1.
    10030    2    1    2    0    0  0.00000000000E+00  0.00000000000E+00  0.47646503428E+03  0.31942909060E+04  0.31585559142E+04 0.  0.
        1    1    3    3  502    0  0.42940529454E+03 -0.15145473919E+04  0.11080636157E+03  0.15781383840E+04  0.50400001928E-02 0.  1.
       -1    1    3    3    0  502 -0.42940529454E+03  0.15145473919E+04  0.36565867271E+03  0.16161525220E+04  0.50400001928E-02 0. -1.
</event>
<event>
 5   0  0.4400349E-06  0.2691767E+04  0.7818609E-02  0.8337681E-01
       -2   -1    0    0    0  501  0.00000000000E+00  0.00000000000E+00  0.11011710070E+04  0.11011710070E+04  0.25500000920E-02 0. -1.
        2   -1    0    0  501    0  0.00000000000E+00  0.00000000000E+00 -0.16449785933E+04  0.16449785933E+04  0.25500000920E-02 0.  1.
    10030    2    1    2    0    0  0.00000000000E+00  0.00000000000E+00 -0.54380758631E+03  0.27461496004E+04  0.26917672516E+04 0.  0.
        5    1    3    3  502    0  0.13329839242E+04 -0.18582807347E+03 -0.27031372604E+03  0.13727599264E+04  0.46999998093E+01 0. -1.
       -5    1    3    3    0  502 -0.13329839242E+04  0.18582807347E+03 -0.27349386027E+03  0.13733896740E+04  0.46999998093E+01 0.  1.
</event>
<event>
 5   0  0.1550164E-06  0.3457073E+04  0.7818609E-02  0.8124039E-01
        1   -1    0    0  501    0  0.00000000000E+00  0.00000000000E+00  0.19214845503E+04  0.19214845503E+04  0.50400001928E-02 0. -1.
       -1   -1    0    0    0  501  0.00000000000E+00  0.00000000000E+00 -0.15549631958E+04  0.15549631958E+04  0.50400001928E-02 0.  1.
    10030    2    1    2    0    0  0.00000000000E+00  0.00000000000E+00  0.36652135451E+03  0.34764477461E+04  0.34570726096E+04 0.  0.
        4    1    3    3  502    0 -0.26370261972E+02 -0.12509380371E+04  0.13825446033E+04  0.18646641941E+04  0.12699999809E+01 0. -1.
       -4    1    3    3    0  502  0.26370261972E+02  0.12509380371E+04 -0.10160232488E+04  0.16117835520E+04  0.12699999809E+01 0.  1.
</event>
<event>
 5   0  0.1654257E-06  0.3561295E+04  0.7818609E-02  0.8099415E-01
        1   -1    0    0  501    0  0.00000000000E+00  0.00000000000E+00  0.17680647280E+04  0.17680647280E+04  0.50400001928E-02 0.  1.
       -1   -1    0    0    0  501  0.00000000000E+00  0.00000000000E+00 -0.17933199023E+04  0.17933199023E+04  0.50400001928E-02 0. -1.
    10030    2    1    2    0    0  0.00000000000E+00  0.00000000000E+00 -0.25255174281E+02  0.35613846303E+04  0.35612950820E+04 0.  0.
        3    1    3    3  502    0 -0.12876617405E+04 -0.10197135170E+04 -0.70026195108E+03  0.17855685999E+04  0.10100000352E+00 0. -1.
       -3    1    3    3    0  502  0.12876617405E+04  0.10197135170E+04  0.67500677680E+03  0.17758160304E+04  0.10100000352E+00 0.  1.
</event>
<event>
 5   0  0.1654257E-06  0.3406206E+04  0.7818609E-02  0.8136385E-01
       -1   -1    0    0    0  501  0.00000000000E+00  0.00000000000E+00  0.22998226547E+04  0.22998226547E+04  0.50400001928E-02 0. -1.
        1   -1    0    0  501    0  0.00000000000E+00  0.00000000000E+00 -0.12612102262E+04  0.12612102262E+04  0.50400001928E-02 0.  1.
    10030    2    1    2    0    0  0.00000000000E+00  0.00000000000E+00  0.10386124285E+04  0.35610328809E+04  0.34062060129E+04 0.  0.
        3    1    3    3  502    0  0.10096217498E+04  0.13708941739E+04  0.47406174944E+03  0.17673204198E+04  0.10100000352E+00 0.  1.
       -3    1    3    3    0  502 -0.10096217498E+04 -0.13708941739E+04  0.56455067908E+03  0.17937124611E+04  0.10100000352E+00 0. -1.
</event>
<event>
 5   0  0.1654257E-06  0.1764210E+04  0.7818609E-02  0.8725567E-01
        1   -1    0    0  501    0  0.00000000000E+00  0.00000000000E+00  0.13433137298E+04  0.13433137299E+04  0.50400001928E-02 0. -1.
       -1   -1    0    0    0  501  0.00000000000E+00  0.00000000000E+00 -0.57924629411E+03  0.57924629413E+03  0.50400001928E-02 0.  1.
    10030    2    1    2    0    0  0.00000000000E+00  0.00000000000E+00  0.76406743574E+03  0.19225600240E+04  0.17642103048E+04 0.  0.
        3    1    3    3  502    0  0.20657678958E+03 -0.23199715813E+03 -0.51766776068E+03  0.60371895119E+03  0.10100000352E+00 0.  1.
       -3    1    3    3    0  502 -0.20657678958E+03  0.23199715813E+03  0.12817351964E+04  0.13188410728E+04  0.10100000352E+00 0. -1.
</event>
<event>
 5   0  0.2722449E-06  0.3287811E+04  0.7818609E-02  0.8166004E-01
       -2   -1    0    0    0  501  0.00000000000E+00  0.00000000000E+00  0.18666240407E+04  0.18666240407E+04  0.25500000920E-02 0.  1.
        2   -1    0    0  501    0  0.00000000000E+00  0.00000000000E+00 -0.14477610210E+04  0.14477610210E+04  0.25500000920E-02 0. -1.
    10030    2    1    2    0    0  0.00000000000E+00  0.00000000000E+00  0.41886301976E+03  0.33143850617E+04  0.32878111423E+04 0.  0.
        2    1    3    3  502    0  0.15606511757E+04 -0.31364941430E+03 -0.20427245376E+03  0.16049097428E+04  0.25500000920E-02 0. -1.
       -2    1    3    3    0  502 -0.15606511757E+04  0.31364941430E+03  0.62313547352E+03  0.17094753188E+04  0.25500000920E-02 0.  1.
</event>
<event>
 5   0  0.4344980E-06  0.3517989E+04  0.7818609E-02  0.8109540E-01
        2   -1    0    0  501    0  0.00000000000E+00  0.00000000000E+00  0.28683798900E+04  0.28683798900E+04  0.25500000920E-02 0.  1.
       -2   -1    0    0    0  501  0.00000000000E+00  0.00000000000E+00 -0.10786792164E+04  0.10786792164E+04  0.25500000920E-02 0. -1.
    10030    2    1    2    0    0  0.00000000000E+00  0.00000000000E+00  0.17897006736E+04  0.39470591064E+04  0.35179890688E+04 0.  0.
        3    1    3    3  502    0  0.45490201090E+03 -0.16284077706E+04  0.14392217841E+04  0.22203619212E+04  0.10100000352E+00 0.  1.
       -3    1    3    3    0  502 -0.45490201090E+03  0.16284077706E+04  0.35047888943E+03  0.17266971851E+04  0.10100000352E+00 0. -1.
</event>
<event>
 5   0  0.4344980E-06  0.2664519E+04  0.7818609E-02  0.8346610E-01
       -2   -1    0    0    0  501  0.00000000000E+00  0.00000000000E+00  0.13982207559E+04  0.13982207559E+04  0.25500000920E-02 0.  1.
        2   -1    0    0  501    0  0.00000000000E+00  0.00000000000E+00 -0.12694099815E+04  0.12694099816E+04  0.25500000920E-02 0. -1.
    10030    2    1    2    0    0  0.00000000000E+00  0.00000000000E+00  0.12881077438E+03  0.26676307375E+04  0.26645190065E+04 0.  0.
        3    1    3    3  502    0  0.81985470776E+03 -0.10490469046E+04  0.11193950353E+03  0.13361106288E+04  0.10100000352E+00 0. -1.
       -3    1    3    3    0  502 -0.81985470776E+03  0.10490469046E+04  0.16871270853E+02  0.13315201087E+04  0.10100000352E+00 0.  1.
</event>
<event>
 5   0  0.1562618E-06  0.1998305E+04  0.7818609E-02  0.8607413E-01
        1   -1    0    0  501    0  0.00000000000E+00  0.00000000000E+00  0.17643105408E+04  0.17643105408E+04  0.50400001928E-02 0.  1.
       -1   -1    0    0    0  501  0.00000000000E+00  0.00000000000E+00 -0.56583356117E+03  0.56583356120E+03  0.50400001928E-02 0. -1.
    10030    2    1    2    0    0  0.00000000000E+00  0.00000000000E+00  0.11984769796E+04  0.23301441020E+04  0.19983053984E+04 0.  0.
        2    1    3    3  502    0 -0.51212334346E+03 -0.33032538733E+03 -0.32402849260E+03  0.69020261116E+03  0.25500000920E-02 0. -1.
       -2    1    3    3    0  502  0.51212334346E+03  0.33032538733E+03  0.15225054722E+04  0.16399414908E+04  0.25500000920E-02 0.  1.
</event>
<event>
 5   0  0.4173467E-06  0.3360008E+04  0.7818609E-02  0.8147792E-01
       -2   -1    0    0    0  501  0.00000000000E+00  0.00000000000E+00  0.14544705998E+04  0.14544705998E+04  0.25500000920E-02 0.  1.
        2   -1    0    0  501    0  0.00000000000E+00  0.00000000000E+00 -0.19405094958E+04  0.19405094958E+04  0.25500000920E-02 0. -1.
    10030    2    1    2    0    0  0.00000000000E+00  0.00000000000E+00 -0.48603889596E+03  0.33949800956E+04  0.33600083395E+04 0.  0.
        4    1    3    3  502    0  0.14765113304E+04  0.62000945603E+03 -0.75615859332E+03  0.17709530952E+04  0.12699999809E+01 0. -1.
       -4    1    3    3    0  502 -0.14765113304E+04 -0.62000945603E+03  0.27011969736E+03  0.16240270004E+04  0.12699999809E+01 0.  1.
</event>
<event>
 5   0  0.4189587E-06  0.2206707E+04  0.7818609E-02  0.8515642E-01
       -2   -1    0    0    0  501  0.00000000000E+00  0.00000000000E+00  0.10265206380E+04  0.10265206380E+04  0.25500000920E-02 0.  1.
        2   -1    0    0  501    0  0.00000000000E+00  0.00000000000E+00 -0.11859374948E+04  0.11859374948E+04  0.25500000920E-02 0. -1.
    10030    2    1    2    0    0  0.00000000000E+00  0.00000000000E+00 -0.15941685679E+03  0.22124581328E+04  0.22067073334E+04 0.  0.
        1    1    3    3  502    0  0.10233383197E+04 -0.39638880594E+03  0.34799154396E+02  0.10979783164E+04  0.50400001928E-02 0.  1.
       -1    1    3    3    0  502 -0.10233383197E+04  0.39638880594E+03 -0.19421601119E+03  0.11144798164E+04  0.50400001928E-02 0. -1.
</event>
<event>
 5   0  0.4344980E-06  0.3211864E+04  0.7818609E-02  0.8185691E-01
       -2   -1    0    0    0  501  0.00000000000E+00  0.00000000000E+00  0.25441039742E+04  0.25441039742E+04  0.25500000920E-02 0. -1.
        2   -1    0    0  501    0  0.00000000000E+00  0.00000000000E+00 -0.10137231572E+04  0.10137231572E+04  0.25500000920E-02 0.  1.
    10030    2    1    2    0    0  0.00000000000E+00  0.00000000000E+00  0.15303808170E+04  0.35578271314E+04  0.32118637038E+04 0.  0.
        3    1    3    3  502    0 -0.28864101019E+03  0.13616051906E+04  0.16525620020E+04  0.21606118366E+04  0.10100000352E+00 0. -1.
       -3    1    3    3    0  502  0.28864101019E+03 -0.13616051906E+04 -0.12218118495E+03  0.13972152948E+04  0.10100000352E+00 0.  1.
</event>
<event>
 5   0  0.4189587E-06  0.1926259E+04  0.7818609E-02  0.8641895E-01
        2   -1    0    0  501    0  0.00000000000E+00  0.00000000000E+00  0.57840956829E+03  0.57840956830E+03  0.25500000920E-02 0.  1.
       -2   -1    0    0    0  501  0.00000000000E+00  0.00000000000E+00 -0.16037400197E+04  0.16037400197E+04  0.25500000920E-02 0. -1.
    10030    2    1    2    0    0  0.00000000000E+00  0.00000000000E+00 -0.10253304514E+04  0.21821495880E+04  0.19262591440E+04 0.  0.
        1    1    3    3  502    0  0.77026501975E+03  0.53177895200E+03 -0.76980196378E+03  0.12118960838E+04  0.50400001928E-02 0. -1.
       -1    1    3    3    0  502 -0.77026501975E+03 -0.53177895200E+03 -0.25552848764E+03  0.97025350422E+03  0.50400001928E-02 0.  1.
</event>
<event>
 5   0  0.4400349E-06  0.2305050E+04  0.7818609E-02  0.8475933E-01
       -2   -1    0    0    0  501  0.00000000000E+00  0.00000000000E+00  0.12806651223E+04  0.12806651223E+04  0.25500000920E-02 0.  1.
        2   -1    0    0  501    0  0.00000000000E+00  0.00000000000E+00 -0.10372061814E+04  0.10372061814E+04  0.25500000920E-02 0. -1.
    10030    2    1    2    0    0  0.00000000000E+00  0.00000000000E+00  0.24345894092E+03  0.23178713037E+04  0.23050499180E+04 0.  0.
        5    1    3    3  502    0  0.66183881677E+03  0.79509250386E+03  0.63257984512E+03  0.12125931138E+04  0.46999998093E+01 0.  1.
       -5    1    3    3    0  502 -0.66183881677E+03 -0.79509250386E+03 -0.38912090420E+03  0.11052781899E+04  0.46999998093E+01 0. -1.
</event>
<event>
 5   0  0.1654257E-06  0.3332032E+04  0.7818609E-02  0.8154792E-01
       -1   -1    0    0    0  501  0.00000000000E+00  0.00000000000E+00  0.17954082192E+04  0.17954082192E+04  0.50400001928E-02 0. -1.
        1   -1    0    0  501    0  0.00000000000E+00  0.00000000000E+00 -0.15459484497E+04  0.15459484497E+04  0.50400001928E-02 0.  1.
    10030    2    1    2    0    0  0.00000000000E+00  0.00000000000E+00  0.24945976949E+03  0.33413566689E+04  0.33320315443E+04 0.  0.
        3    1    3    3  502    0  0.47895010454E+03 -0.83239266316E+03 -0.12404535920E+04  0.15687561546E+04  0.10100000352E+00 0.  1.
       -3    1    3    3    0  502 -0.47895010454E+03  0.83239266316E+03  0.14899133615E+04  0.17726005143E+04  0.10100000352E+00 0. -1.
</event>
<event>
 5   0  0.1562618E-06  0.3362874E+04  0.7818609E-02  0.8147079E-01
       -1   -1    0    0    0  501  0.00000000000E+00  0.00000000000E+00  0.14179083384E+04  0.14179083385E+04  0.50400001928E-02 0.  1.
        1   -1    0    0  501    0  0.00000000000E+00  0.00000000000E+00 -0.19939440616E+04  0.19939440616E+04  0.50400001928E-02 0. -1.
    10030    2    1    2    0    0  0.00000000000E+00  0.00000000000E+00 -0.57603572313E+03  0.34118524000E+04  0.33628737183E+04 0.  0.
        2    1    3    3  502    0  0.46880683292E+03 -0.12666512660E+04 -0.13041257091E+04  0.18774794650E+04  0.25500000920E-02 0. -1.
       -2    1    3    3    0  502 -0.46880683292E+03  0.12666512660E+04  0.72808998601E+03  0.15343729351E+04  0.25500000920E-02 0.  1.
</event>
<event>
 5   0  0.1550164E-06  0.1780126E+04  0.7818609E-02  0.8716940E-01
        1   -1    0    0  501    0  0.00000000000E+00  0.00000000000E+00  0.74388996517E+03  0.74388996519E+03  0.50400001928E-02 0. -1.
       -1   -1    0    0    0  501  0.00000000000E+00  0.00000000000E+00 -0.10649589500E+04  0.10649589500E+04  0.50400001928E-02 0.  1.
    10030    2    1    2    0    0  0.00000000000E+00  0.00000000000E+00 -0.32106898483E+03  0.18088489152E+04  0.17801261486E+04 0.  0.
        4    1    3    3  502    0 -0.28730402993E+03  0.76330772253E+03  0.20162668318E+03  0.84014118883E+03  0.12699999809E+01 0. -1.
       -4    1    3    3    0  502  0.28730402993E+03 -0.76330772253E+03 -0.52269566801E+03  0.96870772638E+03  0.12699999809E+01 0.  1.
</event>
<event>
 5   0  0.4189587E-06  0.3343931E+04  0.7818609E-02  0.8151806E-01
        2   -1    0    0  501    0  0.00000000000E+00  0.00000000000E+00  0.18628966605E+04  0.18628966606E+04  0.25500000920E-02 0.  1.
       -2   -1    0    0    0  501  0.00000000000E+00  0.00000000000E+00 -0.15006029523E+04  0.15006029524E+04  0.25500000920E-02 0. -1.
    10030    2    1    2    0    0  0.00000000000E+00  0.00000000000E+00  0.36229370820E+03  0.33634996129E+04  0.33439307581E+04 0.  0.
        1    1    3    3  502    0  0.28954473117E+03 -0.83427085528E+03  0.16091819793E+04  0.18355682100E+04  0.50400001928E-02 0.  1.
       -1    1    3    3    0  502 -0.28954473117E+03  0.83427085528E+03 -0.12468882711E+04  0.15279314029E+04  0.50400001928E-02 0. -1.
</event>
<event>
 5   0  0.4189587E-06  0.3089951E+04  0.7818609E-02  0.8218501E-01
        2   -1    0    0  501    0  0.00000000000E+00  0.00000000000E+00  0.24757524714E+04  0.24757524714E+04  0.25500000920E-02 0. -1.
       -2   -1    0    0    0  501  0.00000000000E+00  0.00000000000E+00 -0.96413105764E+03  0.96413105764E+03  0.25500000920E-02 0.  1.
    10030    2    1    2    0    0  0.00000000000E+00  0.00000000000E+00  0.15116214137E+04  0.34398835290E+04  0.30899513580E+04 0.  0.
        1    1    3    3  502    0 -0.42153997979E+03  0.13498361924E+04  0.14485305194E+04  0.20243503567E+04  0.50400001928E-02 0. -1.
       -1    1    3    3    0  502  0.42153997979E+03 -0.13498361924E+04  0.63090894314E+02  0.14155331723E+04  0.50400001928E-02 0.  1.
</event>
<event>
 5   0  0.4173467E-06  0.2898266E+04  0.7818609E-02  0.8273394E-01
        2   -1    0    0  501    0  0.00000000000E+00  0.00000000000E+00  0.17383607026E+04  0.17383607026E+04  0.25500000920E-02 0.  1.
       -2   -1    0    0    0  501  0.00000000000E+00  0.00000000000E+00 -0.12080266660E+04  0.12080266660E+04  0.25500000920E-02 0. -1.
    10030    2    1    2    0    0  0.00000000000E+00  0.00000000000E+00  0.53033403662E+03  0.29463873686E+04  0.28982657462E+04 0.  0.
        4    1    3    3  502    0 -0.36491976562E+03 -0.12777439352E+04 -0.32252172461E+03  0.13674128401E+04  0.12699999809E+01 0. -1.
       -4    1    3    3    0  502  0.36491976562E+03  0.12777439352E+04  0.85285576123E+03  0.15789745285E+04  0.12699999809E+01 0.  1.
</event>
<event>
 5   0  0.1550164E-06  0.1818991E+04  0.7818609E-02  0.8696265E-01
       -1   -1    0    0    0  501  0.00000000000E+00  0.00000000000E+00  0.15147974925E+04  0.15147974925E+04  0.50400001928E-02 0. -1.
        1   -1    0    0  501    0  0.00000000000E+00  0.00000000000E+00 -0.54606798728E+03  0.54606798731E+03  0.50400001928E-02 0.  1.
    10030    2    1    2    0    0  0.00000000000E+00  0.00000000000E+00  0.96872950525E+03  0.20608654798E+04  0.18189913886E+04 0.  0.
        4    1    3    3  502    0 -0.39764155524E+03  0.34435004576E+03 -0.35623985081E+03  0.63529851619E+03  0.12699999809E+01 0.  1.
       -4    1    3    3    0  502  0.39764155524E+03 -0.34435004576E+03  0.13249693561E+04  0.14255669637E+04  0.12699999809E+01 0. -1.
</event>
<event>
 5   0  0.2722449E-06  0.3063693E+04  0.7818609E-02  0.8225773E-01
        2   -1    0    0  501    0  0.00000000000E+00  0.00000000000E+00  0.20490516566E+04  0.20490516566E+04  0.25500000920E-02 0. -1.
       -2   -1    0    0    0  501  0.00000000000E+00  0.00000000000E+00 -0.11451904388E+04  0.11451904388E+04  0.25500000920E-02 0.  1.
    10030    2    1    2    0    0  0.00000000000E+00  0.00000000000E+00  0.90386121777E+03  0.31942420954E+04  0.30636934349E+04 0.  0.
        2    1    3    3  502    0  0.12330770910E+04  0.88287997602E+03  0.22686605629E+03  0.15334354802E+04  0.25500000920E-02 0. -1.
       -2    1    3    3    0  502 -0.12330770910E+04 -0.88287997602E+03  0.67699516149E+03  0.16608066152E+04  0.25500000920E-02 0.  1.
</event>
<event>
 5   0  0.4344980E-06  0.1737812E+04  0.7818609E-02  0.8740088E-01
        2   -1    0    0  501    0  0.00000000000E+00  0.00000000000E+00  0.11284610615E+04  0.11284610616E+04  0.25500000920E-02 0.  1.
       -2   -1    0    0    0  501  0.00000000000E+00  0.00000000000E+00 -0.66905031738E+03  0.66905031738E+03  0.25500000920E-02 0. -1.
    10030    2    1    2    0    0  0.00000000000E+00  0.00000000000E+00  0.45941074417E+03  0.17975113789E+04  0.17378115334E+04 0.  0.
        3    1    3    3  502    0  0.47119222223E+03 -0.92656819517E+02 -0.51931926204E+03  0.70731881257E+03  0.10100000352E+00 0. -1.
       -3    1    3    3    0  502 -0.47119222223E+03  0.92656819517E+02  0.97873000621E+03  0.10901925664E+04  0.10100000352E+00 0.  1.
</event>
<event>
 5   0  0.1571391E-06  0.3181940E+04  0.7818609E-02  0.8193603E-01
        1   -1    0    0  501    0  0.00000000000E+00  0.00000000000E+00  0.16731490877E+04  0.16731490877E+04  0.50400001928E-02 0.  1.
       -1   -1    0    0    0  501  0.00000000000E+00  0.00000000000E+00 -0.15128272659E+04  0.15128272660E+04  0.50400001928E-02 0. -1.
    10030    2    1    2    0    0  0.00000000000E+00  0.00000000000E+00  0.16032182170E+03  0.31859763536E+04  0.31819400119E+04 0.  0.
        1    1    3    3  502    0 -0.49529061074E+03 -0.14680455444E+04  0.44216490089E+03  0.16112046143E+04  0.50400001928E-02 0.  1.
       -1    1    3    3    0  502  0.49529061074E+03  0.14680455444E+04 -0.28184307919E+03  0.15747717393E+04  0.50400001928E-02 0. -1.
</event>
<event>
 5   0  0.4173467E-06  0.2095108E+04  0.7818609E-02  0.8563401E-01
       -2   -1    0    0    0  501  0.00000000000E+00  0.00000000000E+00  0.63631594277E+03  0.63631594278E+03  0.25500000920E-02 0.  1.
        2   -1    0    0  501    0  0.00000000000E+00  0.00000000000E+00 -0.17245674522E+04  0.17245674522E+04  0.25500000920E-02 0. -1.
    10030    2    1    2    0    0  0.00000000000E+00  0.00000000000E+00 -0.10882515094E+04  0.23608833950E+04  0.20951083640E+04 0.  0.
        4    1    3    3  502    0  0.99315994288E+03 -0.83039062917E+01 -0.16880939542E+03  0.10074392547E+04  0.12699999809E+01 0. -1.
       -4    1    3    3    0  502 -0.99315994288E+03  0.83039062917E+01 -0.91944211402E+03  0.13534441403E+04  0.12699999809E+01 0.  1.
</event>
<event>
 5   0  0.2101998E-06  0.2466232E+04  0.7818609E-02  0.8415115E-01
       -1   -1    0    0    0  501  0.00000000000E+00  0.00000000000E+00  0.11223553275E+04  0.11223553275E+04  0.50400001928E-02 0.  1.
        1   -1    0    0  501    0  0.00000000000E+00  0.00000000000E+00 -0.13548076894E+04  0.13548076894E+04  0.50400001928E-02 0. -1.
    10030    2    1    2    0    0  0.00000000000E+00  0.00000000000E+00 -0.23245236189E+03  0.24771630169E+04  0.24662324529E+04 0.  0.
        5    1    3    3  502    0  0.76056534477E+03  0.13309916655E+03 -0.10819334458E+04  0.13292016788E+04  0.46999998093E+01 0. -1.
       -5    1    3    3    0  502 -0.76056534477E+03 -0.13309916655E+03  0.84948108393E+03  0.11479613381E+04  0.46999998093E+01 0.  1.
</event>
<event>
 5   0  0.4344980E-06  0.3068008E+04  0.7818609E-02  0.8224573E-01
       -2   -1    0    0    0  501  0.00000000000E+00  0.00000000000E+00  0.12710062442E+04  0.12710062442E+04  0.25500000920E-02 0.  1.
        2   -1    0    0  501    0  0.00000000000E+00  0.00000000000E+00 -0.18514215129E+04  0.18514215129E+04  0.25500000920E-02 0. -1.
    10030    2    1    2    0    0  0.00000000000E+00  0.00000000000E+00 -0.58041526868E+03  0.31224277571E+04  0.30680080206E+04 0.  0.
        3    1    3    3  502    0 -0.19609939751E+03 -0.85610424489E+03 -0.15702122477E+04  0.17991486778E+04  0.10100000352E+00 0. -1.
       -3    1    3    3    0  502  0.19609939751E+03  0.85610424489E+03  0.98979697904E+03  0.13232790793E+04  0.10100000352E+00 0.  1.
</event>
<event>
 5   0  0.2722449E-06  0.2043820E+04  0.7818609E-02  0.8586403E-01
       -2   -1    0    0    0  501  0.00000000000E+00  0.00000000000E+00  0.63798014327E+03  0.63798014328E+03  0.25500000920E-02 0.  1.
        2   -1    0    0  501    0  0.00000000000E+00  0.00000000000E+00 -0.16368841171E+04  0.16368841171E+04  0.25500000920E-02 0. -1.
    10030    2    1    2    0    0  0.00000000000E+00  0.00000000000E+00 -0.99890397380E+03  0.22748642604E+04  0.20438195258E+04 0.  0.
        2    1    3    3  502    0 -0.59065002808E+03  0.61166535289E+03  0.13145696150E+03  0.86039693882E+03  0.25500000920E-02 0.  1.
       -2    1    3    3    0  502  0.59065002808E+03 -0.61166535289E+03 -0.11303609353E+04  0.14144673215E+04  0.25500000920E-02 0. -1.
</event>
<event>
 5   0  0.4189587E-06  0.3486258E+04  0.7818609E-02  0.8117054E-01
       -2   -1    0    0    0  501  0.00000000000E+00  0.00000000000E+00  0.18110065945E+04  0.18110065945E+04  0.25500000920E-02 0.  1.
        2   -1    0    0  501    0  0.00000000000E+00  0.00000000000E+00 -0.16777958034E+04  0.16777958034E+04  0.25500000920E-02 0. -1.
    10030    2    1    2    0    0  0.00000000000E+00  0.00000000000E+00  0.13321079107E+03  0.34888023979E+04  0.34862583175E+04 0.  0.
        1    1    3    3  502    0  0.65769330806E+03 -0.15464024219E+04  0.53016943160E+03  0.17621011787E+04  0.50400001928E-02 0.  1.
       -1    1    3    3    0  502 -0.65769330806E+03  0.15464024219E+04 -0.39695864053E+03  0.17267012191E+04  0.50400001928E-02 0. -1.
</event>
<event>
 5   0  0.4344980E-06  0.2393595E+04  0.7818609E-02  0.8441906E-01
        2   -1    0    0  501    0  0.00000000000E+00  0.00000000000E+00  0.15205678828E+04  0.15205678828E+04  0.25500000920E-02 0. -1.
       -2   -1    0    0    0  501  0.00000000000E+00  0.00000000000E+00 -0.94196637477E+03  0.94196637477E+03  0.25500000920E-02 0.  1.
    10030    2    1    2    0    0  0.00000000000E+00  0.00000000000E+00  0.57860150800E+03  0.24625342575E+04  0.23935946325E+04 0.  0.
        3    1    3    3  502    0 -0.10364583074E+04  0.28386212314E+03 -0.25265444878E+03  0.11039283530E+04  0.10100000352E+00 0.  1.
       -3    1    3    3    0  502  0.10364583074E+04 -0.28386212314E+03  0.83125595677E+03  0.13586059045E+04  0.10100000352E+00 0. -1.
</event>
<event>
 5   0  0.2722449E-06  0.4003655E+04  0.7818609E-02  0.8003810E-01
        2   -1    0    0  501    0  0.00000000000E+00  0.00000000000E+00  0.17729577082E+04  0.17729577083E+04  0.25500000920E-02 0.  1.
       -2   -1    0    0    0  501  0.00000000000E+00  0.00000000000E+00 -0.22602422034E+04  0.22602422034E+04  0.25500000920E-02 0. -1.
    10030    2    1    2    0    0  0.00000000000E+00  0.00000000000E+00 -0.48728449516E+03  0.40331999117E+04  0.40036552484E+04 0.  0.
        2    1    3    3  502    0 -0.46152721113E+03  0.14238812105E+04  0.10954029074E+04  0.18548187507E+04  0.25500000920E-02 0.  1.
       -2    1    3    3    0  502  0.46152721113E+03 -0.14238812105E+04 -0.15826874026E+04  0.21783811610E+04  0.25500000920E-02 0. -1.
</event>
<event>
 5   0  0.4189587E-06  0.3393332E+04  0.7818609E-02  0.8139545E-01
        2   -1    0    0  501    0  0.00000000000E+00  0.00000000000E+00  0.22059263541E+04  0.22059263541E+04  0.25500000920E-02 0. -1.
       -2   -1    0    0    0  501  0.00000000000E+00  0.00000000000E+00 -0.13049733900E+04  0.13049733900E+04  0.25500000920E-02 0.  1.
    10030    2    1    2    0    0  0.00000000000E+00  0.00000000000E+00  0.90095296403E+03  0.35108997441E+04  0.33933318095E+04 0.  0.
        1    1    3    3  502    0 -0.25842870733E+03  0.15701306830E+04 -0.15863038246E+03  0.15991433196E+04  0.50400001928E-02 0.  1.
       -1    1    3    3    0  502  0.25842870733E+03 -0.15701306830E+04  0.10595833465E+04  0.19117564245E+04  0.50400001928E-02 0. -1.
</event>
<event>
 5   0  0.1654257E-06  0.3457604E+04  0.7818609E-02  0.8123911E-01
        1   -1    0    0  501    0  0.00000000000E+00  0.00000000000E+00  0.21084100141E+04  0.21084100141E+04  0.50400001928E-02 0.  1.
       -1   -1    0    0    0  501  0.00000000000E+00  0.00000000000E+00 -0.14175401695E+04  0.14175401695E+04  0.50400001928E-02 0. -1.
    10030    2    1    2    0    0  0.00000000000E+00  0.00000000000E+00  0.69086984455E+03  0.35259501836E+04  0.34576037302E+04 0.  0.
        3    1    3    3  502    0 -0.67109227518E+03  0.13046094244E+04 -0.58718383530E+03  0.15802390512E+04  0.10100000352E+00 0. -1.
       -3    1    3    3    0  502  0.67109227518E+03 -0.13046094244E+04  0.12780536799E+04  0.19457111325E+04  0.10100000352E+00 0.  1.
</event>
<event>
 5   0  0.4189587E-06  0.2158650E+04  0.7818609E-02  0.8535839E-01
       -2   -1    0    0    0  501  0.00000000000E+00  0.00000000000E+00  0.13812097557E+04  0.13812097557E+04  0.25500000920E-02 0.  1.
        2   -1    0    0  501    0  0.00000000000E+00  0.00000000000E+00 -0.84342194865E+03  0.84342194866E+03  0.25500000920E-02 0. -1.
    10030    2    1    2    0    0  0.00000000000E+00  0.00000000000E+00  0.53778780709E+03  0.22246317044E+04  0.21586501557E+04 0.  0.
        1    1    3    3  502    0 -0.10637117421E+04 -0.13420556351E+03  0.39698634926E+03  0.11432812274E+04  0.50400001928E-02 0. -1.
       -1    1    3    3    0  502  0.10637117421E+04  0.13420556351E+03  0.14080145783E+03  0.10813504770E+04  0.50400001928E-02 0.  1.
</event>
<event>
 5   0  0.1571391E-06  0.3473351E+04  0.7818609E-02  0.8120134E-01
       -1   -1    0    0    0  501  0.00000000000E+00  0.00000000000E+00  0.13828251243E+04  0.13828251243E+04  0.50400001928E-02 0. -1.
        1   -1    0    0  501    0  0.00000000000E+00  0.00000000000E+00 -0.21810729604E+04  0.21810729605E+04  0.50400001928E-02 0.  1.
    10030    2    1    2    0    0  0.00000000000E+00  0.00000000000E+00 -0.79824783614E+03  0.35638980848E+04  0.34733514004E+04 0.  0.
        1    1    3    3  502    0  0.77666747344E+03 -0.15278782633E+04 -0.68645645697E+03  0.18463062636E+04  0.50400001928E-02 0.  1.
       -1    1    3    3    0  502 -0.77666747344E+03  0.15278782633E+04 -0.11179137917E+03  0.17175918212E+04  0.50400001928E-02 0. -1.
</event>
<event>
 5   0  0.4173467E-06  0.3376979E+04  0.7818609E-02  0.8143580E-01
        2   -1    0    0  501    0  0.00000000000E+00  0.00000000000E+00  0.18599999823E+04  0.18599999823E+04  0.25500000920E-02 0.  1.
       -2   -1    0    0    0  501  0.00000000000E+00  0.00000000000E+00 -0.15327944007E+04  0.15327944007E+04  0.25500000920E-02 0. -1.
    10030    2    1    2    0    0  0.00000000000E+00  0.00000000000E+00  0.32720558158E+03  0.33927943830E+04  0.33769794540E+04 0.  0.
        4    1    3    3  502    0  0.13793807547E+04 -0.43780602130E+03  0.10375215526E+04  0.17806790737E+04  0.12699999809E+01 0.  1.
       -4    1    3    3    0  502 -0.13793807547E+04  0.43780602130E+03 -0.71031597098E+03  0.16121153092E+04  0.12699999809E+01 0. -1.
</event>
<event>
 5   0  0.4173467E-06  0.1954381E+04  0.7818609E-02  0.8628251E-01
       -2   -1    0    0    0  501  0.00000000000E+00  0.00000000000E+00  0.83010741033E+03  0.83010741033E+03  0.25500000920E-02 0.  1.
        2   -1    0    0  501    0  0.00000000000E+00  0.00000000000E+00 -0.11503344048E+04  0.11503344048E+04  0.25500000920E-02 0. -1.
    10030    2    1    2    0    0  0.00000000000E+00  0.00000000000E+00 -0.32022699443E+03  0.19804418151E+04  0.19543808367E+04 0.  0.
        4    1    3    3  502    0  0.76122422006E+03 -0.61186822791E+03 -0.19301894519E+03  0.99554154490E+03  0.12699999809E+01 0.  1.
       -4    1    3    3    0  502 -0.76122422006E+03  0.61186822791E+03 -0.12720804924E+03  0.98490027019E+03  0.12699999809E+01 0. -1.
</event>
<event>
 5   0  0.1401125E-06  0.2227394E+04  0.7818609E-02  0.8507112E-01
       -3   -1    0    0    0  501  0.00000000000E+00  0.00000000000E+00  0.74530702358E+03  0.74530703042E+03  0.10100000352E+00 0.  1.
        3   -1    0    0  501    0  0.00000000000E+00  0.00000000000E+00 -0.16641751279E+04  0.16641751310E+04  0.10100000352E+00 0. -1.
    10030    2    1    2    0    0  0.00000000000E+00  0.00000000000E+00 -0.91886810435E+03  0.24094821614E+04  0.22273943730E+04 0.  0.
        4    1    3    3  502    0 -0.95001977379E+03  0.58118133709E+03 -0.45592992468E+03  0.12034047641E+04  0.12699999809E+01 0.  1.
       -4    1    3    3    0  502  0.95001977379E+03 -0.58118133709E+03 -0.46293817967E+03  0.12060773973E+04  0.12699999809E+01 0. -1.
</event>
<event>
 5   0  0.2722449E-06  0.2751369E+04  0.7818609E-02  0.8318527E-01
        2   -1    0    0  501    0  0.00000000000E+00  0.00000000000E+00  0.13279047660E+04  0.13279047660E+04  0.25500000920E-02 0.  1.
       -2   -1    0    0    0  501  0.00000000000E+00  0.00000000000E+00 -0.14251832653E+04  0.14251832653E+04  0.25500000920E-02 0. -1.
    10030    2    1    2    0    0  0.00000000000E+00  0.00000000000E+00 -0.97278499273E+02  0.27530880313E+04  0.27513688596E+04 0.  0.
        2    1    3    3  502    0 -0.30794962775E+03  0.83580894425E+02  0.12903631427E+04  0.13292312738E+04  0.25500000920E-02 0.  1.
       -2    1    3    3    0  502  0.30794962775E+03 -0.83580894425E+02 -0.13876416420E+04  0.14238567575E+04  0.25500000920E-02 0. -1.
</event>
<event>
 5   0  0.4189587E-06  0.2949967E+04  0.7818609E-02  0.8258164E-01
       -2   -1    0    0    0  501  0.00000000000E+00  0.00000000000E+00  0.14458251612E+04  0.14458251612E+04  0.25500000920E-02 0. -1.
        2   -1    0    0  501    0  0.00000000000E+00  0.00000000000E+00 -0.15047299124E+04  0.15047299124E+04  0.25500000920E-02 0.  1.
    10030    2    1    2    0    0  0.00000000000E+00  0.00000000000E+00 -0.58904751117E+02  0.29505550736E+04  0.29499670291E+04 0.  0.
        1    1    3    3  502    0  0.13054066988E+03  0.63687109672E+02 -0.14975594849E+04  0.15045867623E+04  0.50400001928E-02 0.  1.
       -1    1    3    3    0  502 -0.13054066988E+03 -0.63687109672E+02  0.14386547338E+04  0.14459683113E+04  0.50400001928E-02 0. -1.
</event>
<event>
 5   0  0.1550164E-06  0.3538248E+04  0.7818609E-02  0.8104785E-01
        1   -1    0    0  501    0  0.00000000000E+00  0.00000000000E+00  0.13876334222E+04  0.13876334222E+04  0.50400001928E-02 0. -1.
       -1   -1    0    0    0  501  0.00000000000E+00  0.00000000000E+00 -0.22554951523E+04  0.22554951523E+04  0.50400001928E-02 0.  1.
    10030    2    1    2    0    0  0.00000000000E+00  0.00000000000E+00 -0.86786173012E+03  0.36431285745E+04  0.35382484124E+04 0.  0.
        4    1    3    3  502    0  0.14905063753E+03  0.12671194512E+04  0.82795434550E+03  0.15209595022E+04  0.12699999809E+01 0. -1.
       -4    1    3    3    0  502 -0.14905063753E+03 -0.12671194512E+04 -0.16958160756E+04  0.21221690723E+04  0.12699999809E+01 0.  1.
</event>
<event>
 5   0  0.1401125E-06  0.2523836E+04  0.7818609E-02  0.8394543E-01
       -3   -1    0    0    0  501  0.00000000000E+00  0.00000000000E+00  0.10382927824E+04  0.10382927873E+04  0.10100000352E+00 0. -1.
        3   -1    0    0  501    0  0.00000000000E+00  0.00000000000E+00 -0.15337069251E+04  0.15337069285E+04  0.10100000352E+00 0.  1.
    10030    2    1    2    0    0  0.00000000000E+00  0.00000000000E+00 -0.49541414275E+03  0.25719997158E+04  0.25238358435E+04 0.  0.
        1    1    3    3  502    0 -0.39661978355E+02  0.48404502057E+02  0.10367105689E+04  0.10385975505E+04  0.50400001928E-02 0. -1.
       -1    1    3    3    0  502  0.39661978355E+02 -0.48404502057E+02 -0.15321247116E+04  0.15334021652E+04  0.50400001928E-02 0.  1.
</event>
<event>
 5   0  0.1654257E-06  0.3152407E+04  0.7818609E-02  0.8201501E-01
       -1   -1    0    0    0  501  0.00000000000E+00  0.00000000000E+00  0.10709115374E+04  0.10709115374E+04  0.50400001928E-02 0. -1.
        1   -1    0    0  501    0  0.00000000000E+00  0.00000000000E+00 -0.23199094245E+04  0.23199094245E+04  0.50400001928E-02 0.  1.
    10030    2    1    2    0    0  0.00000000000E+00  0.00000000000E+00 -0.12489978870E+04  0.33908209619E+04  0.31524071872E+04 0.  0.
        3    1    3    3  502    0 -0.75168045392E+03  0.13402292057E+04 -0.24698540922E+03  0.15563545968E+04  0.10100000352E+00 0. -1.
       -3    1    3    3    0  502  0.75168045392E+03 -0.13402292057E+04 -0.10020124778E+04  0.18344663650E+04  0.10100000352E+00 0.  1.
</event>
<event>
 5   0  0.4173467E-06  0.2918572E+04  0.7818609E-02  0.8267373E-01
       -2   -1    0    0    0  501  0.00000000000E+00  0.00000000000E+00  0.10745175574E+04  0.10745175574E+04  0.25500000920E-02 0.  1.
        2   -1    0    0  501    0  0.00000000000E+00  0.00000000000E+00 -0.19818338989E+04  0.19818338989E+04  0.25500000920E-02 0. -1.
    10030    2    1    2    0    0  0.00000000000E+00  0.00000000000E+00 -0.90731634148E+03  0.30563514562E+04  0.29185717878E+04 0.  0.
        4    1    3    3  502    0  0.24544487450E+02  0.11084444654E+04 -0.14472714957E+04  0.18231423312E+04  0.12699999809E+01 0. -1.
       -4    1    3    3    0  502 -0.24544487450E+02 -0.11084444654E+04  0.53995515420E+03  0.12332091251E+04  0.12699999809E+01 0.  1.
</event>
<event>
 5   0  0.4189587E-06  0.2363140E+04  0.7818609E-02  0.8453434E-01
       -2   -1    0    0    0  501  0.00000000000E+00  0.00000000000E+00  0.79186344784E+03  0.79186344785E+03  0.25500000920E-02 0.  1.
        2   -1    0    0  501    0  0.00000000000E+00  0.00000000000E+00 -0.17630664603E+04  0.17630664603E+04  0.25500000920E-02 0. -1.
    10030    2    1    2    0    0  0.00000000000E+00  0.00000000000E+00 -0.97120301243E+03  0.25549299081E+04  0.23631401871E+04 0.  0.
        1    1    3    3  502    0 -0.38306930220E+03 -0.14443915739E+03  0.71273181965E+03  0.82194367644E+03  0.50400001928E-02 0.  1.
       -1    1    3    3    0  502  0.38306930220E+03  0.14443915739E+03 -0.16839348321E+04  0.17329862317E+04  0.50400001928E-02 0. -1.
</event>
<event>
 5   0  0.2722449E-06  0.2585106E+04  0.7818609E-02  0.8373278E-01
       -2   -1    0    0    0  501  0.00000000000E+00  0.00000000000E+00  0.96836496253E+03  0.96836496254E+03  0.25500000920E-02 0.  1.
        2   -1    0    0  501    0  0.00000000000E+00  0.00000000000E+00 -0.17252722088E+04  0.17252722088E+04  0.25500000920E-02 0. -1.
    10030    2    1    2    0    0  0.00000000000E+00  0.00000000000E+00 -0.75690724624E+03  0.26936371713E+04  0.25851059226E+04 0.  0.
        2    1    3    3  502    0  0.38256224750E+03 -0.10354622046E+04 -0.10791107290E+04  0.15437019841E+04  0.25500000920E-02 0. -1.
       -2    1    3    3    0  502 -0.38256224750E+03  0.10354622046E+04  0.32220348273E+03  0.11499351872E+04  0.25500000920E-02 0.  1.
</event>
<event>
 5   0  0.4344980E-06  0.3392319E+04  0.7818609E-02  0.8139794E-01
        2   -1    0    0  501    0  0.00000000000E+00  0.00000000000E+00  0.16353784404E+04  0.16353784404E+04  0.25500000920E-02 0.  1.
       -2   -1    0    0    0  501  0.00000000000E+00  0.00000000000E+00 -0.17591999025E+04  0.17591999025E+04  0.25500000920E-02 0. -1.
    10030    2    1    2    0    0  0.00000000000E+00  0.00000000000E+00 -0.12382146212E+03  0.33945783429E+04  0.33923193204E+04 0.  0.
        3    1    3    3  502    0 -0.48009854774E+03  0.20662565812E+03  0.15527835982E+04  0.16383911899E+04  0.10100000352E+00 0.  1.
       -3    1    3    3    0  502  0.48009854774E+03 -0.20662565812E+03 -0.16766050603E+04  0.17561871530E+04  0.10100000352E+00 0. -1.
</event>
<event>
 5   0  0.2722449E-06  0.3422671E+04  0.7818609E-02  0.8132364E-01
        2   -1    0    0  501    0  0.00000000000E+00  0.00000000000E+00  0.22752325351E+04  0.22752325351E+04  0.25500000920E-02 0. -1.
       -2   -1    0    0    0  501  0.00000000000E+00  0.00000000000E+00 -0.12871955916E+04  0.12871955916E+04  0.25500000920E-02 0.  1.
    10030    2    1    2    0    0  0.00000000000E+00  0.00000000000E+00  0.98803694354E+03  0.35624281267E+04  0.34226710558E+04 0.  0.
        2    1    3    3  502    0  0.39098936263E+03  0.15741445251E+04 -0.74037512776E+02  0.16236641343E+04  0.25500000920E-02 0.  1.
       -2    1    3    3    0  502 -0.39098936263E+03 -0.15741445251E+04  0.10620744563E+04  0.19387639924E+04  0.25500000920E-02 0. -1.
</event>
<event>
 5   0  0.1571391E-06  0.1775159E+04  0.7818609E-02  0.8719622E-01
        1   -1    0    0  501    0  0.00000000000E+00  0.00000000000E+00  0.16664065152E+04  0.16664065152E+04  0.50400001928E-02 0.  1.
       -1   -1    0    0    0  501  0.00000000000E+00  0.00000000000E+00 -0.47275210096E+03  0.47275210098E+03  0.50400001928E-02 0. -1.
    10030    2    1    2    0    0  0.00000000000E+00  0.00000000000E+00  0.11936544142E+04  0.21391586162E+04  0.17751587885E+04 0.  0.
        1    1    3    3  502    0 -0.28721053845E+03  0.23357643384E+03  0.15689310244E+04  0.16120150133E+04  0.50400001928E-02 0.  1.
       -1    1    3    3    0  502  0.28721053845E+03 -0.23357643384E+03 -0.37527661018E+03  0.52714360284E+03  0.50400001928E-02 0. -1.
</event>
<event>
 5   0  0.4173467E-06  0.3422312E+04  0.7818609E-02  0.8132452E-01
       -2   -1    0    0    0  501  0.00000000000E+00  0.00000000000E+00  0.16702454514E+04  0.16702454514E+04  0.25500000920E-02 0.  1.
        2   -1    0    0  501    0  0.00000000000E+00  0.00000000000E+00 -0.17530688667E+04  0.17530688667E+04  0.25500000920E-02 0. -1.
    10030    2    1    2    0    0  0.00000000000E+00  0.00000000000E+00 -0.82823415321E+02  0.34233143181E+04  0.34223122597E+04 0.  0.
        4    1    3    3  502    0 -0.14576986753E+04  0.84504616792E+03 -0.33993708063E+03  0.17188796600E+04  0.12699999809E+01 0. -1.
       -4    1    3    3    0  502  0.14576986753E+04 -0.84504616792E+03  0.25711366530E+03  0.17044346581E+04  0.12699999809E+01 0.  1.
</event>
<event>
 5   0  0.1562618E-06  0.3520468E+04  0.7818609E-02  0.8108956E-01
       -1   -1    0    0    0  501  0.00000000000E+00  0.00000000000E+00  0.23938877361E+04  0.23938877361E+04  0.50400001928E-02 0. -1.
        1   -1    0    0  501    0  0.00000000000E+00  0.00000000000E+00 -0.12943060282E+04  0.12943060282E+04  0.50400001928E-02 0.  1.
    10030    2    1    2    0    0  0.00000000000E+00  0.00000000000E+00  0.10995817079E+04  0.36881937643E+04  0.35204677688E+04 0.  0.
        2    1    3    3  502    0  0.13712442056E+04 -0.11026073719E+04  0.60078901567E+03  0.18593012476E+04  0.25500000920E-02 0.  1.
       -2    1    3    3    0  502 -0.13712442056E+04  0.11026073719E+04  0.49879269222E+03  0.18288925167E+04  0.25500000920E-02 0. -1.
</event>
<event>
 5   0  0.1562618E-06  0.3393754E+04  0.7818609E-02  0.8139441E-01
        1   -1    0    0  501    0  0.00000000000E+00  0.00000000000E+00  0.15503783442E+04  0.15503783442E+04  0.50400001928E-02 0. -1.
       -1   -1    0    0    0  501  0.00000000000E+00  0.00000000000E+00 -0.18572183168E+04  0.18572183168E+04  0.50400001928E-02 0.  1.
    10030    2    1    2    0    0  0.00000000000E+00  0.00000000000E+00 -0.30683997260E+03  0.34075966610E+04  0.33937537087E+04 0.  0.
        2    1    3    3  502    0  0.12803895365E+04  0.87632888552E+03  0.53643514211E+03  0.16416797320E+04  0.25500000920E-02 0. -1.
       -2    1    3    3    0  502 -0.12803895365E+04 -0.87632888552E+03 -0.84327511471E+03  0.17659169290E+04  0.25500000920E-02 0.  1.
</event>
<event>
 5   0  0.4344980E-06  0.3282236E+04  0.7818609E-02  0.8167430E-01
       -2   -1    0    0    0  501  0.00000000000E+00  0.00000000000E+00  0.14501356173E+04  0.14501356174E+04  0.25500000920E-02 0.  1.
        2   -1    0    0  501    0  0.00000000000E+00  0.00000000000E+00 -0.18572526015E+04  0.18572526015E+04  0.25500000920E-02 0. -1.
    10030    2    1    2    0    0  0.00000000000E+00  0.00000000000E+00 -0.40711698417E+03  0.33073882189E+04  0.32822359135E+04 0.  0.
        3    1    3    3  502    0  0.15035050852E+04 -0.34264219103E+03  0.36229343125E+03  0.15840415881E+04  0.10100000352E+00 0.  1.
       -3    1    3    3    0  502 -0.15035050852E+04  0.34264219103E+03 -0.76941041542E+03  0.17233466308E+04  0.10100000352E+00 0. -1.
</event>
<event>
 5   0  0.4344980E-06  0.1694988E+04  0.7818609E-02  0.8764228E-01
       -2   -1    0    0    0  501  0.00000000000E+00  0.00000000000E+00  0.49275569764E+03  0.49275569764E+03  0.25500000920E-02 0. -1.
        2   -1    0    0  501    0  0.00000000000E+00  0.00000000000E+00 -0.14576102883E+04  0.14576102883E+04  0.25500000920E-02 0.  1.
    10030    2    1    2    0    0  0.00000000000E+00  0.00000000000E+00 -0.96485459071E+03  0.19503659860E+04  0.16949876395E+04 0.  0.
        3    1    3    3  502    0 -0.61081940007E+03  0.46475266738E+03 -0.89594816072E+03  0.11797535752E+04  0.10100000352E+00 0.  1.
       -3    1    3    3    0  502  0.61081940007E+03 -0.46475266738E+03 -0.68906429985E+02  0.77061241077E+03  0.10100000352E+00 0. -1.
</event>
<event>
 5   0  0.1401125E-06  0.3402336E+04  0.7818609E-02  0.8137333E-01
        3   -1    0    0  501    0  0.00000000000E+00  0.00000000000E+00  0.27137277512E+04  0.27137277531E+04  0.10100000352E+00 0.  1.
       -3   -1    0    0    0  501  0.00000000000E+00  0.00000000000E+00 -0.10664195175E+04  0.10664195223E+04  0.10100000352E+00 0. -1.
    10030    2    1    2    0    0  0.00000000000E+00  0.00000000000E+00  0.16473082337E+04  0.37801472754E+04  0.34023358163E+04 0.  0.
        4    1    3    3  502    0  0.14981136111E+04  0.31500885549E+00 -0.71841144351E+02  0.14998357423E+04  0.12699999809E+01 0. -1.
       -4    1    3    3    0  502 -0.14981136111E+04 -0.31500885549E+00  0.17191493781E+04  0.22803115331E+04  0.12699999809E+01 0.  1.
</event>
<event>
 5   0  0.4344980E-06  0.3515113E+04  0.7818609E-02  0.8110218E-01
       -2   -1    0    0    0  501  0.00000000000E+00  0.00000000000E+00  0.15424926617E+04  0.15424926617E+04  0.25500000920E-02 0.  1.
        2   -1    0    0  501    0  0.00000000000E+00  0.00000000000E+00 -0.20026052966E+04  0.20026052966E+04  0.25500000920E-02 0. -1.
    10030    2    1    2    0    0  0.00000000000E+00  0.00000000000E+00 -0.46011263492E+03  0.35450979583E+04  0.35151125013E+04 0.  0.
        3    1    3    3  502    0  0.25041973720E+03  0.97006493038E+03  0.12263077163E+04  0.15835298037E+04  0.10100000352E+00 0.  1.
       -3    1    3    3    0  502 -0.25041973720E+03 -0.97006493038E+03 -0.16864203512E+04  0.19615681546E+04  0.10100000352E+00 0. -1.
</event>
<event>
 5   0  0.4189587E-06  0.2135328E+04  0.7818609E-02  0.8545839E-01
       -2   -1    0    0    0  501  0.00000000000E+00  0.00000000000E+00  0.81583754536E+03  0.81583754536E+03  0.25500000920E-02 0.  1.
        2   -1    0    0  501    0  0.00000000000E+00  0.00000000000E+00 -0.13972216862E+04  0.13972216862E+04  0.25500000920E-02 0. -1.
    10030    2    1    2    0    0  0.00000000000E+00  0.00000000000E+00 -0.58138414085E+03  0.22130592316E+04  0.21353275260E+04 0.  0.
        1    1    3    3  502    0 -0.15780217957E+03  0.49711819362E+02 -0.13838552956E+04  0.13937102540E+04  0.50400001928E-02 0. -1.
       -1    1    3    3    0  502  0.15780217957E+03 -0.49711819362E+02  0.80247115475E+03  0.81934897760E+03  0.50400001928E-02 0.  1.
</event>
<event>
 5   0  0.1550164E-06  0.3318871E+04  0.7818609E-02  0.8158110E-01
       -1   -1    0    0    0  501  0.00000000000E+00  0.00000000000E+00  0.94132274364E+03  0.94132274365E+03  0.50400001928E-02 0. -1.
        1   -1    0    0  501    0  0.00000000000E+00  0.00000000000E+00 -0.29253798422E+04  0.29253798422E+04  0.50400001928E-02 0.  1.
    10030    2    1    2    0    0  0.00000000000E+00  0.00000000000E+00 -0.19840570986E+04  0.38667025859E+04  0.33188712414E+04 0.  0.
        4    1    3    3  502    0 -0.12836032888E+04 -0.33779834439E+03  0.16835560176E+03  0.13379425795E+04  0.12699999809E+01 0. -1.
       -4    1    3    3    0  502  0.12836032888E+04  0.33779834439E+03 -0.21524127004E+04  0.25287600064E+04  0.12699999809E+01 0.  1.
</event>
<event>
 5   0  0.2101998E-06  0.3408244E+04  0.7818609E-02  0.8135886E-01
        1   -1    0    0  501    0  0.00000000000E+00  0.00000000000E+00  0.23869493475E+04  0.23869493475E+04  0.50400001928E-02 0.  1.
       -1   -1    0    0    0  501  0.00000000000E+00  0.00000000000E+00 -0.12166292470E+04  0.12166292470E+04  0.50400001928E-02 0. -1.
    10030    2    1    2    0    0  0.00000000000E+00  0.00000000000E+00  0.11703201005E+04  0.36035785946E+04  0.34082443500E+04 0.  0.
        5    1    3    3  502    0  0.82086952931E+03  0.14832929904E+04  0.40195062790E+03  0.17422890910E+04  0.46999998093E+01 0. -1.
       -5    1    3    3    0  502 -0.82086952931E+03 -0.14832929904E+04  0.76836947260E+03  0.18612895035E+04  0.46999998093E+01 0.  1.
</event>
<event>
 5   0  0.4344980E-06  0.3424114E+04  0.7818609E-02  0.8132013E-01
        2   -1    0    0  501    0  0.00000000000E+00  0.00000000000E+00  0.20660767640E+04  0.20660767640E+04  0.25500000920E-02 0. -1.
       -2   -1    0    0    0  501  0.00000000000E+00  0.00000000000E+00 -0.14186978768E+04  0.14186978768E+04  0.25500000920E-02 0.  1.
    10030    2    1    2    0    0  0.00000000000E+00  0.00000000000E+00  0.64737888713E+03  0.34847746408E+04  0.34241137355E+04 0.  0.
        3    1    3    3  502    0  0.17609679118E+03 -0.38867227711E+03  0.20110924629E+04  0.20558621362E+04  0.10100000352E+00 0. -1.
       -3    1    3    3    0  502 -0.17609679118E+03  0.38867227711E+03 -0.13637135757E+04  0.14289125046E+04  0.10100000352E+00 0.  1.
</event>
<event>
 5   0  0.2722449E-06  0.3443660E+04  0.7818609E-02  0.8127273E-01
        2   -1    0    0  501    0  0.00000000000E+00  0.00000000000E+00  0.24383787610E+04  0.24383787610E+04  0.25500000920E-02 0. -1.
       -2   -1    0    0    0  501  0.00000000000E+00  0.00000000000E+00 -0.12158479999E+04  0.12158479999E+04  0.25500000920E-02 0.  1.
    10030    2    1    2    0    0  0.00000000000E+00  0.00000000000E+00  0.12225307611E+04  0.36542267609E+04  0.34436596460E+04 0.  0.
        2    1    3    3  502    0 -0.13075323982E+04  0.78553128105E+03  0.14588533541E+04  0.21106760705E+04  0.25500000920E-02 0. -1.
       -2    1    3    3    0  502  0.13075323982E+04 -0.78553128105E+03 -0.23632259298E+03  0.15435506904E+04  0.25500000920E-02 0.  1.
</event>
<event>
 5   0  0.4189587E-06  0.2379523E+04  0.7818609E-02  0.8447210E-01
       -2   -1    0    0    0  501  0.00000000000E+00  0.00000000000E+00  0.92593622625E+03  0.92593622626E+03  0.25500000920E-02 0. -1.
        2   -1    0    0  501    0  0.00000000000E+00  0.00000000000E+00 -0.15287576037E+04  0.15287576037E+04  0.25500000920E-02 0.  1.
    10030    2    1    2    0    0  0.00000000000E+00  0.00000000000E+00 -0.60282137749E+03  0.24546938300E+04  0.23795226803E+04 0.  0.
        1    1    3    3  502    0 -0.75333265855E+03  0.72239889492E+03  0.28773678858E+03  0.10826646375E+04  0.50400001928E-02 0. -1.
       -1    1    3    3    0  502  0.75333265855E+03 -0.72239889492E+03 -0.89055816608E+03  0.13720291925E+04  0.50400001928E-02 0.  1.
</event>
<event>
 5   0  0.1550164E-06  0.3552367E+04  0.7818609E-02  0.8101491E-01
        1   -1    0    0  501    0  0.00000000000E+00  0.00000000000E+00  0.19839959836E+04  0.19839959836E+04  0.50400001928E-02 0. -1.
       -1   -1    0    0    0  501  0.00000000000E+00  0.00000000000E+00 -0.15901384274E+04  0.15901384274E+04  0.50400001928E-02 0.  1.
    10030    2    1    2    0    0  0.00000000000E+00  0.00000000000E+00  0.39385755617E+03  0.35741344110E+04  0.35523672408E+04 0.  0.
        4    1    3    3  502    0 -0.87868727743E+02 -0.10563788782E+04  0.16308526542E+04  0.19450807799E+04  0.12699999809E+01 0. -1.
       -4    1    3    3    0  502  0.87868727743E+02  0.10563788782E+04 -0.12369950980E+04  0.16290536311E+04  0.12699999809E+01 0.  1.
</event>
<event>
 5   0  0.4344980E-06  0.2717259E+04  0.7818609E-02  0.8329427E-01
       -2   -1    0    0    0  501  0.00000000000E+00  0.00000000000E+00  0.12220878510E+04  0.12220878510E+04  0.25500000920E-02 0. -1.
        2   -1    0    0  501    0  0.00000000000E+00  0.00000000000E+00 -0.15104269732E+04  0.15104269733E+04  0.25500000920E-02 0.  1.
    10030    2    1    2    0    0  0.00000000000E+00  0.00000000000E+00 -0.28833912226E+03  0.27325148242E+04  0.27172592470E+04 0.  0.
        3    1    3    3  502    0 -0.10707395331E+04 -0.14278476434E+03  0.68447361057E+03  0.12788177237E+04  0.10100000352E+00 0. -1.
       -3    1    3    3    0  502  0.10707395331E+04  0.14278476434E+03 -0.97281273284E+03  0.14536971005E+04  0.10100000352E+00 0.  1.
</event>
<event>
 5   0  0.4400349E-06  0.2381613E+04  0.7818609E-02  0.8446420E-01
       -2   -1    0    0    0  501  0.00000000000E+00  0.00000000000E+00  0.10571730865E+04  0.10571730865E+04  0.25500000920E-02 0. -1.
        2   -1    0    0  501    0  0.00000000000E+00  0.00000000000E+00 -0.13413319763E+04  0.13413319763E+04  0.25500000920E-02 0.  1.
    10030    2    1    2    0    0  0.00000000000E+00  0.00000000000E+00 -0.28415888981E+03  0.23985050628E+04  0.23816129537E+04 0.  0.
        5    1    3    3  502    0  0.11969981833E+02 -0.28422666136E+03 -0.13065982652E+04  0.13372169578E+04  0.46999998093E+01 0.  1.
       -5    1    3    3    0  502 -0.11969981833E+02  0.28422666136E+03  0.10224393754E+04  0.10612881050E+04  0.46999998093E+01 0. -1.
</event>
<event>
 5   0  0.1550164E-06  0.3320752E+04  0.7818609E-02  0.8157635E-01
       -1   -1    0    0    0  501  0.00000000000E+00  0.00000000000E+00  0.14915826190E+04  0.14915826190E+04  0.50400001928E-02 0. -1.
        1   -1    0    0  501    0  0.00000000000E+00  0.00000000000E+00 -0.18482709503E+04  0.18482709503E+04  0.50400001928E-02 0.  1.
    10030    2    1    2    0    0  0.00000000000E+00  0.00000000000E+00 -0.35668833125E+03  0.33398535693E+04  0.33207522188E+04 0.  0.
        4    1    3    3  502    0 -0.11524756880E+04 -0.67732339435E+03 -0.11688338596E+04  0.17757087025E+04  0.12699999809E+01 0.  1.
       -4    1    3    3    0  502  0.11524756880E+04  0.67732339435E+03  0.81214552834E+03  0.15641448667E+04  0.12699999809E+01 0. -1.
</event>
<event>
 5   0  0.4400349E-06  0.3446105E+04  0.7818609E-02  0.8126682E-01
        2   -1    0    0  501    0  0.00000000000E+00  0.00000000000E+00  0.23445379309E+04  0.23445379309E+04  0.25500000920E-02 0.  1.
       -2   -1    0    0    0  501  0.00000000000E+00  0.00000000000E+00 -0.12663095230E+04  0.12663095230E+04  0.25500000920E-02 0. -1.
    10030    2    1    2    0    0  0.00000000000E+00  0.00000000000E+00  0.10782284079E+04  0.36108474539E+04  0.34461054592E+04 0.  0.
        5    1    3    3  502    0  0.97944019027E+03 -0.49724454808E+03  0.19301061411E+04  0.22207852289E+04  0.46999998093E+01 0.  1.
       -5    1    3    3    0  502 -0.97944019027E+03  0.49724454808E+03 -0.85187773325E+03  0.13900622250E+04  0.46999998093E+01 0. -1.
</event>
<event>
 5   0  0.4173467E-06  0.3400385E+04  0.7818609E-02  0.8137812E-01
       -2   -1    0    0    0  501  0.00000000000E+00  0.00000000000E+00  0.11673340400E+04  0.11673340400E+04  0.25500000920E-02 0.  1.
        2   -1    0    0  501    0  0.00000000000E+00  0.00000000000E+00 -0.24762868878E+04  0.24762868878E+04  0.25500000920E-02 0. -1.
    10030    2    1    2    0    0  0.00000000000E+00  0.00000000000E+00 -0.13089528478E+04  0.36436209278E+04  0.34003846705E+04 0.  0.
        4    1    3    3  502    0  0.63500116416E+03 -0.59798923219E+03 -0.22182652080E+04  0.23835938719E+04  0.12699999809E+01 0. -1.
       -4    1    3    3    0  502 -0.63500116416E+03  0.59798923219E+03  0.90931236018E+03  0.12600270559E+04  0.12699999809E+01 0.  1.
</event>
<event>
 5   0  0.2722449E-06  0.3507140E+04  0.7818609E-02  0.8112100E-01
       -2   -1    0    0    0  501  0.00000000000E+00  0.00000000000E+00  0.13725469303E+04  0.13725469303E+04  0.25500000920E-02 0. -1.
        2   -1    0    0  501    0  0.00000000000E+00  0.00000000000E+00 -0.22403662425E+04  0.22403662425E+04  0.25500000920E-02 0.  1.
    10030    2    1    2    0    0  0.00000000000E+00  0.00000000000E+00 -0.86781931229E+03  0.36129131728E+04  0.35071400365E+04 0.  0.
        2    1    3    3  502    0 -0.11172674811E+04 -0.83868155745E+03  0.65793022204E+03  0.15441973826E+04  0.25500000920E-02 0. -1.
       -2    1    3    3    0  502  0.11172674811E+04  0.83868155745E+03 -0.15257495343E+04  0.20687157902E+04  0.25500000920E-02 0.  1.
</event>
<event>
 5   0  0.2722449E-06  0.3337037E+04  0.7818609E-02  0.8153535E-01
       -2   -1    0    0    0  501  0.00000000000E+00  0.00000000000E+00  0.14825579469E+04  0.14825579469E+04  0.25500000920E-02 0. -1.
        2   -1    0    0  501    0  0.00000000000E+00  0.00000000000E+00 -0.18778040376E+04  0.18778040376E+04  0.25500000920E-02 0.  1.
    10030    2    1    2    0    0  0.00000000000E+00  0.00000000000E+00 -0.39524609068E+03  0.33603619844E+04  0.33370365887E+04 0.  0.
        2    1    3    3  502    0  0.32253774239E+03 -0.13679139696E+04  0.70795933799E+03  0.15736663077E+04  0.25500000920E-02 0. -1.
       -2    1    3    3    0  502 -0.32253774239E+03  0.13679139696E+04 -0.11032054287E+04  0.17866956768E+04  0.25500000920E-02 0.  1.
</event>
<event>
 5   0  0.4189587E-06  0.2643345E+04  0.7818609E-02  0.8353625E-01
        2   -1    0    0  501    0  0.00000000000E+00  0.00000000000E+00  0.14028248922E+04  0.14028248922E+04  0.25500000920E-02 0. -1.
       -2   -1    0    0    0  501  0.00000000000E+00  0.00000000000E+00 -0.12452149107E+04  0.12452149107E+04  0.25500000920E-02 0.  1.
    10030    2    1    2    0    0  0.00000000000E+00  0.00000000000E+00  0.15760998153E+03  0.26480398030E+04  0.26433452086E+04 0.  0.
        1    1    3    3  502    0  0.86865589077E+03 -0.66989728367E+03  0.81733410510E+03  0.13679767785E+04  0.50400001928E-02 0. -1.
       -1    1    3    3    0  502 -0.86865589077E+03  0.66989728367E+03 -0.65972412357E+03  0.12800630244E+04  0.50400001928E-02 0.  1.
</event>
<event>
 5   0  0.4173467E-06  0.1994165E+04  0.7818609E-02  0.8609354E-01
        2   -1    0    0  501    0  0.00000000000E+00  0.00000000000E+00  0.44778515399E+03  0.44778515400E+03  0.25500000920E-02 0.  1.
       -2   -1    0    0    0  501  0.00000000000E+00  0.00000000000E+00 -0.22202022581E+04  0.22202022581E+04  0.25500000920E-02 0. -1.
    10030    2    1    2    0    0  0.00000000000E+00  0.00000000000E+00 -0.17724171041E+04  0.26679874121E+04  0.19941650985E+04 0.  0.
        4    1    3    3  502    0  0.77983682691E+03 -0.26355155699E+03 -0.13345025306E+03  0.83391575279E+03  0.12699999809E+01 0.  1.
       -4    1    3    3    0  502 -0.77983682691E+03  0.26355155699E+03 -0.16389668511E+04  0.18340716594E+04  0.12699999809E+01 0. -1.
</event>
<event>
 5   0  0.4344980E-06  0.1948771E+04  0.7818609E-02  0.8630954E-01
       -2   -1    0    0    0  501  0.00000000000E+00  0.00000000000E+00  0.78162362924E+03  0.78162362924E+03  0.25500000920E-02 0.  1.
        2   -1    0    0  501    0  0.00000000000E+00  0.00000000000E+00 -0.12146860736E+04  0.12146860736E+04  0.25500000920E-02 0. -1.
    10030    2    1    2    0    0  0.00000000000E+00  0.00000000000E+00 -0.43306244439E+03  0.19963097029E+04  0.19487712408E+04 0.  0.
        3    1    3    3  502    0 -0.22657301125E+03  0.22011002075E+03 -0.11607778553E+04  0.12029916833E+04  0.10100000352E+00 0. -1.
       -3    1    3    3    0  502  0.22657301125E+03 -0.22011002075E+03  0.72771541089E+03  0.79331801953E+03  0.10100000352E+00 0.  1.
</event>
<event>
 5   0  0.1571391E-06  0.1752280E+04  0.7818609E-02  0.8732096E-01
        1   -1    0    0  501    0  0.00000000000E+00  0.00000000000E+00  0.75840010925E+03  0.75840010926E+03  0.50400001928E-02 0.  1.
       -1   -1    0    0    0  501  0.00000000000E+00  0.00000000000E+00 -0.10121587328E+04  0.10121587328E+04  0.50400001928E-02 0. -1.
    10030    2    1    2    0    0  0.00000000000E+00  0.00000000000E+00 -0.25375862354E+03  0.17705588421E+04  0.17522799931E+04 0.  0.
        1    1    3    3  502    0  0.51749193175E+03  0.95867060644E+02 -0.83463797824E+03  0.98671624467E+03  0.50400001928E-02 0. -1.
       -1    1    3    3    0  502 -0.51749193175E+03 -0.95867060644E+02  0.58087935470E+03  0.78384259739E+03  0.50400001928E-02 0.  1.
</event>
<event>
 5   0  0.1571391E-06  0.3402833E+04  0.7818609E-02  0.8137211E-01
       -1   -1    0    0    0  501  0.00000000000E+00  0.00000000000E+00  0.23365399983E+04  0.23365399983E+04  0.50400001928E-02 0. -1.
        1   -1    0    0  501    0  0.00000000000E+00  0.00000000000E+00 -0.12389339793E+04  0.12389339793E+04  0.50400001928E-02 0.  1.
    10030    2    1    2    0    0  0.00000000000E+00  0.00000000000E+00  0.10976060190E+04  0.35754739777E+04  0.34028334064E+04 0.  0.
        1    1    3    3  502    0  0.14334408288E+04 -0.11677009244E+03 -0.40640117481E+03  0.14945065336E+04  0.50400001928E-02 0.  1.
       -1    1    3    3    0  502 -0.14334408288E+04  0.11677009244E+03  0.15040071938E+04  0.20809674441E+04  0.50400001928E-02 0. -1.
</event>
<event>
 5   0  0.1550164E-06  0.1897772E+04  0.7818609E-02  0.8655966E-01
        1   -1    0    0  501    0  0.00000000000E+00  0.00000000000E+00  0.16888041956E+04  0.16888041956E+04  0.50400001928E-02 0. -1.
       -1   -1    0    0    0  501  0.00000000000E+00  0.00000000000E+00 -0.53314936974E+03  0.53314936976E+03  0.50400001928E-02 0.  1.
    10030    2    1    2    0    0  0.00000000000E+00  0.00000000000E+00  0.11556548258E+04  0.22219535653E+04  0.18977722651E+04 0.  0.
        4    1    3    3  502    0 -0.25320320605E+03 -0.86124889131E+03  0.93778952443E+03  0.12981957947E+04  0.12699999809E+01 0. -1.
       -4    1    3    3    0  502  0.25320320605E+03  0.86124889131E+03  0.21786530140E+03  0.92375777063E+03  0.12699999809E+01 0.  1.
</event>
<event>
 5   0  0.1571391E-06  0.1831768E+04  0.7818609E-02  0.8689586E-01
        1   -1    0    0  501    0  0.00000000000E+00  0.00000000000E+00  0.11198085133E+04  0.11198085133E+04  0.50400001928E-02 0.  1.
       -1   -1    0    0    0  501  0.00000000000E+00  0.00000000000E+00 -0.74909536151E+03  0.74909536153E+03  0.50400001928E-02 0. -1.
    10030    2    1    2    0    0  0.00000000000E+00  0.00000000000E+00  0.37071315176E+03  0.18689038748E+04  0.18317678489E+04 0.  0.
        1    1    3    3  502    0  0.60555797722E+03  0.99788850732E+02 -0.50826803696E+03  0.79686553190E+03  0.50400001928E-02 0. -1.
       -1    1    3    3    0  502 -0.60555797722E+03 -0.99788850732E+02  0.87898118872E+03  0.10720383429E+04  0.50400001928E-02 0.  1.
</event>
<event>
 5   0  0.4173467E-06  0.3561655E+04  0.7818609E-02  0.8099332E-01
       -2   -1    0    0    0  501  0.00000000000E+00  0.00000000000E+00  0.18941164409E+04  0.18941164409E+04  0.25500000920E-02 0.  1.
        2   -1    0    0  501    0  0.00000000000E+00  0.00000000000E+00 -0.16743143328E+04  0.16743143328E+04  0.25500000920E-02 0. -1.
    10030    2    1    2    0    0  0.00000000000E+00  0.00000000000E+00  0.21980210814E+03  0.35684307737E+04  0.35616548429E+04 0.  0.
        4    1    3    3  502    0 -0.34625550590E+03  0.15594847209E+04  0.89845572277E+03  0.18327874314E+04  0.12699999809E+01 0.  1.
       -4    1    3    3    0  502  0.34625550590E+03 -0.15594847209E+04 -0.67865361463E+03  0.17356433423E+04  0.12699999809E+01 0. -1.
</event>
<event>
 5   0  0.2722449E-06  0.2339191E+04  0.7818609E-02  0.8462627E-01
        2   -1    0    0  501    0  0.00000000000E+00  0.00000000000E+00  0.23740303892E+04  0.23740303892E+04  0.25500000920E-02 0. -1.
       -2   -1    0    0    0  501  0.00000000000E+00  0.00000000000E+00 -0.57621548916E+03  0.57621548917E+03  0.25500000920E-02 0.  1.
    10030    2    1    2    0    0  0.00000000000E+00  0.00000000000E+00  0.17978149000E+04  0.29502458783E+04  0.23391905284E+04 0.  0.
        2    1    3    3  502    0  0.73587953492E+03  0.41946166288E+03  0.19161199643E+04  0.20949898554E+04  0.25500000920E-02 0. -1.
       -2    1    3    3    0  502 -0.73587953492E+03 -0.41946166288E+03 -0.11830506431E+03  0.85525602295E+03  0.25500000920E-02 0.  1.
</event>
<event>
 5   0  0.2722449E-06  0.3391260E+04  0.7818609E-02  0.8140055E-01
        2   -1    0    0  501    0  0.00000000000E+00  0.00000000000E+00  0.23524637546E+04  0.23524637546E+04  0.25500000920E-02 0. -1.
       -2   -1    0    0    0  501  0.00000000000E+00  0.00000000000E+00 -0.12221912674E+04  0.12221912674E+04  0.25500000920E-02 0.  1.
    10030    2    1    2    0    0  0.00000000000E+00  0.00000000000E+00  0.11302724872E+04  0.35746550220E+04  0.33912597410E+04 0.  0.
        2    1    3    3  502    0 -0.52330063001E+03  0.15782026707E+03 -0.11267866186E+04  0.12523573251E+04  0.25500000920E-02 0.  1.
       -2    1    3    3    0  502  0.52330063001E+03 -0.15782026707E+03  0.22570591057E+04  0.23222976968E+04  0.25500000920E-02 0. -1.
</event>
<event>
 5   0  0.2101998E-06  0.3376297E+04  0.7818609E-02  0.8143749E-01
        1   -1    0    0  501    0  0.00000000000E+00  0.00000000000E+00  0.11785209348E+04  0.11785209348E+04  0.50400001928E-02 0. -1.
       -1   -1    0    0    0  501  0.00000000000E+00  0.00000000000E+00 -0.24181535750E+04  0.24181535750E+04  0.50400001928E-02 0.  1.
    10030    2    1    2    0    0  0.00000000000E+00  0.00000000000E+00 -0.12396326402E+04  0.35966745098E+04  0.33762965579E+04 0.  0.
        5    1    3    3  502    0  0.16785812660E+03  0.10886778336E+02  0.11695642045E+04  0.11816079685E+04  0.46999998093E+01 0. -1.
       -5    1    3    3    0  502 -0.16785812660E+03 -0.10886778336E+02 -0.24091968447E+04  0.24150665414E+04  0.46999998093E+01 0.  1.
</event>
<event>
 5   0  0.1654257E-06  0.3248727E+04  0.7818609E-02  0.8176066E-01
        1   -1    0    0  501    0  0.00000000000E+00  0.00000000000E+00  0.17932231466E+04  0.17932231466E+04  0.50400001928E-02 0. -1.
       -1   -1    0    0    0  501  0.00000000000E+00  0.00000000000E+00 -0.14714048303E+04  0.14714048303E+04  0.50400001928E-02 0.  1.
    10030    2    1    2    0    0  0.00000000000E+00  0.00000000000E+00  0.32181831636E+03  0.32646279769E+04  0.32487272583E+04 0.  0.
        3    1    3    3  502    0  0.44772718641E+03  0.10129884655E+04 -0.10331625283E+04  0.15146055872E+04  0.10100000352E+00 0.  1.
       -3    1    3    3    0  502 -0.44772718641E+03 -0.10129884655E+04  0.13549808447E+04  0.17500223897E+04  0.10100000352E+00 0. -1.
</event>
<event>
 5   0  0.4189587E-06  0.1754919E+04  0.7818609E-02  0.8730647E-01
        2   -1    0    0  501    0  0.00000000000E+00  0.00000000000E+00  0.13205744719E+04  0.13205744719E+04  0.25500000920E-02 0. -1.
       -2   -1    0    0    0  501  0.00000000000E+00  0.00000000000E+00 -0.58303066142E+03  0.58303066143E+03  0.25500000920E-02 0.  1.
    10030    2    1    2    0    0  0.00000000000E+00  0.00000000000E+00  0.73754381045E+03  0.19036051333E+04  0.17549192663E+04 0.  0.
        1    1    3    3  502    0 -0.51196469059E+03 -0.21580012877E+01  0.11417654528E+04  0.12512956687E+04  0.50400001928E-02 0. -1.
       -1    1    3    3    0  502  0.51196469059E+03  0.21580012877E+01 -0.40422164236E+03  0.65230946456E+03  0.50400001928E-02 0.  1.
</event>
<event>
 5   0  0.1550164E-06  0.3356330E+04  0.7818609E-02  0.8148708E-01
        1   -1    0    0  501    0  0.00000000000E+00  0.00000000000E+00  0.19009938825E+04  0.19009938825E+04  0.50400001928E-02 0. -1.
       -1   -1    0    0    0  501  0.00000000000E+00  0.00000000000E+00 -0.14814558031E+04  0.14814558031E+04  0.50400001928E-02 0.  1.
    10030    2    1    2    0    0  0.00000000000E+00  0.00000000000E+00  0.41953807939E+03  0.33824496857E+04  0.33563303884E+04 0.  0.
        4    1    3    3  502    0  0.78364170276E+03  0.83104366724E+03  0.14487710071E+04  0.18449029620E+04  0.12699999809E+01 0. -1.
       -4    1    3    3    0  502 -0.78364170276E+03 -0.83104366724E+03 -0.10292329277E+04  0.15375467237E+04  0.12699999809E+01 0.  1.
</event>
<event>
 5   0  0.1571391E-06  0.1782678E+04  0.7818609E-02  0.8715566E-01
       -1   -1    0    0    0  501  0.00000000000E+00  0.00000000000E+00  0.31843842223E+03  0.31843842227E+03  0.50400001928E-02 0.  1.
        1   -1    0    0  501    0  0.00000000000E+00  0.00000000000E+00 -0.24949415468E+04  0.24949415468E+04  0.50400001928E-02 0. -1.
    10030    2    1    2    0    0  0.00000000000E+00  0.00000000000E+00 -0.21765031246E+04  0.28133799691E+04  0.17826780414E+04 0.  0.
        1    1    3    3  502    0  0.66243853160E+03  0.47964696401E+03 -0.52894622053E+03  0.97399698278E+03  0.50400001928E-02 0.  1.
       -1    1    3    3    0  502 -0.66243853160E+03 -0.47964696401E+03 -0.16475569040E+04  0.18393829863E+04  0.50400001928E-02 0. -1.
</event>
<event>
 5   0  0.1550164E-06  0.3377817E+04  0.7818609E-02  0.8143372E-01
       -1   -1    0    0    0  501  0.00000000000E+00  0.00000000000E+00  0.20717575566E+04  0.20717575566E+04  0.50400001928E-02 0.  1.
        1   -1    0    0  501    0  0.00000000000E+00  0.00000000000E+00 -0.13768077988E+04  0.13768077988E+04  0.50400001928E-02 0. -1.
    10030    2    1    2    0    0  0.00000000000E+00  0.00000000000E+00  0.69494975776E+03  0.34485653554E+04  0.33778170235E+04 0.  0.
        4    1    3    3  502    0  0.28095119081E+03  0.15770726924E+04  0.89376965240E+03  0.18343711874E+04  0.12699999809E+01 0.  1.
       -4    1    3    3    0  502 -0.28095119081E+03 -0.15770726924E+04 -0.19881989463E+03  0.16141941680E+04  0.12699999809E+01 0. -1.
</event>
<event>
 5   0  0.2101998E-06  0.2255281E+04  0.7818609E-02  0.8495765E-01
        1   -1    0    0  501    0  0.00000000000E+00  0.00000000000E+00  0.42132262285E+03  0.42132262288E+03  0.50400001928E-02 0.  1.
       -1   -1    0    0    0  501  0.00000000000E+00  0.00000000000E+00 -0.30180517351E+04  0.30180517351E+04  0.50400001928E-02 0. -1.
    10030    2    1    2    0    0  0.00000000000E+00  0.00000000000E+00 -0.25967291123E+04  0.34393743580E+04  0.22552813332E+04 0.  0.
        5    1    3    3  502    0 -0.79275586800E+03 -0.67353826266E+03 -0.63460671195E+03  0.12185497226E+04  0.46999998093E+01 0.  1.
       -5    1    3    3    0  502  0.79275586800E+03  0.67353826266E+03 -0.19621224003E+04  0.22208246354E+04  0.46999998093E+01 0. -1.
</event>
<event>
 5   0  0.1654257E-06  0.3415698E+04  0.7818609E-02  0.8134064E-01
       -1   -1    0    0    0  501  0.00000000000E+00  0.00000000000E+00  0.17602594215E+04  0.17602594215E+04  0.50400001928E-02 0.  1.
        1   -1    0    0  501    0  0.00000000000E+00  0.00000000000E+00 -0.16569988066E+04  0.16569988066E+04  0.50400001928E-02 0. -1.
    10030    2    1    2    0    0  0.00000000000E+00  0.00000000000E+00  0.10326061485E+03  0.34172582281E+04  0.34156977388E+04 0.  0.
        3    1    3    3  502    0 -0.40268962189E+03  0.22348096951E+03 -0.15937015491E+04  0.16589114844E+04  0.10100000352E+00 0. -1.
       -3    1    3    3    0  502  0.40268962189E+03 -0.22348096951E+03  0.16969621639E+04  0.17583467437E+04  0.10100000352E+00 0.  1.
</event>
<event>
 5   0  0.2722449E-06  0.3386235E+04  0.7818609E-02  0.8141293E-01
        2   -1    0    0  501    0  0.00000000000E+00  0.00000000000E+00  0.18618727988E+04  0.18618727988E+04  0.25500000920E-02 0.  1.
       -2   -1    0    0    0  501  0.00000000000E+00  0.00000000000E+00 -0.15396579654E+04  0.15396579654E+04  0.25500000920E-02 0. -1.
    10030    2    1    2    0    0  0.00000000000E+00  0.00000000000E+00  0.32221483334E+03  0.34015307642E+04  0.33862352459E+04 0.  0.
        2    1    3    3  502    0 -0.13182815565E+04 -0.30473503709E+03 -0.86129031922E+03  0.16039173043E+04  0.25500000920E-02 0. -1.
       -2    1    3    3    0  502  0.13182815565E+04  0.30473503709E+03  0.11835051526E+04  0.17976134599E+04  0.25500000920E-02 0.  1.
</event>
<event>
 5   0  0.4173467E-06  0.3402089E+04  0.7818609E-02  0.8137394E-01
        2   -1    0    0  501    0  0.00000000000E+00  0.00000000000E+00  0.18566016051E+04  0.18566016051E+04  0.25500000920E-02 0.  1.
       -2   -1    0    0    0  501  0.00000000000E+00  0.00000000000E+00 -0.15585213333E+04  0.15585213333E+04  0.25500000920E-02 0. -1.
    10030    2    1    2    0    0  0.00000000000E+00  0.00000000000E+00  0.29808027180E+03  0.34151229384E+04  0.34020894809E+04 0.  0.
        4    1    3    3  502    0  0.85643457825E+03 -0.12764904974E+04  0.88028360689E+03  0.17713861855E+04  0.12699999809E+01 0.  1.
       -4    1    3    3    0  502 -0.85643457825E+03  0.12764904974E+04 -0.58220333509E+03  0.16437367529E+04  0.12699999809E+01 0. -1.
</event>
<event>
 5   0  0.1550164E-06  0.3136705E+04  0.7818609E-02  0.8205736E-01
       -1   -1    0    0    0  501  0.00000000000E+00  0.00000000000E+00  0.15924623330E+04  0.15924623330E+04  0.50400001928E-02 0.  1.
        1   -1    0    0  501    0  0.00000000000E+00  0.00000000000E+00 -0.15446078159E+04  0.15446078159E+04  0.50400001928E-02 0. -1.
    10030    2    1    2    0    0  0.00000000000E+00  0.00000000000E+00  0.47854517141E+02  0.31370701489E+04  0.31367051286E+04 0.  0.
        4    1    3    3  502    0 -0.11420755867E+04 -0.92346190398E+03 -0.52623640161E+03  0.15601425887E+04  0.12699999809E+01 0. -1.
       -4    1    3    3    0  502  0.11420755867E+04  0.92346190398E+03  0.57409091875E+03  0.15769275601E+04  0.12699999809E+01 0.  1.
</event>
<event>
 5   0  0.4344980E-06  0.3407033E+04  0.7818609E-02  0.8136182E-01
       -2   -1    0    0    0  501  0.00000000000E+00  0.00000000000E+00  0.15629823422E+04  0.15629823422E+04  0.25500000920E-02 0. -1.
        2   -1    0    0  501    0  0.00000000000E+00  0.00000000000E+00 -0.18566868738E+04  0.18566868738E+04  0.25500000920E-02 0.  1.
    10030    2    1    2    0    0  0.00000000000E+00  0.00000000000E+00 -0.29370453160E+03  0.34196692161E+04  0.34070331955E+04 0.  0.
        3    1    3    3  502    0 -0.17752760284E+03 -0.53659976141E+03 -0.17598324373E+04  0.18483683538E+04  0.10100000352E+00 0.  1.
       -3    1    3    3    0  502  0.17752760284E+03  0.53659976141E+03  0.14661279057E+04  0.15713008623E+04  0.10100000352E+00 0. -1.
</event>
<event>
 5   0  0.1562618E-06  0.3015569E+04  0.7818609E-02  0.8239299E-01
       -1   -1    0    0    0  501  0.00000000000E+00  0.00000000000E+00  0.16234932589E+04  0.16234932589E+04  0.50400001928E-02 0.  1.
        1   -1    0    0  501    0  0.00000000000E+00  0.00000000000E+00 -0.14003223420E+04  0.14003223420E+04  0.50400001928E-02 0. -1.
    10030    2    1    2    0    0  0.00000000000E+00  0.00000000000E+00  0.22317091694E+03  0.30238156009E+04  0.30155688568E+04 0.  0.
        2    1    3    3  502    0  0.10595929921E+04 -0.44862515303E+03 -0.86545696800E+03  0.14397977637E+04  0.25500000920E-02 0. -1.
       -2    1    3    3    0  502 -0.10595929921E+04  0.44862515303E+03  0.10886278849E+04  0.15840178373E+04  0.25500000920E-02 0.  1.
</event>
<event>
 5   0  0.1550164E-06  0.2090377E+04  0.7818609E-02  0.8565494E-01
       -1   -1    0    0    0  501  0.00000000000E+00  0.00000000000E+00  0.57456832865E+03  0.57456832867E+03  0.50400001928E-02 0. -1.
        1   -1    0    0  501    0  0.00000000000E+00  0.00000000000E+00 -0.19012859604E+04  0.19012859604E+04  0.50400001928E-02 0.  1.
    10030    2    1    2    0    0  0.00000000000E+00  0.00000000000E+00 -0.13267176317E+04  0.24758542890E+04  0.20903767092E+04 0.  0.
        4    1    3    3  502    0 -0.47212653404E+03 -0.93012020850E+03 -0.58488339790E+03  0.11958751057E+04  0.12699999809E+01 0.  1.
       -4    1    3    3    0  502  0.47212653404E+03  0.93012020850E+03 -0.74183423382E+03  0.12799791833E+04  0.12699999809E+01 0. -1.
</event>
<event>
 5   0  0.1571391E-06  0.1986875E+04  0.7818609E-02  0.8612782E-01
        1   -1    0    0  501    0  0.00000000000E+00  0.00000000000E+00  0.16500379831E+04  0.16500379831E+04  0.50400001928E-02 0. -1.
       -1   -1    0    0    0  501  0.00000000000E+00  0.00000000000E+00 -0.59811841285E+03  0.59811841287E+03  0.50400001928E-02 0.  1.
    10030    2    1    2    0    0  0.00000000000E+00  0.00000000000E+00  0.10519195702E+04  0.22481563960E+04  0.19868750334E+04 0.  0.
        1    1    3    3  502    0 -0.70668402094E+03  0.19363694734E+03 -0.23309326456E+03  0.76891484759E+03  0.50400001928E-02 0.  1.
       -1    1    3    3    0  502  0.70668402094E+03 -0.19363694734E+03  0.12850128348E+04  0.14792415484E+04  0.50400001928E-02 0. -1.
</event>
<event>
 5   0  0.1654257E-06  0.3408051E+04  0.7818609E-02  0.8135933E-01
        1   -1    0    0  501    0  0.00000000000E+00  0.00000000000E+00  0.11384179525E+04  0.11384179525E+04  0.50400001928E-02 0. -1.
       -1   -1    0    0    0  501  0.00000000000E+00  0.00000000000E+00 -0.25506476040E+04  0.25506476040E+04  0.50400001928E-02 0.  1.
    10030    2    1    2    0    0  0.00000000000E+00  0.00000000000E+00 -0.14122296516E+04  0.36890655565E+04  0.34080510694E+04 0.  0.
        3    1    3    3  502    0  0.11989710748E+03 -0.11988619269E+04 -0.20104891080E+04  0.23438668264E+04  0.10100000352E+00 0.  1.
       -3    1    3    3    0  502 -0.11989710748E+03  0.11988619269E+04  0.59825945642E+03  0.13451987301E+04  0.10100000352E+00 0. -1.
</event>
<event>
 5   0  0.4344980E-06  0.1686155E+04  0.7818609E-02  0.8769300E-01
        2   -1    0    0  501    0  0.00000000000E+00  0.00000000000E+00  0.19736952487E+04  0.19736952487E+04  0.25500000920E-02 0. -1.
       -2   -1    0    0    0  501  0.00000000000E+00  0.00000000000E+00 -0.36012628537E+03  0.36012628537E+03  0.25500000920E-02 0.  1.
    10030    2    1    2    0    0  0.00000000000E+00  0.00000000000E+00  0.16135689634E+04  0.23338215341E+04  0.16861548427E+04 0.  0.
        3    1    3    3  502    0  0.46763617235E+03  0.37860732225E+03  0.16241735256E+04  0.17320412078E+04  0.10100000352E+00 0.  1.
       -3    1    3    3    0  502 -0.46763617235E+03 -0.37860732225E+03 -0.10604562236E+02  0.60178032628E+03  0.10100000352E+00 0. -1.
</event>
<event>
 5   0  0.4189587E-06  0.1778273E+04  0.7818609E-02  0.8717940E-01
       -2   -1    0    0    0  501  0.00000000000E+00  0.00000000000E+00  0.45637018887E+03  0.45637018888E+03  0.25500000920E-02 0. -1.
        2   -1    0    0  501    0  0.00000000000E+00  0.00000000000E+00 -0.17322855092E+04  0.17322855092E+04  0.25500000920E-02 0.  1.
    10030    2    1    2    0    0  0.00000000000E+00  0.00000000000E+00 -0.12759153203E+04  0.21886556981E+04  0.17782727181E+04 0.  0.
        1    1    3    3  502    0  0.77692197210E+03  0.43027990220E+03 -0.58552428332E+03  0.10637608901E+04  0.50400001928E-02 0. -1.
       -1    1    3    3    0  502 -0.77692197210E+03 -0.43027990220E+03 -0.69039103699E+03  0.11248948080E+04  0.50400001928E-02 0.  1.
</event>
<event>
 5   0  0.1550164E-06  0.3353470E+04  0.7818609E-02  0.8149422E-01
        1   -1    0    0  501    0  0.00000000000E+00  0.00000000000E+00  0.12211109513E+04  0.12211109513E+04  0.50400001928E-02 0.  1.
       -1   -1    0    0    0  501  0.00000000000E+00  0.00000000000E+00 -0.23023621337E+04  0.23023621337E+04  0.50400001928E-02 0. -1.
    10030    2    1    2    0    0  0.00000000000E+00  0.00000000000E+00 -0.10812511824E+04  0.35234730850E+04  0.33534696153E+04 0.  0.
        4    1    3    3  502    0  0.98753036807E+03  0.10411188704E+04 -0.14519440596E+04  0.20413936160E+04  0.12699999809E+01 0.  1.
       -4    1    3    3    0  502 -0.98753036807E+03 -0.10411188704E+04  0.37069287721E+03  0.14820794690E+04  0.12699999809E+01 0. -1.
</event>
<event>
 5   0  0.1654257E-06  0.3346250E+04  0.7818609E-02  0.8151226E-01
        1   -1    0    0  501    0  0.00000000000E+00  0.00000000000E+00  0.19260462338E+04  0.19260462338E+04  0.50400001928E-02 0.  1.
       -1   -1    0    0    0  501  0.00000000000E+00  0.00000000000E+00 -0.14534165110E+04  0.14534165110E+04  0.50400001928E-02 0. -1.
    10030    2    1    2    0    0  0.00000000000E+00  0.00000000000E+00  0.47262972284E+03  0.33794627448E+04  0.33462500786E+04 0.  0.
        3    1    3    3  502    0  0.53781513797E+03  0.13793348641E+04 -0.55086839548E+03  0.15796410318E+04  0.10100000352E+00 0.  1.
       -3    1    3    3    0  502 -0.53781513797E+03 -0.13793348641E+04  0.10234981183E+04  0.17998217130E+04  0.10100000352E+00 0. -1.
</event>
<event>
 5   0  0.4344980E-06  0.3377910E+04  0.7818609E-02  0.8143349E-01
       -2   -1    0    0    0  501  0.00000000000E+00  0.00000000000E+00  0.16505488712E+04  0.16505488712E+04  0.25500000920E-02 0. -1.
        2   -1    0    0  501    0  0.00000000000E+00  0.00000000000E+00 -0.17282548725E+04  0.17282548725E+04  0.25500000920E-02 0.  1.
    10030    2    1    2    0    0  0.00000000000E+00  0.00000000000E+00 -0.77706001370E+02  0.33788037437E+04  0.33779100811E+04 0.  0.
        3    1    3    3  502    0  0.36632671556E+03  0.62626412081E+03  0.14867282313E+04  0.16543164315E+04  0.10100000352E+00 0. -1.
       -3    1    3    3    0  502 -0.36632671556E+03 -0.62626412081E+03 -0.15644342327E+04  0.17244873122E+04  0.10100000352E+00 0.  1.
</event>
<event>
 5   0  0.1654257E-06  0.3347202E+04  0.7818609E-02  0.8150988E-01
       -1   -1    0    0    0  501  0.00000000000E+00  0.00000000000E+00  0.11710841591E+04  0.11710841591E+04  0.50400001928E-02 0. -1.
        1   -1    0    0  501    0  0.00000000000E+00  0.00000000000E+00 -0.23917503400E+04  0.23917503400E+04  0.50400001928E-02 0.  1.
    10030    2    1    2    0    0  0.00000000000E+00  0.00000000000E+00 -0.12206661809E+04  0.35628344991E+04  0.33472023755E+04 0.  0.
        3    1    3    3  502    0  0.59256019545E+03 -0.30078567005E+03  0.10246341863E+04  0.12212595262E+04  0.10100000352E+00 0. -1.
       -3    1    3    3    0  502 -0.59256019545E+03  0.30078567005E+03 -0.22453003672E+04  0.23415749729E+04  0.10100000352E+00 0.  1.
</event>
<event>
 5   0  0.1571391E-06  0.3580691E+04  0.7818609E-02  0.8094929E-01
        1   -1    0    0  501    0  0.00000000000E+00  0.00000000000E+00  0.22247843506E+04  0.22247843506E+04  0.50400001928E-02 0. -1.
       -1   -1    0    0    0  501  0.00000000000E+00  0.00000000000E+00 -0.14407402298E+04  0.14407402298E+04  0.50400001928E-02 0.  1.
    10030    2    1    2    0    0  0.00000000000E+00  0.00000000000E+00  0.78404412081E+03  0.36655245804E+04  0.35806906131E+04 0.  0.
        1    1    3    3  502    0 -0.13674932757E+04  0.97906487673E+03  0.10203475612E+04  0.19671591287E+04  0.50400001928E-02 0. -1.
       -1    1    3    3    0  502  0.13674932757E+04 -0.97906487673E+03 -0.23630344035E+03  0.16983654518E+04  0.50400001928E-02 0.  1.
</event>
<event>
 5   0  0.4173467E-06  0.3526249E+04  0.7818609E-02  0.8107597E-01
       -2   -1    0    0    0  501  0.00000000000E+00  0.00000000000E+00  0.11825529581E+04  0.11825529581E+04  0.25500000920E-02 0. -1.
        2   -1    0    0  501    0  0.00000000000E+00  0.00000000000E+00 -0.26287260957E+04  0.26287260957E+04  0.25500000920E-02 0.  1.
    10030    2    1    2    0    0  0.00000000000E+00  0.00000000000E+00 -0.14461731376E+04  0.38112790539E+04  0.35262488968E+04 0.  0.
        4    1    3    3  502    0 -0.37581216973E+03  0.20828251853E+02 -0.25847963965E+04  0.26120571638E+04  0.12699999809E+01 0.  1.
       -4    1    3    3    0  502  0.37581216973E+03 -0.20828251853E+02  0.11386232589E+04  0.11992218900E+04  0.12699999809E+01 0. -1.
</event>
<event>
 5   0  0.2722449E-06  0.3367142E+04  0.7818609E-02  0.8146018E-01
       -2   -1    0    0    0  501  0.00000000000E+00  0.00000000000E+00  0.14024761062E+04  0.14024761062E+04  0.25500000920E-02 0.  1.
        2   -1    0    0  501    0  0.00000000000E+00  0.00000000000E+00 -0.20210046604E+04  0.20210046604E+04  0.25500000920E-02 0. -1.
    10030    2    1    2    0    0  0.00000000000E+00  0.00000000000E+00 -0.61852855417E+03  0.34234807667E+04  0.33671416643E+04 0.  0.
        2    1    3    3  502    0 -0.56631831865E+03  0.63565221704E+03 -0.17860270564E+04  0.19785506881E+04  0.25500000920E-02 0. -1.
       -2    1    3    3    0  502  0.56631831865E+03 -0.63565221704E+03  0.11674985023E+04  0.14449300786E+04  0.25500000920E-02 0.  1.
</event>
<event>
 5   0  0.4400349E-06  0.3422301E+04  0.7818609E-02  0.8132454E-01
       -2   -1    0    0    0  501  0.00000000000E+00  0.00000000000E+00  0.99201222866E+03  0.99201222866E+03  0.25500000920E-02 0.  1.
        2   -1    0    0  501    0  0.00000000000E+00  0.00000000000E+00 -0.29516131730E+04  0.29516131730E+04  0.25500000920E-02 0. -1.
    10030    2    1    2    0    0  0.00000000000E+00  0.00000000000E+00 -0.19596009444E+04  0.39436254017E+04  0.34223011918E+04 0.  0.
        5    1    3    3  502    0  0.83969291086E+03 -0.14040114960E+04 -0.40169998138E+03  0.16845525906E+04  0.46999998093E+01 0. -1.
       -5    1    3    3    0  502 -0.83969291086E+03  0.14040114960E+04 -0.15579009630E+04  0.22590728111E+04  0.46999998093E+01 0.  1.
</event>
<event>
 5   0  0.2722449E-06  0.3471081E+04  0.7818609E-02  0.8120678E-01
        2   -1    0    0  501    0  0.00000000000E+00  0.00000000000E+00  0.29746640403E+04  0.29746640403E+04  0.25500000920E-02 0. -1.
       -2   -1    0    0    0  501  0.00000000000E+00  0.00000000000E+00 -0.10125854088E+04  0.10125854088E+04  0.25500000920E-02 0.  1.
    10030    2    1    2    0    0  0.00000000000E+00  0.00000000000E+00  0.19620786315E+04  0.39872494491E+04  0.34710813319E+04 0.  0.
        2    1    3    3  502    0  0.15604048813E+04  0.75631024552E+03  0.89794398751E+03  0.19527344893E+04  0.25500000920E-02 0.  1.
       -2    1    3    3    0  502 -0.15604048813E+04 -0.75631024552E+03  0.10641346440E+04  0.20345149598E+04  0.25500000920E-02 0. -1.
</event>
<event>
 5   0  0.1401125E-06  0.2254875E+04  0.7818609E-02  0.8495929E-01
       -4   -1    0    0    0  501  0.00000000000E+00  0.00000000000E+00  0.11138891961E+04  0.11138899200E+04  0.12699999809E+01 0.  1.
        4   -1    0    0  501    0  0.00000000000E+00  0.00000000000E+00 -0.11411492334E+04  0.11411499401E+04  0.12699999809E+01 0. -1.
    10030    2    1    2    0    0  0.00000000000E+00  0.00000000000E+00 -0.27260037382E+02  0.22550398602E+04  0.22548750878E+04 0.  0.
        4    1    3    3  502    0  0.10054157731E+04 -0.19705646234E+03  0.45695901417E+03  0.11218312171E+04  0.12699999809E+01 0.  1.
       -4    1    3    3    0  502 -0.10054157731E+04  0.19705646234E+03 -0.48421905155E+03  0.11332086431E+04  0.12699999809E+01 0. -1.
</event>
<event>
 5   0  0.1401125E-06  0.3457456E+04  0.7818609E-02  0.8123947E-01
       -3   -1    0    0    0  501  0.00000000000E+00  0.00000000000E+00  0.18021704791E+04  0.18021704820E+04  0.10100000352E+00 0.  1.
        3   -1    0    0  501    0  0.00000000000E+00  0.00000000000E+00 -0.16582783511E+04  0.16582783542E+04  0.10100000352E+00 0. -1.
    10030    2    1    2    0    0  0.00000000000E+00  0.00000000000E+00  0.14389212798E+03  0.34604488362E+04  0.34574558859E+04 0.  0.
        2    1    3    3  502    0  0.65726217702E+03  0.18539270837E+03  0.16614443323E+04  0.17963188177E+04  0.25500000920E-02 0.  1.
       -2    1    3    3    0  502 -0.65726217702E+03 -0.18539270837E+03 -0.15175522043E+04  0.16641300185E+04  0.25500000920E-02 0. -1.
</event>
<event>
 5   0  0.1571391E-06  0.3180965E+04  0.7818609E-02  0.8193862E-01
        1   -1    0    0  501    0  0.00000000000E+00  0.00000000000E+00  0.19771529109E+04  0.19771529109E+04  0.50400001928E-02 0.  1.
       -1   -1    0    0    0  501  0.00000000000E+00  0.00000000000E+00 -0.12794333295E+04  0.12794333295E+04  0.50400001928E-02 0. -1.
    10030    2    1    2    0    0  0.00000000000E+00  0.00000000000E+00  0.69771958149E+03  0.32565862404E+04  0.31809654709E+04 0.  0.
        1    1    3    3  502    0  0.11627327276E+04 -0.97825776957E+03 -0.13209524106E+03  0.15252490984E+04  0.50400001928E-02 0.  1.
       -1    1    3    3    0  502 -0.11627327276E+04  0.97825776957E+03  0.82981482255E+03  0.17313371420E+04  0.50400001928E-02 0. -1.
</event>
<event>
 5   0  0.2722449E-06  0.3340753E+04  0.7818609E-02  0.8152602E-01
       -2   -1    0    0    0  501  0.00000000000E+00  0.00000000000E+00  0.29886688047E+04  0.29886688047E+04  0.25500000920E-02 0. -1.
        2   -1    0    0  501    0  0.00000000000E+00  0.00000000000E+00 -0.93357891700E+03  0.93357891701E+03  0.25500000920E-02 0.  1.
    10030    2    1    2    0    0  0.00000000000E+00  0.00000000000E+00  0.20550898877E+04  0.39222477218E+04  0.33407533199E+04 0.  0.
        2    1    3    3  502    0  0.13746593627E+04 -0.52573735544E+02 -0.84846481057E+02  0.13782783777E+04  0.25500000920E-02 0.  1.
       -2    1    3    3    0  502 -0.13746593627E+04  0.52573735544E+02  0.21399363688E+04  0.25439693441E+04  0.25500000920E-02 0. -1.
</event>
<event>
 5   0  0.4173467E-06  0.3446887E+04  0.7818609E-02  0.8126494E-01
        2   -1    0    0  501    0  0.00000000000E+00  0.00000000000E+00  0.22440888353E+04  0.22440888353E+04  0.25500000920E-02 0.  1.
       -2   -1    0    0    0  501  0.00000000000E+00  0.00000000000E+00 -0.13235920810E+04  0.13235920810E+04  0.25500000920E-02 0. -1.
    10030    2    1    2    0    0  0.00000000000E+00  0.00000000000E+00  0.92049675431E+03  0.35676809163E+04  0.34468874142E+04 0.  0.
        4    1    3    3  502    0  0.10791980021E+04  0.12674916449E+04 -0.15405233314E+01  0.16646943815E+04  0.12699999809E+01 0.  1.
       -4    1    3    3    0  502 -0.10791980021E+04 -0.12674916449E+04  0.92203727765E+03  0.19029865349E+04  0.12699999809E+01 0. -1.
</event>
<event>
 5   0  0.4173467E-06  0.2110950E+04  0.7818609E-02  0.8556435E-01
        2   -1    0    0  501    0  0.00000000000E+00  0.00000000000E+00  0.20891382854E+04  0.20891382854E+04  0.25500000920E-02 0.  1.
       -2   -1    0    0    0  501  0.00000000000E+00  0.00000000000E+00 -0.53324760092E+03  0.53324760092E+03  0.25500000920E-02 0. -1.
    10030    2    1    2    0    0  0.00000000000E+00  0.00000000000E+00  0.15558906845E+04  0.26223858864E+04  0.21109504766E+04 0.  0.
        4    1    3    3  502    0  0.55422302190E+03  0.89376824632E+03  0.88934603424E+03  0.13772882115E+04  0.12699999809E+01 0.  1.
       -4    1    3    3    0  502 -0.55422302190E+03 -0.89376824632E+03  0.66654465029E+03  0.12450976748E+04  0.12699999809E+01 0. -1.
</event>
<event>
 5   0  0.4173467E-06  0.3492387E+04  0.7818609E-02  0.8115597E-01
       -2   -1    0    0    0  501  0.00000000000E+00  0.00000000000E+00  0.11219412072E+04  0.11219412072E+04  0.25500000920E-02 0. -1.
        2   -1    0    0  501    0  0.00000000000E+00  0.00000000000E+00 -0.27177820206E+04  0.27177820206E+04  0.25500000920E-02 0.  1.
    10030    2    1    2    0    0  0.00000000000E+00  0.00000000000E+00 -0.15958408134E+04  0.38397232277E+04  0.34923869436E+04 0.  0.
        4    1    3    3  502    0  0.42711152836E+02 -0.61067493723E+03 -0.25959388797E+04  0.26671423662E+04  0.12699999809E+01 0.  1.
       -4    1    3    3    0  502 -0.42711152836E+02  0.61067493723E+03  0.10000980663E+04  0.11725808615E+04  0.12699999809E+01 0. -1.
</event>
<event>
 5   0  0.4400349E-06  0.3374535E+04  0.7818609E-02  0.8144185E-01
        2   -1    0    0  501    0  0.00000000000E+00  0.00000000000E+00  0.19108048008E+04  0.19108048008E+04  0.25500000920E-02 0. -1.
       -2   -1    0    0    0  501  0.00000000000E+00  0.00000000000E+00 -0.14898805934E+04  0.14898805934E+04  0.25500000920E-02 0.  1.
    10030    2    1    2    0    0  0.00000000000E+00  0.00000000000E+00  0.42092420737E+03  0.34006853942E+04  0.33745346290E+04 0.  0.
        5    1    3    3  502    0  0.43113385731E+03 -0.76448876038E+03 -0.12417217797E+04  0.15205967697E+04  0.46999998093E+01 0.  1.
       -5    1    3    3    0  502 -0.43113385731E+03  0.76448876038E+03  0.16626459871E+04  0.18800886245E+04  0.46999998093E+01 0. -1.
</event>
<event>
 5   0  0.4400349E-06  0.3320155E+04  0.7818609E-02  0.8157786E-01
       -2   -1    0    0    0  501  0.00000000000E+00  0.00000000000E+00  0.10150079048E+04  0.10150079048E+04  0.25500000920E-02 0. -1.
        2   -1    0    0  501    0  0.00000000000E+00  0.00000000000E+00 -0.27151096220E+04  0.27151096220E+04  0.25500000920E-02 0.  1.
    10030    2    1    2    0    0  0.00000000000E+00  0.00000000000E+00 -0.17001017172E+04  0.37301175268E+04  0.33201552546E+04 0.  0.
        5    1    3    3  502    0 -0.95041660330E+03  0.45850933257E+03  0.58971577027E+03  0.12088462713E+04  0.46999998093E+01 0. -1.
       -5    1    3    3    0  502  0.95041660330E+03 -0.45850933257E+03 -0.22898174875E+04  0.25212712555E+04  0.46999998093E+01 0.  1.
</event>
<event>
 5   0  0.4173467E-06  0.2165114E+04  0.7818609E-02  0.8533091E-01
        2   -1    0    0  501    0  0.00000000000E+00  0.00000000000E+00  0.12748776894E+04  0.12748776894E+04  0.25500000920E-02 0. -1.
       -2   -1    0    0    0  501  0.00000000000E+00  0.00000000000E+00 -0.91924829059E+03  0.91924829059E+03  0.25500000920E-02 0.  1.
    10030    2    1    2    0    0  0.00000000000E+00  0.00000000000E+00  0.35562939882E+03  0.21941259800E+04  0.21651135182E+04 0.  0.
        4    1    3    3  502    0  0.27664473263E+03 -0.70079883513E+03  0.96558324475E+03  0.12247464762E+04  0.12699999809E+01 0. -1.
       -4    1    3    3    0  502 -0.27664473263E+03  0.70079883513E+03 -0.60995384593E+03  0.96937950385E+03  0.12699999809E+01 0.  1.
</event>
<event>
 5   0  0.4344980E-06  0.2423670E+04  0.7818609E-02  0.8430695E-01
       -2   -1    0    0    0  501  0.00000000000E+00  0.00000000000E+00  0.65005613123E+03  0.65005613123E+03  0.25500000920E-02 0. -1.
        2   -1    0    0  501    0  0.00000000000E+00  0.00000000000E+00 -0.22591031871E+04  0.22591031871E+04  0.25500000920E-02 0.  1.
    10030    2    1    2    0    0  0.00000000000E+00  0.00000000000E+00 -0.16090470558E+04  0.29091593183E+04  0.24236698437E+04 0.  0.
        3    1    3    3  502    0 -0.78634090108E+02  0.15785817649E+03  0.63457030636E+03  0.65862129326E+03  0.10100000352E+00 0. -1.
       -3    1    3    3    0  502  0.78634090108E+02 -0.15785817649E+03 -0.22436173622E+04  0.22505380250E+04  0.10100000352E+00 0.  1.
</event>
<event>
 5   0  0.4173467E-06  0.3438259E+04  0.7818609E-02  0.8128580E-01
        2   -1    0    0  501    0  0.00000000000E+00  0.00000000000E+00  0.17160083394E+04  0.17160083394E+04  0.25500000920E-02 0. -1.
       -2   -1    0    0    0  501  0.00000000000E+00  0.00000000000E+00 -0.17222562040E+04  0.17222562040E+04  0.25500000920E-02 0.  1.
    10030    2    1    2    0    0  0.00000000000E+00  0.00000000000E+00 -0.62478646025E+01  0.34382645435E+04  0.34382588668E+04 0.  0.
        4    1    3    3  502    0  0.67417115959E+03  0.28082830617E+03 -0.15594147482E+04  0.17219602956E+04  0.12699999809E+01 0.  1.
       -4    1    3    3    0  502 -0.67417115959E+03 -0.28082830617E+03  0.15531668836E+04  0.17163042478E+04  0.12699999809E+01 0. -1.
</event>
<event>
 5   0  0.1571391E-06  0.3250699E+04  0.7818609E-02  0.8175555E-01
       -1   -1    0    0    0  501  0.00000000000E+00  0.00000000000E+00  0.15942710326E+04  0.15942710326E+04  0.50400001928E-02 0.  1.
        1   -1    0    0  501    0  0.00000000000E+00  0.00000000000E+00 -0.16570337884E+04  0.16570337884E+04  0.50400001928E-02 0. -1.
    10030    2    1    2    0    0  0.00000000000E+00  0.00000000000E+00 -0.62762755867E+02  0.32513048210E+04  0.32506989826E+04 0.  0.
        1    1    3    3  502    0 -0.14953025938E+04 -0.48948030912E+02 -0.66666525473E+03  0.16379158460E+04  0.50400001928E-02 0. -1.
       -1    1    3    3    0  502  0.14953025938E+04  0.48948030912E+02  0.60390249886E+03  0.16133889750E+04  0.50400001928E-02 0.  1.
</event>
<event>
 5   0  0.4344980E-06  0.3496394E+04  0.7818609E-02  0.8114645E-01
        2   -1    0    0  501    0  0.00000000000E+00  0.00000000000E+00  0.14493654609E+04  0.14493654609E+04  0.25500000920E-02 0.  1.
       -2   -1    0    0    0  501  0.00000000000E+00  0.00000000000E+00 -0.21086421982E+04  0.21086421982E+04  0.25500000920E-02 0. -1.
    10030    2    1    2    0    0  0.00000000000E+00  0.00000000000E+00 -0.65927673731E+03  0.35580076590E+04  0.34963942406E+04 0.  0.
        3    1    3    3  502    0 -0.42592457820E+03 -0.17902728108E+03  0.13861129379E+04  0.14610857608E+04  0.10100000352E+00 0.  1.
       -3    1    3    3    0  502  0.42592457820E+03  0.17902728108E+03 -0.20453896752E+04  0.20969218982E+04  0.10100000352E+00 0. -1.
</event>
<event>
 5   0  0.4173467E-06  0.2269068E+04  0.7818609E-02  0.8490218E-01
       -2   -1    0    0    0  501  0.00000000000E+00  0.00000000000E+00  0.13390190876E+04  0.13390190876E+04  0.25500000920E-02 0. -1.
        2   -1    0    0  501    0  0.00000000000E+00  0.00000000000E+00 -0.96127633398E+03  0.96127633399E+03  0.25500000920E-02 0.  1.
    10030    2    1    2    0    0  0.00000000000E+00  0.00000000000E+00  0.37774275357E+03  0.23002954215E+04  0.22690679669E+04 0.  0.
        4    1    3    3  502    0  0.69811958591E+03  0.57140509982E+03  0.88630075004E+03  0.12646759968E+04  0.12699999809E+01 0.  1.
       -4    1    3    3    0  502 -0.69811958591E+03 -0.57140509982E+03 -0.50855799647E+03  0.10356194248E+04  0.12699999809E+01 0. -1.
</event>
<event>
 5   0  0.1562618E-06  0.3371122E+04  0.7818609E-02  0.8145031E-01
        1   -1    0    0  501    0  0.00000000000E+00  0.00000000000E+00  0.20529833819E+04  0.20529833820E+04  0.50400001928E-02 0.  1.
       -1   -1    0    0    0  501  0.00000000000E+00  0.00000000000E+00 -0.13838960901E+04  0.13838960901E+04  0.50400001928E-02 0. -1.
    10030    2    1    2    0    0  0.00000000000E+00  0.00000000000E+00  0.66908729183E+03  0.34368794721E+04  0.33711218758E+04 0.  0.
        2    1    3    3  502    0  0.96628186431E+03  0.12913247190E+04 -0.16480158078E+03  0.16212278471E+04  0.25500000920E-02 0.  1.
       -2    1    3    3    0  502 -0.96628186431E+03 -0.12913247190E+04  0.83388887261E+03  0.18156516249E+04  0.25500000920E-02 0. -1.
</event>
<event>
 5   0  0.4344980E-06  0.2494299E+04  0.7818609E-02  0.8405019E-01
       -2   -1    0    0    0  501  0.00000000000E+00  0.00000000000E+00  0.74609285021E+03  0.74609285022E+03  0.25500000920E-02 0.  1.
        2   -1    0    0  501    0  0.00000000000E+00  0.00000000000E+00 -0.20847021824E+04  0.20847021824E+04  0.25500000920E-02 0. -1.
    10030    2    1    2    0    0  0.00000000000E+00  0.00000000000E+00 -0.13386093322E+04  0.28307950326E+04  0.24942986133E+04 0.  0.
        3    1    3    3  502    0  0.78680756041E+03  0.93150529702E+03 -0.37202610708E+03  0.12748222190E+04  0.10100000352E+00 0.  1.
       -3    1    3    3    0  502 -0.78680756041E+03 -0.93150529702E+03 -0.96658322511E+03  0.15559728136E+04  0.10100000352E+00 0. -1.
</event>
<event>
 5   0  0.4189587E-06  0.1821043E+04  0.7818609E-02  0.8695188E-01
       -2   -1    0    0    0  501  0.00000000000E+00  0.00000000000E+00  0.50517262757E+03  0.50517262758E+03  0.25500000920E-02 0. -1.
        2   -1    0    0  501    0  0.00000000000E+00  0.00000000000E+00 -0.16411211972E+04  0.16411211972E+04  0.25500000920E-02 0.  1.
    10030    2    1    2    0    0  0.00000000000E+00  0.00000000000E+00 -0.11359485697E+04  0.21462938248E+04  0.18210431158E+04 0.  0.
        1    1    3    3  502    0  0.81706541566E+03 -0.24911039459E+03 -0.93955823891E+03  0.12698116264E+04  0.50400001928E-02 0.  1.
       -1    1    3    3    0  502 -0.81706541566E+03  0.24911039459E+03 -0.19639033076E+03  0.87648219845E+03  0.50400001928E-02 0. -1.
</event>
<event>
 5   0  0.1562618E-06  0.3591589E+04  0.7818609E-02  0.8092421E-01
       -1   -1    0    0    0  501  0.00000000000E+00  0.00000000000E+00  0.12955595716E+04  0.12955595716E+04  0.50400001928E-02 0.  1.
        1   -1    0    0  501    0  0.00000000000E+00  0.00000000000E+00 -0.24891780656E+04  0.24891780656E+04  0.50400001928E-02 0. -1.
    10030    2    1    2    0    0  0.00000000000E+00  0.00000000000E+00 -0.11936184940E+04  0.37847376372E+04  0.35915893242E+04 0.  0.
        2    1    3    3  502    0  0.73875520746E+03 -0.36617038932E+03  0.10843013343E+04  0.13621855212E+04  0.25500000920E-02 0.  1.
       -2    1    3    3    0  502 -0.73875520746E+03  0.36617038932E+03 -0.22779198283E+04  0.24225521160E+04  0.25500000920E-02 0. -1.
</event>
<event>
 5   0  0.4344980E-06  0.3361715E+04  0.7818609E-02  0.8147367E-01
        2   -1    0    0  501    0  0.00000000000E+00  0.00000000000E+00  0.19759422083E+04  0.19759422083E+04  0.25500000920E-02 0.  1.
       -2   -1    0    0    0  501  0.00000000000E+00  0.00000000000E+00 -0.14298407630E+04  0.14298407630E+04  0.25500000920E-02 0. -1.
    10030    2    1    2    0    0  0.00000000000E+00  0.00000000000E+00  0.54610144531E+03  0.34057829712E+04  0.33617154636E+04 0.  0.
        3    1    3    3  502    0 -0.14576969894E+04  0.31338054036E+02  0.11203270604E+04  0.18387483023E+04  0.10100000352E+00 0.  1.
       -3    1    3    3    0  502  0.14576969894E+04 -0.31338054036E+02 -0.57422561513E+03  0.15670346690E+04  0.10100000352E+00 0. -1.
</event>
<event>
 5   0  0.1571391E-06  0.1679680E+04  0.7818609E-02  0.8773039E-01
        1   -1    0    0  501    0  0.00000000000E+00  0.00000000000E+00  0.66288471341E+03  0.66288471342E+03  0.50400001928E-02 0. -1.
       -1   -1    0    0    0  501  0.00000000000E+00  0.00000000000E+00 -0.10640336326E+04  0.10640336326E+04  0.50400001928E-02 0.  1.
    10030    2    1    2    0    0  0.00000000000E+00  0.00000000000E+00 -0.40114891923E+03  0.17269183461E+04  0.16796804811E+04 0.  0.
        1    1    3    3  502    0  0.74050314818E+03 -0.29584792853E+03 -0.47154044022E+03  0.92640234027E+03  0.50400001928E-02 0.  1.
       -1    1    3    3    0  502 -0.74050314818E+03  0.29584792853E+03  0.70391520991E+02  0.80051600579E+03  0.50400001928E-02 0. -1.
</event>
<event>
 5   0  0.4189587E-06  0.3339435E+04  0.7818609E-02  0.8152933E-01
       -2   -1    0    0    0  501  0.00000000000E+00  0.00000000000E+00  0.16414786295E+04  0.16414786295E+04  0.25500000920E-02 0.  1.
        2   -1    0    0  501    0  0.00000000000E+00  0.00000000000E+00 -0.16984418511E+04  0.16984418511E+04  0.25500000920E-02 0. -1.
    10030    2    1    2    0    0  0.00000000000E+00  0.00000000000E+00 -0.56963221612E+02  0.33399204805E+04  0.33394346839E+04 0.  0.
        1    1    3    3  502    0  0.16413291828E+04 -0.30649207150E+03 -0.20922353455E+02  0.16698313151E+04  0.50400001928E-02 0. -1.
       -1    1    3    3    0  502 -0.16413291828E+04  0.30649207150E+03 -0.36040868157E+02  0.16700891654E+04  0.50400001928E-02 0.  1.
</event>
<event>
 5   0  0.2722449E-06  0.2006070E+04  0.7818609E-02  0.8603788E-01
       -2   -1    0    0    0  501  0.00000000000E+00  0.00000000000E+00  0.11785148318E+04  0.11785148318E+04  0.25500000920E-02 0. -1.
        2   -1    0    0  501    0  0.00000000000E+00  0.00000000000E+00 -0.85368366962E+03  0.85368366963E+03  0.25500000920E-02 0.  1.
    10030    2    1    2    0    0  0.00000000000E+00  0.00000000000E+00  0.32483116222E+03  0.20321985015E+04  0.20060696562E+04 0.  0.
        2    1    3    3  502    0 -0.60320836812E+03  0.18780959951E+03  0.95163029820E+03  0.11422490996E+04  0.25500000920E-02 0.  1.
       -2    1    3    3    0  502  0.60320836812E+03 -0.18780959951E+03 -0.62679913599E+03  0.88994940188E+03  0.25500000920E-02 0. -1.
</event>
<event>
 5   0  0.2101998E-06  0.2163285E+04  0.7818609E-02  0.8533867E-01
        1   -1    0    0  501    0  0.00000000000E+00  0.00000000000E+00  0.17787411799E+04  0.17787411799E+04  0.50400001928E-02 0. -1.
       -1   -1    0    0    0  501  0.00000000000E+00  0.00000000000E+00 -0.65774093844E+03  0.65774093846E+03  0.50400001928E-02 0.  1.
    10030    2    1    2    0    0  0.00000000000E+00  0.00000000000E+00  0.11210002415E+04  0.24364821184E+04  0.21632853653E+04 0.  0.
        5    1    3    3  502    0 -0.67764972259E+03 -0.82651339281E+03  0.37340316390E+03  0.11321596830E+04  0.46999998093E+01 0. -1.
       -5    1    3    3    0  502  0.67764972259E+03  0.82651339281E+03  0.74759707758E+03  0.13043224354E+04  0.46999998093E+01 0.  1.
</event>
<event>
 5   0  0.1654257E-06  0.3887028E+04  0.7818609E-02  0.8027732E-01
       -1   -1    0    0    0  501  0.00000000000E+00  0.00000000000E+00  0.13196382657E+04  0.13196382657E+04  0.50400001928E-02 0.  1.
        1   -1    0    0  501    0  0.00000000000E+00  0.00000000000E+00 -0.28623355156E+04  0.28623355156E+04  0.50400001928E-02 0. -1.
    10030    2    1    2    0    0  0.00000000000E+00  0.00000000000E+00 -0.15426972498E+04  0.41819737813E+04  0.38870284155E+04 0.  0.
        3    1    3    3  502    0  0.86151362051E+03 -0.15889452203E+04 -0.27949984850E+01  0.18074735001E+04  0.10100000352E+00 0.  1.
       -3    1    3    3    0  502 -0.86151362051E+03  0.15889452203E+04 -0.15399022514E+04  0.23745002812E+04  0.10100000352E+00 0. -1.
</event>
<event>
 5   0  0.4189587E-06  0.3343367E+04  0.7818609E-02  0.8151947E-01
       -2   -1    0    0    0  501  0.00000000000E+00  0.00000000000E+00  0.23486789423E+04  0.23486789423E+04  0.25500000920E-02 0.  1.
        2   -1    0    0  501    0  0.00000000000E+00  0.00000000000E+00 -0.11898288266E+04  0.11898288266E+04  0.25500000920E-02 0. -1.
    10030    2    1    2    0    0  0.00000000000E+00  0.00000000000E+00  0.11588501158E+04  0.35385077689E+04  0.33433671111E+04 0.  0.
        1    1    3    3  502    0 -0.71669155084E+02 -0.57778444341E+03 -0.10790574038E+04  0.12261061176E+04  0.50400001928E-02 0. -1.
       -1    1    3    3    0  502  0.71669155084E+02  0.57778444341E+03  0.22379075196E+04  0.23124016513E+04  0.50400001928E-02 0.  1.
</event>
<event>
 5   0  0.4400349E-06  0.3101065E+04  0.7818609E-02  0.8215446E-01
        2   -1    0    0  501    0  0.00000000000E+00  0.00000000000E+00  0.21410997505E+04  0.21410997505E+04  0.25500000920E-02 0. -1.
       -2   -1    0    0    0  501  0.00000000000E+00  0.00000000000E+00 -0.11228581829E+04  0.11228581829E+04  0.25500000920E-02 0.  1.
    10030    2    1    2    0    0  0.00000000000E+00  0.00000000000E+00  0.10182415676E+04  0.32639579334E+04  0.31010652204E+04 0.  0.
        5    1    3    3  502    0 -0.12218764529E+04 -0.32069124327E+03  0.14554039393E+04  0.19271864612E+04  0.46999998093E+01 0. -1.
       -5    1    3    3    0  502  0.12218764529E+04  0.32069124327E+03 -0.43716237173E+03  0.13367714722E+04  0.46999998093E+01 0.  1.
</event>
<event>
 5   0  0.2101998E-06  0.2445064E+04  0.7818609E-02  0.8422822E-01
       -1   -1    0    0    0  501  0.00000000000E+00  0.00000000000E+00  0.94901511984E+03  0.94901511985E+03  0.50400001928E-02 0. -1.
        1   -1    0    0  501    0  0.00000000000E+00  0.00000000000E+00 -0.15748796773E+04  0.15748796773E+04  0.50400001928E-02 0.  1.
    10030    2    1    2    0    0  0.00000000000E+00  0.00000000000E+00 -0.62586455743E+03  0.25238947971E+04  0.24450641101E+04 0.  0.
        5    1    3    3  502    0 -0.56143427044E+03 -0.10003732074E+04 -0.74917771198E+03  0.13701256615E+04  0.46999998093E+01 0. -1.
       -5    1    3    3    0  502  0.56143427044E+03  0.10003732074E+04  0.12331315455E+03  0.11537691356E+04  0.46999998093E+01 0.  1.
</event>
<event>
 5   0  0.4173467E-06  0.2725338E+04  0.7818609E-02  0.8326830E-01
       -2   -1    0    0    0  501  0.00000000000E+00  0.00000000000E+00  0.12048575948E+04  0.12048575948E+04  0.25500000920E-02 0. -1.
        2   -1    0    0  501    0  0.00000000000E+00  0.00000000000E+00 -0.15411505731E+04  0.15411505731E+04  0.25500000920E-02 0.  1.
    10030    2    1    2    0    0  0.00000000000E+00  0.00000000000E+00 -0.33629297836E+03  0.27460081679E+04  0.27253381241E+04 0.  0.
        4    1    3    3  502    0 -0.81761674358E+03 -0.74914007374E+03  0.62979252238E+03  0.12752835856E+04  0.12699999809E+01 0. -1.
       -4    1    3    3    0  502  0.81761674358E+03  0.74914007374E+03 -0.96608550073E+03  0.14707245823E+04  0.12699999809E+01 0.  1.
</event>
<event>
 5   0  0.1550164E-06  0.3446257E+04  0.7818609E-02  0.8126646E-01
        1   -1    0    0  501    0  0.00000000000E+00  0.00000000000E+00  0.23531494519E+04  0.23531494519E+04  0.50400001928E-02 0. -1.
       -1   -1    0    0    0  501  0.00000000000E+00  0.00000000000E+00 -0.12617862787E+04  0.12617862788E+04  0.50400001928E-02 0.  1.
    10030    2    1    2    0    0  0.00000000000E+00  0.00000000000E+00  0.10913631731E+04  0.36149357306E+04  0.34462569203E+04 0.  0.
        4    1    3    3  502    0  0.12464229485E+04  0.17035510093E+03 -0.68948417982E+03  0.14345665109E+04  0.12699999809E+01 0.  1.
       -4    1    3    3    0  502 -0.12464229485E+04 -0.17035510093E+03  0.17808473530E+04  0.21803692198E+04  0.12699999809E+01 0. -1.
</event>
<event>
 5   0  0.4189587E-06  0.3566111E+04  0.7818609E-02  0.8098299E-01
       -2   -1    0    0    0  501  0.00000000000E+00  0.00000000000E+00  0.24261591146E+04  0.24261591146E+04  0.25500000920E-02 0. -1.
        2   -1    0    0  501    0  0.00000000000E+00  0.00000000000E+00 -0.13104194309E+04  0.13104194309E+04  0.25500000920E-02 0.  1.
    10030    2    1    2    0    0  0.00000000000E+00  0.00000000000E+00  0.11157396837E+04  0.37365785455E+04  0.35661105121E+04 0.  0.
        1    1    3    3  502    0  0.48807061583E+03  0.15856372671E+04 -0.12668075583E+03  0.16638829534E+04  0.50400001928E-02 0.  1.
       -1    1    3    3    0  502 -0.48807061583E+03 -0.15856372671E+04  0.12424204395E+04  0.20726955920E+04  0.50400001928E-02 0. -1.
</event>
<event>
 5   0  0.4460112E-06  0.1678499E+04  0.7818609E-02  0.8773723E-01
       -2   -1    0    0    0  501  0.00000000000E+00  0.00000000000E+00  0.65126503412E+03  0.65126503413E+03  0.25500000920E-02 0. -1.
        2   -1    0    0  501    0  0.00000000000E+00  0.00000000000E+00 -0.10814949762E+04  0.10814949762E+04  0.25500000920E-02 0.  1.
    10030    2    1    2    0    0  0.00000000000E+00  0.00000000000E+00 -0.43022994212E+03  0.17327600104E+04  0.16784991660E+04 0.  0.
        2    1    3    3  502    0  0.68790465965E+03  0.21327904708E+03 -0.65990188562E+03  0.97681690779E+03  0.25500000920E-02 0.  1.
       -2    1    3    3    0  502 -0.68790465965E+03 -0.21327904708E+03  0.22967194351E+03  0.75594310257E+03  0.25500000920E-02 0. -1.
</event>
<event>
 5   0  0.2722449E-06  0.1955386E+04  0.7818609E-02  0.8627768E-01
        2   -1    0    0  501    0  0.00000000000E+00  0.00000000000E+00  0.16099665369E+04  0.16099665369E+04  0.25500000920E-02 0. -1.
       -2   -1    0    0    0  501  0.00000000000E+00  0.00000000000E+00 -0.59372892995E+03  0.59372892995E+03  0.25500000920E-02 0.  1.
    10030    2    1    2    0    0  0.00000000000E+00  0.00000000000E+00  0.10162376070E+04  0.22036954669E+04  0.19553861094E+04 0.  0.
        2    1    3    3  502    0 -0.45733214443E+03  0.56750460037E+03 -0.22630139440E+03  0.76316871193E+03  0.25500000920E-02 0. -1.
       -2    1    3    3    0  502  0.45733214443E+03 -0.56750460037E+03  0.12425390014E+04  0.14405267550E+04  0.25500000920E-02 0.  1.
</event>
<event>
 5   0  0.2722449E-06  0.3344190E+04  0.7818609E-02  0.8151741E-01
       -2   -1    0    0    0  501  0.00000000000E+00  0.00000000000E+00  0.12151546843E+04  0.12151546843E+04  0.25500000920E-02 0.  1.
        2   -1    0    0  501    0  0.00000000000E+00  0.00000000000E+00 -0.23008606318E+04  0.23008606318E+04  0.25500000920E-02 0. -1.
    10030    2    1    2    0    0  0.00000000000E+00  0.00000000000E+00 -0.10857059476E+04  0.35160153161E+04  0.33441899316E+04 0.  0.
        2    1    3    3  502    0  0.15705768995E+04  0.27678255988E+03 -0.10712499547E+04  0.19211706973E+04  0.25500000920E-02 0. -1.
       -2    1    3    3    0  502 -0.15705768995E+04 -0.27678255988E+03 -0.14455992902E+02  0.15948446189E+04  0.25500000920E-02 0.  1.
</event>
<event>
 5   0  0.4189587E-06  0.3334510E+04  0.7818609E-02  0.8154170E-01
        2   -1    0    0  501    0  0.00000000000E+00  0.00000000000E+00  0.25484523847E+04  0.25484523847E+04  0.25500000920E-02 0. -1.
       -2   -1    0    0    0  501  0.00000000000E+00  0.00000000000E+00 -0.10907555241E+04  0.10907555241E+04  0.25500000920E-02 0.  1.
    10030    2    1    2    0    0  0.00000000000E+00  0.00000000000E+00  0.14576968606E+04  0.36392079089E+04  0.33345095691E+04 0.  0.
        1    1    3    3  502    0  0.14716457981E+03  0.90514023259E+03  0.22484917263E+04  0.24283021430E+04  0.50400001928E-02 0. -1.
       -1    1    3    3    0  502 -0.14716457981E+03 -0.90514023259E+03 -0.79079486572E+03  0.12109057659E+04  0.50400001928E-02 0.  1.
</event>
<event>
 5   0  0.2101998E-06  0.3389508E+04  0.7818609E-02  0.8140486E-01
        1   -1    0    0  501    0  0.00000000000E+00  0.00000000000E+00  0.16223178860E+04  0.16223178860E+04  0.50400001928E-02 0.  1.
       -1   -1    0    0    0  501  0.00000000000E+00  0.00000000000E+00 -0.17704247727E+04  0.17704247727E+04  0.50400001928E-02 0. -1.
    10030    2    1    2    0    0  0.00000000000E+00  0.00000000000E+00 -0.14810688671E+03  0.33927426587E+04  0.33895083859E+04 0.  0.
        5    1    3    3  502    0 -0.62877400432E+03 -0.77300528956E+03 -0.14462283169E+04  0.17562722912E+04  0.46999998093E+01 0. -1.
       -5    1    3    3    0  502  0.62877400432E+03  0.77300528956E+03  0.12981214302E+04  0.16364703675E+04  0.46999998093E+01 0.  1.
</event>
<event>
 5   0  0.1571391E-06  0.3354071E+04  0.7818609E-02  0.8149272E-01
       -1   -1    0    0    0  501  0.00000000000E+00  0.00000000000E+00  0.12288712372E+04  0.12288712372E+04  0.50400001928E-02 0. -1.
        1   -1    0    0  501    0  0.00000000000E+00  0.00000000000E+00 -0.22886428630E+04  0.22886428630E+04  0.50400001928E-02 0.  1.
    10030    2    1    2    0    0  0.00000000000E+00  0.00000000000E+00 -0.10597716259E+04  0.35175141002E+04  0.33540705935E+04 0.  0.
        1    1    3    3  502    0 -0.28632107376E+03  0.80065640229E+03 -0.20458055423E+04  0.22154798010E+04  0.50400001928E-02 0.  1.
       -1    1    3    3    0  502  0.28632107376E+03 -0.80065640229E+03  0.98603391644E+03  0.13020342992E+04  0.50400001928E-02 0. -1.
</event>
<event>
 5   0  0.4189587E-06  0.3440377E+04  0.7818609E-02  0.8128067E-01
       -2   -1    0    0    0  501  0.00000000000E+00  0.00000000000E+00  0.16366934553E+04  0.16366934553E+04  0.25500000920E-02 0. -1.
        2   -1    0    0  501    0  0.00000000000E+00  0.00000000000E+00 -0.18079428973E+04  0.18079428973E+04  0.25500000920E-02 0.  1.
    10030    2    1    2    0    0  0.00000000000E+00  0.00000000000E+00 -0.17124944193E+03  0.34446363526E+04  0.34403769024E+04 0.  0.
        1    1    3    3  502    0 -0.52509653547E+03 -0.15924113104E+04 -0.47022026505E+03  0.17414382707E+04  0.50400001928E-02 0.  1.
       -1    1    3    3    0  502  0.52509653547E+03  0.15924113104E+04  0.29897082313E+03  0.17031980819E+04  0.50400001928E-02 0. -1.
</event>
<event>
 5   0  0.1562618E-06  0.3364573E+04  0.7818609E-02  0.8146656E-01
        1   -1    0    0  501    0  0.00000000000E+00  0.00000000000E+00  0.12464171118E+04  0.12464171118E+04  0.50400001928E-02 0.  1.
       -1   -1    0    0    0  501  0.00000000000E+00  0.00000000000E+00 -0.22705781704E+04  0.22705781704E+04  0.50400001928E-02 0. -1.
    10030    2    1    2    0    0  0.00000000000E+00  0.00000000000E+00 -0.10241610585E+04  0.35169952822E+04  0.33645727725E+04 0.  0.
        2    1    3    3  502    0 -0.11555045179E+04  0.75641060048E+03  0.49202991805E+03  0.14660972436E+04  0.25500000920E-02 0.  1.
       -2    1    3    3    0  502  0.11555045179E+04 -0.75641060048E+03 -0.15161909766E+04  0.20508980386E+04  0.25500000920E-02 0. -1.
</event>
<event>
 5   0  0.1654257E-06  0.2610870E+04  0.7818609E-02  0.8364518E-01
       -1   -1    0    0    0  501  0.00000000000E+00  0.00000000000E+00  0.17627606692E+04  0.17627606692E+04  0.50400001928E-02 0.  1.
        1   -1    0    0  501    0  0.00000000000E+00  0.00000000000E+00 -0.96675695403E+03  0.96675695404E+03  0.50400001928E-02 0. -1.
    10030    2    1    2    0    0  0.00000000000E+00  0.00000000000E+00  0.79600371516E+03  0.27295176232E+04  0.26108704566E+04 0.  0.
        3    1    3    3  502    0  0.58820018988E+03  0.79940048184E+03 -0.48855677304E+03  0.11062135076E+04  0.10100000352E+00 0. -1.
       -3    1    3    3    0  502 -0.58820018988E+03 -0.79940048184E+03  0.12845604882E+04  0.16233041156E+04  0.10100000352E+00 0.  1.
</event>
<event>
 5   0  0.1550164E-06  0.3233864E+04  0.7818609E-02  0.8179931E-01
       -1   -1    0    0    0  501  0.00000000000E+00  0.00000000000E+00  0.11058116160E+04  0.11058116160E+04  0.50400001928E-02 0.  1.
        1   -1    0    0  501    0  0.00000000000E+00  0.00000000000E+00 -0.23642989803E+04  0.23642989803E+04  0.50400001928E-02 0. -1.
    10030    2    1    2    0    0  0.00000000000E+00  0.00000000000E+00 -0.12584873643E+04  0.34701105963E+04  0.32338641134E+04 0.  0.
        4    1    3    3  502    0 -0.23791638559E+03 -0.15939790345E+04 -0.48894708568E+03  0.16841746449E+04  0.12699999809E+01 0.  1.
       -4    1    3    3    0  502  0.23791638559E+03  0.15939790345E+04 -0.76954027866E+03  0.17859359514E+04  0.12699999809E+01 0. -1.
</event>
<event>
 5   0  0.4173467E-06  0.3378348E+04  0.7818609E-02  0.8143241E-01
        2   -1    0    0  501    0  0.00000000000E+00  0.00000000000E+00  0.17969393319E+04  0.17969393319E+04  0.25500000920E-02 0.  1.
       -2   -1    0    0    0  501  0.00000000000E+00  0.00000000000E+00 -0.15878715401E+04  0.15878715401E+04  0.25500000920E-02 0. -1.
    10030    2    1    2    0    0  0.00000000000E+00  0.00000000000E+00  0.20906779178E+03  0.33848108721E+04  0.33783480132E+04 0.  0.
        4    1    3    3  502    0  0.12556636613E+04  0.49049915218E+03  0.11243349748E+04  0.17553949405E+04  0.12699999809E+01 0.  1.
       -4    1    3    3    0  502 -0.12556636613E+04 -0.49049915218E+03 -0.91526718307E+03  0.16294159315E+04  0.12699999809E+01 0. -1.
</event>
<event>
 5   0  0.1401125E-06  0.3247337E+04  0.7818609E-02  0.8176426E-01
       -4   -1    0    0    0  501  0.00000000000E+00  0.00000000000E+00  0.17922846346E+04  0.17922850845E+04  0.12699999809E+01 0.  1.
        4   -1    0    0  501    0  0.00000000000E+00  0.00000000000E+00 -0.14709142579E+04  0.14709148062E+04  0.12699999809E+01 0. -1.
    10030    2    1    2    0    0  0.00000000000E+00  0.00000000000E+00  0.32137037666E+03  0.32631998907E+04  0.32473365406E+04 0.  0.
        3    1    3    3  502    0  0.66721050553E+03 -0.14932683527E+03  0.16405742570E+04  0.17773441606E+04  0.10100000352E+00 0.  1.
       -3    1    3    3    0  502 -0.66721050553E+03  0.14932683527E+03 -0.13192038803E+04  0.14858557301E+04  0.10100000352E+00 0. -1.
</event>
<event>
 5   0  0.1654257E-06  0.3331597E+04  0.7818609E-02  0.8154902E-01
        1   -1    0    0  501    0  0.00000000000E+00  0.00000000000E+00  0.17094390329E+04  0.17094390329E+04  0.50400001928E-02 0. -1.
       -1   -1    0    0    0  501  0.00000000000E+00  0.00000000000E+00 -0.16232716669E+04  0.16232716669E+04  0.50400001928E-02 0.  1.
    10030    2    1    2    0    0  0.00000000000E+00  0.00000000000E+00  0.86167366026E+02  0.33327106998E+04  0.33315965833E+04 0.  0.
        3    1    3    3  502    0  0.66342483760E+03 -0.15203650190E+04  0.19558672951E+03  0.16702983222E+04  0.10100000352E+00 0.  1.
       -3    1    3    3    0  502 -0.66342483760E+03  0.15203650190E+04 -0.10941936349E+03  0.16624123777E+04  0.10100000352E+00 0. -1.
</event>
<event>
 5   0  0.2101998E-06  0.2199313E+04  0.7818609E-02  0.8518714E-01
        1   -1    0    0  501    0  0.00000000000E+00  0.00000000000E+00  0.62800295843E+03  0.62800295845E+03  0.50400001928E-02 0. -1.
       -1   -1    0    0    0  501  0.00000000000E+00  0.00000000000E+00 -0.19255390796E+04  0.19255390796E+04  0.50400001928E-02 0.  1.
    10030    2    1    2    0    0  0.00000000000E+00  0.00000000000E+00 -0.12975361212E+04  0.25535420381E+04  0.21993128369E+04 0.  0.
        5    1    3    3  502    0  0.72861655731E+03 -0.84209723012E+02  0.30248870503E+03  0.79340712860E+03  0.46999998093E+01 0. -1.
       -5    1    3    3    0  502 -0.72861655731E+03  0.84209723012E+02 -0.16000248262E+04  0.17601349095E+04  0.46999998093E+01 0.  1.
</event>
<event>
 5   0  0.4189587E-06  0.3249044E+04  0.7818609E-02  0.8175984E-01
       -2   -1    0    0    0  501  0.00000000000E+00  0.00000000000E+00  0.13881766187E+04  0.13881766187E+04  0.25500000920E-02 0. -1.
        2   -1    0    0  501    0  0.00000000000E+00  0.00000000000E+00 -0.19011062817E+04  0.19011062817E+04  0.25500000920E-02 0.  1.
    10030    2    1    2    0    0  0.00000000000E+00  0.00000000000E+00 -0.51292966302E+03  0.32892829003E+04  0.32490437300E+04 0.  0.
        1    1    3    3  502    0  0.27372796798E+03 -0.80641394299E+03  0.11440850457E+04  0.14262401760E+04  0.50400001928E-02 0. -1.
       -1    1    3    3    0  502 -0.27372796798E+03  0.80641394299E+03 -0.16570147087E+04  0.18630427243E+04  0.50400001928E-02 0.  1.
</event>
<event>
 5   0  0.1401125E-06  0.2368513E+04  0.7818609E-02  0.8451387E-01
       -3   -1    0    0    0  501  0.00000000000E+00  0.00000000000E+00  0.11878742439E+04  0.11878742482E+04  0.10100000352E+00 0. -1.
        3   -1    0    0  501    0  0.00000000000E+00  0.00000000000E+00 -0.11806493766E+04  0.11806493809E+04  0.10100000352E+00 0.  1.
    10030    2    1    2    0    0  0.00000000000E+00  0.00000000000E+00  0.72248673237E+01  0.23685236291E+04  0.23685126098E+04 0.  0.
        5    1    3    3  502    0  0.42245767857E+03  0.10870460077E+04 -0.20206154716E+03  0.11836344333E+04  0.46999998093E+01 0. -1.
       -5    1    3    3    0  502 -0.42245767857E+03 -0.10870460077E+04  0.20928641449E+03  0.11848891958E+04  0.46999998093E+01 0.  1.
</event>
<event>
 5   0  0.1654257E-06  0.3313212E+04  0.7818609E-02  0.8159542E-01
        1   -1    0    0  501    0  0.00000000000E+00  0.00000000000E+00  0.18405945212E+04  0.18405945212E+04  0.50400001928E-02 0. -1.
       -1   -1    0    0    0  501  0.00000000000E+00  0.00000000000E+00 -0.14910090880E+04  0.14910090880E+04  0.50400001928E-02 0.  1.
    10030    2    1    2    0    0  0.00000000000E+00  0.00000000000E+00  0.34958543324E+03  0.33316036092E+04  0.33132118305E+04 0.  0.
        3    1    3    3  502    0  0.38359452020E+03  0.16992934049E+03  0.17862874526E+04  0.18348960762E+04  0.10100000352E+00 0. -1.
       -3    1    3    3    0  502 -0.38359452020E+03 -0.16992934049E+03 -0.14367020194E+04  0.14967075330E+04  0.10100000352E+00 0.  1.
</event>
<event>
 5   0  0.2722449E-06  0.3439203E+04  0.7818609E-02  0.8128351E-01
        2   -1    0    0  501    0  0.00000000000E+00  0.00000000000E+00  0.13398059970E+04  0.13398059970E+04  0.25500000920E-02 0.  1.
       -2   -1    0    0    0  501  0.00000000000E+00  0.00000000000E+00 -0.22070575893E+04  0.22070575893E+04  0.25500000920E-02 0. -1.
    10030    2    1    2    0    0  0.00000000000E+00  0.00000000000E+00 -0.86725159229E+03  0.35468635863E+04  0.34392028111E+04 0.  0.
        2    1    3    3  502    0  0.50686922450E+03  0.16432012061E+04 -0.43521667683E+03  0.17738207830E+04  0.25500000920E-02 0. -1.
       -2    1    3    3    0  502 -0.50686922450E+03 -0.16432012061E+04 -0.43203491546E+03  0.17730428033E+04  0.25500000920E-02 0.  1.
</event>
<event>
 5   0  0.4400349E-06  0.3349781E+04  0.7818609E-02  0.8150343E-01
        2   -1    0    0  501    0  0.00000000000E+00  0.00000000000E+00  0.81666714457E+03  0.81666714458E+03  0.25500000920E-02 0. -1.
       -2   -1    0    0    0  501  0.00000000000E+00  0.00000000000E+00 -0.34350086716E+04  0.34350086716E+04  0.25500000920E-02 0.  1.
    10030    2    1    2    0    0  0.00000000000E+00  0.00000000000E+00 -0.26183415270E+04  0.42516758161E+04  0.33497813203E+04 0.  0.
        5    1    3    3  502    0 -0.26028009098E+03 -0.93968120822E+03 -0.30376172974E+04  0.31902801498E+04  0.46999998093E+01 0.  1.
       -5    1    3    3    0  502  0.26028009098E+03  0.93968120822E+03  0.41927577041E+03  0.10613956663E+04  0.46999998093E+01 0. -1.
</event>
<event>
 5   0  0.4400349E-06  0.3434922E+04  0.7818609E-02  0.8129388E-01
        2   -1    0    0  501    0  0.00000000000E+00  0.00000000000E+00  0.23769869945E+04  0.23769869945E+04  0.25500000920E-02 0.  1.
       -2   -1    0    0    0  501  0.00000000000E+00  0.00000000000E+00 -0.12409293432E+04  0.12409293432E+04  0.25500000920E-02 0. -1.
    10030    2    1    2    0    0  0.00000000000E+00  0.00000000000E+00  0.11360576513E+04  0.36179163377E+04  0.34349223630E+04 0.  0.
        5    1    3    3  502    0  0.14070081727E+04 -0.69738185190E+03 -0.16446087363E+03  0.15789499405E+04  0.46999998093E+01 0. -1.
       -5    1    3    3    0  502 -0.14070081727E+04  0.69738185190E+03  0.13005185249E+04  0.20389663973E+04  0.46999998093E+01 0.  1.
</event>
<event>
 5   0  0.4173467E-06  0.3287055E+04  0.7818609E-02  0.8166197E-01
        2   -1    0    0  501    0  0.00000000000E+00  0.00000000000E+00  0.18737439940E+04  0.18737439940E+04  0.25500000920E-02 0.  1.
       -2   -1    0    0    0  501  0.00000000000E+00  0.00000000000E+00 -0.14415963379E+04  0.14415963379E+04  0.25500000920E-02 0. -1.
    10030    2    1    2    0    0  0.00000000000E+00  0.00000000000E+00  0.43214765612E+03  0.33153403319E+04  0.32870549006E+04 0.  0.
        4    1    3    3  502    0  0.14571597283E+04 -0.73484995634E+03  0.19818000621E+02  0.16320886306E+04  0.12699999809E+01 0. -1.
       -4    1    3    3    0  502 -0.14571597283E+04  0.73484995634E+03  0.41232965550E+03  0.16832517013E+04  0.12699999809E+01 0.  1.
</event>
<event>
 5   0  0.4173467E-06  0.3438925E+04  0.7818609E-02  0.8128418E-01
       -2   -1    0    0    0  501  0.00000000000E+00  0.00000000000E+00  0.15861350735E+04  0.15861350735E+04  0.25500000920E-02 0.  1.
        2   -1    0    0  501    0  0.00000000000E+00  0.00000000000E+00 -0.18639971744E+04  0.18639971744E+04  0.25500000920E-02 0. -1.
    10030    2    1    2    0    0  0.00000000000E+00  0.00000000000E+00 -0.27786210086E+03  0.34501322479E+04  0.34389250037E+04 0.  0.
        4    1    3    3  502    0 -0.72113763792E+03 -0.11557134078E+04 -0.11915580109E+04  0.18098411754E+04  0.12699999809E+01 0. -1.
       -4    1    3    3    0  502  0.72113763792E+03  0.11557134078E+04  0.91369591007E+03  0.16402910725E+04  0.12699999809E+01 0.  1.
</event>
<event>
 5   0  0.2101998E-06  0.3403001E+04  0.7818609E-02  0.8137170E-01
       -1   -1    0    0    0  501  0.00000000000E+00  0.00000000000E+00  0.11813731950E+04  0.11813731950E+04  0.50400001928E-02 0.  1.
        1   -1    0    0  501    0  0.00000000000E+00  0.00000000000E+00 -0.24506261923E+04  0.24506261924E+04  0.50400001928E-02 0. -1.
    10030    2    1    2    0    0  0.00000000000E+00  0.00000000000E+00 -0.12692529973E+04  0.36319993874E+04  0.34030010841E+04 0.  0.
        5    1    3    3  502    0  0.14398894872E+04  0.68642942663E+03 -0.12666000027E+04  0.20368516759E+04  0.46999998093E+01 0. -1.
       -5    1    3    3    0  502 -0.14398894872E+04 -0.68642942663E+03 -0.26529946825E+01  0.15951477114E+04  0.46999998093E+01 0.  1.
</event>
<event>
 5   0  0.2101998E-06  0.3314132E+04  0.7818609E-02  0.8159309E-01
       -1   -1    0    0    0  501  0.00000000000E+00  0.00000000000E+00  0.11906730671E+04  0.11906730672E+04  0.50400001928E-02 0. -1.
        1   -1    0    0  501    0  0.00000000000E+00  0.00000000000E+00 -0.23061470567E+04  0.23061470567E+04  0.50400001928E-02 0.  1.
    10030    2    1    2    0    0  0.00000000000E+00  0.00000000000E+00 -0.11154739896E+04  0.34968201239E+04  0.33141316747E+04 0.  0.
        5    1    3    3  502    0 -0.68488017441E+03  0.12155728390E+04 -0.15009771531E+04  0.20493005354E+04  0.46999998093E+01 0.  1.
       -5    1    3    3    0  502  0.68488017441E+03 -0.12155728390E+04  0.38550316350E+03  0.14475195885E+04  0.46999998093E+01 0. -1.
</event>
<event>
 5   0  0.2101998E-06  0.3419290E+04  0.7818609E-02  0.8133188E-01
        1   -1    0    0  501    0  0.00000000000E+00  0.00000000000E+00  0.17513625006E+04  0.17513625006E+04  0.50400001928E-02 0. -1.
       -1   -1    0    0    0  501  0.00000000000E+00  0.00000000000E+00 -0.16689207808E+04  0.16689207808E+04  0.50400001928E-02 0.  1.
    10030    2    1    2    0    0  0.00000000000E+00  0.00000000000E+00  0.82441719824E+02  0.34202832814E+04  0.34192895589E+04 0.  0.
        5    1    3    3  502    0 -0.92649799666E+03  0.11569877429E+04 -0.81099153224E+03  0.16896001096E+04  0.46999998093E+01 0. -1.
       -5    1    3    3    0  502  0.92649799666E+03 -0.11569877429E+04  0.89343325206E+03  0.17306831718E+04  0.46999998093E+01 0.  1.
</event>
<event>
 5   0  0.4173467E-06  0.3242659E+04  0.7818609E-02  0.8177641E-01
        2   -1    0    0  501    0  0.00000000000E+00  0.00000000000E+00  0.22427471609E+04  0.22427471609E+04  0.25500000920E-02 0. -1.
       -2   -1    0    0    0  501  0.00000000000E+00  0.00000000000E+00 -0.11720931339E+04  0.11720931339E+04  0.25500000920E-02 0.  1.
    10030    2    1    2    0    0  0.00000000000E+00  0.00000000000E+00  0.10706540269E+04  0.34148402948E+04  0.32426585071E+04 0.  0.
        4    1    3    3  502    0  0.13650108190E+03  0.84698851824E+03 -0.91347264459E+03  0.12531783515E+04  0.12699999809E+01 0.  1.
       -4    1    3    3    0  502 -0.13650108190E+03 -0.84698851824E+03  0.19841266715E+04  0.21616619433E+04  0.12699999809E+01 0. -1.
</event>
<event>
 5   0  0.4344980E-06  0.3167101E+04  0.7818609E-02  0.8197560E-01
       -2   -1    0    0    0  501  0.00000000000E+00  0.00000000000E+00  0.13171277852E+04  0.13171277852E+04  0.25500000920E-02 0.  1.
        2   -1    0    0  501    0  0.00000000000E+00  0.00000000000E+00 -0.19038638718E+04  0.19038638718E+04  0.25500000920E-02 0. -1.
    10030    2    1    2    0    0  0.00000000000E+00  0.00000000000E+00 -0.58673608652E+03  0.32209916570E+04  0.31671008855E+04 0.  0.
        3    1    3    3  502    0  0.73095736253E+02  0.18452895825E+03  0.13044275742E+04  0.13194412566E+04  0.10100000352E+00 0.  1.
       -3    1    3    3    0  502 -0.73095736253E+02 -0.18452895825E+03 -0.18911636608E+04  0.19015504004E+04  0.10100000352E+00 0. -1.
</event>
<event>
 5   0  0.1654257E-06  0.3539066E+04  0.7818609E-02  0.8104594E-01
        1   -1    0    0  501    0  0.00000000000E+00  0.00000000000E+00  0.13163982792E+04  0.13163982792E+04  0.50400001928E-02 0. -1.
       -1   -1    0    0    0  501  0.00000000000E+00  0.00000000000E+00 -0.23786476261E+04  0.23786476261E+04  0.50400001928E-02 0.  1.
    10030    2    1    2    0    0  0.00000000000E+00  0.00000000000E+00 -0.10622493470E+04  0.36950459053E+04  0.35390663412E+04 0.  0.
        3    1    3    3  502    0 -0.71774573041E+03  0.31700944573E+03  0.11248412076E+04  0.13714669791E+04  0.10100000352E+00 0. -1.
       -3    1    3    3    0  502  0.71774573041E+03 -0.31700944573E+03 -0.21870905546E+04  0.23235789262E+04  0.10100000352E+00 0.  1.
</event>
<event>
 5   0  0.2722449E-06  0.3322812E+04  0.7818609E-02  0.8157115E-01
       -2   -1    0    0    0  501  0.00000000000E+00  0.00000000000E+00  0.15395659494E+04  0.15395659494E+04  0.25500000920E-02 0. -1.
        2   -1    0    0  501    0  0.00000000000E+00  0.00000000000E+00 -0.17928882317E+04  0.17928882317E+04  0.25500000920E-02 0.  1.
    10030    2    1    2    0    0  0.00000000000E+00  0.00000000000E+00 -0.25332228229E+03  0.33324541811E+04  0.33228118651E+04 0.  0.
        2    1    3    3  502    0 -0.13602809008E+04 -0.46113085219E+03  0.71078525642E+03  0.16025671507E+04  0.25500000920E-02 0. -1.
       -2    1    3    3    0  502  0.13602809008E+04  0.46113085219E+03 -0.96410753871E+03  0.17298870304E+04  0.25500000920E-02 0.  1.
</event>
<event>
 5   0  0.4173467E-06  0.3444739E+04  0.7818609E-02  0.8127012E-01
       -2   -1    0    0    0  501  0.00000000000E+00  0.00000000000E+00  0.13927042576E+04  0.13927042576E+04  0.25500000920E-02 0. -1.
        2   -1    0    0  501    0  0.00000000000E+00  0.00000000000E+00 -0.21300697581E+04  0.21300697581E+04  0.25500000920E-02 0.  1.
    10030    2    1    2    0    0  0.00000000000E+00  0.00000000000E+00 -0.73736550048E+03  0.35227740157E+04  0.34447393057E+04 0.  0.
        4    1    3    3  502    0 -0.32037870605E+03 -0.19710452935E+03 -0.20875505841E+04  0.21211699048E+04  0.12699999809E+01 0.  1.
       -4    1    3    3    0  502  0.32037870605E+03  0.19710452935E+03  0.13501850836E+04  0.14016041109E+04  0.12699999809E+01 0. -1.
</event>
<event>
 5   0  0.1571391E-06  0.3377968E+04  0.7818609E-02  0.8143335E-01
        1   -1    0    0  501    0  0.00000000000E+00  0.00000000000E+00  0.19238347514E+04  0.19238347514E+04  0.50400001928E-02 0. -1.
       -1   -1    0    0    0  501  0.00000000000E+00  0.00000000000E+00 -0.14828028043E+04  0.14828028043E+04  0.50400001928E-02 0.  1.
    10030    2    1    2    0    0  0.00000000000E+00  0.00000000000E+00  0.44103194709E+03  0.34066375557E+04  0.33779683625E+04 0.  0.
        1    1    3    3  502    0 -0.20186978061E+03 -0.49017725706E+03 -0.13967283745E+04  0.14939462185E+04  0.50400001928E-02 0.  1.
       -1    1    3    3    0  502  0.20186978061E+03  0.49017725706E+03  0.18377603216E+04  0.19126913372E+04  0.50400001928E-02 0. -1.
</event>
<event>
 5   0  0.4344980E-06  0.3210905E+04  0.7818609E-02  0.8185943E-01
        2   -1    0    0  501    0  0.00000000000E+00  0.00000000000E+00  0.31230053782E+04  0.31230053782E+04  0.25500000920E-02 0.  1.
       -2   -1    0    0    0  501  0.00000000000E+00  0.00000000000E+00 -0.82531944346E+03  0.82531944347E+03  0.25500000920E-02 0. -1.
    10030    2    1    2    0    0  0.00000000000E+00  0.00000000000E+00  0.22976859348E+04  0.39483248217E+04  0.32109045833E+04 0.  0.
        3    1    3    3  502    0  0.96322665302E+03  0.87019897397E+03  0.23104825160E+04  0.26501662790E+04  0.10100000352E+00 0.  1.
       -3    1    3    3    0  502 -0.96322665302E+03 -0.87019897397E+03 -0.12796581186E+02  0.12981585427E+04  0.10100000352E+00 0. -1.
</event>
<event>
 5   0  0.1571391E-06  0.3426463E+04  0.7818609E-02  0.8131442E-01
       -1   -1    0    0    0  501  0.00000000000E+00  0.00000000000E+00  0.15420027165E+04  0.15420027165E+04  0.50400001928E-02 0.  1.
        1   -1    0    0  501    0  0.00000000000E+00  0.00000000000E+00 -0.19034740708E+04  0.19034740708E+04  0.50400001928E-02 0. -1.
    10030    2    1    2    0    0  0.00000000000E+00  0.00000000000E+00 -0.36147135432E+03  0.34454767873E+04  0.34264630090E+04 0.  0.
        1    1    3    3  502    0 -0.52446982429E+03  0.53616720017E+03 -0.17296137117E+04  0.18852340584E+04  0.50400001928E-02 0. -1.
       -1    1    3    3    0  502  0.52446982429E+03 -0.53616720017E+03  0.13681423574E+04  0.15602427289E+04  0.50400001928E-02 0.  1.
</event>
<event>
 5   0  0.2101998E-06  0.3032687E+04  0.7818609E-02  0.8234458E-01
        1   -1    0    0  501    0  0.00000000000E+00  0.00000000000E+00  0.15326692421E+04  0.15326692421E+04  0.50400001928E-02 0.  1.
       -1   -1    0    0    0  501  0.00000000000E+00  0.00000000000E+00 -0.15001918570E+04  0.15001918570E+04  0.50400001928E-02 0. -1.
    10030    2    1    2    0    0  0.00000000000E+00  0.00000000000E+00  0.32477385053E+02  0.30328610991E+04  0.30326872021E+04 0.  0.
        5    1    3    3  502    0  0.58021231650E+03  0.19633836305E+03  0.14034306060E+04  0.15312852905E+04  0.46999998093E+01 0.  1.
       -5    1    3    3    0  502 -0.58021231650E+03 -0.19633836305E+03 -0.13709532209E+04  0.15015758086E+04  0.46999998093E+01 0. -1.
</event>
<event>
 5   0  0.1571391E-06  0.1774709E+04  0.7818609E-02  0.8719866E-01
        1   -1    0    0  501    0  0.00000000000E+00  0.00000000000E+00  0.68175478321E+03  0.68175478323E+03  0.50400001928E-02 0.  1.
       -1   -1    0    0    0  501  0.00000000000E+00  0.00000000000E+00 -0.11549574094E+04  0.11549574094E+04  0.50400001928E-02 0. -1.
    10030    2    1    2    0    0  0.00000000000E+00  0.00000000000E+00 -0.47320262619E+03  0.18367121926E+04  0.17747086953E+04 0.  0.
        1    1    3    3  502    0  0.69216270342E+03 -0.48543570985E+03 -0.51557537515E+03  0.99022977327E+03  0.50400001928E-02 0. -1.
       -1    1    3    3    0  502 -0.69216270342E+03  0.48543570985E+03  0.42372748960E+02  0.84648241936E+03  0.50400001928E-02 0.  1.
</event>
<event>
 5   0  0.1550164E-06  0.3359203E+04  0.7818609E-02  0.8147993E-01
       -1   -1    0    0    0  501  0.00000000000E+00  0.00000000000E+00  0.99747625686E+03  0.99747625687E+03  0.50400001928E-02 0.  1.
        1   -1    0    0  501    0  0.00000000000E+00  0.00000000000E+00 -0.28281980712E+04  0.28281980712E+04  0.50400001928E-02 0. -1.
    10030    2    1    2    0    0  0.00000000000E+00  0.00000000000E+00 -0.18307218143E+04  0.38256743281E+04  0.33592025397E+04 0.  0.
        4    1    3    3  502    0 -0.13590425387E+03 -0.84027661889E+02  0.98880044110E+03  0.10016279446E+04  0.12699999809E+01 0.  1.
       -4    1    3    3    0  502  0.13590425387E+03  0.84027661889E+02 -0.28195222554E+04  0.28240463835E+04  0.12699999809E+01 0. -1.
</event>
<event>
 5   0  0.4344980E-06  0.2546136E+04  0.7818609E-02  0.8386731E-01
       -2   -1    0    0    0  501  0.00000000000E+00  0.00000000000E+00  0.12610316539E+04  0.12610316539E+04  0.25500000920E-02 0.  1.
        2   -1    0    0  501    0  0.00000000000E+00  0.00000000000E+00 -0.12852190650E+04  0.12852190650E+04  0.25500000920E-02 0. -1.
    10030    2    1    2    0    0  0.00000000000E+00  0.00000000000E+00 -0.24187411089E+02  0.25462507189E+04  0.25461358355E+04 0.  0.
        3    1    3    3  502    0 -0.65462395454E+02  0.10540861166E+04  0.69879633401E+03  0.12663724543E+04  0.10100000352E+00 0.  1.
       -3    1    3    3    0  502  0.65462395454E+02 -0.10540861166E+04 -0.72298374510E+03  0.12798782646E+04  0.10100000352E+00 0. -1.
</event>
<event>
 5   0  0.1700018E-06  0.1729251E+04  0.7818609E-02  0.8744855E-01
       -1   -1    0    0    0  501  0.00000000000E+00  0.00000000000E+00  0.71203402081E+03  0.71203402082E+03  0.50400001928E-02 0.  1.
        1   -1    0    0  501    0  0.00000000000E+00  0.00000000000E+00 -0.10499173792E+04  0.10499173792E+04  0.50400001928E-02 0. -1.
    10030    2    1    2    0    0  0.00000000000E+00  0.00000000000E+00 -0.33788335839E+03  0.17619514000E+04  0.17292505811E+04 0.  0.
        1    1    3    3  502    0 -0.12731684762E+03 -0.67236135813E+03  0.36953826496E+03  0.77771325364E+03  0.50400001928E-02 0.  1.
       -1    1    3    3    0  502  0.12731684762E+03  0.67236135813E+03 -0.70742162335E+03  0.98423814639E+03  0.50400001928E-02 0. -1.
</event>
<event>
 5   0  0.1401125E-06  0.2630205E+04  0.7818609E-02  0.8358013E-01
        4   -1    0    0  501    0  0.00000000000E+00  0.00000000000E+00  0.11579572349E+04  0.11579579314E+04  0.12699999809E+01 0. -1.
       -4   -1    0    0    0  501  0.00000000000E+00  0.00000000000E+00 -0.14935719428E+04  0.14935724827E+04  0.12699999809E+01 0.  1.
    10030    2    1    2    0    0  0.00000000000E+00  0.00000000000E+00 -0.33561470784E+03  0.26515304141E+04  0.26302046127E+04 0.  0.
        5    1    3    3  502    0  0.37369055072E+03  0.98287483892E+03 -0.96401131890E+03  0.14265438968E+04  0.46999998093E+01 0.  1.
       -5    1    3    3    0  502 -0.37369055072E+03 -0.98287483892E+03  0.62839661106E+03  0.12249865173E+04  0.46999998093E+01 0. -1.
</event>
<event>
 5   0  0.1654257E-06  0.2255575E+04  0.7818609E-02  0.8495646E-01
        1   -1    0    0  501    0  0.00000000000E+00  0.00000000000E+00  0.11326304079E+04  0.11326304079E+04  0.50400001928E-02 0.  1.
       -1   -1    0    0    0  501  0.00000000000E+00  0.00000000000E+00 -0.11229656604E+04  0.11229656604E+04  0.50400001928E-02 0. -1.
    10030    2    1    2    0    0  0.00000000000E+00  0.00000000000E+00  0.96647474572E+01  0.22555960683E+04  0.22555753626E+04 0.  0.
        3    1    3    3  502    0 -0.94559462540E+03 -0.12898912732E+03  0.60576854614E+03  0.11303729173E+04  0.10100000352E+00 0. -1.
       -3    1    3    3    0  502  0.94559462540E+03  0.12898912732E+03 -0.59610379868E+03  0.11252231510E+04  0.10100000352E+00 0.  1.
</event>
<event>
 5   0  0.4173467E-06  0.3419657E+04  0.7818609E-02  0.8133099E-01
        2   -1    0    0  501    0  0.00000000000E+00  0.00000000000E+00  0.16898911647E+04  0.16898911647E+04  0.25500000920E-02 0. -1.
       -2   -1    0    0    0  501  0.00000000000E+00  0.00000000000E+00 -0.17300011342E+04  0.17300011342E+04  0.25500000920E-02 0.  1.
    10030    2    1    2    0    0  0.00000000000E+00  0.00000000000E+00 -0.40109969547E+02  0.34198922989E+04  0.34196570773E+04 0.  0.
        4    1    3    3  502    0 -0.60175393952E+03  0.15238666131E+04 -0.50920493446E+03  0.17156831107E+04  0.12699999809E+01 0.  1.
       -4    1    3    3    0  502  0.60175393952E+03 -0.15238666131E+04  0.46909496491E+03  0.17042091882E+04  0.12699999809E+01 0. -1.
</event>
<event>
 5   0  0.4189587E-06  0.3481156E+04  0.7818609E-02  0.8118270E-01
       -2   -1    0    0    0  501  0.00000000000E+00  0.00000000000E+00  0.13616344875E+04  0.13616344875E+04  0.25500000920E-02 0. -1.
        2   -1    0    0  501    0  0.00000000000E+00  0.00000000000E+00 -0.22249821990E+04  0.22249821990E+04  0.25500000920E-02 0.  1.
    10030    2    1    2    0    0  0.00000000000E+00  0.00000000000E+00 -0.86334771160E+03  0.35866166865E+04  0.34811564149E+04 0.  0.
        1    1    3    3  502    0  0.27926020301E+03  0.10306986244E+04 -0.18478274118E+04  0.21341958812E+04  0.50400001928E-02 0.  1.
       -1    1    3    3    0  502 -0.27926020301E+03 -0.10306986244E+04  0.98447970024E+03  0.14524208053E+04  0.50400001928E-02 0. -1.
</event>
<event>
 5   0  0.1550164E-06  0.3269277E+04  0.7818609E-02  0.8170757E-01
        1   -1    0    0  501    0  0.00000000000E+00  0.00000000000E+00  0.23319625942E+04  0.23319625942E+04  0.50400001928E-02 0.  1.
       -1   -1    0    0    0  501  0.00000000000E+00  0.00000000000E+00 -0.11458343694E+04  0.11458343694E+04  0.50400001928E-02 0. -1.
    10030    2    1    2    0    0  0.00000000000E+00  0.00000000000E+00  0.11861282248E+04  0.34777969636E+04  0.32692769161E+04 0.  0.
        4    1    3    3  502    0 -0.15116029977E+04  0.45357326529E+03  0.10461014334E+04  0.18934101910E+04  0.12699999809E+01 0.  1.
       -4    1    3    3    0  502  0.15116029977E+04 -0.45357326529E+03  0.14002679147E+03  0.15843867725E+04  0.12699999809E+01 0. -1.
</event>
<event>
 5   0  0.4400349E-06  0.1924457E+04  0.7818609E-02  0.8642777E-01
       -2   -1    0    0    0  501  0.00000000000E+00  0.00000000000E+00  0.11793145342E+04  0.11793145342E+04  0.25500000920E-02 0.  1.
        2   -1    0    0  501    0  0.00000000000E+00  0.00000000000E+00 -0.78510347933E+03  0.78510347933E+03  0.25500000920E-02 0. -1.
    10030    2    1    2    0    0  0.00000000000E+00  0.00000000000E+00  0.39421105488E+03  0.19644180135E+04  0.19244572679E+04 0.  0.
        5    1    3    3  502    0  0.92521626975E+03 -0.20113264496E+03  0.37207771758E+03  0.10173216820E+04  0.46999998093E+01 0.  1.
       -5    1    3    3    0  502 -0.92521626975E+03  0.20113264496E+03  0.22133337298E+02  0.94709633158E+03  0.46999998093E+01 0. -1.
</event>
<event>
 5   0  0.1562618E-06  0.2500080E+04  0.7818609E-02  0.8402957E-01
       -1   -1    0    0    0  501  0.00000000000E+00  0.00000000000E+00  0.87621845229E+03  0.87621845230E+03  0.50400001928E-02 0. -1.
        1   -1    0    0  501    0  0.00000000000E+00  0.00000000000E+00 -0.17833456931E+04  0.17833456931E+04  0.50400001928E-02 0.  1.
    10030    2    1    2    0    0  0.00000000000E+00  0.00000000000E+00 -0.90712724077E+03  0.26595641454E+04  0.25000803212E+04 0.  0.
        2    1    3    3  502    0 -0.36797537321E+03  0.35104610420E+03  0.76119177214E+03  0.91545188653E+03  0.25500000920E-02 0. -1.
       -2    1    3    3    0  502  0.36797537321E+03 -0.35104610420E+03 -0.16683190129E+04  0.17441122588E+04  0.25500000920E-02 0.  1.
</event>
<event>
 5   0  0.1571391E-06  0.3432819E+04  0.7818609E-02  0.8129898E-01
        1   -1    0    0  501    0  0.00000000000E+00  0.00000000000E+00  0.23406025504E+04  0.23406025504E+04  0.50400001928E-02 0.  1.
       -1   -1    0    0    0  501  0.00000000000E+00  0.00000000000E+00 -0.12586767601E+04  0.12586767601E+04  0.50400001928E-02 0. -1.
    10030    2    1    2    0    0  0.00000000000E+00  0.00000000000E+00  0.10819257903E+04  0.35992793106E+04  0.34328192699E+04 0.  0.
        1    1    3    3  502    0 -0.10812642148E+03  0.15648112307E+04 -0.18978065522E+03  0.15799817113E+04  0.50400001928E-02 0. -1.
       -1    1    3    3    0  502  0.10812642148E+03 -0.15648112307E+04  0.12717064455E+04  0.20192975993E+04  0.50400001928E-02 0.  1.
</event>
<event>
 5   0  0.1401125E-06  0.2661581E+04  0.7818609E-02  0.8347579E-01
        3   -1    0    0  501    0  0.00000000000E+00  0.00000000000E+00  0.14493680300E+04  0.14493680335E+04  0.10100000352E+00 0.  1.
       -3   -1    0    0    0  501  0.00000000000E+00  0.00000000000E+00 -0.12219146054E+04  0.12219146096E+04  0.10100000352E+00 0. -1.
    10030    2    1    2    0    0  0.00000000000E+00  0.00000000000E+00  0.22745342462E+03  0.26712826431E+04  0.26615814657E+04 0.  0.
        4    1    3    3  502    0 -0.67740135995E+03 -0.11342203762E+04  0.27454149973E+03  0.13493343219E+04  0.12699999809E+01 0. -1.
       -4    1    3    3    0  502  0.67740135995E+03  0.11342203762E+04 -0.47088075116E+02  0.13219483212E+04  0.12699999809E+01 0.  1.
</event>
<event>
 5   0  0.1550164E-06  0.3375095E+04  0.7818609E-02  0.8144046E-01
       -1   -1    0    0    0  501  0.00000000000E+00  0.00000000000E+00  0.98930744101E+03  0.98930744102E+03  0.50400001928E-02 0. -1.
        1   -1    0    0  501    0  0.00000000000E+00  0.00000000000E+00 -0.28785961091E+04  0.28785961091E+04  0.50400001928E-02 0.  1.
    10030    2    1    2    0    0  0.00000000000E+00  0.00000000000E+00 -0.18892886681E+04  0.38679035501E+04  0.33750949915E+04 0.  0.
        4    1    3    3  502    0 -0.13089321741E+04 -0.39848408307E+03  0.18737193914E+03  0.13810151547E+04  0.12699999809E+01 0. -1.
       -4    1    3    3    0  502  0.13089321741E+04  0.39848408307E+03 -0.20766606072E+04  0.24868883955E+04  0.12699999809E+01 0.  1.
</event>
<event>
 5   0  0.4173467E-06  0.2926791E+04  0.7818609E-02  0.8264951E-01
        2   -1    0    0  501    0  0.00000000000E+00  0.00000000000E+00  0.16840744200E+04  0.16840744200E+04  0.25500000920E-02 0. -1.
       -2   -1    0    0    0  501  0.00000000000E+00  0.00000000000E+00 -0.12716338262E+04  0.12716338262E+04  0.25500000920E-02 0.  1.
    10030    2    1    2    0    0  0.00000000000E+00  0.00000000000E+00  0.41244059373E+03  0.29557082462E+04  0.29267907328E+04 0.  0.
        4    1    3    3  502    0 -0.53187363173E+03  0.33989344761E+03  0.15395327918E+04  0.16639050291E+04  0.12699999809E+01 0. -1.
       -4    1    3    3    0  502  0.53187363173E+03 -0.33989344761E+03 -0.11270921981E+04  0.12918032171E+04  0.12699999809E+01 0.  1.
</event>
<event>
 5   0  0.2722449E-06  0.1991436E+04  0.7818609E-02  0.8610635E-01
       -2   -1    0    0    0  501  0.00000000000E+00  0.00000000000E+00  0.73537845710E+03  0.73537845710E+03  0.25500000920E-02 0. -1.
        2   -1    0    0  501    0  0.00000000000E+00  0.00000000000E+00 -0.13482226494E+04  0.13482226494E+04  0.25500000920E-02 0.  1.
    10030    2    1    2    0    0  0.00000000000E+00  0.00000000000E+00 -0.61284419229E+03  0.20836011065E+04  0.19914355543E+04 0.  0.
        2    1    3    3  502    0  0.91806890030E+03 -0.42500739969E+02 -0.70729529453E+03  0.11597083479E+04  0.25500000920E-02 0. -1.
       -2    1    3    3    0  502 -0.91806890030E+03  0.42500739969E+02  0.94451102249E+02  0.92389275856E+03  0.25500000920E-02 0.  1.
</event>
<event>
 5   0  0.1571391E-06  0.2249713E+04  0.7818609E-02  0.8498017E-01
        1   -1    0    0  501    0  0.00000000000E+00  0.00000000000E+00  0.13317411589E+04  0.13317411589E+04  0.50400001928E-02 0. -1.
       -1   -1    0    0    0  501  0.00000000000E+00  0.00000000000E+00 -0.95011114379E+03  0.95011114381E+03  0.50400001928E-02 0.  1.
    10030    2    1    2    0    0  0.00000000000E+00  0.00000000000E+00  0.38163001509E+03  0.22818523027E+04  0.22497129735E+04 0.  0.
        1    1    3    3  502    0 -0.48090914975E+03 -0.10023203831E+04  0.36467662615E+03  0.11700037617E+04  0.50400001928E-02 0.  1.
       -1    1    3    3    0  502  0.48090914975E+03  0.10023203831E+04  0.16953388944E+02  0.11118485410E+04  0.50400001928E-02 0. -1.
</event>
<event>
 5   0  0.1562618E-06  0.3371055E+04  0.7818609E-02  0.8145047E-01
       -1   -1    0    0    0  501  0.00000000000E+00  0.00000000000E+00  0.16647385021E+04  0.16647385021E+04  0.50400001928E-02 0. -1.
        1   -1    0    0  501    0  0.00000000000E+00  0.00000000000E+00 -0.17065759450E+04  0.17065759451E+04  0.50400001928E-02 0.  1.
    10030    2    1    2    0    0  0.00000000000E+00  0.00000000000E+00 -0.41837442928E+02  0.33713144472E+04  0.33710548394E+04 0.  0.
        2    1    3    3  502    0 -0.16230337096E+04 -0.38279385497E+03  0.22452455556E+03  0.16826113140E+04  0.25500000920E-02 0. -1.
       -2    1    3    3    0  502  0.16230337096E+04  0.38279385497E+03 -0.26636199848E+03  0.16887031332E+04  0.25500000920E-02 0.  1.
</event>
<event>
 5   0  0.2722449E-06  0.3386254E+04  0.7818609E-02  0.8141288E-01
        2   -1    0    0  501    0  0.00000000000E+00  0.00000000000E+00  0.30874152498E+04  0.30874152498E+04  0.25500000920E-02 0. -1.
       -2   -1    0    0    0  501  0.00000000000E+00  0.00000000000E+00 -0.92850459301E+03  0.92850459301E+03  0.25500000920E-02 0.  1.
    10030    2    1    2    0    0  0.00000000000E+00  0.00000000000E+00  0.21589106568E+04  0.40159198428E+04  0.33862541192E+04 0.  0.
        2    1    3    3  502    0  0.23787622291E+03  0.98866137675E+03 -0.52602284190E+03  0.11448739867E+04  0.25500000920E-02 0.  1.
       -2    1    3    3    0  502 -0.23787622291E+03 -0.98866137675E+03  0.26849334987E+04  0.28710458561E+04  0.25500000920E-02 0. -1.
</event>
<event>
 5   0  0.4173467E-06  0.2267825E+04  0.7818609E-02  0.8490717E-01
       -2   -1    0    0    0  501  0.00000000000E+00  0.00000000000E+00  0.52484065468E+03  0.52484065468E+03  0.25500000920E-02 0.  1.
        2   -1    0    0  501    0  0.00000000000E+00  0.00000000000E+00 -0.24498046963E+04  0.24498046963E+04  0.25500000920E-02 0. -1.
    10030    2    1    2    0    0  0.00000000000E+00  0.00000000000E+00 -0.19249640417E+04  0.29746453510E+04  0.22678245970E+04 0.  0.
        4    1    3    3  502    0 -0.10797369111E+04  0.24500868799E+03 -0.64147172355E+03  0.12795892464E+04  0.12699999809E+01 0. -1.
       -4    1    3    3    0  502  0.10797369111E+04 -0.24500868799E+03 -0.12834923181E+04  0.16950561047E+04  0.12699999809E+01 0.  1.
</event>
<event>
 5   0  0.4344980E-06  0.3372233E+04  0.7818609E-02  0.8144755E-01
       -2   -1    0    0    0  501  0.00000000000E+00  0.00000000000E+00  0.17999800374E+04  0.17999800374E+04  0.25500000920E-02 0. -1.
        2   -1    0    0  501    0  0.00000000000E+00  0.00000000000E+00 -0.15794553417E+04  0.15794553417E+04  0.25500000920E-02 0.  1.
    10030    2    1    2    0    0  0.00000000000E+00  0.00000000000E+00  0.22052469574E+03  0.33794353791E+04  0.33722325453E+04 0.  0.
        3    1    3    3  502    0 -0.14245752432E+04  0.38044115322E+02  0.10133675917E+04  0.17486497260E+04  0.10100000352E+00 0.  1.
       -3    1    3    3    0  502  0.14245752432E+04 -0.38044115322E+02 -0.79284289599E+03  0.16307856530E+04  0.10100000352E+00 0. -1.
</event>
<event>
 5   0  0.4189587E-06  0.3371618E+04  0.7818609E-02  0.8144907E-01
       -2   -1    0    0    0  501  0.00000000000E+00  0.00000000000E+00  0.16922372298E+04  0.16922372298E+04  0.25500000920E-02 0. -1.
        2   -1    0    0  501    0  0.00000000000E+00  0.00000000000E+00 -0.16794054828E+04  0.16794054828E+04  0.25500000920E-02 0.  1.
    10030    2    1    2    0    0  0.00000000000E+00  0.00000000000E+00  0.12831746998E+02  0.33716427127E+04  0.33716182952E+04 0.  0.
        1    1    3    3  502    0  0.13673278737E+04 -0.71504288767E+03  0.68544997801E+03  0.16884056141E+04  0.50400001928E-02 0. -1.
       -1    1    3    3    0  502 -0.13673278737E+04  0.71504288767E+03 -0.67261823101E+03  0.16832370986E+04  0.50400001928E-02 0.  1.
</event>
<event>
 5   0  0.2101998E-06  0.3331096E+04  0.7818609E-02  0.8155028E-01
        1   -1    0    0  501    0  0.00000000000E+00  0.00000000000E+00  0.16720135532E+04  0.16720135532E+04  0.50400001928E-02 0. -1.
       -1   -1    0    0    0  501  0.00000000000E+00  0.00000000000E+00 -0.16591070966E+04  0.16591070966E+04  0.50400001928E-02 0.  1.
    10030    2    1    2    0    0  0.00000000000E+00  0.00000000000E+00  0.12906456583E+02  0.33311206498E+04  0.33310956466E+04 0.  0.
        5    1    3    3  502    0 -0.59918472572E+03 -0.11353278054E+04  0.10676095808E+04  0.16696717846E+04  0.46999998093E+01 0. -1.
       -5    1    3    3    0  502  0.59918472572E+03  0.11353278054E+04 -0.10547031242E+04  0.16614488652E+04  0.46999998093E+01 0.  1.
</event>
<event>
 5   0  0.4344980E-06  0.3595953E+04  0.7818609E-02  0.8091419E-01
       -2   -1    0    0    0  501  0.00000000000E+00  0.00000000000E+00  0.19022980511E+04  0.19022980511E+04  0.25500000920E-02 0.  1.
        2   -1    0    0  501    0  0.00000000000E+00  0.00000000000E+00 -0.16993760756E+04  0.16993760756E+04  0.25500000920E-02 0. -1.
    10030    2    1    2    0    0  0.00000000000E+00  0.00000000000E+00  0.20292197550E+03  0.36016741268E+04  0.35959531681E+04 0.  0.
        3    1    3    3  502    0 -0.72313295013E+03  0.12090360484E+04  0.12203911050E+04  0.18638787217E+04  0.10100000352E+00 0.  1.
       -3    1    3    3    0  502  0.72313295013E+03 -0.12090360484E+04 -0.10174691295E+04  0.17377954050E+04  0.10100000352E+00 0. -1.
</event>
<event>
 5   0  0.4400349E-06  0.3379631E+04  0.7818609E-02  0.8142924E-01
       -2   -1    0    0    0  501  0.00000000000E+00  0.00000000000E+00  0.13972585756E+04  0.13972585756E+04  0.25500000920E-02 0. -1.
        2   -1    0    0  501    0  0.00000000000E+00  0.00000000000E+00 -0.20436273098E+04  0.20436273098E+04  0.25500000920E-02 0.  1.
    10030    2    1    2    0    0  0.00000000000E+00  0.00000000000E+00 -0.64636873415E+03  0.34408858854E+04  0.33796306212E+04 0.  0.
        5    1    3    3  502    0  0.73797574098E+03 -0.23555782744E+03 -0.18521889200E+04  0.20076657017E+04  0.46999998093E+01 0.  1.
       -5    1    3    3    0  502 -0.73797574098E+03  0.23555782744E+03  0.12058201859E+04  0.14332201837E+04  0.46999998093E+01 0. -1.
</event>
<event>
 5   0  0.4344980E-06  0.3378243E+04  0.7818609E-02  0.8143267E-01
        2   -1    0    0  501    0  0.00000000000E+00  0.00000000000E+00  0.18719584083E+04  0.18719584083E+04  0.25500000920E-02 0. -1.
       -2   -1    0    0    0  501  0.00000000000E+00  0.00000000000E+00 -0.15241427139E+04  0.15241427139E+04  0.25500000920E-02 0.  1.
    10030    2    1    2    0    0  0.00000000000E+00  0.00000000000E+00  0.34781569437E+03  0.33961011222E+04  0.33782431936E+04 0.  0.
        3    1    3    3  502    0  0.36568513982E+03 -0.14217335855E+04 -0.66602046874E+03  0.16120283139E+04  0.10100000352E+00 0. -1.
       -3    1    3    3    0  502 -0.36568513982E+03  0.14217335855E+04  0.10138361631E+04  0.17840728084E+04  0.10100000352E+00 0.  1.
</event>
<event>
 5   0  0.1571391E-06  0.2043640E+04  0.7818609E-02  0.8586485E-01
        1   -1    0    0  501    0  0.00000000000E+00  0.00000000000E+00  0.13231971496E+04  0.13231971496E+04  0.50400001928E-02 0.  1.
       -1   -1    0    0    0  501  0.00000000000E+00  0.00000000000E+00 -0.78908592666E+03  0.78908592668E+03  0.50400001928E-02 0. -1.
    10030    2    1    2    0    0  0.00000000000E+00  0.00000000000E+00  0.53411122289E+03  0.21122830762E+04  0.20436401336E+04 0.  0.
        1    1    3    3  502    0 -0.39741506324E+02 -0.82206515223E+03 -0.35888083460E+03  0.89786744863E+03  0.50400001928E-02 0. -1.
       -1    1    3    3    0  502  0.39741506324E+02  0.82206515223E+03  0.89299205749E+03  0.12144156276E+04  0.50400001928E-02 0.  1.
</event>
<event>
 5   0  0.1562618E-06  0.3440511E+04  0.7818609E-02  0.8128035E-01
        1   -1    0    0  501    0  0.00000000000E+00  0.00000000000E+00  0.19720450649E+04  0.19720450649E+04  0.50400001928E-02 0.  1.
       -1   -1    0    0    0  501  0.00000000000E+00  0.00000000000E+00 -0.15006144751E+04  0.15006144751E+04  0.50400001928E-02 0. -1.
    10030    2    1    2    0    0  0.00000000000E+00  0.00000000000E+00  0.47143058985E+03  0.34726595400E+04  0.34405112236E+04 0.  0.
        2    1    3    3  502    0 -0.15627662819E+04  0.69142900797E+03  0.43496002855E+03  0.17633782213E+04  0.25500000920E-02 0.  1.
       -2    1    3    3    0  502  0.15627662819E+04 -0.69142900797E+03  0.36470561305E+02  0.17092813188E+04  0.25500000920E-02 0. -1.
</event>
<event>
 5   0  0.1654257E-06  0.3253480E+04  0.7818609E-02  0.8174834E-01
       -1   -1    0    0    0  501  0.00000000000E+00  0.00000000000E+00  0.12259675288E+04  0.12259675288E+04  0.50400001928E-02 0. -1.
        1   -1    0    0  501    0  0.00000000000E+00  0.00000000000E+00 -0.21585263834E+04  0.21585263834E+04  0.50400001928E-02 0.  1.
    10030    2    1    2    0    0  0.00000000000E+00  0.00000000000E+00 -0.93255885466E+03  0.33844939122E+04  0.32534801405E+04 0.  0.
        3    1    3    3  502    0  0.16262498511E+04 -0.32101238410E+02 -0.44157050515E+03  0.16854386933E+04  0.10100000352E+00 0. -1.
       -3    1    3    3    0  502 -0.16262498511E+04  0.32101238410E+02 -0.49098834951E+03  0.16990552190E+04  0.10100000352E+00 0.  1.
</event>
<event>
 5   0  0.1654257E-06  0.3235331E+04  0.7818609E-02  0.8179548E-01
       -1   -1    0    0    0  501  0.00000000000E+00  0.00000000000E+00  0.13878440677E+04  0.13878440677E+04  0.50400001928E-02 0.  1.
        1   -1    0    0  501    0  0.00000000000E+00  0.00000000000E+00 -0.18855445796E+04  0.18855445796E+04  0.50400001928E-02 0. -1.
    10030    2    1    2    0    0  0.00000000000E+00  0.00000000000E+00 -0.49770051193E+03  0.32733886473E+04  0.32353311170E+04 0.  0.
        3    1    3    3  502    0  0.35509036151E+03 -0.33372767915E+03 -0.18095185427E+04  0.18739852441E+04  0.10100000352E+00 0. -1.
       -3    1    3    3    0  502 -0.35509036151E+03  0.33372767915E+03  0.13118180308E+04  0.13994034032E+04  0.10100000352E+00 0.  1.
</event>
<event>
 5   0  0.2722449E-06  0.3394558E+04  0.7818609E-02  0.8139243E-01
        2   -1    0    0  501    0  0.00000000000E+00  0.00000000000E+00  0.14193468708E+04  0.14193468708E+04  0.25500000920E-02 0. -1.
       -2   -1    0    0    0  501  0.00000000000E+00  0.00000000000E+00 -0.20296354138E+04  0.20296354138E+04  0.25500000920E-02 0.  1.
    10030    2    1    2    0    0  0.00000000000E+00  0.00000000000E+00 -0.61028854292E+03  0.34489822846E+04  0.33945583945E+04 0.  0.
        2    1    3    3  502    0 -0.43595772229E+03 -0.48500467719E+03 -0.18972606831E+04  0.20062120457E+04  0.25500000920E-02 0.  1.
       -2    1    3    3    0  502  0.43595772229E+03  0.48500467719E+03  0.12869721402E+04  0.14427702389E+04  0.25500000920E-02 0. -1.
</event>
<event>
 5   0  0.1654257E-06  0.1779686E+04  0.7818609E-02  0.8717177E-01
       -1   -1    0    0    0  501  0.00000000000E+00  0.00000000000E+00  0.50837843772E+03  0.50837843775E+03  0.50400001928E-02 0.  1.
        1   -1    0    0  501    0  0.00000000000E+00  0.00000000000E+00 -0.15575414310E+04  0.15575414310E+04  0.50400001928E-02 0. -1.
    10030    2    1    2    0    0  0.00000000000E+00  0.00000000000E+00 -0.10491629933E+04  0.20659198688E+04  0.17796859042E+04 0.  0.
        3    1    3    3  502    0 -0.12684657645E+02  0.39987699154E+03  0.39808653423E+03  0.56438941153E+03  0.10100000352E+00 0.  1.
       -3    1    3    3    0  502  0.12684657645E+02 -0.39987699154E+03 -0.14472495275E+04  0.15015304572E+04  0.10100000352E+00 0. -1.
</event>
<event>
 5   0  0.4400349E-06  0.3279048E+04  0.7818609E-02  0.8168247E-01
        2   -1    0    0  501    0  0.00000000000E+00  0.00000000000E+00  0.10714858034E+04  0.10714858034E+04  0.25500000920E-02 0.  1.
       -2   -1    0    0    0  501  0.00000000000E+00  0.00000000000E+00 -0.25087025269E+04  0.25087025269E+04  0.25500000920E-02 0. -1.
    10030    2    1    2    0    0  0.00000000000E+00  0.00000000000E+00 -0.14372167235E+04  0.35801883303E+04  0.32790481195E+04 0.  0.
        5    1    3    3  502    0 -0.14750866182E+04  0.30181178326E+03 -0.14270807727E+04  0.20745005436E+04  0.46999998093E+01 0. -1.
       -5    1    3    3    0  502  0.14750866182E+04 -0.30181178326E+03 -0.10135950857E+02  0.15056877867E+04  0.46999998093E+01 0.  1.
</event>
<event>
 5   0  0.1571391E-06  0.3164602E+04  0.7818609E-02  0.8198229E-01
       -1   -1    0    0    0  501  0.00000000000E+00  0.00000000000E+00  0.12321379811E+04  0.12321379812E+04  0.50400001928E-02 0. -1.
        1   -1    0    0  501    0  0.00000000000E+00  0.00000000000E+00 -0.20319767389E+04  0.20319767389E+04  0.50400001928E-02 0.  1.
    10030    2    1    2    0    0  0.00000000000E+00  0.00000000000E+00 -0.79983875777E+03  0.32641147201E+04  0.31646015338E+04 0.  0.
        1    1    3    3  502    0 -0.11440903122E+04  0.49438540435E+03 -0.14054155795E+04  0.18784441758E+04  0.50400001928E-02 0.  1.
       -1    1    3    3    0  502  0.11440903122E+04 -0.49438540435E+03  0.60557682170E+03  0.13856705443E+04  0.50400001928E-02 0. -1.
</event>
<event>
 5   0  0.4173467E-06  0.3383120E+04  0.7818609E-02  0.8142062E-01
       -2   -1    0    0    0  501  0.00000000000E+00  0.00000000000E+00  0.12122736111E+04  0.12122736111E+04  0.25500000920E-02 0. -1.
        2   -1    0    0  501    0  0.00000000000E+00  0.00000000000E+00 -0.23603384885E+04  0.23603384885E+04  0.25500000920E-02 0.  1.
    10030    2    1    2    0    0  0.00000000000E+00  0.00000000000E+00 -0.11480648774E+04  0.35726120996E+04  0.33831204903E+04 0.  0.
        4    1    3    3  502    0  0.17845601209E+03  0.16586621443E+04 -0.27841012834E+03  0.16913073256E+04  0.12699999809E+01 0. -1.
       -4    1    3    3    0  502 -0.17845601209E+03 -0.16586621443E+04 -0.86965474907E+03  0.18813047740E+04  0.12699999809E+01 0.  1.
</event>
<event>
 5   0  0.4420884E-06  0.1691634E+04  0.7818609E-02  0.8766150E-01
       -2   -1    0    0    0  501  0.00000000000E+00  0.00000000000E+00  0.68915677162E+03  0.68915677163E+03  0.25500000920E-02 0.  1.
        2   -1    0    0  501    0  0.00000000000E+00  0.00000000000E+00 -0.10380896782E+04  0.10380896783E+04  0.25500000920E-02 0. -1.
    10030    2    1    2    0    0  0.00000000000E+00  0.00000000000E+00 -0.34893290662E+03  0.17272464499E+04  0.16916341582E+04 0.  0.
        2    1    3    3  502    0  0.70275843390E+03 -0.27760025569E+02  0.30528295178E+03  0.76670575588E+03  0.25500000920E-02 0.  1.
       -2    1    3    3    0  502 -0.70275843390E+03  0.27760025569E+02 -0.65421585840E+03  0.96054069400E+03  0.25500000920E-02 0. -1.
</event>
<event>
 5   0  0.1654257E-06  0.3243907E+04  0.7818609E-02  0.8177317E-01
       -1   -1    0    0    0  501  0.00000000000E+00  0.00000000000E+00  0.27926571932E+04  0.27926571932E+04  0.50400001928E-02 0.  1.
        1   -1    0    0  501    0  0.00000000000E+00  0.00000000000E+00 -0.94201821669E+03  0.94201821670E+03  0.50400001928E-02 0. -1.
    10030    2    1    2    0    0  0.00000000000E+00  0.00000000000E+00  0.18506389765E+04  0.37346754099E+04  0.32439074888E+04 0.  0.
        3    1    3    3  502    0  0.32890551398E+03 -0.95298807225E+03  0.23881222933E+04  0.25921985265E+04  0.10100000352E+00 0.  1.
       -3    1    3    3    0  502 -0.32890551398E+03  0.95298807225E+03 -0.53748331681E+03  0.11424768834E+04  0.10100000352E+00 0. -1.
</event>
<event>
 5   0  0.4189587E-06  0.2333280E+04  0.7818609E-02  0.8464914E-01
       -2   -1    0    0    0  501  0.00000000000E+00  0.00000000000E+00  0.80561164786E+03  0.80561164786E+03  0.25500000920E-02 0. -1.
        2   -1    0    0  501    0  0.00000000000E+00  0.00000000000E+00 -0.16894597804E+04  0.16894597804E+04  0.25500000920E-02 0.  1.
    10030    2    1    2    0    0  0.00000000000E+00  0.00000000000E+00 -0.88384813250E+03  0.24950714282E+04  0.23332796469E+04 0.  0.
        1    1    3    3  502    0 -0.22504240690E+03  0.11354052001E+04 -0.28600761509E+03  0.11923042435E+04  0.50400001928E-02 0.  1.
       -1    1    3    3    0  502  0.22504240690E+03 -0.11354052001E+04 -0.59784051741E+03  0.13027671847E+04  0.50400001928E-02 0. -1.
</event>
<event>
 5   0  0.1571391E-06  0.2312996E+04  0.7818609E-02  0.8472815E-01
        1   -1    0    0  501    0  0.00000000000E+00  0.00000000000E+00  0.95025647441E+03  0.95025647443E+03  0.50400001928E-02 0. -1.
       -1   -1    0    0    0  501  0.00000000000E+00  0.00000000000E+00 -0.14075012534E+04  0.14075012534E+04  0.50400001928E-02 0.  1.
    10030    2    1    2    0    0  0.00000000000E+00  0.00000000000E+00 -0.45724477895E+03  0.23577577278E+04  0.23129956150E+04 0.  0.
        1    1    3    3  502    0  0.58836571164E+03  0.42757457722E+03 -0.11451857363E+04  0.13566298686E+04  0.50400001928E-02 0. -1.
       -1    1    3    3    0  502 -0.58836571164E+03 -0.42757457722E+03  0.68794095732E+03  0.10011278592E+04  0.50400001928E-02 0.  1.
</event>
<event>
 5   0  0.1571391E-06  0.3191302E+04  0.7818609E-02  0.8191118E-01
       -1   -1    0    0    0  501  0.00000000000E+00  0.00000000000E+00  0.30587390385E+04  0.30587390385E+04  0.50400001928E-02 0. -1.
        1   -1    0    0  501    0  0.00000000000E+00  0.00000000000E+00 -0.83240256872E+03  0.83240256873E+03  0.50400001928E-02 0.  1.
    10030    2    1    2    0    0  0.00000000000E+00  0.00000000000E+00  0.22263364698E+04  0.38911416073E+04  0.31913020745E+04 0.  0.
        1    1    3    3  502    0  0.11181059219E+04  0.43103425903E+03 -0.17152701677E+03  0.12105258785E+04  0.50400001928E-02 0.  1.
       -1    1    3    3    0  502 -0.11181059219E+04 -0.43103425903E+03  0.23978634866E+04  0.26806157288E+04  0.50400001928E-02 0. -1.
</event>
<event>
 5   0  0.4173467E-06  0.3349259E+04  0.7818609E-02  0.8150473E-01
        2   -1    0    0  501    0  0.00000000000E+00  0.00000000000E+00  0.16652208540E+04  0.16652208540E+04  0.25500000920E-02 0. -1.
       -2   -1    0    0    0  501  0.00000000000E+00  0.00000000000E+00 -0.16840912763E+04  0.16840912763E+04  0.25500000920E-02 0.  1.
    10030    2    1    2    0    0  0.00000000000E+00  0.00000000000E+00 -0.18870422315E+02  0.33493121303E+04  0.33492589708E+04 0.  0.
        4    1    3    3  502    0  0.12802626310E+03  0.58457106027E+03  0.15546446803E+04  0.16658438533E+04  0.12699999809E+01 0. -1.
       -4    1    3    3    0  502 -0.12802626310E+03 -0.58457106027E+03 -0.15735151027E+04  0.16834682770E+04  0.12699999809E+01 0.  1.
</event>
<event>
 5   0  0.4400349E-06  0.2751876E+04  0.7818609E-02  0.8318367E-01
        2   -1    0    0  501    0  0.00000000000E+00  0.00000000000E+00  0.21358728467E+04  0.21358728467E+04  0.25500000920E-02 0. -1.
       -2   -1    0    0    0  501  0.00000000000E+00  0.00000000000E+00 -0.88638476375E+03  0.88638476376E+03  0.25500000920E-02 0.  1.
    10030    2    1    2    0    0  0.00000000000E+00  0.00000000000E+00  0.12494880829E+04  0.30222576104E+04  0.27518758319E+04 0.  0.
        5    1    3    3  502    0  0.71618245526E+03 -0.52505015147E+03  0.17790018559E+04  0.19883321312E+04  0.46999998093E+01 0. -1.
       -5    1    3    3    0  502 -0.71618245526E+03  0.52505015147E+03 -0.52951377298E+03  0.10339254792E+04  0.46999998093E+01 0.  1.
</event>
<event>
 5   0  0.1401125E-06  0.3503593E+04  0.7818609E-02  0.8112939E-01
       -3   -1    0    0    0  501  0.00000000000E+00  0.00000000000E+00  0.19801030890E+04  0.19801030915E+04  0.10100000352E+00 0.  1.
        3   -1    0    0  501    0  0.00000000000E+00  0.00000000000E+00 -0.15498137386E+04  0.15498137419E+04  0.10100000352E+00 0. -1.
    10030    2    1    2    0    0  0.00000000000E+00  0.00000000000E+00  0.43028935038E+03  0.35299168334E+04  0.35035930023E+04 0.  0.
        3    1    3    3  502    0  0.59031378509E+03  0.15540310249E+04  0.77184316496E+03  0.18328187780E+04  0.10100000352E+00 0.  1.
       -3    1    3    3    0  502 -0.59031378509E+03 -0.15540310249E+04 -0.34155381458E+03  0.16970980555E+04  0.10100000352E+00 0. -1.
</event>
<event>
 5   0  0.4189587E-06  0.3336628E+04  0.7818609E-02  0.8153638E-01
       -2   -1    0    0    0  501  0.00000000000E+00  0.00000000000E+00  0.18443558935E+04  0.18443558935E+04  0.25500000920E-02 0.  1.
        2   -1    0    0  501    0  0.00000000000E+00  0.00000000000E+00 -0.15090748120E+04  0.15090748120E+04  0.25500000920E-02 0. -1.
    10030    2    1    2    0    0  0.00000000000E+00  0.00000000000E+00  0.33528108156E+03  0.33534307055E+04  0.33366276527E+04 0.  0.
        1    1    3    3  502    0  0.71478321126E+02 -0.97212716378E+03 -0.11931093287E+04  0.15406655196E+04  0.50400001928E-02 0. -1.
       -1    1    3    3    0  502 -0.71478321126E+02  0.97212716378E+03  0.15283904103E+04  0.18127651859E+04  0.50400001928E-02 0.  1.
</event>
<event>
 5   0  0.4344980E-06  0.3310315E+04  0.7818609E-02  0.8160276E-01
        2   -1    0    0  501    0  0.00000000000E+00  0.00000000000E+00  0.21097212277E+04  0.21097212277E+04  0.25500000920E-02 0. -1.
       -2   -1    0    0    0  501  0.00000000000E+00  0.00000000000E+00 -0.12985347160E+04  0.12985347160E+04  0.25500000920E-02 0.  1.
    10030    2    1    2    0    0  0.00000000000E+00  0.00000000000E+00  0.81118651171E+03  0.34082559437E+04  0.33103149429E+04 0.  0.
        3    1    3    3  502    0  0.27130087061E+03  0.13203316175E+04  0.13945681417E+04  0.19395102615E+04  0.10100000352E+00 0. -1.
       -3    1    3    3    0  502 -0.27130087061E+03 -0.13203316175E+04 -0.58338162995E+03  0.14687456822E+04  0.10100000352E+00 0.  1.
</event>
<event>
 5   0  0.2722449E-06  0.2000869E+04  0.7818609E-02  0.8606214E-01
       -2   -1    0    0    0  501  0.00000000000E+00  0.00000000000E+00  0.62536415167E+03  0.62536415168E+03  0.25500000920E-02 0. -1.
        2   -1    0    0  501    0  0.00000000000E+00  0.00000000000E+00 -0.16004589813E+04  0.16004589813E+04  0.25500000920E-02 0.  1.
    10030    2    1    2    0    0  0.00000000000E+00  0.00000000000E+00 -0.97509482962E+03  0.22258231330E+04  0.20008694841E+04 0.  0.
        2    1    3    3  502    0  0.58570074522E+03 -0.20192248684E+03  0.38629403108E+03  0.73009665942E+03  0.25500000920E-02 0. -1.
       -2    1    3    3    0  502 -0.58570074522E+03  0.20192248684E+03 -0.13613888607E+04  0.14957264736E+04  0.25500000920E-02 0.  1.
</event>
<event>
 5   0  0.1654257E-06  0.2784015E+04  0.7818609E-02  0.8308248E-01
        1   -1    0    0  501    0  0.00000000000E+00  0.00000000000E+00  0.24512249530E+04  0.24512249530E+04  0.50400001928E-02 0. -1.
       -1   -1    0    0    0  501  0.00000000000E+00  0.00000000000E+00 -0.79049681651E+03  0.79049681653E+03  0.50400001928E-02 0.  1.
    10030    2    1    2    0    0  0.00000000000E+00  0.00000000000E+00  0.16607281365E+04  0.32417217695E+04  0.27840154611E+04 0.  0.
        3    1    3    3  502    0  0.77579724774E+03  0.96784387442E+03  0.15659717432E+04  0.19977113519E+04  0.10100000352E+00 0. -1.
       -3    1    3    3    0  502 -0.77579724774E+03 -0.96784387442E+03  0.94756393267E+02  0.12440104176E+04  0.10100000352E+00 0.  1.
</event>
<event>
 5   0  0.1654257E-06  0.3920903E+04  0.7818609E-02  0.8020696E-01
        1   -1    0    0  501    0  0.00000000000E+00  0.00000000000E+00  0.27083883420E+04  0.27083883420E+04  0.50400001928E-02 0.  1.
       -1   -1    0    0    0  501  0.00000000000E+00  0.00000000000E+00 -0.14190616675E+04  0.14190616675E+04  0.50400001928E-02 0. -1.
    10030    2    1    2    0    0  0.00000000000E+00  0.00000000000E+00  0.12893266745E+04  0.41274500095E+04  0.39209029964E+04 0.  0.
        3    1    3    3  502    0 -0.32438301395E+03  0.13569388096E+04 -0.80515531601E+03  0.16108328174E+04  0.10100000352E+00 0. -1.
       -3    1    3    3    0  502  0.32438301395E+03 -0.13569388096E+04  0.20944819905E+04  0.25166171920E+04  0.10100000352E+00 0.  1.
</event>
<event>
 5   0  0.4189587E-06  0.3303623E+04  0.7818609E-02  0.8161974E-01
       -2   -1    0    0    0  501  0.00000000000E+00  0.00000000000E+00  0.13689383632E+04  0.13689383632E+04  0.25500000920E-02 0.  1.
        2   -1    0    0  501    0  0.00000000000E+00  0.00000000000E+00 -0.19931363192E+04  0.19931363192E+04  0.25500000920E-02 0. -1.
    10030    2    1    2    0    0  0.00000000000E+00  0.00000000000E+00 -0.62419795605E+03  0.33620746824E+04  0.33036227208E+04 0.  0.
        1    1    3    3  502    0 -0.13128861426E+04 -0.14669330394E+02  0.70793006765E+03  0.14916602138E+04  0.50400001928E-02 0.  1.
       -1    1    3    3    0  502  0.13128861426E+04  0.14669330394E+02 -0.13321280237E+04  0.18704144686E+04  0.50400001928E-02 0. -1.
</event>
<event>
 5   0  0.4173467E-06  0.2593079E+04  0.7818609E-02  0.8370556E-01
       -2   -1    0    0    0  501  0.00000000000E+00  0.00000000000E+00  0.13420923158E+04  0.13420923158E+04  0.25500000920E-02 0. -1.
        2   -1    0    0  501    0  0.00000000000E+00  0.00000000000E+00 -0.12525331768E+04  0.12525331768E+04  0.25500000920E-02 0.  1.
    10030    2    1    2    0    0  0.00000000000E+00  0.00000000000E+00  0.89559139000E+02  0.25946254927E+04  0.25930793678E+04 0.  0.
        4    1    3    3  502    0  0.86956067577E+03  0.49310627409E+03 -0.78137850950E+03  0.12687961043E+04  0.12699999809E+01 0.  1.
       -4    1    3    3    0  502 -0.86956067577E+03 -0.49310627409E+03  0.87093764850E+03  0.13258293883E+04  0.12699999809E+01 0. -1.
</event>
<event>
 5   0  0.1562618E-06  0.2199856E+04  0.7818609E-02  0.8518488E-01
       -1   -1    0    0    0  501  0.00000000000E+00  0.00000000000E+00  0.98602945202E+03  0.98602945204E+03  0.50400001928E-02 0. -1.
        1   -1    0    0  501    0  0.00000000000E+00  0.00000000000E+00 -0.12269836742E+04  0.12269836743E+04  0.50400001928E-02 0.  1.
    10030    2    1    2    0    0  0.00000000000E+00  0.00000000000E+00 -0.24095422223E+03  0.22130131263E+04  0.21998563953E+04 0.  0.
        2    1    3    3  502    0  0.45499022570E+03 -0.69140149618E+03  0.60827931087E+03  0.10271591184E+04  0.25500000920E-02 0. -1.
       -2    1    3    3    0  502 -0.45499022570E+03  0.69140149618E+03 -0.84923353310E+03  0.11858540079E+04  0.25500000920E-02 0.  1.
</event>
<event>
 5   0  0.1571391E-06  0.1962323E+04  0.7818609E-02  0.8624441E-01
       -1   -1    0    0    0  501  0.00000000000E+00  0.00000000000E+00  0.70473553543E+03  0.70473553545E+03  0.50400001928E-02 0.  1.
        1   -1    0    0  501    0  0.00000000000E+00  0.00000000000E+00 -0.13660124706E+04  0.13660124706E+04  0.50400001928E-02 0. -1.
    10030    2    1    2    0    0  0.00000000000E+00  0.00000000000E+00 -0.66127693514E+03  0.20707480060E+04  0.19623226339E+04 0.  0.
        1    1    3    3  502    0 -0.72676656423E+03  0.47177794592E+03  0.15513759528E+03  0.88024527413E+03  0.50400001928E-02 0.  1.
       -1    1    3    3    0  502  0.72676656423E+03 -0.47177794592E+03 -0.81641453042E+03  0.11905027319E+04  0.50400001928E-02 0. -1.
</event>
<event>
 5   0  0.4400349E-06  0.1762442E+04  0.7818609E-02  0.8726531E-01
       -2   -1    0    0    0  501  0.00000000000E+00  0.00000000000E+00  0.59014534105E+03  0.59014534105E+03  0.25500000920E-02 0.  1.
        2   -1    0    0  501    0  0.00000000000E+00  0.00000000000E+00 -0.13158628769E+04  0.13158628769E+04  0.25500000920E-02 0. -1.
    10030    2    1    2    0    0  0.00000000000E+00  0.00000000000E+00 -0.72571753588E+03  0.19060082180E+04  0.17624418814E+04 0.  0.
        5    1    3    3  502    0  0.55200228416E+03 -0.39744590046E+03 -0.96872521980E+03  0.11836893203E+04  0.46999998093E+01 0. -1.
       -5    1    3    3    0  502 -0.55200228416E+03  0.39744590046E+03  0.24300768392E+03  0.72231889769E+03  0.46999998093E+01 0.  1.
</event>
<event>
 5   0  0.2722449E-06  0.3423930E+04  0.7818609E-02  0.8132058E-01
        2   -1    0    0  501    0  0.00000000000E+00  0.00000000000E+00  0.23407129526E+04  0.23407129526E+04  0.25500000920E-02 0.  1.
       -2   -1    0    0    0  501  0.00000000000E+00  0.00000000000E+00 -0.12521074640E+04  0.12521074640E+04  0.25500000920E-02 0. -1.
    10030    2    1    2    0    0  0.00000000000E+00  0.00000000000E+00  0.10886054886E+04  0.35928204167E+04  0.34239299988E+04 0.  0.
        2    1    3    3  502    0 -0.64859537668E+03 -0.77297210854E+03  0.19955111444E+04  0.22361186397E+04  0.25500000920E-02 0.  1.
       -2    1    3    3    0  502  0.64859537668E+03  0.77297210854E+03 -0.90690565580E+03  0.13567017770E+04  0.25500000920E-02 0. -1.
</event>
<event>
 5   0  0.4173467E-06  0.3243443E+04  0.7818609E-02  0.8177437E-01
       -2   -1    0    0    0  501  0.00000000000E+00  0.00000000000E+00  0.17300275135E+04  0.17300275135E+04  0.25500000920E-02 0. -1.
        2   -1    0    0  501    0  0.00000000000E+00  0.00000000000E+00 -0.15201956672E+04  0.15201956672E+04  0.25500000920E-02 0.  1.
    10030    2    1    2    0    0  0.00000000000E+00  0.00000000000E+00  0.20983184630E+03  0.32502231807E+04  0.32434428191E+04 0.  0.
        4    1    3    3  502    0 -0.12284973367E+03  0.16074855427E+04  0.28100147183E+03  0.16364795346E+04  0.12699999809E+01 0. -1.
       -4    1    3    3    0  502  0.12284973367E+03 -0.16074855427E+04 -0.71169625528E+02  0.16137436462E+04  0.12699999809E+01 0.  1.
</event>
<event>
 5   0  0.4400349E-06  0.3335799E+04  0.7818609E-02  0.8153846E-01
       -2   -1    0    0    0  501  0.00000000000E+00  0.00000000000E+00  0.95531382287E+03  0.95531382287E+03  0.25500000920E-02 0.  1.
        2   -1    0    0  501    0  0.00000000000E+00  0.00000000000E+00 -0.29120147190E+04  0.29120147190E+04  0.25500000920E-02 0. -1.
    10030    2    1    2    0    0  0.00000000000E+00  0.00000000000E+00 -0.19567008961E+04  0.38673285418E+04  0.33357985032E+04 0.  0.
        5    1    3    3  502    0  0.60401246309E+03 -0.26893994576E+03 -0.27535838593E+04  0.28318555595E+04  0.46999998093E+01 0. -1.
       -5    1    3    3    0  502 -0.60401246309E+03  0.26893994576E+03  0.79688296320E+03  0.10354729823E+04  0.46999998093E+01 0.  1.
</event>
<event>
 5   0  0.1654257E-06  0.2940483E+04  0.7818609E-02  0.8260933E-01
        1   -1    0    0  501    0  0.00000000000E+00  0.00000000000E+00  0.16951126000E+04  0.16951126000E+04  0.50400001928E-02 0. -1.
       -1   -1    0    0    0  501  0.00000000000E+00  0.00000000000E+00 -0.12752014624E+04  0.12752014624E+04  0.50400001928E-02 0.  1.
    10030    2    1    2    0    0  0.00000000000E+00  0.00000000000E+00  0.41991113763E+03  0.29703140624E+04  0.29404829987E+04 0.  0.
        3    1    3    3  502    0  0.32242951379E+03  0.10911386407E+04 -0.73065468699E+03  0.13521836438E+04  0.10100000352E+00 0.  1.
       -3    1    3    3    0  502 -0.32242951379E+03 -0.10911386407E+04  0.11505658246E+04  0.16181304186E+04  0.10100000352E+00 0. -1.
</event>
<event>
 5   0  0.4400349E-06  0.3306546E+04  0.7818609E-02  0.8161232E-01
       -2   -1    0    0    0  501  0.00000000000E+00  0.00000000000E+00  0.14875122253E+04  0.14875122253E+04  0.25500000920E-02 0. -1.
        2   -1    0    0  501    0  0.00000000000E+00  0.00000000000E+00 -0.18375050056E+04  0.18375050056E+04  0.25500000920E-02 0.  1.
    10030    2    1    2    0    0  0.00000000000E+00  0.00000000000E+00 -0.34999278026E+03  0.33250172309E+04  0.33065457263E+04 0.  0.
        5    1    3    3  502    0  0.84436983454E+03 -0.11590084616E+04 -0.10024100659E+04  0.17496025439E+04  0.46999998093E+01 0.  1.
       -5    1    3    3    0  502 -0.84436983454E+03  0.11590084616E+04  0.65241728562E+03  0.15754146870E+04  0.46999998093E+01 0. -1.
</event>
<event>
 5   0  0.4173467E-06  0.2066732E+04  0.7818609E-02  0.8576041E-01
       -2   -1    0    0    0  501  0.00000000000E+00  0.00000000000E+00  0.54896240531E+03  0.54896240531E+03  0.25500000920E-02 0.  1.
        2   -1    0    0  501    0  0.00000000000E+00  0.00000000000E+00 -0.19452068000E+04  0.19452068000E+04  0.25500000920E-02 0. -1.
    10030    2    1    2    0    0  0.00000000000E+00  0.00000000000E+00 -0.13962443947E+04  0.24941692053E+04  0.20667321101E+04 0.  0.
        4    1    3    3  502    0 -0.19392050214E+03 -0.21187155293E+03 -0.18960669303E+04  0.19176981340E+04  0.12699999809E+01 0. -1.
       -4    1    3    3    0  502  0.19392050214E+03  0.21187155293E+03  0.49982253559E+03  0.57647107133E+03  0.12699999809E+01 0.  1.
</event>
<event>
 5   0  0.1562618E-06  0.2069908E+04  0.7818609E-02  0.8574616E-01
       -1   -1    0    0    0  501  0.00000000000E+00  0.00000000000E+00  0.81576209208E+03  0.81576209210E+03  0.50400001928E-02 0.  1.
        1   -1    0    0  501    0  0.00000000000E+00  0.00000000000E+00 -0.13130422111E+04  0.13130422111E+04  0.50400001928E-02 0. -1.
    10030    2    1    2    0    0  0.00000000000E+00  0.00000000000E+00 -0.49728011898E+03  0.21288043032E+04  0.20699082696E+04 0.  0.
        2    1    3    3  502    0 -0.23192784026E+03  0.14587164854E+03 -0.12750659730E+04  0.13041711147E+04  0.25500000920E-02 0. -1.
       -2    1    3    3    0  502  0.23192784026E+03 -0.14587164854E+03  0.77778585397E+03  0.82463318850E+03  0.25500000920E-02 0.  1.
</event>
<event>
 5   0  0.4173467E-06  0.3374620E+04  0.7818609E-02  0.8144164E-01
        2   -1    0    0  501    0  0.00000000000E+00  0.00000000000E+00  0.19233406563E+04  0.19233406563E+04  0.25500000920E-02 0. -1.
       -2   -1    0    0    0  501  0.00000000000E+00  0.00000000000E+00 -0.14802445557E+04  0.14802445557E+04  0.25500000920E-02 0.  1.
    10030    2    1    2    0    0  0.00000000000E+00  0.00000000000E+00  0.44309610060E+03  0.34035852120E+04  0.33746197031E+04 0.  0.
        4    1    3    3  502    0 -0.11010581342E+04  0.53705552762E+03  0.13917895575E+04  0.18541406203E+04  0.12699999809E+01 0. -1.
       -4    1    3    3    0  502  0.11010581342E+04 -0.53705552762E+03 -0.94869345689E+03  0.15494445917E+04  0.12699999809E+01 0.  1.
</event>
<event>
 5   0  0.1401125E-06  0.3389423E+04  0.7818609E-02  0.8140507E-01
        3   -1    0    0  501    0  0.00000000000E+00  0.00000000000E+00  0.13165238277E+04  0.13165238315E+04  0.10100000352E+00 0.  1.
       -3   -1    0    0    0  501  0.00000000000E+00  0.00000000000E+00 -0.21815382854E+04  0.21815382878E+04  0.10100000352E+00 0. -1.
    10030    2    1    2    0    0  0.00000000000E+00  0.00000000000E+00 -0.86501445776E+03  0.34980621193E+04  0.33894230451E+04 0.  0.
        1    1    3    3  502    0 -0.13935832750E+04 -0.88687504704E+03 -0.82336149081E+03  0.18456830275E+04  0.50400001928E-02 0.  1.
       -1    1    3    3    0  502  0.13935832750E+04  0.88687504704E+03 -0.41652966953E+02  0.16523790918E+04  0.50400001928E-02 0. -1.
</event>
<event>
 5   0  0.2722449E-06  0.3395891E+04  0.7818609E-02  0.8138916E-01
       -2   -1    0    0    0  501  0.00000000000E+00  0.00000000000E+00  0.11428127512E+04  0.11428127512E+04  0.25500000920E-02 0. -1.
        2   -1    0    0  501    0  0.00000000000E+00  0.00000000000E+00 -0.25227396862E+04  0.25227396862E+04  0.25500000920E-02 0.  1.
    10030    2    1    2    0    0  0.00000000000E+00  0.00000000000E+00 -0.13799269349E+04  0.36655524374E+04  0.33958910945E+04 0.  0.
        2    1    3    3  502    0  0.14637953945E+04  0.23285188635E+03 -0.15840510522E+04  0.21693627391E+04  0.25500000920E-02 0.  1.
       -2    1    3    3    0  502 -0.14637953945E+04 -0.23285188635E+03  0.20412411722E+03  0.14961896983E+04  0.25500000920E-02 0. -1.
</event>
<event>
 5   0  0.1550164E-06  0.3373339E+04  0.7818609E-02  0.8144481E-01
        1   -1    0    0  501    0  0.00000000000E+00  0.00000000000E+00  0.10679582953E+04  0.10679582953E+04  0.50400001928E-02 0.  1.
       -1   -1    0    0    0  501  0.00000000000E+00  0.00000000000E+00 -0.26638244147E+04  0.26638244147E+04  0.50400001928E-02 0. -1.
    10030    2    1    2    0    0  0.00000000000E+00  0.00000000000E+00 -0.15958661194E+04  0.37317827100E+04  0.33733386316E+04 0.  0.
        4    1    3    3  502    0  0.10111680512E+03 -0.16777711330E+04 -0.95324783555E+03  0.19323104388E+04  0.12699999809E+01 0. -1.
       -4    1    3    3    0  502 -0.10111680512E+03  0.16777711330E+04 -0.64261828389E+03  0.17994722712E+04  0.12699999809E+01 0.  1.
</event>
<event>
 5   0  0.2722449E-06  0.3232418E+04  0.7818609E-02  0.8180308E-01
       -2   -1    0    0    0  501  0.00000000000E+00  0.00000000000E+00  0.12962553725E+04  0.12962553725E+04  0.25500000920E-02 0.  1.
        2   -1    0    0  501    0  0.00000000000E+00  0.00000000000E+00 -0.20151363375E+04  0.20151363375E+04  0.25500000920E-02 0. -1.
    10030    2    1    2    0    0  0.00000000000E+00  0.00000000000E+00 -0.71888096502E+03  0.33113917100E+04  0.32324178590E+04 0.  0.
        2    1    3    3  502    0  0.67759572765E+03 -0.10395240835E+04 -0.14203013452E+04  0.18860016441E+04  0.25500000920E-02 0. -1.
       -2    1    3    3    0  502 -0.67759572765E+03  0.10395240835E+04  0.70142038020E+03  0.14253900659E+04  0.25500000920E-02 0.  1.
</event>
<event>
 5   0  0.1654257E-06  0.3281486E+04  0.7818609E-02  0.8167622E-01
       -1   -1    0    0    0  501  0.00000000000E+00  0.00000000000E+00  0.24085337171E+04  0.24085337171E+04  0.50400001928E-02 0.  1.
        1   -1    0    0  501    0  0.00000000000E+00  0.00000000000E+00 -0.11177080810E+04  0.11177080810E+04  0.50400001928E-02 0. -1.
    10030    2    1    2    0    0  0.00000000000E+00  0.00000000000E+00  0.12908256361E+04  0.35262417981E+04  0.32814860043E+04 0.  0.
        3    1    3    3  502    0 -0.16979146551E+03  0.13525003920E+04  0.16267354958E+04  0.21223465399E+04  0.10100000352E+00 0.  1.
       -3    1    3    3    0  502  0.16979146551E+03 -0.13525003920E+04 -0.33590985970E+03  0.14038952582E+04  0.10100000352E+00 0. -1.
</event>
<event>
 5   0  0.4344980E-06  0.3411089E+04  0.7818609E-02  0.8135190E-01
       -2   -1    0    0    0  501  0.00000000000E+00  0.00000000000E+00  0.14735164931E+04  0.14735164931E+04  0.25500000920E-02 0.  1.
        2   -1    0    0  501    0  0.00000000000E+00  0.00000000000E+00 -0.19741092366E+04  0.19741092366E+04  0.25500000920E-02 0. -1.
    10030    2    1    2    0    0  0.00000000000E+00  0.00000000000E+00 -0.50059274345E+03  0.34476257297E+04  0.34110892802E+04 0.  0.
        3    1    3    3  502    0  0.57183769755E+03 -0.16066417026E+04 -0.22581720348E+03  0.17202585075E+04  0.10100000352E+00 0.  1.
       -3    1    3    3    0  502 -0.57183769755E+03  0.16066417026E+04 -0.27477553997E+03  0.17273672223E+04  0.10100000352E+00 0. -1.
</event>
<event>
 5   0  0.4400349E-06  0.3387224E+04  0.7818609E-02  0.8141049E-01
       -2   -1    0    0    0  501  0.00000000000E+00  0.00000000000E+00  0.23742494498E+04  0.23742494498E+04  0.25500000920E-02 0. -1.
        2   -1    0    0  501    0  0.00000000000E+00  0.00000000000E+00 -0.12080964745E+04  0.12080964745E+04  0.25500000920E-02 0.  1.
    10030    2    1    2    0    0  0.00000000000E+00  0.00000000000E+00  0.11661529753E+04  0.35823459242E+04  0.33872244625E+04 0.  0.
        5    1    3    3  502    0  0.40694095254E+03 -0.13065801845E+04 -0.47217155307E+03  0.14476604515E+04  0.46999998093E+01 0.  1.
       -5    1    3    3    0  502 -0.40694095254E+03  0.13065801845E+04  0.16383245284E+04  0.21346854727E+04  0.46999998093E+01 0. -1.
</event>
<event>
 5   0  0.4189587E-06  0.2681330E+04  0.7818609E-02  0.8341088E-01
       -2   -1    0    0    0  501  0.00000000000E+00  0.00000000000E+00  0.20446452193E+04  0.20446452193E+04  0.25500000920E-02 0.  1.
        2   -1    0    0  501    0  0.00000000000E+00  0.00000000000E+00 -0.87906849354E+03  0.87906849354E+03  0.25500000920E-02 0. -1.
    10030    2    1    2    0    0  0.00000000000E+00  0.00000000000E+00  0.11655767258E+04  0.29237137129E+04  0.26813304106E+04 0.  0.
        1    1    3    3  502    0 -0.61710520816E+03  0.56522201118E+03 -0.55931478598E+03  0.10065424927E+04  0.50400001928E-02 0. -1.
       -1    1    3    3    0  502  0.61710520816E+03 -0.56522201118E+03  0.17248915117E+04  0.19171712201E+04  0.50400001928E-02 0.  1.
</event>
<event>
 5   0  0.1562618E-06  0.3398235E+04  0.7818609E-02  0.8138340E-01
       -1   -1    0    0    0  501  0.00000000000E+00  0.00000000000E+00  0.13988945254E+04  0.13988945254E+04  0.50400001928E-02 0. -1.
        1   -1    0    0  501    0  0.00000000000E+00  0.00000000000E+00 -0.20637726918E+04  0.20637726918E+04  0.50400001928E-02 0.  1.
    10030    2    1    2    0    0  0.00000000000E+00  0.00000000000E+00 -0.66487816643E+03  0.34626672172E+04  0.33982350244E+04 0.  0.
        2    1    3    3  502    0 -0.13896717624E+04  0.72286491101E+03 -0.10031589657E+04  0.18601207480E+04  0.25500000920E-02 0. -1.
       -2    1    3    3    0  502  0.13896717624E+04 -0.72286491101E+03  0.33828079930E+03  0.16025464692E+04  0.25500000920E-02 0.  1.
</event>
<event>
 5   0  0.1571391E-06  0.3549333E+04  0.7818609E-02  0.8102197E-01
       -1   -1    0    0    0  501  0.00000000000E+00  0.00000000000E+00  0.17086869763E+04  0.17086869763E+04  0.50400001928E-02 0.  1.
        1   -1    0    0  501    0  0.00000000000E+00  0.00000000000E+00 -0.18431937633E+04  0.18431937633E+04  0.50400001928E-02 0. -1.
    10030    2    1    2    0    0  0.00000000000E+00  0.00000000000E+00 -0.13450678697E+03  0.35518807396E+04  0.35493329954E+04 0.  0.
        1    1    3    3  502    0 -0.14080217422E+04 -0.16844915514E+02 -0.11481361996E+04  0.18168725080E+04  0.50400001928E-02 0. -1.
       -1    1    3    3    0  502  0.14080217422E+04  0.16844915514E+02  0.10136294126E+04  0.17350082316E+04  0.50400001928E-02 0.  1.
</event>
<event>
 5   0  0.1571391E-06  0.3334922E+04  0.7818609E-02  0.8154066E-01
       -1   -1    0    0    0  501  0.00000000000E+00  0.00000000000E+00  0.16288050158E+04  0.16288050158E+04  0.50400001928E-02 0.  1.
        1   -1    0    0  501    0  0.00000000000E+00  0.00000000000E+00 -0.17070339437E+04  0.17070339437E+04  0.50400001928E-02 0. -1.
    10030    2    1    2    0    0  0.00000000000E+00  0.00000000000E+00 -0.78228927908E+02  0.33358389594E+04  0.33349215580E+04 0.  0.
        1    1    3    3  502    0  0.78608979510E+03  0.87360597175E+03  0.11441314366E+04  0.16401711204E+04  0.50400001928E-02 0.  1.
       -1    1    3    3    0  502 -0.78608979510E+03 -0.87360597175E+03 -0.12223603645E+04  0.16956678391E+04  0.50400001928E-02 0. -1.
</event>
<event>
 5   0  0.4173467E-06  0.3407167E+04  0.7818609E-02  0.8136150E-01
       -2   -1    0    0    0  501  0.00000000000E+00  0.00000000000E+00  0.11397449156E+04  0.11397449156E+04  0.25500000920E-02 0. -1.
        2   -1    0    0  501    0  0.00000000000E+00  0.00000000000E+00 -0.25463561902E+04  0.25463561902E+04  0.25500000920E-02 0.  1.
    10030    2    1    2    0    0  0.00000000000E+00  0.00000000000E+00 -0.14066112746E+04  0.36861011059E+04  0.34071668707E+04 0.  0.
        4    1    3    3  502    0  0.31677517776E+03 -0.91299425622E+03  0.81450771541E+03  0.12638549982E+04  0.12699999809E+01 0. -1.
       -4    1    3    3    0  502 -0.31677517776E+03  0.91299425622E+03 -0.22211189901E+04  0.24222461076E+04  0.12699999809E+01 0.  1.
</event>
<event>
 5   0  0.2101998E-06  0.3439521E+04  0.7818609E-02  0.8128274E-01
        1   -1    0    0  501    0  0.00000000000E+00  0.00000000000E+00  0.14085250706E+04  0.14085250706E+04  0.50400001928E-02 0.  1.
       -1   -1    0    0    0  501  0.00000000000E+00  0.00000000000E+00 -0.20997679771E+04  0.20997679771E+04  0.50400001928E-02 0. -1.
    10030    2    1    2    0    0  0.00000000000E+00  0.00000000000E+00 -0.69124290646E+03  0.35082930477E+04  0.34395208028E+04 0.  0.
        5    1    3    3  502    0  0.43413778490E+03  0.44337119523E+03  0.12903496330E+04  0.14318093094E+04  0.46999998093E+01 0.  1.
       -5    1    3    3    0  502 -0.43413778490E+03 -0.44337119523E+03 -0.19815925395E+04  0.20764837383E+04  0.46999998093E+01 0. -1.
</event>
<event>
 5   0  0.1550164E-06  0.3272380E+04  0.7818609E-02  0.8169959E-01
        1   -1    0    0  501    0  0.00000000000E+00  0.00000000000E+00  0.15048881618E+04  0.15048881619E+04  0.50400001928E-02 0. -1.
       -1   -1    0    0    0  501  0.00000000000E+00  0.00000000000E+00 -0.17789481406E+04  0.17789481406E+04  0.50400001928E-02 0.  1.
    10030    2    1    2    0    0  0.00000000000E+00  0.00000000000E+00 -0.27405997872E+03  0.32838363024E+04  0.32723801719E+04 0.  0.
        4    1    3    3  502    0  0.49656189232E+03 -0.71815994748E+03 -0.15256333267E+04  0.17578071804E+04  0.12699999809E+01 0.  1.
       -4    1    3    3    0  502 -0.49656189232E+03  0.71815994748E+03  0.12515733480E+04  0.15260291220E+04  0.12699999809E+01 0. -1.
</event>
<event>
 5   0  0.1562618E-06  0.2617870E+04  0.7818609E-02  0.8362156E-01
        1   -1    0    0  501    0  0.00000000000E+00  0.00000000000E+00  0.68717727536E+03  0.68717727538E+03  0.50400001928E-02 0. -1.
       -1   -1    0    0    0  501  0.00000000000E+00  0.00000000000E+00 -0.24932590617E+04  0.24932590617E+04  0.50400001928E-02 0.  1.
    10030    2    1    2    0    0  0.00000000000E+00  0.00000000000E+00 -0.18060817863E+04  0.31804363371E+04  0.26178701028E+04 0.  0.
        2    1    3    3  502    0 -0.60424422446E+03 -0.11598804799E+04 -0.83787497849E+03  0.15532122489E+04  0.25500000920E-02 0.  1.
       -2    1    3    3    0  502  0.60424422446E+03  0.11598804799E+04 -0.96820680782E+03  0.16272240882E+04  0.25500000920E-02 0. -1.
</event>
<event>
 5   0  0.4189587E-06  0.2870031E+04  0.7818609E-02  0.8281850E-01
        2   -1    0    0  501    0  0.00000000000E+00  0.00000000000E+00  0.14254170538E+04  0.14254170538E+04  0.25500000920E-02 0. -1.
       -2   -1    0    0    0  501  0.00000000000E+00  0.00000000000E+00 -0.14446781001E+04  0.14446781001E+04  0.25500000920E-02 0.  1.
    10030    2    1    2    0    0  0.00000000000E+00  0.00000000000E+00 -0.19261046235E+02  0.28700951539E+04  0.28700305233E+04 0.  0.
        1    1    3    3  502    0 -0.11270897688E+04  0.80380435777E+03  0.36831450176E+03  0.14325112093E+04  0.50400001928E-02 0.  1.
       -1    1    3    3    0  502  0.11270897688E+04 -0.80380435777E+03 -0.38757554799E+03  0.14375839446E+04  0.50400001928E-02 0. -1.
</event>
<event>
 5   0  0.2722449E-06  0.3344930E+04  0.7818609E-02  0.8151556E-01
        2   -1    0    0  501    0  0.00000000000E+00  0.00000000000E+00  0.24919307937E+04  0.24919307937E+04  0.25500000920E-02 0.  1.
       -2   -1    0    0    0  501  0.00000000000E+00  0.00000000000E+00 -0.11224789732E+04  0.11224789732E+04  0.25500000920E-02 0. -1.
    10030    2    1    2    0    0  0.00000000000E+00  0.00000000000E+00  0.13694518205E+04  0.36144097669E+04  0.33449304438E+04 0.  0.
        2    1    3    3  502    0 -0.46045560375E+03  0.15310684670E+04  0.15431350172E+03  0.16062386717E+04  0.25500000920E-02 0.  1.
       -2    1    3    3    0  502  0.46045560375E+03 -0.15310684670E+04  0.12151383188E+04  0.20081710952E+04  0.25500000920E-02 0. -1.
</event>
<event>
 5   0  0.4189587E-06  0.3320242E+04  0.7818609E-02  0.8157764E-01
       -2   -1    0    0    0  501  0.00000000000E+00  0.00000000000E+00  0.13738320296E+04  0.13738320296E+04  0.25500000920E-02 0. -1.
        2   -1    0    0  501    0  0.00000000000E+00  0.00000000000E+00 -0.20060689893E+04  0.20060689893E+04  0.25500000920E-02 0.  1.
    10030    2    1    2    0    0  0.00000000000E+00  0.00000000000E+00 -0.63223695972E+03  0.33799010190E+04  0.33202420582E+04 0.  0.
        1    1    3    3  502    0 -0.12983542039E+04 -0.72826806750E+03 -0.10641026957E+04  0.18298668159E+04  0.50400001928E-02 0.  1.
       -1    1    3    3    0  502  0.12983542039E+04  0.72826806750E+03  0.43186573600E+03  0.15500342031E+04  0.50400001928E-02 0. -1.
</event>
<event>
 5   0  0.4189587E-06  0.3390912E+04  0.7818609E-02  0.8140140E-01
        2   -1    0    0  501    0  0.00000000000E+00  0.00000000000E+00  0.20482426974E+04  0.20482426974E+04  0.25500000920E-02 0.  1.
       -2   -1    0    0    0  501  0.00000000000E+00  0.00000000000E+00 -0.14034327650E+04  0.14034327650E+04  0.25500000920E-02 0. -1.
    10030    2    1    2    0    0  0.00000000000E+00  0.00000000000E+00  0.64480993241E+03  0.34516754624E+04  0.33909119199E+04 0.  0.
        1    1    3    3  502    0 -0.53548311514E+03  0.15999974934E+04  0.49223826308E+03  0.17575644094E+04  0.50400001928E-02 0.  1.
       -1    1    3    3    0  502  0.53548311514E+03 -0.15999974934E+04  0.15257166934E+03  0.16941110530E+04  0.50400001928E-02 0. -1.
</event>
<event>
 5   0  0.2101998E-06  0.2037859E+04  0.7818609E-02  0.8589122E-01
       -1   -1    0    0    0  501  0.00000000000E+00  0.00000000000E+00  0.10601388765E+04  0.10601388765E+04  0.50400001928E-02 0.  1.
        1   -1    0    0  501    0  0.00000000000E+00  0.00000000000E+00 -0.97932166293E+03  0.97932166295E+03  0.50400001928E-02 0. -1.
    10030    2    1    2    0    0  0.00000000000E+00  0.00000000000E+00  0.80817213521E+02  0.20394605394E+04  0.20378586481E+04 0.  0.
        5    1    3    3  502    0  0.18342786123E+03  0.47397257204E+03  0.92422175685E+03  0.10547529214E+04  0.46999998093E+01 0.  1.
       -5    1    3    3    0  502 -0.18342786123E+03 -0.47397257204E+03 -0.84340454333E+03  0.98470761804E+03  0.46999998093E+01 0. -1.
</event>
<event>
 5   0  0.1562618E-06  0.2051439E+04  0.7818609E-02  0.8582942E-01
        1   -1    0    0  501    0  0.00000000000E+00  0.00000000000E+00  0.10706425954E+04  0.10706425954E+04  0.50400001928E-02 0.  1.
       -1   -1    0    0    0  501  0.00000000000E+00  0.00000000000E+00 -0.98268143802E+03  0.98268143804E+03  0.50400001928E-02 0. -1.
    10030    2    1    2    0    0  0.00000000000E+00  0.00000000000E+00  0.87961157401E+02  0.20533240335E+04  0.20514391098E+04 0.  0.
        2    1    3    3  502    0  0.87351917908E+03  0.46376790186E+03  0.31623083583E+03  0.10383247876E+04  0.25500000920E-02 0.  1.
       -2    1    3    3    0  502 -0.87351917908E+03 -0.46376790186E+03 -0.22826967843E+03  0.10149992459E+04  0.25500000920E-02 0. -1.
</event>
<event>
 5   0  0.1654257E-06  0.3364705E+04  0.7818609E-02  0.8146623E-01
       -1   -1    0    0    0  501  0.00000000000E+00  0.00000000000E+00  0.11919440407E+04  0.11919440407E+04  0.50400001928E-02 0.  1.
        1   -1    0    0  501    0  0.00000000000E+00  0.00000000000E+00 -0.23745330813E+04  0.23745330813E+04  0.50400001928E-02 0. -1.
    10030    2    1    2    0    0  0.00000000000E+00  0.00000000000E+00 -0.11825890407E+04  0.35664771220E+04  0.33647053694E+04 0.  0.
        3    1    3    3  502    0  0.20333562754E+03  0.72268866139E+03  0.10045409284E+04  0.12540840346E+04  0.10100000352E+00 0.  1.
       -3    1    3    3    0  502 -0.20333562754E+03 -0.72268866139E+03 -0.21871299691E+04  0.23123930874E+04  0.10100000352E+00 0. -1.
</event>
<event>
 5   0  0.1571391E-06  0.3347712E+04  0.7818609E-02  0.8150860E-01
       -1   -1    0    0    0  501  0.00000000000E+00  0.00000000000E+00  0.20506068042E+04  0.20506068042E+04  0.50400001928E-02 0.  1.
        1   -1    0    0  501    0  0.00000000000E+00  0.00000000000E+00 -0.13663245879E+04  0.13663245879E+04  0.50400001928E-02 0. -1.
    10030    2    1    2    0    0  0.00000000000E+00  0.00000000000E+00  0.68428221635E+03  0.34169313921E+04  0.33477123513E+04 0.  0.
        1    1    3    3  502    0  0.69623533993E+03  0.22616985511E+03  0.18785552873E+04  0.20161513880E+04  0.50400001928E-02 0.  1.
       -1    1    3    3    0  502 -0.69623533993E+03 -0.22616985511E+03 -0.11942730710E+04  0.14007800041E+04  0.50400001928E-02 0. -1.
</event>
<event>
 5   0  0.2722449E-06  0.2303973E+04  0.7818609E-02  0.8476356E-01
       -2   -1    0    0    0  501  0.00000000000E+00  0.00000000000E+00  0.14092851810E+04  0.14092851810E+04  0.25500000920E-02 0. -1.
        2   -1    0    0  501    0  0.00000000000E+00  0.00000000000E+00 -0.94166376144E+03  0.94166376145E+03  0.25500000920E-02 0.  1.
    10030    2    1    2    0    0  0.00000000000E+00  0.00000000000E+00  0.46762141956E+03  0.23509489425E+04  0.23039729031E+04 0.  0.
        2    1    3    3  502    0  0.99577353461E+03  0.50613856674E+03  0.52121215428E+03  0.12326407793E+04  0.25500000920E-02 0. -1.
       -2    1    3    3    0  502 -0.99577353461E+03 -0.50613856674E+03 -0.53590734717E+02  0.11183081632E+04  0.25500000920E-02 0.  1.
</event>
<event>
 5   0  0.4173467E-06  0.3300135E+04  0.7818609E-02  0.8162861E-01
        2   -1    0    0  501    0  0.00000000000E+00  0.00000000000E+00  0.26128056600E+04  0.26128056600E+04  0.25500000920E-02 0. -1.
       -2   -1    0    0    0  501  0.00000000000E+00  0.00000000000E+00 -0.10420688816E+04  0.10420688816E+04  0.25500000920E-02 0.  1.
    10030    2    1    2    0    0  0.00000000000E+00  0.00000000000E+00  0.15707367784E+04  0.36548745416E+04  0.33001354347E+04 0.  0.
        4    1    3    3  502    0 -0.10298331216E+04  0.68970883410E+03 -0.42096848081E+03  0.13089960309E+04  0.12699999809E+01 0.  1.
       -4    1    3    3    0  502  0.10298331216E+04 -0.68970883410E+03  0.19917052592E+04  0.23458785107E+04  0.12699999809E+01 0. -1.
</event>
<event>
 5   0  0.2722449E-06  0.3429022E+04  0.7818609E-02  0.8130820E-01
        2   -1    0    0  501    0  0.00000000000E+00  0.00000000000E+00  0.19027872221E+04  0.19027872221E+04  0.25500000920E-02 0.  1.
       -2   -1    0    0    0  501  0.00000000000E+00  0.00000000000E+00 -0.15448642575E+04  0.15448642575E+04  0.25500000920E-02 0. -1.
    10030    2    1    2    0    0  0.00000000000E+00  0.00000000000E+00  0.35792296465E+03  0.34476514796E+04  0.34290220000E+04 0.  0.
        2    1    3    3  502    0 -0.55766945516E+03 -0.12778147787E+04  0.11822515866E+04  0.18279837647E+04  0.25500000920E-02 0.  1.
       -2    1    3    3    0  502  0.55766945516E+03  0.12778147787E+04 -0.82432862195E+03  0.16196677149E+04  0.25500000920E-02 0. -1.
</event>
<event>
 5   0  0.1571391E-06  0.3275575E+04  0.7818609E-02  0.8169138E-01
        1   -1    0    0  501    0  0.00000000000E+00  0.00000000000E+00  0.18911729949E+04  0.18911729949E+04  0.50400001928E-02 0. -1.
       -1   -1    0    0    0  501  0.00000000000E+00  0.00000000000E+00 -0.14183517952E+04  0.14183517952E+04  0.50400001928E-02 0.  1.
    10030    2    1    2    0    0  0.00000000000E+00  0.00000000000E+00  0.47282119977E+03  0.33095247901E+04  0.32755754379E+04 0.  0.
        1    1    3    3  502    0  0.81035886225E+03 -0.49706741475E+03  0.15838712505E+04  0.18472697796E+04  0.50400001928E-02 0. -1.
       -1    1    3    3    0  502 -0.81035886225E+03  0.49706741475E+03 -0.11110500507E+04  0.14622550105E+04  0.50400001928E-02 0.  1.
</event>
<event>
 5   0  0.4189587E-06  0.3400803E+04  0.7818609E-02  0.8137709E-01
       -2   -1    0    0    0  501  0.00000000000E+00  0.00000000000E+00  0.14117728565E+04  0.14117728565E+04  0.25500000920E-02 0. -1.
        2   -1    0    0  501    0  0.00000000000E+00  0.00000000000E+00 -0.20480385957E+04  0.20480385957E+04  0.25500000920E-02 0.  1.
    10030    2    1    2    0    0  0.00000000000E+00  0.00000000000E+00 -0.63626573923E+03  0.34598114521E+04  0.34008030219E+04 0.  0.
        1    1    3    3  502    0  0.16940277386E+04 -0.48524935960E+02 -0.45939696358E+03  0.17558844548E+04  0.50400001928E-02 0.  1.
       -1    1    3    3    0  502 -0.16940277386E+04  0.48524935960E+02 -0.17686877565E+03  0.17039269973E+04  0.50400001928E-02 0. -1.
</event>
<event>
 5   0  0.4400349E-06  0.3271436E+04  0.7818609E-02  0.8170202E-01
       -2   -1    0    0    0  501  0.00000000000E+00  0.00000000000E+00  0.16394565109E+04  0.16394565109E+04  0.25500000920E-02 0. -1.
        2   -1    0    0  501    0  0.00000000000E+00  0.00000000000E+00 -0.16319879180E+04  0.16319879180E+04  0.25500000920E-02 0.  1.
    10030    2    1    2    0    0  0.00000000000E+00  0.00000000000E+00  0.74685929388E+01  0.32714444289E+04  0.32714359036E+04 0.  0.
        5    1    3    3  502    0 -0.73977644560E+03  0.13875596857E+04  0.45424635490E+03  0.16367507177E+04  0.46999998093E+01 0. -1.
       -5    1    3    3    0  502  0.73977644560E+03 -0.13875596857E+04 -0.44677776197E+03  0.16346937112E+04  0.46999998093E+01 0.  1.
</event>
<event>
 5   0  0.4173467E-06  0.3297482E+04  0.7818609E-02  0.8163536E-01
        2   -1    0    0  501    0  0.00000000000E+00  0.00000000000E+00  0.30592046085E+04  0.30592046085E+04  0.25500000920E-02 0.  1.
       -2   -1    0    0    0  501  0.00000000000E+00  0.00000000000E+00 -0.88857951278E+03  0.88857951279E+03  0.25500000920E-02 0. -1.
    10030    2    1    2    0    0  0.00000000000E+00  0.00000000000E+00  0.21706250957E+04  0.39477841213E+04  0.32974817910E+04 0.  0.
        4    1    3    3  502    0  0.37627582590E+03 -0.16045511788E+04  0.11411717490E+04  0.20046053368E+04  0.12699999809E+01 0. -1.
       -4    1    3    3    0  502 -0.37627582590E+03  0.16045511788E+04  0.10294533468E+04  0.19431787846E+04  0.12699999809E+01 0.  1.
</event>
<event>
 5   0  0.1571391E-06  0.3397791E+04  0.7818609E-02  0.8138449E-01
       -1   -1    0    0    0  501  0.00000000000E+00  0.00000000000E+00  0.14566934408E+04  0.14566934409E+04  0.50400001928E-02 0. -1.
        1   -1    0    0  501    0  0.00000000000E+00  0.00000000000E+00 -0.19813683755E+04  0.19813683755E+04  0.50400001928E-02 0.  1.
    10030    2    1    2    0    0  0.00000000000E+00  0.00000000000E+00 -0.52467493461E+03  0.34380618163E+04  0.33977912334E+04 0.  0.
        1    1    3    3  502    0 -0.13941254901E+04 -0.37142274818E+03  0.64534823583E+03  0.15805110204E+04  0.50400001928E-02 0. -1.
       -1    1    3    3    0  502  0.13941254901E+04  0.37142274818E+03 -0.11700231704E+04  0.18575507959E+04  0.50400001928E-02 0.  1.
</event>
<event>
 5   0  0.1550164E-06  0.3018920E+04  0.7818609E-02  0.8238349E-01
        1   -1    0    0  501    0  0.00000000000E+00  0.00000000000E+00  0.11996455847E+04  0.11996455848E+04  0.50400001928E-02 0.  1.
       -1   -1    0    0    0  501  0.00000000000E+00  0.00000000000E+00 -0.18992856223E+04  0.18992856223E+04  0.50400001928E-02 0. -1.
    10030    2    1    2    0    0  0.00000000000E+00  0.00000000000E+00 -0.69964003756E+03  0.30989312071E+04  0.30189200791E+04 0.  0.
        4    1    3    3  502    0 -0.29490349470E+03  0.11943786838E+03  0.11648322004E+04  0.12075053389E+04  0.12699999809E+01 0.  1.
       -4    1    3    3    0  502  0.29490349470E+03 -0.11943786838E+03 -0.18644722380E+04  0.18914258681E+04  0.12699999809E+01 0. -1.
</event>
<event>
 5   0  0.1654257E-06  0.3298816E+04  0.7818609E-02  0.8163197E-01
        1   -1    0    0  501    0  0.00000000000E+00  0.00000000000E+00  0.15882463558E+04  0.15882463558E+04  0.50400001928E-02 0.  1.
       -1   -1    0    0    0  501  0.00000000000E+00  0.00000000000E+00 -0.17129246009E+04  0.17129246009E+04  0.50400001928E-02 0. -1.
    10030    2    1    2    0    0  0.00000000000E+00  0.00000000000E+00 -0.12467824505E+03  0.33011709567E+04  0.32988156997E+04 0.  0.
        3    1    3    3  502    0 -0.83209984256E+03 -0.74377716268E+03  0.11530038434E+04  0.16046845450E+04  0.10100000352E+00 0.  1.
       -3    1    3    3    0  502  0.83209984256E+03  0.74377716268E+03 -0.12776820885E+04  0.16964864117E+04  0.10100000352E+00 0. -1.
</event>
<event>
 5   0  0.4173467E-06  0.3348033E+04  0.7818609E-02  0.8150780E-01
       -2   -1    0    0    0  501  0.00000000000E+00  0.00000000000E+00  0.16155613001E+04  0.16155613001E+04  0.25500000920E-02 0. -1.
        2   -1    0    0  501    0  0.00000000000E+00  0.00000000000E+00 -0.17345869259E+04  0.17345869259E+04  0.25500000920E-02 0.  1.
    10030    2    1    2    0    0  0.00000000000E+00  0.00000000000E+00 -0.11902562578E+03  0.33501482260E+04  0.33480331594E+04 0.  0.
        4    1    3    3  502    0  0.29921160913E+03 -0.10554423128E+04  0.12057399523E+04  0.16301216237E+04  0.12699999809E+01 0. -1.
       -4    1    3    3    0  502 -0.29921160913E+03  0.10554423128E+04 -0.13247655781E+04  0.17200266023E+04  0.12699999809E+01 0.  1.
</event>
<event>
 5   0  0.4400349E-06  0.3412010E+04  0.7818609E-02  0.8134965E-01
        2   -1    0    0  501    0  0.00000000000E+00  0.00000000000E+00  0.19383866931E+04  0.19383866931E+04  0.25500000920E-02 0.  1.
       -2   -1    0    0    0  501  0.00000000000E+00  0.00000000000E+00 -0.15014819934E+04  0.15014819934E+04  0.25500000920E-02 0. -1.
    10030    2    1    2    0    0  0.00000000000E+00  0.00000000000E+00  0.43690469968E+03  0.34398686864E+04  0.34120097982E+04 0.  0.
        5    1    3    3  502    0  0.47008626488E+03  0.12591682567E+04 -0.84081425247E+03  0.15853947433E+04  0.46999998093E+01 0. -1.
       -5    1    3    3    0  502 -0.47008626488E+03 -0.12591682567E+04  0.12777189522E+04  0.18544739431E+04  0.46999998093E+01 0.  1.
</event>
<event>
 5   0  0.2722449E-06  0.2627315E+04  0.7818609E-02  0.8358982E-01
        2   -1    0    0  501    0  0.00000000000E+00  0.00000000000E+00  0.17714050615E+04  0.17714050615E+04  0.25500000920E-02 0.  1.
       -2   -1    0    0    0  501  0.00000000000E+00  0.00000000000E+00 -0.97419598412E+03  0.97419598413E+03  0.25500000920E-02 0. -1.
    10030    2    1    2    0    0  0.00000000000E+00  0.00000000000E+00  0.79720907740E+03  0.27456010457E+04  0.26273147487E+04 0.  0.
        2    1    3    3  502    0  0.19613388888E+03  0.77986643456E+03  0.14841379679E+04  0.16879945693E+04  0.25500000920E-02 0.  1.
       -2    1    3    3    0  502 -0.19613388888E+03 -0.77986643456E+03 -0.68692889055E+03  0.10576064763E+04  0.25500000920E-02 0. -1.
</event>
<event>
 5   0  0.4189587E-06  0.3467143E+04  0.7818609E-02  0.8121621E-01
        2   -1    0    0  501    0  0.00000000000E+00  0.00000000000E+00  0.22874507514E+04  0.22874507514E+04  0.25500000920E-02 0. -1.
       -2   -1    0    0    0  501  0.00000000000E+00  0.00000000000E+00 -0.13138074214E+04  0.13138074214E+04  0.25500000920E-02 0.  1.
    10030    2    1    2    0    0  0.00000000000E+00  0.00000000000E+00  0.97364332995E+03  0.36012581728E+04  0.34671427852E+04 0.  0.
        1    1    3    3  502    0  0.51418146918E+03 -0.62773903655E+03 -0.11043734167E+04  0.13704304159E+04  0.50400001928E-02 0.  1.
       -1    1    3    3    0  502 -0.51418146918E+03  0.62773903655E+03  0.20780167467E+04  0.22308277569E+04  0.50400001928E-02 0. -1.
</event>
<event>
 5   0  0.2722449E-06  0.3441610E+04  0.7818609E-02  0.8127769E-01
        2   -1    0    0  501    0  0.00000000000E+00  0.00000000000E+00  0.10635949775E+04  0.10635949775E+04  0.25500000920E-02 0.  1.
       -2   -1    0    0    0  501  0.00000000000E+00  0.00000000000E+00 -0.27841149535E+04  0.27841149535E+04  0.25500000920E-02 0. -1.
    10030    2    1    2    0    0  0.00000000000E+00  0.00000000000E+00 -0.17205199759E+04  0.38477099310E+04  0.34416104843E+04 0.  0.
        2    1    3    3  502    0 -0.37592756035E+03  0.13547125609E+03 -0.27315265837E+04  0.27605998387E+04  0.25500000920E-02 0. -1.
       -2    1    3    3    0  502  0.37592756035E+03 -0.13547125609E+03  0.10110066078E+04  0.10871100923E+04  0.25500000920E-02 0.  1.
</event>
<event>
 5   0  0.4344980E-06  0.3318802E+04  0.7818609E-02  0.8158128E-01
        2   -1    0    0  501    0  0.00000000000E+00  0.00000000000E+00  0.22104993466E+04  0.22104993466E+04  0.25500000920E-02 0.  1.
       -2   -1    0    0    0  501  0.00000000000E+00  0.00000000000E+00 -0.12456969208E+04  0.12456969208E+04  0.25500000920E-02 0. -1.
    10030    2    1    2    0    0  0.00000000000E+00  0.00000000000E+00  0.96480242584E+03  0.34561962674E+04  0.33188023318E+04 0.  0.
        3    1    3    3  502    0  0.11521203130E+04  0.43125410463E+03 -0.67736856082E+03  0.14043466437E+04  0.10100000352E+00 0. -1.
       -3    1    3    3    0  502 -0.11521203130E+04 -0.43125410463E+03  0.16421709867E+04  0.20518496236E+04  0.10100000352E+00 0.  1.
</event>
<event>
 5   0  0.4344980E-06  0.1870944E+04  0.7818609E-02  0.8669456E-01
       -2   -1    0    0    0  501  0.00000000000E+00  0.00000000000E+00  0.81376705893E+03  0.81376705893E+03  0.25500000920E-02 0.  1.
        2   -1    0    0  501    0  0.00000000000E+00  0.00000000000E+00 -0.10753792366E+04  0.10753792366E+04  0.25500000920E-02 0. -1.
    10030    2    1    2    0    0  0.00000000000E+00  0.00000000000E+00 -0.26161217769E+03  0.18891462955E+04  0.18709443590E+04 0.  0.
        3    1    3    3  502    0  0.87010904443E+03 -0.72541442890E+02  0.20825261139E+03  0.89761972487E+03  0.10100000352E+00 0.  1.
       -3    1    3    3    0  502 -0.87010904443E+03  0.72541442890E+02 -0.46986478909E+03  0.99152657067E+03  0.10100000352E+00 0. -1.
</event>
<event>
 5   0  0.2722449E-06  0.3260769E+04  0.7818609E-02  0.8172950E-01
        2   -1    0    0  501    0  0.00000000000E+00  0.00000000000E+00  0.15771914714E+04  0.15771914714E+04  0.25500000920E-02 0.  1.
       -2   -1    0    0    0  501  0.00000000000E+00  0.00000000000E+00 -0.16853718395E+04  0.16853718395E+04  0.25500000920E-02 0. -1.
    10030    2    1    2    0    0  0.00000000000E+00  0.00000000000E+00 -0.10818036809E+03  0.32625633108E+04  0.32607692904E+04 0.  0.
        2    1    3    3  502    0 -0.58597092958E+03  0.14978047119E+04  0.21321444406E+03  0.16224183445E+04  0.25500000920E-02 0.  1.
       -2    1    3    3    0  502  0.58597092958E+03 -0.14978047119E+04 -0.32139481215E+03  0.16401449664E+04  0.25500000920E-02 0. -1.
</event>
<event>
 5   0  0.1654257E-06  0.2499153E+04  0.7818609E-02  0.8403288E-01
        1   -1    0    0  501    0  0.00000000000E+00  0.00000000000E+00  0.12900857757E+04  0.12900857758E+04  0.50400001928E-02 0. -1.
       -1   -1    0    0    0  501  0.00000000000E+00  0.00000000000E+00 -0.12103387884E+04  0.12103387884E+04  0.50400001928E-02 0.  1.
    10030    2    1    2    0    0  0.00000000000E+00  0.00000000000E+00  0.79746987311E+02  0.25004245642E+04  0.24991525402E+04 0.  0.
        3    1    3    3  502    0 -0.64731636025E+03 -0.10673848828E+04  0.95686170386E+02  0.12519923369E+04  0.10100000352E+00 0. -1.
       -3    1    3    3    0  502  0.64731636025E+03  0.10673848828E+04 -0.15939183075E+02  0.12484322273E+04  0.10100000352E+00 0.  1.
</event>
<event>
 5   0  0.1562618E-06  0.3360973E+04  0.7818609E-02  0.8147552E-01
        1   -1    0    0  501    0  0.00000000000E+00  0.00000000000E+00  0.20683107913E+04  0.20683107913E+04  0.50400001928E-02 0. -1.
       -1   -1    0    0    0  501  0.00000000000E+00  0.00000000000E+00 -0.13653823872E+04  0.13653823872E+04  0.50400001928E-02 0.  1.
    10030    2    1    2    0    0  0.00000000000E+00  0.00000000000E+00  0.70292840409E+03  0.34336931785E+04  0.33609731482E+04 0.  0.
        2    1    3    3  502    0 -0.45320915710E+03 -0.15324082137E+04  0.88267756184E+03  0.18255939175E+04  0.25500000920E-02 0. -1.
       -2    1    3    3    0  502  0.45320915710E+03  0.15324082137E+04 -0.17974915776E+03  0.16080992610E+04  0.25500000920E-02 0.  1.
</event>
<event>
 5   0  0.1562618E-06  0.3430718E+04  0.7818609E-02  0.8130408E-01
        1   -1    0    0  501    0  0.00000000000E+00  0.00000000000E+00  0.22611665694E+04  0.22611665694E+04  0.50400001928E-02 0. -1.
       -1   -1    0    0    0  501  0.00000000000E+00  0.00000000000E+00 -0.13013005573E+04  0.13013005573E+04  0.50400001928E-02 0.  1.
    10030    2    1    2    0    0  0.00000000000E+00  0.00000000000E+00  0.95986601210E+03  0.35624671267E+04  0.34307184769E+04 0.  0.
        2    1    3    3  502    0  0.13729869864E+04  0.23999234080E+03  0.15182150443E+04  0.20609867805E+04  0.25500000920E-02 0. -1.
       -2    1    3    3    0  502 -0.13729869864E+04 -0.23999234080E+03 -0.55834903216E+03  0.15014803463E+04  0.25500000920E-02 0.  1.
</event>
<event>
 5   0  0.1654257E-06  0.2516744E+04  0.7818609E-02  0.8397045E-01
       -1   -1    0    0    0  501  0.00000000000E+00  0.00000000000E+00  0.12785892785E+04  0.12785892785E+04  0.50400001928E-02 0. -1.
        1   -1    0    0  501    0  0.00000000000E+00  0.00000000000E+00 -0.12384744470E+04  0.12384744470E+04  0.50400001928E-02 0.  1.
    10030    2    1    2    0    0  0.00000000000E+00  0.00000000000E+00  0.40114831490E+02  0.25170637255E+04  0.25167440470E+04 0.  0.
        3    1    3    3  502    0  0.80263273556E+03 -0.42444415630E+03  0.89144759899E+03  0.12724193420E+04  0.10100000352E+00 0. -1.
       -3    1    3    3    0  502 -0.80263273556E+03  0.42444415630E+03 -0.85133276750E+03  0.12446443834E+04  0.10100000352E+00 0.  1.
</event>
<event>
 5   0  0.4189587E-06  0.3336368E+04  0.7818609E-02  0.8153703E-01
       -2   -1    0    0    0  501  0.00000000000E+00  0.00000000000E+00  0.10985589842E+04  0.10985589842E+04  0.25500000920E-02 0.  1.
        2   -1    0    0  501    0  0.00000000000E+00  0.00000000000E+00 -0.25331712807E+04  0.25331712807E+04  0.25500000920E-02 0. -1.
    10030    2    1    2    0    0  0.00000000000E+00  0.00000000000E+00 -0.14346122966E+04  0.36317302649E+04  0.33363681265E+04 0.  0.
        1    1    3    3  502    0  0.16011575970E+04  0.24810651000E+03 -0.28520633745E+03  0.16451763267E+04  0.50400001928E-02 0.  1.
       -1    1    3    3    0  502 -0.16011575970E+04 -0.24810651000E+03 -0.11494059591E+04  0.19865539383E+04  0.50400001928E-02 0. -1.
</event>
<event>
 5   0  0.1654257E-06  0.2610524E+04  0.7818609E-02  0.8364635E-01
        1   -1    0    0  501    0  0.00000000000E+00  0.00000000000E+00  0.97877579087E+03  0.97877579088E+03  0.50400001928E-02 0.  1.
       -1   -1    0    0    0  501  0.00000000000E+00  0.00000000000E+00 -0.17406524530E+04  0.17406524530E+04  0.50400001928E-02 0. -1.
    10030    2    1    2    0    0  0.00000000000E+00  0.00000000000E+00 -0.76187666209E+03  0.27194282438E+04  0.26105236879E+04 0.  0.
        3    1    3    3  502    0 -0.22579162592E+03  0.49121834237E+03 -0.16185369466E+04  0.17064404988E+04  0.10100000352E+00 0. -1.
       -3    1    3    3    0  502  0.22579162592E+03 -0.49121834237E+03  0.85666028455E+03  0.10129877450E+04  0.10100000352E+00 0.  1.
</event>
<event>
 5   0  0.4189587E-06  0.3379948E+04  0.7818609E-02  0.8142845E-01
        2   -1    0    0  501    0  0.00000000000E+00  0.00000000000E+00  0.17131928273E+04  0.17131928273E+04  0.25500000920E-02 0. -1.
       -2   -1    0    0    0  501  0.00000000000E+00  0.00000000000E+00 -0.16670694871E+04  0.16670694871E+04  0.25500000920E-02 0.  1.
    10030    2    1    2    0    0  0.00000000000E+00  0.00000000000E+00  0.46123340268E+02  0.33802623144E+04  0.33799476256E+04 0.  0.
        1    1    3    3  502    0 -0.86934948333E+03 -0.11057241947E+04 -0.91383768251E+03  0.16773472595E+04  0.50400001928E-02 0.  1.
       -1    1    3    3    0  502  0.86934948333E+03  0.11057241947E+04  0.95996102277E+03  0.17029150549E+04  0.50400001928E-02 0. -1.
</event>
<event>
 5   0  0.1571391E-06  0.3442288E+04  0.7818609E-02  0.8127605E-01
       -1   -1    0    0    0  501  0.00000000000E+00  0.00000000000E+00  0.18377137844E+04  0.18377137844E+04  0.50400001928E-02 0. -1.
        1   -1    0    0  501    0  0.00000000000E+00  0.00000000000E+00 -0.16119680036E+04  0.16119680036E+04  0.50400001928E-02 0.  1.
    10030    2    1    2    0    0  0.00000000000E+00  0.00000000000E+00  0.22574578074E+03  0.34496817880E+04  0.34422875070E+04 0.  0.
        1    1    3    3  502    0  0.10057444763E+04  0.62037302345E+03  0.13669406546E+04  0.18069065812E+04  0.50400001928E-02 0. -1.
       -1    1    3    3    0  502 -0.10057444763E+04 -0.62037302345E+03 -0.11411948739E+04  0.16427752068E+04  0.50400001928E-02 0.  1.
</event>
<event>
 5   0  0.2722449E-06  0.3462591E+04  0.7818609E-02  0.8122713E-01
        2   -1    0    0  501    0  0.00000000000E+00  0.00000000000E+00  0.22909343062E+04  0.22909343062E+04  0.25500000920E-02 0. -1.
       -2   -1    0    0    0  501  0.00000000000E+00  0.00000000000E+00 -0.13083676170E+04  0.13083676170E+04  0.25500000920E-02 0.  1.
    10030    2    1    2    0    0  0.00000000000E+00  0.00000000000E+00  0.98256668925E+03  0.35993019232E+04  0.34625910869E+04 0.  0.
        2    1    3    3  502    0 -0.11059372179E+04 -0.39711741968E+03  0.18129329434E+04  0.21604456096E+04  0.25500000920E-02 0. -1.
       -2    1    3    3    0  502  0.11059372179E+04  0.39711741968E+03 -0.83036625415E+03  0.14388563135E+04  0.25500000920E-02 0.  1.
</event>
<event>
 5   0  0.2722449E-06  0.2914309E+04  0.7818609E-02  0.8268633E-01
       -2   -1    0    0    0  501  0.00000000000E+00  0.00000000000E+00  0.17390902840E+04  0.17390902840E+04  0.25500000920E-02 0.  1.
        2   -1    0    0  501    0  0.00000000000E+00  0.00000000000E+00 -0.12209249987E+04  0.12209249987E+04  0.25500000920E-02 0. -1.
    10030    2    1    2    0    0  0.00000000000E+00  0.00000000000E+00  0.51816528529E+03  0.29600152826E+04  0.29143087020E+04 0.  0.
        2    1    3    3  502    0 -0.75951415525E+03 -0.12181136024E+04  0.51328024831E+03  0.15245061869E+04  0.25500000920E-02 0.  1.
       -2    1    3    3    0  502  0.75951415525E+03  0.12181136024E+04  0.48850369764E+01  0.14355090958E+04  0.25500000920E-02 0. -1.
</event>
<event>
 5   0  0.1654257E-06  0.2998777E+04  0.7818609E-02  0.8244080E-01
        1   -1    0    0  501    0  0.00000000000E+00  0.00000000000E+00  0.17500621752E+04  0.17500621752E+04  0.50400001928E-02 0. -1.
       -1   -1    0    0    0  501  0.00000000000E+00  0.00000000000E+00 -0.12846206538E+04  0.12846206538E+04  0.50400001928E-02 0.  1.
    10030    2    1    2    0    0  0.00000000000E+00  0.00000000000E+00  0.46544152136E+03  0.30346828290E+04  0.29987770946E+04 0.  0.
        3    1    3    3  502    0 -0.12220255192E+04 -0.83196110717E+03  0.48603846182E+03  0.15561937700E+04  0.10100000352E+00 0. -1.
       -3    1    3    3    0  502  0.12220255192E+04  0.83196110717E+03 -0.20596940462E+02  0.14784890590E+04  0.10100000352E+00 0.  1.
</event>
<event>
 5   0  0.1571391E-06  0.3152629E+04  0.7818609E-02  0.8201441E-01
       -1   -1    0    0    0  501  0.00000000000E+00  0.00000000000E+00  0.16897309065E+04  0.16897309065E+04  0.50400001928E-02 0. -1.
        1   -1    0    0  501    0  0.00000000000E+00  0.00000000000E+00 -0.14705103881E+04  0.14705103881E+04  0.50400001928E-02 0.  1.
    10030    2    1    2    0    0  0.00000000000E+00  0.00000000000E+00  0.21922051844E+03  0.31602412946E+04  0.31526286500E+04 0.  0.
        1    1    3    3  502    0  0.54911378789E+03  0.14696735242E+04 -0.43403776726E+02  0.15695063261E+04  0.50400001928E-02 0.  1.
       -1    1    3    3    0  502 -0.54911378789E+03 -0.14696735242E+04  0.26262429517E+03  0.15907349686E+04  0.50400001928E-02 0. -1.
</event>
<event>
 5   0  0.1562618E-06  0.3386367E+04  0.7818609E-02  0.8141260E-01
       -1   -1    0    0    0  501  0.00000000000E+00  0.00000000000E+00  0.12457776720E+04  0.12457776720E+04  0.50400001928E-02 0.  1.
        1   -1    0    0  501    0  0.00000000000E+00  0.00000000000E+00 -0.23012697892E+04  0.23012697892E+04  0.50400001928E-02 0. -1.
    10030    2    1    2    0    0  0.00000000000E+00  0.00000000000E+00 -0.10554921172E+04  0.35470474611E+04  0.33863670920E+04 0.  0.
        2    1    3    3  502    0 -0.63822773070E+03  0.15681239947E+04 -0.50379124677E+03  0.17663955161E+04  0.25500000920E-02 0.  1.
       -2    1    3    3    0  502  0.63822773070E+03 -0.15681239947E+04 -0.55170087042E+03  0.17806519450E+04  0.25500000920E-02 0. -1.
</event>
<event>
 5   0  0.2722449E-06  0.3646613E+04  0.7818609E-02  0.8079897E-01
        2   -1    0    0  501    0  0.00000000000E+00  0.00000000000E+00  0.27986603722E+04  0.27986603722E+04  0.25500000920E-02 0.  1.
       -2   -1    0    0    0  501  0.00000000000E+00  0.00000000000E+00 -0.11878704823E+04  0.11878704823E+04  0.25500000920E-02 0. -1.
    10030    2    1    2    0    0  0.00000000000E+00  0.00000000000E+00  0.16107898899E+04  0.39865308545E+04  0.36466127000E+04 0.  0.
        2    1    3    3  502    0 -0.41734375878E+03 -0.13625132373E+04 -0.43809920786E+03  0.14908216026E+04  0.25500000920E-02 0. -1.
       -2    1    3    3    0  502  0.41734375878E+03  0.13625132373E+04  0.20488890978E+04  0.24957092519E+04  0.25500000920E-02 0.  1.
</event>
<event>
 5   0  0.1654257E-06  0.2580308E+04  0.7818609E-02  0.8374921E-01
       -1   -1    0    0    0  501  0.00000000000E+00  0.00000000000E+00  0.11574078298E+04  0.11574078298E+04  0.50400001928E-02 0. -1.
        1   -1    0    0  501    0  0.00000000000E+00  0.00000000000E+00 -0.14381246969E+04  0.14381246969E+04  0.50400001928E-02 0.  1.
    10030    2    1    2    0    0  0.00000000000E+00  0.00000000000E+00 -0.28071686712E+03  0.25955325267E+04  0.25803075665E+04 0.  0.
        3    1    3    3  502    0  0.10022080569E+04  0.45633472162E+03 -0.81651091979E+03  0.13708947662E+04  0.10100000352E+00 0.  1.
       -3    1    3    3    0  502 -0.10022080569E+04 -0.45633472162E+03  0.53579405268E+03  0.12246377606E+04  0.10100000352E+00 0. -1.
</event>
<event>
 5   0  0.2722449E-06  0.2109846E+04  0.7818609E-02  0.8556918E-01
        2   -1    0    0  501    0  0.00000000000E+00  0.00000000000E+00  0.17246585055E+04  0.17246585055E+04  0.25500000920E-02 0. -1.
       -2   -1    0    0    0  501  0.00000000000E+00  0.00000000000E+00 -0.64526573459E+03  0.64526573460E+03  0.25500000920E-02 0.  1.
    10030    2    1    2    0    0  0.00000000000E+00  0.00000000000E+00  0.10793927710E+04  0.23699242401E+04  0.21098464755E+04 0.  0.
        2    1    3    3  502    0  0.48756612927E+03 -0.71369011545E+03 -0.13966172794E+03  0.87554537835E+03  0.25500000920E-02 0.  1.
       -2    1    3    3    0  502 -0.48756612927E+03  0.71369011545E+03  0.12190544989E+04  0.14943788618E+04  0.25500000920E-02 0. -1.
</event>
<event>
 5   0  0.4173467E-06  0.2633509E+04  0.7818609E-02  0.8356907E-01
       -2   -1    0    0    0  501  0.00000000000E+00  0.00000000000E+00  0.14142168734E+04  0.14142168734E+04  0.25500000920E-02 0.  1.
        2   -1    0    0  501    0  0.00000000000E+00  0.00000000000E+00 -0.12260089321E+04  0.12260089321E+04  0.25500000920E-02 0. -1.
    10030    2    1    2    0    0  0.00000000000E+00  0.00000000000E+00  0.18820794136E+03  0.26402258055E+04  0.26335090801E+04 0.  0.
        4    1    3    3  502    0 -0.49258980998E+03 -0.11371063656E+04  0.54041946986E+03  0.13519284093E+04  0.12699999809E+01 0. -1.
       -4    1    3    3    0  502  0.49258980998E+03  0.11371063656E+04 -0.35221152850E+03  0.12882973963E+04  0.12699999809E+01 0.  1.
</event>
<event>
 5   0  0.2101998E-06  0.3331915E+04  0.7818609E-02  0.8154822E-01
       -1   -1    0    0    0  501  0.00000000000E+00  0.00000000000E+00  0.16498099178E+04  0.16498099178E+04  0.50400001928E-02 0.  1.
        1   -1    0    0  501    0  0.00000000000E+00  0.00000000000E+00 -0.16822633059E+04  0.16822633059E+04  0.50400001928E-02 0. -1.
    10030    2    1    2    0    0  0.00000000000E+00  0.00000000000E+00 -0.32453388154E+02  0.33320732237E+04  0.33319151769E+04 0.  0.
        5    1    3    3  502    0 -0.15343321266E+04  0.46365739207E+03 -0.47038405729E+03  0.16704599676E+04  0.46999998093E+01 0. -1.
       -5    1    3    3    0  502  0.15343321266E+04 -0.46365739207E+03  0.43793066914E+03  0.16616132561E+04  0.46999998093E+01 0.  1.
</event>
<event>
 5   0  0.4400349E-06  0.3376191E+04  0.7818609E-02  0.8143775E-01
       -2   -1    0    0    0  501  0.00000000000E+00  0.00000000000E+00  0.13750739657E+04  0.13750739657E+04  0.25500000920E-02 0. -1.
        2   -1    0    0  501    0  0.00000000000E+00  0.00000000000E+00 -0.20723726601E+04  0.20723726601E+04  0.25500000920E-02 0.  1.
    10030    2    1    2    0    0  0.00000000000E+00  0.00000000000E+00 -0.69729869443E+03  0.34474466258E+04  0.33761905705E+04 0.  0.
        5    1    3    3  502    0 -0.10782503527E+04 -0.12976391316E+04 -0.29131754473E+03  0.17121270809E+04  0.46999998093E+01 0. -1.
       -5    1    3    3    0  502  0.10782503527E+04  0.12976391316E+04 -0.40598114970E+03  0.17353195449E+04  0.46999998093E+01 0.  1.
</event>
<event>
 5   0  0.2722449E-06  0.3791568E+04  0.7818609E-02  0.8047967E-01
       -2   -1    0    0    0  501  0.00000000000E+00  0.00000000000E+00  0.22560786267E+04  0.22560786267E+04  0.25500000920E-02 0. -1.
        2   -1    0    0  501    0  0.00000000000E+00  0.00000000000E+00 -0.15930280948E+04  0.15930280948E+04  0.25500000920E-02 0.  1.
    10030    2    1    2    0    0  0.00000000000E+00  0.00000000000E+00  0.66305053189E+03  0.38491067215E+04  0.37915678216E+04 0.  0.
        2    1    3    3  502    0 -0.12257484031E+04  0.71305292086E+03 -0.94577893616E+03  0.17045238079E+04  0.25500000920E-02 0.  1.
       -2    1    3    3    0  502  0.12257484031E+04 -0.71305292086E+03  0.16088294681E+04  0.21445829135E+04  0.25500000920E-02 0. -1.
</event>
<event>
 5   0  0.4344980E-06  0.2512512E+04  0.7818609E-02  0.8398542E-01
        2   -1    0    0  501    0  0.00000000000E+00  0.00000000000E+00  0.16290135626E+04  0.16290135626E+04  0.25500000920E-02 0.  1.
       -2   -1    0    0    0  501  0.00000000000E+00  0.00000000000E+00 -0.96879425097E+03  0.96879425098E+03  0.25500000920E-02 0. -1.
    10030    2    1    2    0    0  0.00000000000E+00  0.00000000000E+00  0.66021931165E+03  0.25978078136E+04  0.25125118700E+04 0.  0.
        3    1    3    3  502    0 -0.78078268421E+03  0.11882666230E+03 -0.68000963204E+03  0.10421873562E+04  0.10100000352E+00 0. -1.
       -3    1    3    3    0  502  0.78078268421E+03 -0.11882666230E+03  0.13402289437E+04  0.15556204574E+04  0.10100000352E+00 0.  1.
</event>
<event>
 5   0  0.4344980E-06  0.3149582E+04  0.7818609E-02  0.8202261E-01
        2   -1    0    0  501    0  0.00000000000E+00  0.00000000000E+00  0.14521931009E+04  0.14521931009E+04  0.25500000920E-02 0. -1.
       -2   -1    0    0    0  501  0.00000000000E+00  0.00000000000E+00 -0.17077392852E+04  0.17077392852E+04  0.25500000920E-02 0.  1.
    10030    2    1    2    0    0  0.00000000000E+00  0.00000000000E+00 -0.25554618434E+03  0.31599323861E+04  0.31495823267E+04 0.  0.
        3    1    3    3  502    0  0.12783428254E+04  0.31028406963E+03  0.74082628452E+03  0.15097218874E+04  0.10100000352E+00 0. -1.
       -3    1    3    3    0  502 -0.12783428254E+04 -0.31028406963E+03 -0.99637246887E+03  0.16502104987E+04  0.10100000352E+00 0.  1.
</event>
<event>
 5   0  0.1562618E-06  0.3448137E+04  0.7818609E-02  0.8126192E-01
        1   -1    0    0  501    0  0.00000000000E+00  0.00000000000E+00  0.28297705722E+04  0.28297705722E+04  0.50400001928E-02 0. -1.
       -1   -1    0    0    0  501  0.00000000000E+00  0.00000000000E+00 -0.10504073488E+04  0.10504073488E+04  0.50400001928E-02 0.  1.
    10030    2    1    2    0    0  0.00000000000E+00  0.00000000000E+00  0.17793632233E+04  0.38801779210E+04  0.34481367749E+04 0.  0.
        2    1    3    3  502    0 -0.16803050598E+03  0.26957883776E+03 -0.10171920902E+04  0.10656391271E+04  0.25500000920E-02 0.  1.
       -2    1    3    3    0  502  0.16803050598E+03 -0.26957883776E+03  0.27965553136E+04  0.28145387939E+04  0.25500000920E-02 0. -1.
</event>
<event>
 5   0  0.2722449E-06  0.2886946E+04  0.7818609E-02  0.8276772E-01
        2   -1    0    0  501    0  0.00000000000E+00  0.00000000000E+00  0.98066752906E+03  0.98066752906E+03  0.25500000920E-02 0.  1.
       -2   -1    0    0    0  501  0.00000000000E+00  0.00000000000E+00 -0.21246900831E+04  0.21246900831E+04  0.25500000920E-02 0. -1.
    10030    2    1    2    0    0  0.00000000000E+00  0.00000000000E+00 -0.11440225541E+04  0.31053576122E+04  0.28869461885E+04 0.  0.
        2    1    3    3  502    0  0.36519390629E+03  0.10490077891E+04 -0.15636172295E+04  0.19179892521E+04  0.25500000920E-02 0. -1.
       -2    1    3    3    0  502 -0.36519390629E+03 -0.10490077891E+04  0.41959467541E+03  0.11873683601E+04  0.25500000920E-02 0.  1.
</event>
<event>
 5   0  0.4400349E-06  0.3341292E+04  0.7818609E-02  0.8152467E-01
        2   -1    0    0  501    0  0.00000000000E+00  0.00000000000E+00  0.12875006443E+04  0.12875006443E+04  0.25500000920E-02 0. -1.
       -2   -1    0    0    0  501  0.00000000000E+00  0.00000000000E+00 -0.21678109754E+04  0.21678109754E+04  0.25500000920E-02 0.  1.
    10030    2    1    2    0    0  0.00000000000E+00  0.00000000000E+00 -0.88031033106E+03  0.34553116197E+04  0.33412919822E+04 0.  0.
        5    1    3    3  502    0 -0.11414514049E+04 -0.54960403050E+03 -0.15663826683E+04  0.20145849829E+04  0.46999998093E+01 0.  1.
       -5    1    3    3    0  502  0.11414514049E+04  0.54960403050E+03  0.68607233723E+03  0.14407266368E+04  0.46999998093E+01 0. -1.
</event>
<event>
 5   0  0.4344980E-06  0.3317084E+04  0.7818609E-02  0.8158562E-01
       -2   -1    0    0    0  501  0.00000000000E+00  0.00000000000E+00  0.13612622892E+04  0.13612622892E+04  0.25500000920E-02 0.  1.
        2   -1    0    0  501    0  0.00000000000E+00  0.00000000000E+00 -0.20207429117E+04  0.20207429117E+04  0.25500000920E-02 0. -1.
    10030    2    1    2    0    0  0.00000000000E+00  0.00000000000E+00 -0.65948062250E+03  0.33820052010E+04  0.33170837324E+04 0.  0.
        3    1    3    3  502    0 -0.30805274327E+03  0.20753205668E+03 -0.19777907918E+04  0.20123673803E+04  0.10100000352E+00 0. -1.
       -3    1    3    3    0  502  0.30805274327E+03 -0.20753205668E+03  0.13183101693E+04  0.13696378207E+04  0.10100000352E+00 0.  1.
</event>
<event>
 5   0  0.1550164E-06  0.3361444E+04  0.7818609E-02  0.8147435E-01
       -1   -1    0    0    0  501  0.00000000000E+00  0.00000000000E+00  0.12804241548E+04  0.12804241548E+04  0.50400001928E-02 0.  1.
        1   -1    0    0  501    0  0.00000000000E+00  0.00000000000E+00 -0.22061643565E+04  0.22061643565E+04  0.50400001928E-02 0. -1.
    10030    2    1    2    0    0  0.00000000000E+00  0.00000000000E+00 -0.92574020166E+03  0.34865885113E+04  0.33614438157E+04 0.  0.
        4    1    3    3  502    0  0.17477661495E+03  0.13586796390E+04  0.54717373743E+03  0.14751128561E+04  0.12699999809E+01 0.  1.
       -4    1    3    3    0  502 -0.17477661495E+03 -0.13586796390E+04 -0.14729139391E+04  0.20114756552E+04  0.12699999809E+01 0. -1.
</event>
<event>
 5   0  0.1562618E-06  0.2149991E+04  0.7818609E-02  0.8539536E-01
        1   -1    0    0  501    0  0.00000000000E+00  0.00000000000E+00  0.11899567427E+04  0.11899567427E+04  0.50400001928E-02 0.  1.
       -1   -1    0    0    0  501  0.00000000000E+00  0.00000000000E+00 -0.97114028057E+03  0.97114028059E+03  0.50400001928E-02 0. -1.
    10030    2    1    2    0    0  0.00000000000E+00  0.00000000000E+00  0.21881646214E+03  0.21610970233E+04  0.21499906279E+04 0.  0.
        2    1    3    3  502    0 -0.22881023747E+03  0.85653579573E+03 -0.50168563982E+03  0.10186737335E+04  0.25500000920E-02 0. -1.
       -2    1    3    3    0  502  0.22881023747E+03 -0.85653579573E+03  0.72050210197E+03  0.11424232898E+04  0.25500000920E-02 0.  1.
</event>
<event>
 5   0  0.1571391E-06  0.3495837E+04  0.7818609E-02  0.8114777E-01
       -1   -1    0    0    0  501  0.00000000000E+00  0.00000000000E+00  0.14416768280E+04  0.14416768280E+04  0.50400001928E-02 0. -1.
        1   -1    0    0  501    0  0.00000000000E+00  0.00000000000E+00 -0.21192116405E+04  0.21192116405E+04  0.50400001928E-02 0.  1.
    10030    2    1    2    0    0  0.00000000000E+00  0.00000000000E+00 -0.67753481256E+03  0.35608884685E+04  0.34958365613E+04 0.  0.
        1    1    3    3  502    0  0.14095389097E+04 -0.15355050451E+03  0.70242807654E+03  0.15823346353E+04  0.50400001928E-02 0. -1.
       -1    1    3    3    0  502 -0.14095389097E+04  0.15355050451E+03 -0.13799628891E+04  0.19785538332E+04  0.50400001928E-02 0.  1.
</event>
<event>
 5   0  0.4400349E-06  0.3485758E+04  0.7818609E-02  0.8117173E-01
       -2   -1    0    0    0  501  0.00000000000E+00  0.00000000000E+00  0.15436026940E+04  0.15436026940E+04  0.25500000920E-02 0. -1.
        2   -1    0    0  501    0  0.00000000000E+00  0.00000000000E+00 -0.19678812776E+04  0.19678812776E+04  0.25500000920E-02 0.  1.
    10030    2    1    2    0    0  0.00000000000E+00  0.00000000000E+00 -0.42427858351E+03  0.35114839716E+04  0.34857577894E+04 0.  0.
        5    1    3    3  502    0 -0.37701111674E+03 -0.17315163020E+03 -0.19174072053E+04  0.19617826970E+04  0.46999998093E+01 0.  1.
       -5    1    3    3    0  502  0.37701111674E+03  0.17315163020E+03  0.14931286218E+04  0.15497012746E+04  0.46999998093E+01 0. -1.
</event>
<event>
 5   0  0.2344180E-06  0.1691763E+04  0.7818609E-02  0.8766076E-01
        1   -1    0    0  501    0  0.00000000000E+00  0.00000000000E+00  0.13220883527E+04  0.13220883527E+04  0.50400001928E-02 0.  1.
       -1   -1    0    0    0  501  0.00000000000E+00  0.00000000000E+00 -0.54120091141E+03  0.54120091143E+03  0.50400001928E-02 0. -1.
    10030    2    1    2    0    0  0.00000000000E+00  0.00000000000E+00  0.78088744126E+03  0.18632892641E+04  0.16917628929E+04 0.  0.
        5    1    3    3  502    0 -0.32469261838E+03 -0.45803368808E+03  0.10872611902E+04  0.12236744426E+04  0.46999998093E+01 0.  1.
       -5    1    3    3    0  502  0.32469261838E+03  0.45803368808E+03 -0.30637374892E+03  0.63961482149E+03  0.46999998093E+01 0. -1.
</event>
<event>
 5   0  0.1571391E-06  0.2335094E+04  0.7818609E-02  0.8464211E-01
        1   -1    0    0  501    0  0.00000000000E+00  0.00000000000E+00  0.13103518379E+04  0.13103518379E+04  0.50400001928E-02 0.  1.
       -1   -1    0    0    0  501  0.00000000000E+00  0.00000000000E+00 -0.10403052411E+04  0.10403052411E+04  0.50400001928E-02 0. -1.
    10030    2    1    2    0    0  0.00000000000E+00  0.00000000000E+00  0.27004659681E+03  0.23506570791E+04  0.23350939037E+04 0.  0.
        1    1    3    3  502    0  0.10436243728E+04  0.44066400282E+03  0.41944718101E+03  0.12080035317E+04  0.50400001928E-02 0.  1.
       -1    1    3    3    0  502 -0.10436243728E+04 -0.44066400282E+03 -0.14940058419E+03  0.11426535474E+04  0.50400001928E-02 0. -1.
</event>
<event>
 5   0  0.4189587E-06  0.3424859E+04  0.7818609E-02  0.8131832E-01
        2   -1    0    0  501    0  0.00000000000E+00  0.00000000000E+00  0.14924396228E+04  0.14924396228E+04  0.25500000920E-02 0.  1.
       -2   -1    0    0    0  501  0.00000000000E+00  0.00000000000E+00 -0.19648466464E+04  0.19648466464E+04  0.25500000920E-02 0. -1.
    10030    2    1    2    0    0  0.00000000000E+00  0.00000000000E+00 -0.47240702360E+03  0.34572862691E+04  0.34248591140E+04 0.  0.
        1    1    3    3  502    0  0.92722491318E+02 -0.42691450600E+03  0.14352397133E+04  0.15002554751E+04  0.50400001928E-02 0.  1.
       -1    1    3    3    0  502 -0.92722491318E+02  0.42691450600E+03 -0.19076467369E+04  0.19570307940E+04  0.50400001928E-02 0. -1.
</event>
<event>
 5   0  0.1571391E-06  0.2546225E+04  0.7818609E-02  0.8386700E-01
        1   -1    0    0  501    0  0.00000000000E+00  0.00000000000E+00  0.21384765596E+04  0.21384765596E+04  0.50400001928E-02 0. -1.
       -1   -1    0    0    0  501  0.00000000000E+00  0.00000000000E+00 -0.75792989254E+03  0.75792989256E+03  0.50400001928E-02 0.  1.
    10030    2    1    2    0    0  0.00000000000E+00  0.00000000000E+00  0.13805466671E+04  0.28964064522E+04  0.25462248990E+04 0.  0.
        1    1    3    3  502    0  0.31989238511E+03  0.89009108612E+03 -0.27911425495E+03  0.98615315595E+03  0.50400001928E-02 0. -1.
       -1    1    3    3    0  502 -0.31989238511E+03 -0.89009108612E+03  0.16596609220E+04  0.19102532962E+04  0.50400001928E-02 0.  1.
</event>
<event>
 5   0  0.4189587E-06  0.1867452E+04  0.7818609E-02  0.8671229E-01
       -2   -1    0    0    0  501  0.00000000000E+00  0.00000000000E+00  0.84080343791E+03  0.84080343791E+03  0.25500000920E-02 0.  1.
        2   -1    0    0  501    0  0.00000000000E+00  0.00000000000E+00 -0.10369184306E+04  0.10369184306E+04  0.25500000920E-02 0. -1.
    10030    2    1    2    0    0  0.00000000000E+00  0.00000000000E+00 -0.19611499265E+03  0.18777218685E+04  0.18674523622E+04 0.  0.
        1    1    3    3  502    0  0.14090853247E+02 -0.32789619711E+03 -0.97700996372E+03  0.10306614078E+04  0.50400001928E-02 0. -1.
       -1    1    3    3    0  502 -0.14090853247E+02  0.32789619711E+03  0.78089497107E+03  0.84706046070E+03  0.50400001928E-02 0.  1.
</event>
<event>
 5   0  0.1571391E-06  0.1890551E+04  0.7818609E-02  0.8659574E-01
        1   -1    0    0  501    0  0.00000000000E+00  0.00000000000E+00  0.10070298982E+04  0.10070298983E+04  0.50400001928E-02 0.  1.
       -1   -1    0    0    0  501  0.00000000000E+00  0.00000000000E+00 -0.88730766998E+03  0.88730766999E+03  0.50400001928E-02 0. -1.
    10030    2    1    2    0    0  0.00000000000E+00  0.00000000000E+00  0.11972222827E+03  0.18943375683E+04  0.18905505575E+04 0.  0.
        1    1    3    3  502    0 -0.71784260460E+03  0.60630327103E+03  0.16323603946E+03  0.95370208453E+03  0.50400001928E-02 0. -1.
       -1    1    3    3    0  502  0.71784260460E+03 -0.60630327103E+03 -0.43513811192E+02  0.94063548372E+03  0.50400001928E-02 0.  1.
</event>
<event>
 5   0  0.1550164E-06  0.3438388E+04  0.7818609E-02  0.8128548E-01
       -1   -1    0    0    0  501  0.00000000000E+00  0.00000000000E+00  0.26026325301E+04  0.26026325301E+04  0.50400001928E-02 0. -1.
        1   -1    0    0  501    0  0.00000000000E+00  0.00000000000E+00 -0.11356304582E+04  0.11356304582E+04  0.50400001928E-02 0.  1.
    10030    2    1    2    0    0  0.00000000000E+00  0.00000000000E+00  0.14670020719E+04  0.37382629883E+04  0.34383884438E+04 0.  0.
        4    1    3    3  502    0  0.64002334953E+03 -0.15950713135E+04  0.77891452195E+03  0.18869530541E+04  0.12699999809E+01 0. -1.
       -4    1    3    3    0  502 -0.64002334953E+03  0.15950713135E+04  0.68808754996E+03  0.18513099342E+04  0.12699999809E+01 0.  1.
</event>
<event>
 5   0  0.4173467E-06  0.2764989E+04  0.7818609E-02  0.8314221E-01
       -2   -1    0    0    0  501  0.00000000000E+00  0.00000000000E+00  0.11198523803E+04  0.11198523803E+04  0.25500000920E-02 0. -1.
        2   -1    0    0  501    0  0.00000000000E+00  0.00000000000E+00 -0.17067348872E+04  0.17067348872E+04  0.25500000920E-02 0.  1.
    10030    2    1    2    0    0  0.00000000000E+00  0.00000000000E+00 -0.58688250689E+03  0.28265872675E+04  0.27649890603E+04 0.  0.
        4    1    3    3  502    0  0.52768626952E+03  0.41144778405E+03  0.94328158921E+03  0.11565136607E+04  0.12699999809E+01 0. -1.
       -4    1    3    3    0  502 -0.52768626952E+03 -0.41144778405E+03 -0.15301640961E+04  0.16700736067E+04  0.12699999809E+01 0.  1.
</event>
<event>
 5   0  0.1571391E-06  0.3259815E+04  0.7818609E-02  0.8173196E-01
       -1   -1    0    0    0  501  0.00000000000E+00  0.00000000000E+00  0.83488425258E+03  0.83488425259E+03  0.50400001928E-02 0.  1.
        1   -1    0    0  501    0  0.00000000000E+00  0.00000000000E+00 -0.31819965199E+04  0.31819965199E+04  0.50400001928E-02 0. -1.
    10030    2    1    2    0    0  0.00000000000E+00  0.00000000000E+00 -0.23471122674E+04  0.40168807725E+04  0.32598152011E+04 0.  0.
        1    1    3    3  502    0  0.68152788778E+03  0.11089745414E+04 -0.23823433201E+04  0.27147494342E+04  0.50400001928E-02 0. -1.
       -1    1    3    3    0  502 -0.68152788778E+03 -0.11089745414E+04  0.35231052775E+02  0.13021313384E+04  0.50400001928E-02 0.  1.
</event>
<event>
 5   0  0.1571391E-06  0.3448584E+04  0.7818609E-02  0.8126084E-01
       -1   -1    0    0    0  501  0.00000000000E+00  0.00000000000E+00  0.12072478864E+04  0.12072478864E+04  0.50400001928E-02 0. -1.
        1   -1    0    0  501    0  0.00000000000E+00  0.00000000000E+00 -0.24627778877E+04  0.24627778877E+04  0.50400001928E-02 0.  1.
    10030    2    1    2    0    0  0.00000000000E+00  0.00000000000E+00 -0.12555300013E+04  0.36700257742E+04  0.34485842891E+04 0.  0.
        1    1    3    3  502    0  0.11304356827E+04  0.12988890376E+04 -0.53147975072E+03  0.18020733310E+04  0.50400001928E-02 0.  1.
       -1    1    3    3    0  502 -0.11304356827E+04 -0.12988890376E+04 -0.72405025059E+03  0.18679524432E+04  0.50400001928E-02 0. -1.
</event>
<event>
 5   0  0.4189587E-06  0.1744451E+04  0.7818609E-02  0.8736411E-01
       -2   -1    0    0    0  501  0.00000000000E+00  0.00000000000E+00  0.44264085237E+03  0.44264085237E+03  0.25500000920E-02 0.  1.
        2   -1    0    0  501    0  0.00000000000E+00  0.00000000000E+00 -0.17187237358E+04  0.17187237358E+04  0.25500000920E-02 0. -1.
    10030    2    1    2    0    0  0.00000000000E+00  0.00000000000E+00 -0.12760828835E+04  0.21613645882E+04  0.17444510190E+04 0.  0.
        1    1    3    3  502    0 -0.14814751325E+03  0.19879617855E+02 -0.17027364748E+04  0.17092847591E+04  0.50400001928E-02 0. -1.
       -1    1    3    3    0  502  0.14814751325E+03 -0.19879617855E+02  0.42665359134E+03  0.45207982914E+03  0.50400001928E-02 0.  1.
</event>
<event>
 5   0  0.4344980E-06  0.3370099E+04  0.7818609E-02  0.8145284E-01
        2   -1    0    0  501    0  0.00000000000E+00  0.00000000000E+00  0.23752889048E+04  0.23752889048E+04  0.25500000920E-02 0.  1.
       -2   -1    0    0    0  501  0.00000000000E+00  0.00000000000E+00 -0.11953881447E+04  0.11953881447E+04  0.25500000920E-02 0. -1.
    10030    2    1    2    0    0  0.00000000000E+00  0.00000000000E+00  0.11799007601E+04  0.35706770495E+04  0.33700992253E+04 0.  0.
        3    1    3    3  502    0  0.11915184403E+04  0.64134251993E+03 -0.47398383867E+03  0.14337702435E+04  0.10100000352E+00 0. -1.
       -3    1    3    3    0  502 -0.11915184403E+04 -0.64134251993E+03  0.16538845988E+04  0.21369068060E+04  0.10100000352E+00 0.  1.
</event>
<event>
 5   0  0.2722449E-06  0.3238294E+04  0.7818609E-02  0.8178777E-01
        2   -1    0    0  501    0  0.00000000000E+00  0.00000000000E+00  0.32005410727E+04  0.32005410727E+04  0.25500000920E-02 0. -1.
       -2   -1    0    0    0  501  0.00000000000E+00  0.00000000000E+00 -0.81912284596E+03  0.81912284597E+03  0.25500000920E-02 0.  1.
    10030    2    1    2    0    0  0.00000000000E+00  0.00000000000E+00  0.23814182267E+04  0.40196639186E+04  0.32382935704E+04 0.  0.
        2    1    3    3  502    0  0.13587510829E+04 -0.64252300909E+02  0.22808588709E+04  0.26556825963E+04  0.25500000920E-02 0. -1.
       -2    1    3    3    0  502 -0.13587510829E+04  0.64252300909E+02  0.10055935579E+03  0.13639813223E+04  0.25500000920E-02 0.  1.
</event>
<event>
 5   0  0.2722449E-06  0.2114025E+04  0.7818609E-02  0.8555090E-01
        2   -1    0    0  501    0  0.00000000000E+00  0.00000000000E+00  0.22501610598E+04  0.22501610598E+04  0.25500000920E-02 0. -1.
       -2   -1    0    0    0  501  0.00000000000E+00  0.00000000000E+00 -0.49653126506E+03  0.49653126507E+03  0.25500000920E-02 0.  1.
    10030    2    1    2    0    0  0.00000000000E+00  0.00000000000E+00  0.17536297948E+04  0.27466923249E+04  0.21140248983E+04 0.  0.
        2    1    3    3  502    0 -0.81429507051E+03  0.45170423929E+02  0.31492486560E+01  0.81555303128E+03  0.25500000920E-02 0. -1.
       -2    1    3    3    0  502  0.81429507051E+03 -0.45170423929E+02  0.17504805461E+04  0.19311392936E+04  0.25500000920E-02 0.  1.
</event>
<event>
 5   0  0.4189587E-06  0.3396002E+04  0.7818609E-02  0.8138888E-01
        2   -1    0    0  501    0  0.00000000000E+00  0.00000000000E+00  0.19439929202E+04  0.19439929202E+04  0.25500000920E-02 0. -1.
       -2   -1    0    0    0  501  0.00000000000E+00  0.00000000000E+00 -0.14831366445E+04  0.14831366445E+04  0.25500000920E-02 0.  1.
    10030    2    1    2    0    0  0.00000000000E+00  0.00000000000E+00  0.46085627577E+03  0.34271295647E+04  0.33960018472E+04 0.  0.
        1    1    3    3  502    0  0.20076852512E+03  0.13090552233E+04  0.13028414229E+04  0.18577753770E+04  0.50400001928E-02 0. -1.
       -1    1    3    3    0  502 -0.20076852512E+03 -0.13090552233E+04 -0.84198514712E+03  0.15693541877E+04  0.50400001928E-02 0.  1.
</event>
<event>
 5   0  0.4400349E-06  0.3618231E+04  0.7818609E-02  0.8086328E-01
        2   -1    0    0  501    0  0.00000000000E+00  0.00000000000E+00  0.23287342185E+04  0.23287342185E+04  0.25500000920E-02 0.  1.
       -2   -1    0    0    0  501  0.00000000000E+00  0.00000000000E+00 -0.14054407837E+04  0.14054407837E+04  0.25500000920E-02 0. -1.
    10030    2    1    2    0    0  0.00000000000E+00  0.00000000000E+00  0.92329343479E+03  0.37341750022E+04  0.36182305317E+04 0.  0.
        5    1    3    3  502    0  0.13262797467E+04 -0.93836973839E+03 -0.35966895707E+03  0.16640130952E+04  0.46999998093E+01 0. -1.
       -5    1    3    3    0  502 -0.13262797467E+04  0.93836973839E+03  0.12829623919E+04  0.20701619070E+04  0.46999998093E+01 0.  1.
</event>
<event>
 5   0  0.4173467E-06  0.3163005E+04  0.7818609E-02  0.8198656E-01
        2   -1    0    0  501    0  0.00000000000E+00  0.00000000000E+00  0.23590507187E+04  0.23590507187E+04  0.25500000920E-02 0.  1.
       -2   -1    0    0    0  501  0.00000000000E+00  0.00000000000E+00 -0.10602360882E+04  0.10602360882E+04  0.25500000920E-02 0. -1.
    10030    2    1    2    0    0  0.00000000000E+00  0.00000000000E+00  0.12988146305E+04  0.34192868069E+04  0.31630053467E+04 0.  0.
        4    1    3    3  502    0 -0.89979794116E+03 -0.10309108512E+04 -0.20776793245E+03  0.13840457524E+04  0.12699999809E+01 0. -1.
       -4    1    3    3    0  502  0.89979794116E+03  0.10309108512E+04  0.15065825629E+04  0.20352410545E+04  0.12699999809E+01 0.  1.
</event>
<event>
 5   0  0.1571391E-06  0.1754328E+04  0.7818609E-02  0.8730971E-01
        1   -1    0    0  501    0  0.00000000000E+00  0.00000000000E+00  0.11347584508E+04  0.11347584508E+04  0.50400001928E-02 0. -1.
       -1   -1    0    0    0  501  0.00000000000E+00  0.00000000000E+00 -0.67804462859E+03  0.67804462860E+03  0.50400001928E-02 0.  1.
    10030    2    1    2    0    0  0.00000000000E+00  0.00000000000E+00  0.45671382221E+03  0.18128030794E+04  0.17543282160E+04 0.  0.
        1    1    3    3  502    0 -0.69400318846E+03  0.11595434085E+03  0.76958117050E+03  0.10427564494E+04  0.50400001928E-02 0. -1.
       -1    1    3    3    0  502  0.69400318846E+03 -0.11595434085E+03 -0.31286734828E+03  0.77004663002E+03  0.50400001928E-02 0.  1.
</event>
<event>
 5   0  0.1654257E-06  0.2264885E+04  0.7818609E-02  0.8491897E-01
        1   -1    0    0  501    0  0.00000000000E+00  0.00000000000E+00  0.78154132106E+03  0.78154132107E+03  0.50400001928E-02 0.  1.
       -1   -1    0    0    0  501  0.00000000000E+00  0.00000000000E+00 -0.16408932680E+04  0.16408932680E+04  0.50400001928E-02 0. -1.
    10030    2    1    2    0    0  0.00000000000E+00  0.00000000000E+00 -0.85935194695E+03  0.24224345891E+04  0.22648848910E+04 0.  0.
        3    1    3    3  502    0  0.17191233798E+03 -0.62800054798E+03  0.56132224195E+03  0.85966342816E+03  0.10100000352E+00 0.  1.
       -3    1    3    3    0  502 -0.17191233798E+03  0.62800054798E+03 -0.14206741889E+04  0.15627711609E+04  0.10100000352E+00 0. -1.
</event>
<event>
 5   0  0.1562618E-06  0.3398440E+04  0.7818609E-02  0.8138289E-01
       -1   -1    0    0    0  501  0.00000000000E+00  0.00000000000E+00  0.15881461138E+04  0.15881461138E+04  0.50400001928E-02 0. -1.
        1   -1    0    0  501    0  0.00000000000E+00  0.00000000000E+00 -0.18180619799E+04  0.18180619799E+04  0.50400001928E-02 0.  1.
    10030    2    1    2    0    0  0.00000000000E+00  0.00000000000E+00 -0.22991586614E+03  0.34062080938E+04  0.33984396820E+04 0.  0.
        2    1    3    3  502    0  0.97474383778E+03 -0.33959776004E+03  0.12379037214E+04  0.16117871483E+04  0.25500000920E-02 0. -1.
       -2    1    3    3    0  502 -0.97474383778E+03  0.33959776004E+03 -0.14678195875E+04  0.17944209455E+04  0.25500000920E-02 0.  1.
</event>
<event>
 5   0  0.4173467E-06  0.2150431E+04  0.7818609E-02  0.8539348E-01
       -2   -1    0    0    0  501  0.00000000000E+00  0.00000000000E+00  0.75649032929E+03  0.75649032929E+03  0.25500000920E-02 0. -1.
        2   -1    0    0  501    0  0.00000000000E+00  0.00000000000E+00 -0.15282265099E+04  0.15282265099E+04  0.25500000920E-02 0.  1.
    10030    2    1    2    0    0  0.00000000000E+00  0.00000000000E+00 -0.77173618061E+03  0.22847168392E+04  0.21504311900E+04 0.  0.
        4    1    3    3  502    0  0.16151053612E+03  0.92861622013E+03 -0.93554728351E+03  0.13280301465E+04  0.12699999809E+01 0.  1.
       -4    1    3    3    0  502 -0.16151053612E+03 -0.92861622013E+03  0.16381110290E+03  0.95668669265E+03  0.12699999809E+01 0. -1.
</event>
<event>
 5   0  0.1654257E-06  0.3414950E+04  0.7818609E-02  0.8134247E-01
       -1   -1    0    0    0  501  0.00000000000E+00  0.00000000000E+00  0.11760120124E+04  0.11760120124E+04  0.50400001928E-02 0.  1.
        1   -1    0    0  501    0  0.00000000000E+00  0.00000000000E+00 -0.24791169009E+04  0.24791169009E+04  0.50400001928E-02 0. -1.
    10030    2    1    2    0    0  0.00000000000E+00  0.00000000000E+00 -0.13031048885E+04  0.36551289133E+04  0.34149502226E+04 0.  0.
        3    1    3    3  502    0 -0.66854596807E+03 -0.75302863745E+03  0.82436659555E+03  0.13013785515E+04  0.10100000352E+00 0.  1.
       -3    1    3    3    0  502  0.66854596807E+03  0.75302863745E+03 -0.21274714840E+04  0.23537503618E+04  0.10100000352E+00 0. -1.
</event>
<event>
 5   0  0.4344980E-06  0.3257200E+04  0.7818609E-02  0.8173872E-01
       -2   -1    0    0    0  501  0.00000000000E+00  0.00000000000E+00  0.12480109119E+04  0.12480109119E+04  0.25500000920E-02 0. -1.
        2   -1    0    0  501    0  0.00000000000E+00  0.00000000000E+00 -0.21252520683E+04  0.21252520683E+04  0.25500000920E-02 0.  1.
    10030    2    1    2    0    0  0.00000000000E+00  0.00000000000E+00 -0.87724115637E+03  0.33732629802E+04  0.32571998844E+04 0.  0.
        3    1    3    3  502    0  0.84369508186E+02 -0.10779865272E+04 -0.16998685020E+04  0.20146280304E+04  0.10100000352E+00 0.  1.
       -3    1    3    3    0  502 -0.84369508186E+02  0.10779865272E+04  0.82262734561E+03  0.13586349498E+04  0.10100000352E+00 0. -1.
</event>
<event>
 5   0  0.1654257E-06  0.3292042E+04  0.7818609E-02  0.8164923E-01
        1   -1    0    0  501    0  0.00000000000E+00  0.00000000000E+00  0.22568458288E+04  0.22568458288E+04  0.50400001928E-02 0.  1.
       -1   -1    0    0    0  501  0.00000000000E+00  0.00000000000E+00 -0.12005183891E+04  0.12005183891E+04  0.50400001928E-02 0. -1.
    10030    2    1    2    0    0  0.00000000000E+00  0.00000000000E+00  0.10563274397E+04  0.34573642178E+04  0.32920418702E+04 0.  0.
        3    1    3    3  502    0  0.18536261159E+02 -0.14745859252E+03 -0.11934576269E+04  0.12026756616E+04  0.10100000352E+00 0. -1.
       -3    1    3    3    0  502 -0.18536261159E+02  0.14745859252E+03  0.22497850666E+04  0.22546885563E+04  0.10100000352E+00 0.  1.
</event>
<event>
 5   0  0.4173467E-06  0.3435453E+04  0.7818609E-02  0.8129259E-01
        2   -1    0    0  501    0  0.00000000000E+00  0.00000000000E+00  0.19032863744E+04  0.19032863744E+04  0.25500000920E-02 0.  1.
       -2   -1    0    0    0  501  0.00000000000E+00  0.00000000000E+00 -0.15502574138E+04  0.15502574138E+04  0.25500000920E-02 0. -1.
    10030    2    1    2    0    0  0.00000000000E+00  0.00000000000E+00  0.35302896065E+03  0.34535437882E+04  0.34354526994E+04 0.  0.
        4    1    3    3  502    0 -0.58391753456E+03 -0.64392797165E+03 -0.13128335862E+04  0.15745274078E+04  0.12699999809E+01 0.  1.
       -4    1    3    3    0  502  0.58391753456E+03  0.64392797165E+03  0.16658625469E+04  0.18790163804E+04  0.12699999809E+01 0. -1.
</event>
<event>
 5   0  0.1654257E-06  0.3445570E+04  0.7818609E-02  0.8126812E-01
        1   -1    0    0  501    0  0.00000000000E+00  0.00000000000E+00  0.14101155104E+04  0.14101155105E+04  0.50400001928E-02 0.  1.
       -1   -1    0    0    0  501  0.00000000000E+00  0.00000000000E+00 -0.21047836495E+04  0.21047836495E+04  0.50400001928E-02 0. -1.
    10030    2    1    2    0    0  0.00000000000E+00  0.00000000000E+00 -0.69466813908E+03  0.35148991600E+04  0.34455699502E+04 0.  0.
        3    1    3    3  502    0  0.15529995990E+03 -0.28496285556E+03  0.13786514602E+04  0.14163339174E+04  0.10100000352E+00 0.  1.
       -3    1    3    3    0  502 -0.15529995990E+03  0.28496285556E+03 -0.20733195993E+04  0.20985652426E+04  0.10100000352E+00 0. -1.
</event>
<event>
 5   0  0.4400349E-06  0.3368399E+04  0.7818609E-02  0.8145706E-01
       -2   -1    0    0    0  501  0.00000000000E+00  0.00000000000E+00  0.15306601194E+04  0.15306601194E+04  0.25500000920E-02 0.  1.
        2   -1    0    0  501    0  0.00000000000E+00  0.00000000000E+00 -0.18531408212E+04  0.18531408212E+04  0.25500000920E-02 0. -1.
    10030    2    1    2    0    0  0.00000000000E+00  0.00000000000E+00 -0.32248070179E+03  0.33838009406E+04  0.33683994720E+04 0.  0.
        5    1    3    3  502    0 -0.10560537366E+04 -0.61091753037E+03  0.10051182933E+04  0.15807449500E+04  0.46999998093E+01 0.  1.
       -5    1    3    3    0  502  0.10560537366E+04  0.61091753037E+03 -0.13275989951E+04  0.18030559906E+04  0.46999998093E+01 0. -1.
</event>
<event>
 5   0  0.4344980E-06  0.2733460E+04  0.7818609E-02  0.8324229E-01
        2   -1    0    0  501    0  0.00000000000E+00  0.00000000000E+00  0.22673954804E+04  0.22673954804E+04  0.25500000920E-02 0. -1.
       -2   -1    0    0    0  501  0.00000000000E+00  0.00000000000E+00 -0.82383107170E+03  0.82383107170E+03  0.25500000920E-02 0.  1.
    10030    2    1    2    0    0  0.00000000000E+00  0.00000000000E+00  0.14435644087E+04  0.30912265521E+04  0.27334599675E+04 0.  0.
        3    1    3    3  502    0 -0.80816640135E+03 -0.94798936145E+03  0.13576308830E+04  0.18425467121E+04  0.10100000352E+00 0. -1.
       -3    1    3    3    0  502  0.80816640135E+03  0.94798936145E+03  0.85933525702E+02  0.12486798400E+04  0.10100000352E+00 0.  1.
</event>
<event>
 5   0  0.4344980E-06  0.2508001E+04  0.7818609E-02  0.8400141E-01
       -2   -1    0    0    0  501  0.00000000000E+00  0.00000000000E+00  0.93579563126E+03  0.93579563126E+03  0.25500000920E-02 0.  1.
        2   -1    0    0  501    0  0.00000000000E+00  0.00000000000E+00 -0.16804070347E+04  0.16804070347E+04  0.25500000920E-02 0. -1.
    10030    2    1    2    0    0  0.00000000000E+00  0.00000000000E+00 -0.74461140342E+03  0.26162026659E+04  0.25080012455E+04 0.  0.
        3    1    3    3  502    0 -0.93293685834E+03  0.66550514797E+03 -0.90343762535E+03  0.14592696244E+04  0.10100000352E+00 0. -1.
       -3    1    3    3    0  502  0.93293685834E+03 -0.66550514797E+03  0.15882622194E+03  0.11569330415E+04  0.10100000352E+00 0.  1.
</event>
<event>
 5   0  0.1550164E-06  0.3426606E+04  0.7818609E-02  0.8131407E-01
        1   -1    0    0  501    0  0.00000000000E+00  0.00000000000E+00  0.16595570014E+04  0.16595570015E+04  0.50400001928E-02 0. -1.
       -1   -1    0    0    0  501  0.00000000000E+00  0.00000000000E+00 -0.17687892351E+04  0.17687892351E+04  0.50400001928E-02 0.  1.
    10030    2    1    2    0    0  0.00000000000E+00  0.00000000000E+00 -0.10923223363E+03  0.34283462365E+04  0.34266056436E+04 0.  0.
        4    1    3    3  502    0 -0.66634207854E+03 -0.19372310027E+03  0.15126611799E+04  0.16642373218E+04  0.12699999809E+01 0. -1.
       -4    1    3    3    0  502  0.66634207854E+03  0.19372310027E+03 -0.16218934135E+04  0.17641089147E+04  0.12699999809E+01 0.  1.
</event>
<event>
 5   0  0.1550164E-06  0.2205422E+04  0.7818609E-02  0.8516175E-01
       -1   -1    0    0    0  501  0.00000000000E+00  0.00000000000E+00  0.47047120045E+03  0.47047120048E+03  0.50400001928E-02 0. -1.
        1   -1    0    0  501    0  0.00000000000E+00  0.00000000000E+00 -0.25845814536E+04  0.25845814536E+04  0.50400001928E-02 0.  1.
    10030    2    1    2    0    0  0.00000000000E+00  0.00000000000E+00 -0.21141102531E+04  0.30550526541E+04  0.22054216279E+04 0.  0.
        4    1    3    3  502    0 -0.30814519722E+03  0.32560445158E+03 -0.24526508244E+04  0.24932848615E+04  0.12699999809E+01 0.  1.
       -4    1    3    3    0  502  0.30814519722E+03 -0.32560445158E+03  0.33854057125E+03  0.56176779254E+03  0.12699999809E+01 0. -1.
</event>
<event>
 5   0  0.1571391E-06  0.2232343E+04  0.7818609E-02  0.8505086E-01
        1   -1    0    0  501    0  0.00000000000E+00  0.00000000000E+00  0.10724503099E+04  0.10724503099E+04  0.50400001928E-02 0.  1.
       -1   -1    0    0    0  501  0.00000000000E+00  0.00000000000E+00 -0.11616748469E+04  0.11616748469E+04  0.50400001928E-02 0. -1.
    10030    2    1    2    0    0  0.00000000000E+00  0.00000000000E+00 -0.89224536969E+02  0.22341251568E+04  0.22323427600E+04 0.  0.
        1    1    3    3  502    0 -0.49299490984E+03  0.87777327037E+03 -0.52698118578E+03  0.11363270064E+04  0.50400001928E-02 0. -1.
       -1    1    3    3    0  502  0.49299490984E+03 -0.87777327037E+03  0.43775664881E+03  0.10977981503E+04  0.50400001928E-02 0.  1.
</event>
<event>
 5   0  0.2101998E-06  0.2748689E+04  0.7818609E-02  0.8319378E-01
        1   -1    0    0  501    0  0.00000000000E+00  0.00000000000E+00  0.17241439008E+04  0.17241439008E+04  0.50400001928E-02 0.  1.
       -1   -1    0    0    0  501  0.00000000000E+00  0.00000000000E+00 -0.10955132337E+04  0.10955132337E+04  0.50400001928E-02 0. -1.
    10030    2    1    2    0    0  0.00000000000E+00  0.00000000000E+00  0.62863066717E+03  0.28196571345E+04  0.27486887493E+04 0.  0.
        5    1    3    3  502    0 -0.30551739400E+03 -0.78888641208E+03 -0.79675495673E+03  0.11621201316E+04  0.46999998093E+01 0. -1.
       -5    1    3    3    0  502  0.30551739400E+03  0.78888641208E+03  0.14253856239E+04  0.16575370029E+04  0.46999998093E+01 0.  1.
</event>
<event>
 5   0  0.1654257E-06  0.3596310E+04  0.7818609E-02  0.8091337E-01
       -1   -1    0    0    0  501  0.00000000000E+00  0.00000000000E+00  0.20466586134E+04  0.20466586134E+04  0.50400001928E-02 0.  1.
        1   -1    0    0  501    0  0.00000000000E+00  0.00000000000E+00 -0.15798248745E+04  0.15798248745E+04  0.50400001928E-02 0. -1.
    10030    2    1    2    0    0  0.00000000000E+00  0.00000000000E+00  0.46683373889E+03  0.36264834878E+04  0.35963104354E+04 0.  0.
        3    1    3    3  502    0  0.95350661730E+03 -0.11708061865E+04 -0.75119744701E+03  0.16864932879E+04  0.10100000352E+00 0. -1.
       -3    1    3    3    0  502 -0.95350661730E+03  0.11708061865E+04  0.12180311859E+04  0.19399901999E+04  0.10100000352E+00 0.  1.
</event>
<event>
 5   0  0.1562618E-06  0.3198210E+04  0.7818609E-02  0.8189290E-01
        1   -1    0    0  501    0  0.00000000000E+00  0.00000000000E+00  0.12379972645E+04  0.12379972646E+04  0.50400001928E-02 0. -1.
       -1   -1    0    0    0  501  0.00000000000E+00  0.00000000000E+00 -0.20655425743E+04  0.20655425743E+04  0.50400001928E-02 0.  1.
    10030    2    1    2    0    0  0.00000000000E+00  0.00000000000E+00 -0.82754530976E+03  0.33035398389E+04  0.31982095346E+04 0.  0.
        2    1    3    3  502    0  0.85559738094E+03 -0.10240930971E+04 -0.13238823138E+04  0.18797547528E+04  0.25500000920E-02 0.  1.
       -2    1    3    3    0  502 -0.85559738094E+03  0.10240930971E+04  0.49633700399E+03  0.14237850861E+04  0.25500000920E-02 0. -1.
</event>
<event>
 5   0  0.4400349E-06  0.3338281E+04  0.7818609E-02  0.8153223E-01
       -2   -1    0    0    0  501  0.00000000000E+00  0.00000000000E+00  0.14485295605E+04  0.14485295605E+04  0.25500000920E-02 0. -1.
        2   -1    0    0  501    0  0.00000000000E+00  0.00000000000E+00 -0.19233503286E+04  0.19233503286E+04  0.25500000920E-02 0.  1.
    10030    2    1    2    0    0  0.00000000000E+00  0.00000000000E+00 -0.47482076811E+03  0.33718798891E+04  0.33382808786E+04 0.  0.
        5    1    3    3  502    0  0.15580547225E+03 -0.52482387627E+03  0.13552578242E+04  0.14616638829E+04  0.46999998093E+01 0. -1.
       -5    1    3    3    0  502 -0.15580547225E+03  0.52482387627E+03 -0.18300785924E+04  0.19102160062E+04  0.46999998093E+01 0.  1.
</event>
<event>
 5   0  0.2722449E-06  0.3432963E+04  0.7818609E-02  0.8129863E-01
        2   -1    0    0  501    0  0.00000000000E+00  0.00000000000E+00  0.19780982464E+04  0.19780982464E+04  0.25500000920E-02 0.  1.
       -2   -1    0    0    0  501  0.00000000000E+00  0.00000000000E+00 -0.14894655297E+04  0.14894655297E+04  0.25500000920E-02 0. -1.
    10030    2    1    2    0    0  0.00000000000E+00  0.00000000000E+00  0.48863271668E+03  0.34675637761E+04  0.34329632404E+04 0.  0.
        2    1    3    3  502    0  0.13803710501E+04  0.96585863296E+03  0.57626526198E+03  0.17805585604E+04  0.25500000920E-02 0.  1.
       -2    1    3    3    0  502 -0.13803710501E+04 -0.96585863296E+03 -0.87632545298E+02  0.16870052157E+04  0.25500000920E-02 0. -1.
</event>
<event>
 5   0  0.1654257E-06  0.3407935E+04  0.7818609E-02  0.8135962E-01
       -1   -1    0    0    0  501  0.00000000000E+00  0.00000000000E+00  0.14731868520E+04  0.14731868520E+04  0.50400001928E-02 0. -1.
        1   -1    0    0  501    0  0.00000000000E+00  0.00000000000E+00 -0.19709008521E+04  0.19709008522E+04  0.50400001928E-02 0.  1.
    10030    2    1    2    0    0  0.00000000000E+00  0.00000000000E+00 -0.49771400015E+03  0.34440877042E+04  0.34079349888E+04 0.  0.
        3    1    3    3  502    0 -0.14513011302E+04 -0.45675735643E+03  0.52648644802E+03  0.16099969699E+04  0.10100000352E+00 0. -1.
       -3    1    3    3    0  502  0.14513011302E+04  0.45675735643E+03 -0.10242004482E+04  0.18340907342E+04  0.10100000352E+00 0.  1.
</event>
<event>
 5   0  0.1571391E-06  0.3067394E+04  0.7818609E-02  0.8224744E-01
       -1   -1    0    0    0  501  0.00000000000E+00  0.00000000000E+00  0.16052486027E+04  0.16052486027E+04  0.50400001928E-02 0. -1.
        1   -1    0    0  501    0  0.00000000000E+00  0.00000000000E+00 -0.14653348354E+04  0.14653348354E+04  0.50400001928E-02 0.  1.
    10030    2    1    2    0    0  0.00000000000E+00  0.00000000000E+00  0.13991376732E+03  0.30705834381E+04  0.30673941364E+04 0.  0.
        1    1    3    3  502    0  0.22605010384E+03 -0.87654956170E+03 -0.11693889049E+04  0.14788198655E+04  0.50400001928E-02 0.  1.
       -1    1    3    3    0  502 -0.22605010384E+03  0.87654956170E+03  0.13093026722E+04  0.15917635726E+04  0.50400001928E-02 0. -1.
</event>
<event>
 5   0  0.2722449E-06  0.3287202E+04  0.7818609E-02  0.8166159E-01
       -2   -1    0    0    0  501  0.00000000000E+00  0.00000000000E+00  0.15867433743E+04  0.15867433743E+04  0.25500000920E-02 0. -1.
        2   -1    0    0  501    0  0.00000000000E+00  0.00000000000E+00 -0.17024963011E+04  0.17024963011E+04  0.25500000920E-02 0.  1.
    10030    2    1    2    0    0  0.00000000000E+00  0.00000000000E+00 -0.11575292675E+03  0.32892396754E+04  0.32872022910E+04 0.  0.
        2    1    3    3  502    0 -0.65829016355E+03 -0.12639680105E+04  0.76144948467E+03  0.16157866161E+04  0.25500000920E-02 0. -1.
       -2    1    3    3    0  502  0.65829016355E+03  0.12639680105E+04 -0.87720241142E+03  0.16734530593E+04  0.25500000920E-02 0.  1.
</event>
<event>
 5   0  0.1562618E-06  0.3333173E+04  0.7818609E-02  0.8154505E-01
        1   -1    0    0  501    0  0.00000000000E+00  0.00000000000E+00  0.24421251756E+04  0.24421251756E+04  0.50400001928E-02 0. -1.
       -1   -1    0    0    0  501  0.00000000000E+00  0.00000000000E+00 -0.11373333360E+04  0.11373333361E+04  0.50400001928E-02 0.  1.
    10030    2    1    2    0    0  0.00000000000E+00  0.00000000000E+00  0.13047918395E+04  0.35794585116E+04  0.33331728866E+04 0.  0.
        2    1    3    3  502    0  0.17864064689E+01  0.16012685085E+04  0.11485354766E+04  0.19705831037E+04  0.25500000920E-02 0. -1.
       -2    1    3    3    0  502 -0.17864064689E+01 -0.16012685085E+04  0.15625636292E+03  0.16088754080E+04  0.25500000920E-02 0.  1.
</event>
<event>
 5   0  0.1654257E-06  0.3450694E+04  0.7818609E-02  0.8125575E-01
        1   -1    0    0  501    0  0.00000000000E+00  0.00000000000E+00  0.16399347317E+04  0.16399347317E+04  0.50400001928E-02 0. -1.
       -1   -1    0    0    0  501  0.00000000000E+00  0.00000000000E+00 -0.18152079516E+04  0.18152079516E+04  0.50400001928E-02 0.  1.
    10030    2    1    2    0    0  0.00000000000E+00  0.00000000000E+00 -0.17527321991E+03  0.34551426834E+04  0.34506941709E+04 0.  0.
        3    1    3    3  502    0  0.23815662481E+02 -0.12110123437E+04 -0.13179209253E+04  0.17899814686E+04  0.10100000352E+00 0.  1.
       -3    1    3    3    0  502 -0.23815662481E+02  0.12110123437E+04  0.11426477054E+04  0.16651612148E+04  0.10100000352E+00 0. -1.
</event>
<event>
 5   0  0.4173467E-06  0.2445100E+04  0.7818609E-02  0.8422809E-01
        2   -1    0    0  501    0  0.00000000000E+00  0.00000000000E+00  0.12656294838E+04  0.12656294838E+04  0.25500000920E-02 0. -1.
       -2   -1    0    0    0  501  0.00000000000E+00  0.00000000000E+00 -0.11809370044E+04  0.11809370044E+04  0.25500000920E-02 0.  1.
    10030    2    1    2    0    0  0.00000000000E+00  0.00000000000E+00  0.84692479417E+02  0.24465664882E+04  0.24451001544E+04 0.  0.
        4    1    3    3  502    0  0.87852383519E+03 -0.94953119342E+02 -0.80303134185E+03  0.11940189164E+04  0.12699999809E+01 0.  1.
       -4    1    3    3    0  502 -0.87852383519E+03  0.94953119342E+02  0.88772382127E+03  0.12525475718E+04  0.12699999809E+01 0. -1.
</event>
<event>
 5   0  0.2722449E-06  0.2794581E+04  0.7818609E-02  0.8304953E-01
       -2   -1    0    0    0  501  0.00000000000E+00  0.00000000000E+00  0.10922253786E+04  0.10922253786E+04  0.25500000920E-02 0.  1.
        2   -1    0    0  501    0  0.00000000000E+00  0.00000000000E+00 -0.17875616643E+04  0.17875616643E+04  0.25500000920E-02 0. -1.
    10030    2    1    2    0    0  0.00000000000E+00  0.00000000000E+00 -0.69533628575E+03  0.28797870429E+04  0.27945806236E+04 0.  0.
        2    1    3    3  502    0  0.13507054846E+04  0.11777154350E+02  0.20832801101E+02  0.13509174708E+04  0.25500000920E-02 0.  1.
       -2    1    3    3    0  502 -0.13507054846E+04 -0.11777154350E+02 -0.71616908685E+03  0.15288695720E+04  0.25500000920E-02 0. -1.
</event>
<event>
 5   0  0.4173467E-06  0.3446382E+04  0.7818609E-02  0.8126616E-01
        2   -1    0    0  501    0  0.00000000000E+00  0.00000000000E+00  0.16384963569E+04  0.16384963569E+04  0.25500000920E-02 0.  1.
       -2   -1    0    0    0  501  0.00000000000E+00  0.00000000000E+00 -0.18122636296E+04  0.18122636296E+04  0.25500000920E-02 0. -1.
    10030    2    1    2    0    0  0.00000000000E+00  0.00000000000E+00 -0.17376727266E+03  0.34507599865E+04  0.34463820769E+04 0.  0.
        4    1    3    3  502    0 -0.11336634894E+04 -0.81488707980E+03 -0.10981923472E+04  0.17763056900E+04  0.12699999809E+01 0. -1.
       -4    1    3    3    0  502  0.11336634894E+04  0.81488707980E+03  0.92442507451E+03  0.16744542966E+04  0.12699999809E+01 0.  1.
</event>
<event>
 5   0  0.4344980E-06  0.2078623E+04  0.7818609E-02  0.8570719E-01
       -2   -1    0    0    0  501  0.00000000000E+00  0.00000000000E+00  0.54439189254E+03  0.54439189255E+03  0.25500000920E-02 0.  1.
        2   -1    0    0  501    0  0.00000000000E+00  0.00000000000E+00 -0.19841740169E+04  0.19841740169E+04  0.25500000920E-02 0. -1.
    10030    2    1    2    0    0  0.00000000000E+00  0.00000000000E+00 -0.14397821244E+04  0.25285659095E+04  0.20786228597E+04 0.  0.
        3    1    3    3  502    0 -0.95015866489E+03  0.36718254023E+03 -0.97080013749E+03  0.14071522389E+04  0.10100000352E+00 0. -1.
       -3    1    3    3    0  502  0.95015866489E+03 -0.36718254023E+03 -0.46898198690E+03  0.11214136706E+04  0.10100000352E+00 0.  1.
</event>
<event>
 5   0  0.2722449E-06  0.2904042E+04  0.7818609E-02  0.8271676E-01
        2   -1    0    0  501    0  0.00000000000E+00  0.00000000000E+00  0.27377154185E+04  0.27377154185E+04  0.25500000920E-02 0.  1.
       -2   -1    0    0    0  501  0.00000000000E+00  0.00000000000E+00 -0.77011862012E+03  0.77011862012E+03  0.25500000920E-02 0. -1.
    10030    2    1    2    0    0  0.00000000000E+00  0.00000000000E+00  0.19675967983E+04  0.35078340386E+04  0.29040424379E+04 0.  0.
        2    1    3    3  502    0 -0.70256716326E+03 -0.90638716507E+02  0.25148264646E+04  0.26126936566E+04  0.25500000920E-02 0.  1.
       -2    1    3    3    0  502  0.70256716326E+03  0.90638716507E+02 -0.54722966631E+03  0.89514038201E+03  0.25500000920E-02 0. -1.
</event>
<event>
 5   0  0.4189587E-06  0.3459803E+04  0.7818609E-02  0.8123383E-01
        2   -1    0    0  501    0  0.00000000000E+00  0.00000000000E+00  0.22383978542E+04  0.22383978542E+04  0.25500000920E-02 0.  1.
       -2   -1    0    0    0  501  0.00000000000E+00  0.00000000000E+00 -0.13369198070E+04  0.13369198070E+04  0.25500000920E-02 0. -1.
    10030    2    1    2    0    0  0.00000000000E+00  0.00000000000E+00  0.90147804718E+03  0.35753176612E+04  0.34598025535E+04 0.  0.
        1    1    3    3  502    0  0.92520383647E+03 -0.57355051419E+03 -0.93861849835E+03  0.14373472151E+04  0.50400001928E-02 0. -1.
       -1    1    3    3    0  502 -0.92520383647E+03  0.57355051419E+03  0.18400965455E+04  0.21379704461E+04  0.50400001928E-02 0.  1.
</event>
<event>
 5   0  0.1562618E-06  0.3374058E+04  0.7818609E-02  0.8144303E-01
       -1   -1    0    0    0  501  0.00000000000E+00  0.00000000000E+00  0.22293312037E+04  0.22293312037E+04  0.50400001928E-02 0. -1.
        1   -1    0    0  501    0  0.00000000000E+00  0.00000000000E+00 -0.12766458229E+04  0.12766458230E+04  0.50400001928E-02 0.  1.
    10030    2    1    2    0    0  0.00000000000E+00  0.00000000000E+00  0.95268538071E+03  0.35059770266E+04  0.33740577168E+04 0.  0.
        2    1    3    3  502    0  0.92010799524E+03 -0.12751819454E+04 -0.15859528162E+03  0.15804556875E+04  0.25500000920E-02 0.  1.
       -2    1    3    3    0  502 -0.92010799524E+03  0.12751819454E+04  0.11112806623E+04  0.19255213391E+04  0.25500000920E-02 0. -1.
</event>
<event>
 5   0  0.2722449E-06  0.3383478E+04  0.7818609E-02  0.8141973E-01
        2   -1    0    0  501    0  0.00000000000E+00  0.00000000000E+00  0.26107074734E+04  0.26107074734E+04  0.25500000920E-02 0.  1.
       -2   -1    0    0    0  501  0.00000000000E+00  0.00000000000E+00 -0.10962472246E+04  0.10962472246E+04  0.25500000920E-02 0. -1.
    10030    2    1    2    0    0  0.00000000000E+00  0.00000000000E+00  0.15144602488E+04  0.37069546980E+04  0.33834779869E+04 0.  0.
        2    1    3    3  502    0  0.13993118404E+04  0.61443439643E+03 -0.37651779113E+02  0.15287317982E+04  0.25500000920E-02 0. -1.
       -2    1    3    3    0  502 -0.13993118404E+04 -0.61443439643E+03  0.15521120279E+04  0.21782228999E+04  0.25500000920E-02 0.  1.
</event>
<event>
 5   0  0.4344980E-06  0.3414417E+04  0.7818609E-02  0.8134377E-01
        2   -1    0    0  501    0  0.00000000000E+00  0.00000000000E+00  0.12696165343E+04  0.12696165343E+04  0.25500000920E-02 0. -1.
       -2   -1    0    0    0  501  0.00000000000E+00  0.00000000000E+00 -0.22956232004E+04  0.22956232004E+04  0.25500000920E-02 0.  1.
    10030    2    1    2    0    0  0.00000000000E+00  0.00000000000E+00 -0.10260066661E+04  0.35652397347E+04  0.34144171812E+04 0.  0.
        3    1    3    3  502    0  0.59132016367E+03 -0.15543515434E+04 -0.91591436305E+03  0.18985698268E+04  0.10100000352E+00 0.  1.
       -3    1    3    3    0  502 -0.59132016367E+03  0.15543515434E+04 -0.11009230301E+03  0.16666699079E+04  0.10100000352E+00 0. -1.
</event>
<event>
 5   0  0.4400349E-06  0.2059387E+04  0.7818609E-02  0.8579348E-01
        2   -1    0    0  501    0  0.00000000000E+00  0.00000000000E+00  0.21282299803E+04  0.21282299803E+04  0.25500000920E-02 0.  1.
       -2   -1    0    0    0  501  0.00000000000E+00  0.00000000000E+00 -0.49819295029E+03  0.49819295030E+03  0.25500000920E-02 0. -1.
    10030    2    1    2    0    0  0.00000000000E+00  0.00000000000E+00  0.16300370300E+04  0.26264229306E+04  0.20593874553E+04 0.  0.
        5    1    3    3  502    0  0.11952964789E+03  0.10059218485E+04  0.57957721843E+03  0.11670895185E+04  0.46999998093E+01 0. -1.
       -5    1    3    3    0  502 -0.11952964789E+03 -0.10059218485E+04  0.10504598116E+04  0.14593334121E+04  0.46999998093E+01 0.  1.
</event>
<event>
 5   0  0.4189587E-06  0.3479935E+04  0.7818609E-02  0.8118562E-01
        2   -1    0    0  501    0  0.00000000000E+00  0.00000000000E+00  0.23575974301E+04  0.23575974301E+04  0.25500000920E-02 0.  1.
       -2   -1    0    0    0  501  0.00000000000E+00  0.00000000000E+00 -0.12841404661E+04  0.12841404661E+04  0.25500000920E-02 0. -1.
    10030    2    1    2    0    0  0.00000000000E+00  0.00000000000E+00  0.10734569640E+04  0.36417378962E+04  0.34799346332E+04 0.  0.
        1    1    3    3  502    0 -0.31437909012E+03  0.16620798197E+03 -0.12457056150E+04  0.12954697160E+04  0.50400001928E-02 0. -1.
       -1    1    3    3    0  502  0.31437909012E+03 -0.16620798197E+03  0.23191625791E+04  0.23462681803E+04  0.50400001928E-02 0.  1.
</event>
<event>
 5   0  0.1550164E-06  0.3431015E+04  0.7818609E-02  0.8130336E-01
        1   -1    0    0  501    0  0.00000000000E+00  0.00000000000E+00  0.22983215113E+04  0.22983215113E+04  0.50400001928E-02 0.  1.
       -1   -1    0    0    0  501  0.00000000000E+00  0.00000000000E+00 -0.12804849617E+04  0.12804849617E+04  0.50400001928E-02 0. -1.
    10030    2    1    2    0    0  0.00000000000E+00  0.00000000000E+00  0.10178365497E+04  0.35788064730E+04  0.34310150873E+04 0.  0.
        4    1    3    3  502    0 -0.60938051765E+03  0.59424897695E+03 -0.10446993306E+04  0.13475439756E+04  0.12699999809E+01 0. -1.
       -4    1    3    3    0  502  0.60938051765E+03 -0.59424897695E+03  0.20625358803E+04  0.22312624974E+04  0.12699999809E+01 0.  1.
</event>
<event>
 5   0  0.2722449E-06  0.3344480E+04  0.7818609E-02  0.8151669E-01
       -2   -1    0    0    0  501  0.00000000000E+00  0.00000000000E+00  0.13488666380E+04  0.13488666380E+04  0.25500000920E-02 0.  1.
        2   -1    0    0  501    0  0.00000000000E+00  0.00000000000E+00 -0.20731383874E+04  0.20731383874E+04  0.25500000920E-02 0. -1.
    10030    2    1    2    0    0  0.00000000000E+00  0.00000000000E+00 -0.72427174938E+03  0.34220050254E+04  0.33444803523E+04 0.  0.
        2    1    3    3  502    0  0.30938136315E+03  0.25240945536E+03 -0.20236489080E+04  0.20626638757E+04  0.25500000920E-02 0. -1.
       -2    1    3    3    0  502 -0.30938136315E+03 -0.25240945536E+03  0.12993771586E+04  0.13593411498E+04  0.25500000920E-02 0.  1.
</event>
<event>
 5   0  0.1654257E-06  0.1943322E+04  0.7818609E-02  0.8633588E-01
       -1   -1    0    0    0  501  0.00000000000E+00  0.00000000000E+00  0.70476032759E+03  0.70476032760E+03  0.50400001928E-02 0. -1.
        1   -1    0    0  501    0  0.00000000000E+00  0.00000000000E+00 -0.13396393788E+04  0.13396393789E+04  0.50400001928E-02 0.  1.
    10030    2    1    2    0    0  0.00000000000E+00  0.00000000000E+00 -0.63487905126E+03  0.20443997065E+04  0.19433215766E+04 0.  0.
        3    1    3    3  502    0  0.19056395810E+03 -0.69649671652E+03 -0.10014117778E+04  0.12346043322E+04  0.10100000352E+00 0.  1.
       -3    1    3    3    0  502 -0.19056395810E+03  0.69649671652E+03  0.36653272656E+03  0.80979537421E+03  0.10100000352E+00 0. -1.
</event>
<event>
 5   0  0.4344980E-06  0.2191182E+04  0.7818609E-02  0.8522107E-01
        2   -1    0    0  501    0  0.00000000000E+00  0.00000000000E+00  0.20896483036E+04  0.20896483036E+04  0.25500000920E-02 0.  1.
       -2   -1    0    0    0  501  0.00000000000E+00  0.00000000000E+00 -0.57441212258E+03  0.57441212259E+03  0.25500000920E-02 0. -1.
    10030    2    1    2    0    0  0.00000000000E+00  0.00000000000E+00  0.15152361810E+04  0.26640604262E+04  0.21911817063E+04 0.  0.
        3    1    3    3  502    0  0.22340661040E+03 -0.57508125907E+03 -0.34313670489E+03  0.70595451450E+03  0.10100000352E+00 0. -1.
       -3    1    3    3    0  502 -0.22340661040E+03  0.57508125907E+03  0.18583728859E+04  0.19581059116E+04  0.10100000352E+00 0.  1.
</event>
<event>
 5   0  0.1562618E-06  0.1899679E+04  0.7818609E-02  0.8655016E-01
        1   -1    0    0  501    0  0.00000000000E+00  0.00000000000E+00  0.76355238892E+03  0.76355238894E+03  0.50400001928E-02 0.  1.
       -1   -1    0    0    0  501  0.00000000000E+00  0.00000000000E+00 -0.11815761872E+04  0.11815761872E+04  0.50400001928E-02 0. -1.
    10030    2    1    2    0    0  0.00000000000E+00  0.00000000000E+00 -0.41802379828E+03  0.19451285761E+04  0.18996792576E+04 0.  0.
        2    1    3    3  502    0 -0.17067699280E+03 -0.45901368060E+03 -0.10423451856E+04  0.11516543235E+04  0.25500000920E-02 0. -1.
       -2    1    3    3    0  502  0.17067699280E+03  0.45901368060E+03  0.62432138737E+03  0.79347425263E+03  0.25500000920E-02 0.  1.
</event>
<event>
 5   0  0.4173467E-06  0.3479539E+04  0.7818609E-02  0.8118656E-01
       -2   -1    0    0    0  501  0.00000000000E+00  0.00000000000E+00  0.23850808278E+04  0.23850808278E+04  0.25500000920E-02 0. -1.
        2   -1    0    0  501    0  0.00000000000E+00  0.00000000000E+00 -0.12690549980E+04  0.12690549980E+04  0.25500000920E-02 0.  1.
    10030    2    1    2    0    0  0.00000000000E+00  0.00000000000E+00  0.11160258298E+04  0.36541358258E+04  0.34795394782E+04 0.  0.
        4    1    3    3  502    0 -0.40323822945E+03 -0.10948583521E+04  0.19133046566E+04  0.22409935748E+04  0.12699999809E+01 0. -1.
       -4    1    3    3    0  502  0.40323822945E+03  0.10948583521E+04 -0.79727882678E+03  0.14131422509E+04  0.12699999809E+01 0.  1.
</event>
<event>
 5   0  0.1571391E-06  0.3466766E+04  0.7818609E-02  0.8121711E-01
        1   -1    0    0  501    0  0.00000000000E+00  0.00000000000E+00  0.22513909878E+04  0.22513909878E+04  0.50400001928E-02 0.  1.
       -1   -1    0    0    0  501  0.00000000000E+00  0.00000000000E+00 -0.13345602776E+04  0.13345602776E+04  0.50400001928E-02 0. -1.
    10030    2    1    2    0    0  0.00000000000E+00  0.00000000000E+00  0.91683071020E+03  0.35859512654E+04  0.34667662060E+04 0.  0.
        1    1    3    3  502    0  0.96913883913E+03  0.13093382585E+02  0.19449071347E+04  0.21730313594E+04  0.50400001928E-02 0.  1.
       -1    1    3    3    0  502 -0.96913883913E+03 -0.13093382585E+02 -0.10280764245E+04  0.14129199060E+04  0.50400001928E-02 0. -1.
</event>
<event>
 5   0  0.4189587E-06  0.3947565E+04  0.7818609E-02  0.8015209E-01
        2   -1    0    0  501    0  0.00000000000E+00  0.00000000000E+00  0.29691690105E+04  0.29691690105E+04  0.25500000920E-02 0.  1.
       -2   -1    0    0    0  501  0.00000000000E+00  0.00000000000E+00 -0.13120901392E+04  0.13120901392E+04  0.25500000920E-02 0. -1.
    10030    2    1    2    0    0  0.00000000000E+00  0.00000000000E+00  0.16570788713E+04  0.42812591497E+04  0.39475650116E+04 0.  0.
        1    1    3    3  502    0  0.19062837519E+04  0.40716646010E+01  0.27353567157E+03  0.19258130971E+04  0.50400001928E-02 0.  1.
       -1    1    3    3    0  502 -0.19062837519E+04 -0.40716646010E+01  0.13835431998E+04  0.23554460526E+04  0.50400001928E-02 0. -1.
</event>
<event>
 5   0  0.1562618E-06  0.3653382E+04  0.7818609E-02  0.8078372E-01
       -1   -1    0    0    0  501  0.00000000000E+00  0.00000000000E+00  0.10626254368E+04  0.10626254368E+04  0.50400001928E-02 0.  1.
        1   -1    0    0  501    0  0.00000000000E+00  0.00000000000E+00 -0.31401468267E+04  0.31401468267E+04  0.50400001928E-02 0. -1.
    10030    2    1    2    0    0  0.00000000000E+00  0.00000000000E+00 -0.20775213898E+04  0.42027722635E+04  0.36533819365E+04 0.  0.
        2    1    3    3  502    0 -0.53076662989E+03  0.18838016684E+03 -0.30377729620E+04  0.30895412073E+04  0.25500000920E-02 0. -1.
       -2    1    3    3    0  502  0.53076662989E+03 -0.18838016684E+03  0.96025157219E+03  0.11132310562E+04  0.25500000920E-02 0.  1.
</event>
<event>
 5   0  0.1401125E-06  0.1855044E+04  0.7818609E-02  0.8677563E-01
       -3   -1    0    0    0  501  0.00000000000E+00  0.00000000000E+00  0.64733755454E+03  0.64733756242E+03  0.10100000352E+00 0. -1.
        3   -1    0    0  501    0  0.00000000000E+00  0.00000000000E+00 -0.13289768765E+04  0.13289768804E+04  0.10100000352E+00 0.  1.
    10030    2    1    2    0    0  0.00000000000E+00  0.00000000000E+00 -0.68163932198E+03  0.19763144428E+04  0.18550435605E+04 0.  0.
        5    1    3    3  502    0  0.27972514398E+02  0.29944861948E+03 -0.12755735222E+04  0.13105578345E+04  0.46999998093E+01 0.  1.
       -5    1    3    3    0  502 -0.27972514398E+02 -0.29944861948E+03  0.59393420017E+03  0.66575660823E+03  0.46999998093E+01 0. -1.
</event>
<event>
 5   0  0.4344980E-06  0.3385759E+04  0.7818609E-02  0.8141410E-01
        2   -1    0    0  501    0  0.00000000000E+00  0.00000000000E+00  0.25862858204E+04  0.25862858204E+04  0.25500000920E-02 0.  1.
       -2   -1    0    0    0  501  0.00000000000E+00  0.00000000000E+00 -0.11080916105E+04  0.11080916105E+04  0.25500000920E-02 0. -1.
    10030    2    1    2    0    0  0.00000000000E+00  0.00000000000E+00  0.14781942098E+04  0.36943774309E+04  0.33857593654E+04 0.  0.
        3    1    3    3  502    0  0.30917774012E+03  0.11462254122E+04  0.20559225164E+04  0.23740768678E+04  0.10100000352E+00 0.  1.
       -3    1    3    3    0  502 -0.30917774012E+03 -0.11462254122E+04 -0.57772830659E+03  0.13203005631E+04  0.10100000352E+00 0. -1.
</event>
<event>
 5   0  0.1654257E-06  0.3490478E+04  0.7818609E-02  0.8116050E-01
       -1   -1    0    0    0  501  0.00000000000E+00  0.00000000000E+00  0.12743398070E+04  0.12743398071E+04  0.50400001928E-02 0.  1.
        1   -1    0    0  501    0  0.00000000000E+00  0.00000000000E+00 -0.23901462581E+04  0.23901462581E+04  0.50400001928E-02 0. -1.
    10030    2    1    2    0    0  0.00000000000E+00  0.00000000000E+00 -0.11158064510E+04  0.36644860651E+04  0.34904776300E+04 0.  0.
        3    1    3    3  502    0 -0.13012198190E+04 -0.33506462457E+03  0.61135949631E+03  0.14762119644E+04  0.10100000352E+00 0.  1.
       -3    1    3    3    0  502  0.13012198190E+04  0.33506462457E+03 -0.17271659474E+04  0.21882741007E+04  0.10100000352E+00 0. -1.
</event>
<event>
 5   0  0.4189587E-06  0.1829431E+04  0.7818609E-02  0.8690803E-01
        2   -1    0    0  501    0  0.00000000000E+00  0.00000000000E+00  0.19821114076E+04  0.19821114076E+04  0.25500000920E-02 0. -1.
       -2   -1    0    0    0  501  0.00000000000E+00  0.00000000000E+00 -0.42212806645E+03  0.42212806646E+03  0.25500000920E-02 0.  1.
    10030    2    1    2    0    0  0.00000000000E+00  0.00000000000E+00  0.15599833412E+04  0.24042394741E+04  0.18294314483E+04 0.  0.
        1    1    3    3  502    0 -0.69280265608E+03  0.42915394241E+03  0.13259090295E+04  0.15563365257E+04  0.50400001928E-02 0.  1.
       -1    1    3    3    0  502  0.69280265608E+03 -0.42915394241E+03  0.23407431167E+03  0.84790294843E+03  0.50400001928E-02 0. -1.
</event>
<event>
 5   0  0.1562618E-06  0.3006806E+04  0.7818609E-02  0.8241790E-01
        1   -1    0    0  501    0  0.00000000000E+00  0.00000000000E+00  0.24057392443E+04  0.24057392444E+04  0.50400001928E-02 0.  1.
       -1   -1    0    0    0  501  0.00000000000E+00  0.00000000000E+00 -0.93951156560E+03  0.93951156561E+03  0.50400001928E-02 0. -1.
    10030    2    1    2    0    0  0.00000000000E+00  0.00000000000E+00  0.14662276787E+04  0.33452508100E+04  0.30068055101E+04 0.  0.
        2    1    3    3  502    0 -0.87320717138E+03 -0.12100707845E+04  0.52961033911E+03  0.15834295624E+04  0.25500000920E-02 0. -1.
       -2    1    3    3    0  502  0.87320717138E+03  0.12100707845E+04  0.93661733964E+03  0.17618212476E+04  0.25500000920E-02 0.  1.
</event>
<event>
 5   0  0.4189587E-06  0.3167991E+04  0.7818609E-02  0.8197322E-01
        2   -1    0    0  501    0  0.00000000000E+00  0.00000000000E+00  0.30441372584E+04  0.30441372584E+04  0.25500000920E-02 0. -1.
       -2   -1    0    0    0  501  0.00000000000E+00  0.00000000000E+00 -0.82422115939E+03  0.82422115939E+03  0.25500000920E-02 0.  1.
    10030    2    1    2    0    0  0.00000000000E+00  0.00000000000E+00  0.22199160990E+04  0.38683584178E+04  0.31679913765E+04 0.  0.
        1    1    3    3  502    0  0.15339704669E+04 -0.35786643021E+03  0.13139492678E+04  0.20512426608E+04  0.50400001928E-02 0. -1.
       -1    1    3    3    0  502 -0.15339704669E+04  0.35786643021E+03  0.90596683118E+03  0.18171157570E+04  0.50400001928E-02 0.  1.
</event>
<event>
 5   0  0.1550164E-06  0.3358147E+04  0.7818609E-02  0.8148255E-01
       -1   -1    0    0    0  501  0.00000000000E+00  0.00000000000E+00  0.10348175665E+04  0.10348175666E+04  0.50400001928E-02 0.  1.
        1   -1    0    0  501    0  0.00000000000E+00  0.00000000000E+00 -0.27244300030E+04  0.27244300030E+04  0.50400001928E-02 0. -1.
    10030    2    1    2    0    0  0.00000000000E+00  0.00000000000E+00 -0.16896124364E+04  0.37592475695E+04  0.33581471236E+04 0.  0.
        4    1    3    3  502    0  0.12744558469E+04 -0.10398194532E+04 -0.12224814764E+04  0.20493717998E+04  0.12699999809E+01 0. -1.
       -4    1    3    3    0  502 -0.12744558469E+04  0.10398194532E+04 -0.46713096006E+03  0.17098757697E+04  0.12699999809E+01 0.  1.
</event>
<event>
 5   0  0.2101998E-06  0.2728595E+04  0.7818609E-02  0.8325786E-01
       -1   -1    0    0    0  501  0.00000000000E+00  0.00000000000E+00  0.78566723086E+03  0.78566723087E+03  0.50400001928E-02 0.  1.
        1   -1    0    0  501    0  0.00000000000E+00  0.00000000000E+00 -0.23690784170E+04  0.23690784171E+04  0.50400001928E-02 0. -1.
    10030    2    1    2    0    0  0.00000000000E+00  0.00000000000E+00 -0.15834111862E+04  0.31547456479E+04  0.27285947150E+04 0.  0.
        5    1    3    3  502    0  0.13861164013E+03 -0.10167832287E+04  0.24771460612E+03  0.10556732151E+04  0.46999998093E+01 0. -1.
       -5    1    3    3    0  502 -0.13861164013E+03  0.10167832287E+04 -0.18311257923E+04  0.20990724328E+04  0.46999998093E+01 0.  1.
</event>
<event>
 5   0  0.1562618E-06  0.2319058E+04  0.7818609E-02  0.8470445E-01
        1   -1    0    0  501    0  0.00000000000E+00  0.00000000000E+00  0.23651458981E+04  0.23651458981E+04  0.50400001928E-02 0. -1.
       -1   -1    0    0    0  501  0.00000000000E+00  0.00000000000E+00 -0.56846682692E+03  0.56846682694E+03  0.50400001928E-02 0.  1.
    10030    2    1    2    0    0  0.00000000000E+00  0.00000000000E+00  0.17966790712E+04  0.29336127250E+04  0.23190575533E+04 0.  0.
        2    1    3    3  502    0  0.79749608567E+03  0.47602107231E+03  0.17765015264E+04  0.20046330690E+04  0.25500000920E-02 0. -1.
       -2    1    3    3    0  502 -0.79749608567E+03 -0.47602107231E+03  0.20177544722E+02  0.92897965600E+03  0.25500000920E-02 0.  1.
</event>
<event>
 5   0  0.1654257E-06  0.3278472E+04  0.7818609E-02  0.8168395E-01
        1   -1    0    0  501    0  0.00000000000E+00  0.00000000000E+00  0.23313610031E+04  0.23313610031E+04  0.50400001928E-02 0.  1.
       -1   -1    0    0    0  501  0.00000000000E+00  0.00000000000E+00 -0.11525863529E+04  0.11525863529E+04  0.50400001928E-02 0. -1.
    10030    2    1    2    0    0  0.00000000000E+00  0.00000000000E+00  0.11787746502E+04  0.34839473560E+04  0.32784721295E+04 0.  0.
        3    1    3    3  502    0 -0.57146143252E+03  0.86498421456E+03 -0.75996984592E+03  0.12854260139E+04  0.10100000352E+00 0. -1.
       -3    1    3    3    0  502  0.57146143252E+03 -0.86498421456E+03  0.19387444962E+04  0.21985213421E+04  0.10100000352E+00 0.  1.
</event>
<event>
 5   0  0.2722449E-06  0.3009503E+04  0.7818609E-02  0.8241023E-01
        2   -1    0    0  501    0  0.00000000000E+00  0.00000000000E+00  0.13106292231E+04  0.13106292231E+04  0.25500000920E-02 0. -1.
       -2   -1    0    0    0  501  0.00000000000E+00  0.00000000000E+00 -0.17276256561E+04  0.17276256561E+04  0.25500000920E-02 0.  1.
    10030    2    1    2    0    0  0.00000000000E+00  0.00000000000E+00 -0.41699643303E+03  0.30382548792E+04  0.30095027307E+04 0.  0.
        2    1    3    3  502    0  0.52796607300E+03 -0.29349322986E+03  0.11828523244E+04  0.13281664321E+04  0.25500000920E-02 0. -1.
       -2    1    3    3    0  502 -0.52796607300E+03  0.29349322986E+03 -0.15998487574E+04  0.17100884471E+04  0.25500000920E-02 0.  1.
</event>
<event>
 5   0  0.4173467E-06  0.3109338E+04  0.7818609E-02  0.8213180E-01
        2   -1    0    0  501    0  0.00000000000E+00  0.00000000000E+00  0.27480193478E+04  0.27480193478E+04  0.25500000920E-02 0. -1.
       -2   -1    0    0    0  501  0.00000000000E+00  0.00000000000E+00 -0.87954092903E+03  0.87954092904E+03  0.25500000920E-02 0.  1.
    10030    2    1    2    0    0  0.00000000000E+00  0.00000000000E+00  0.18684784187E+04  0.36275602768E+04  0.31093378653E+04 0.  0.
        4    1    3    3  502    0 -0.67677499427E+03  0.33855572591E+03 -0.65017355894E+03  0.99768313710E+03  0.12699999809E+01 0.  1.
       -4    1    3    3    0  502  0.67677499427E+03 -0.33855572591E+03  0.25186519777E+04  0.26298771397E+04  0.12699999809E+01 0. -1.
</event>
<event>
 5   0  0.4344980E-06  0.3479745E+04  0.7818609E-02  0.8118607E-01
       -2   -1    0    0    0  501  0.00000000000E+00  0.00000000000E+00  0.13068487513E+04  0.13068487513E+04  0.25500000920E-02 0.  1.
        2   -1    0    0  501    0  0.00000000000E+00  0.00000000000E+00 -0.23163785014E+04  0.23163785014E+04  0.25500000920E-02 0. -1.
    10030    2    1    2    0    0  0.00000000000E+00  0.00000000000E+00 -0.10095297501E+04  0.36232272527E+04  0.34797450206E+04 0.  0.
        3    1    3    3  502    0  0.96220780709E+03 -0.14492106900E+04 -0.53931208659E+03  0.18212394200E+04  0.10100000352E+00 0.  1.
       -3    1    3    3    0  502 -0.96220780709E+03  0.14492106900E+04 -0.47021766352E+03  0.18019878327E+04  0.10100000352E+00 0. -1.
</event>
<event>
 5   0  0.4400349E-06  0.3420513E+04  0.7818609E-02  0.8132890E-01
       -2   -1    0    0    0  501  0.00000000000E+00  0.00000000000E+00  0.12826921062E+04  0.12826921063E+04  0.25500000920E-02 0. -1.
        2   -1    0    0  501    0  0.00000000000E+00  0.00000000000E+00 -0.22803429134E+04  0.22803429134E+04  0.25500000920E-02 0.  1.
    10030    2    1    2    0    0  0.00000000000E+00  0.00000000000E+00 -0.99765080718E+03  0.35630350197E+04  0.34205133267E+04 0.  0.
        5    1    3    3  502    0 -0.89556820094E+03  0.40735318747E+03  0.95838289647E+03  0.13734987762E+04  0.46999998093E+01 0. -1.
       -5    1    3    3    0  502  0.89556820094E+03 -0.40735318747E+03 -0.19560337037E+04  0.21895362435E+04  0.46999998093E+01 0.  1.
</event>
<event>
 5   0  0.1562618E-06  0.3251328E+04  0.7818609E-02  0.8175392E-01
        1   -1    0    0  501    0  0.00000000000E+00  0.00000000000E+00  0.13659681691E+04  0.13659681691E+04  0.50400001928E-02 0. -1.
       -1   -1    0    0    0  501  0.00000000000E+00  0.00000000000E+00 -0.19347326502E+04  0.19347326502E+04  0.50400001928E-02 0.  1.
    10030    2    1    2    0    0  0.00000000000E+00  0.00000000000E+00 -0.56876448107E+03  0.33007008193E+04  0.32513278616E+04 0.  0.
        2    1    3    3  502    0 -0.59115578880E+02 -0.11310726716E+04  0.89950126511E+03  0.14463480100E+04  0.25500000920E-02 0.  1.
       -2    1    3    3    0  502  0.59115578880E+02  0.11310726716E+04 -0.14682657462E+04  0.18543528093E+04  0.25500000920E-02 0. -1.
</event>
<event>
 5   0  0.1550164E-06  0.2944377E+04  0.7818609E-02  0.8259795E-01
        1   -1    0    0  501    0  0.00000000000E+00  0.00000000000E+00  0.20641248681E+04  0.20641248681E+04  0.50400001928E-02 0.  1.
       -1   -1    0    0    0  501  0.00000000000E+00  0.00000000000E+00 -0.10500037026E+04  0.10500037026E+04  0.50400001928E-02 0. -1.
    10030    2    1    2    0    0  0.00000000000E+00  0.00000000000E+00  0.10141211655E+04  0.31141285707E+04  0.29443768469E+04 0.  0.
        4    1    3    3  502    0  0.11681068516E+04 -0.84305761725E+03  0.18605400623E+03  0.14525279580E+04  0.12699999809E+01 0.  1.
       -4    1    3    3    0  502 -0.11681068516E+04  0.84305761725E+03  0.82806715931E+03  0.16616006126E+04  0.12699999809E+01 0. -1.
</event>
<event>
 5   0  0.4189587E-06  0.3398980E+04  0.7818609E-02  0.8138157E-01
        2   -1    0    0  501    0  0.00000000000E+00  0.00000000000E+00  0.16486047812E+04  0.16486047812E+04  0.25500000920E-02 0. -1.
       -2   -1    0    0    0  501  0.00000000000E+00  0.00000000000E+00 -0.17519456393E+04  0.17519456393E+04  0.25500000920E-02 0.  1.
    10030    2    1    2    0    0  0.00000000000E+00  0.00000000000E+00 -0.10334085813E+03  0.34005504204E+04  0.33989798218E+04 0.  0.
        1    1    3    3  502    0 -0.85651632066E+03 -0.13144900326E+04  0.60190144199E+03  0.16804135203E+04  0.50400001928E-02 0. -1.
       -1    1    3    3    0  502  0.85651632066E+03  0.13144900326E+04 -0.70524230012E+03  0.17201369001E+04  0.50400001928E-02 0.  1.
</event>
<event>
 5   0  0.4189587E-06  0.3463436E+04  0.7818609E-02  0.8122510E-01
        2   -1    0    0  501    0  0.00000000000E+00  0.00000000000E+00  0.98181822964E+03  0.98181822965E+03  0.25500000920E-02 0.  1.
       -2   -1    0    0    0  501  0.00000000000E+00  0.00000000000E+00 -0.30543813124E+04  0.30543813124E+04  0.25500000920E-02 0. -1.
    10030    2    1    2    0    0  0.00000000000E+00  0.00000000000E+00 -0.20725630828E+04  0.40361995421E+04  0.34634360123E+04 0.  0.
        1    1    3    3  502    0 -0.12086989733E+04 -0.12342986992E+04 -0.11761301836E+04  0.20899111693E+04  0.50400001928E-02 0. -1.
       -1    1    3    3    0  502  0.12086989733E+04  0.12342986992E+04 -0.89643289917E+03  0.19462883727E+04  0.50400001928E-02 0.  1.
</event>
<event>
 5   0  0.1401125E-06  0.2275381E+04  0.7818609E-02  0.8487692E-01
       -3   -1    0    0    0  501  0.00000000000E+00  0.00000000000E+00  0.12340760864E+04  0.12340760906E+04  0.10100000352E+00 0. -1.
        3   -1    0    0  501    0  0.00000000000E+00  0.00000000000E+00 -0.10488332243E+04  0.10488332292E+04  0.10100000352E+00 0.  1.
    10030    2    1    2    0    0  0.00000000000E+00  0.00000000000E+00  0.18524286211E+03  0.22829093197E+04  0.22753812964E+04 0.  0.
        3    1    3    3  502    0  0.64143881609E+03 -0.76979710702E+03 -0.44796416890E+03  0.10975897447E+04  0.10100000352E+00 0.  1.
       -3    1    3    3    0  502 -0.64143881609E+03  0.76979710702E+03  0.63320703100E+03  0.11853195751E+04  0.10100000352E+00 0. -1.
</event>
<event>
 5   0  0.4344980E-06  0.3426237E+04  0.7818609E-02  0.8131497E-01
       -2   -1    0    0    0  501  0.00000000000E+00  0.00000000000E+00  0.14104880805E+04  0.14104880805E+04  0.25500000920E-02 0. -1.
        2   -1    0    0  501    0  0.00000000000E+00  0.00000000000E+00 -0.20806805463E+04  0.20806805463E+04  0.25500000920E-02 0.  1.
    10030    2    1    2    0    0  0.00000000000E+00  0.00000000000E+00 -0.67019246581E+03  0.34911686268E+04  0.34262370671E+04 0.  0.
        3    1    3    3  502    0 -0.16200256131E+04  0.33515354179E+03  0.11826748814E+03  0.16585530117E+04  0.10100000352E+00 0.  1.
       -3    1    3    3    0  502  0.16200256131E+04 -0.33515354179E+03 -0.78845995395E+03  0.18326156151E+04  0.10100000352E+00 0. -1.
</event>
<event>
 5   0  0.1654257E-06  0.3423006E+04  0.7818609E-02  0.8132283E-01
       -1   -1    0    0    0  501  0.00000000000E+00  0.00000000000E+00  0.13871682812E+04  0.13871682812E+04  0.50400001928E-02 0. -1.
        1   -1    0    0  501    0  0.00000000000E+00  0.00000000000E+00 -0.21116711674E+04  0.21116711674E+04  0.50400001928E-02 0.  1.
    10030    2    1    2    0    0  0.00000000000E+00  0.00000000000E+00 -0.72450288619E+03  0.34988394486E+04  0.34230064352E+04 0.  0.
        3    1    3    3  502    0  0.16976099609E+04  0.20669393097E+03 -0.29261512517E+03  0.17350001678E+04  0.10100000352E+00 0.  1.
       -3    1    3    3    0  502 -0.16976099609E+04 -0.20669393097E+03 -0.43188776102E+03  0.17638392809E+04  0.10100000352E+00 0. -1.
</event>
<event>
 5   0  0.2722449E-06  0.2996753E+04  0.7818609E-02  0.8244659E-01
        2   -1    0    0  501    0  0.00000000000E+00  0.00000000000E+00  0.20158232208E+04  0.20158232208E+04  0.25500000920E-02 0. -1.
       -2   -1    0    0    0  501  0.00000000000E+00  0.00000000000E+00 -0.11137547312E+04  0.11137547312E+04  0.25500000920E-02 0.  1.
    10030    2    1    2    0    0  0.00000000000E+00  0.00000000000E+00  0.90206848959E+03  0.31295779521E+04  0.29967533429E+04 0.  0.
        2    1    3    3  502    0  0.13103359977E+04  0.63763222756E+03  0.86900323201E+02  0.14598311377E+04  0.25500000920E-02 0.  1.
       -2    1    3    3    0  502 -0.13103359977E+04 -0.63763222756E+03  0.81516816639E+03  0.16697468143E+04  0.25500000920E-02 0. -1.
</event>
<event>
 5   0  0.1571391E-06  0.3298687E+04  0.7818609E-02  0.8163230E-01
       -1   -1    0    0    0  501  0.00000000000E+00  0.00000000000E+00  0.16588431026E+04  0.16588431026E+04  0.50400001928E-02 0.  1.
        1   -1    0    0  501    0  0.00000000000E+00  0.00000000000E+00 -0.16398978962E+04  0.16398978962E+04  0.50400001928E-02 0. -1.
    10030    2    1    2    0    0  0.00000000000E+00  0.00000000000E+00  0.18945206396E+02  0.32987409987E+04  0.32986865956E+04 0.  0.
        1    1    3    3  502    0  0.10972548795E+03 -0.10909982436E+04  0.12415710308E+04  0.16564466412E+04  0.50400001928E-02 0.  1.
       -1    1    3    3    0  502 -0.10972548795E+03  0.10909982436E+04 -0.12226258245E+04  0.16422943576E+04  0.50400001928E-02 0. -1.
</event>
<event>
 5   0  0.4189587E-06  0.3378713E+04  0.7818609E-02  0.8143151E-01
        2   -1    0    0  501    0  0.00000000000E+00  0.00000000000E+00  0.27673748701E+04  0.27673748701E+04  0.25500000920E-02 0.  1.
       -2   -1    0    0    0  501  0.00000000000E+00  0.00000000000E+00 -0.10312755823E+04  0.10312755823E+04  0.25500000920E-02 0. -1.
    10030    2    1    2    0    0  0.00000000000E+00  0.00000000000E+00  0.17360992878E+04  0.37986504524E+04  0.33787134420E+04 0.  0.
        1    1    3    3  502    0 -0.15264499749E+04  0.33753632699E+02  0.55182225451E+02  0.15278199867E+04  0.50400001928E-02 0. -1.
       -1    1    3    3    0  502  0.15264499749E+04 -0.33753632699E+02  0.16809170623E+04  0.22708304657E+04  0.50400001928E-02 0.  1.
</event>
<event>
 5   0  0.2722449E-06  0.3451486E+04  0.7818609E-02  0.8125384E-01
       -2   -1    0    0    0  501  0.00000000000E+00  0.00000000000E+00  0.11440688497E+04  0.11440688497E+04  0.25500000920E-02 0. -1.
        2   -1    0    0  501    0  0.00000000000E+00  0.00000000000E+00 -0.26031555361E+04  0.26031555361E+04  0.25500000920E-02 0.  1.
    10030    2    1    2    0    0  0.00000000000E+00  0.00000000000E+00 -0.14590866864E+04  0.37472243858E+04  0.34514861494E+04 0.  0.
        2    1    3    3  502    0 -0.99042316579E+03  0.32900189470E+03  0.76263441690E+03  0.12925910211E+04  0.25500000920E-02 0. -1.
       -2    1    3    3    0  502  0.99042316579E+03 -0.32900189470E+03 -0.22217211033E+04  0.24546333647E+04  0.25500000920E-02 0.  1.
</event>
<event>
 5   0  0.1571391E-06  0.3593519E+04  0.7818609E-02  0.8091978E-01
       -1   -1    0    0    0  501  0.00000000000E+00  0.00000000000E+00  0.15608531361E+04  0.15608531361E+04  0.50400001928E-02 0.  1.
        1   -1    0    0  501    0  0.00000000000E+00  0.00000000000E+00 -0.20683204971E+04  0.20683204971E+04  0.50400001928E-02 0. -1.
    10030    2    1    2    0    0  0.00000000000E+00  0.00000000000E+00 -0.50746736094E+03  0.36291736332E+04  0.35935189074E+04 0.  0.
        1    1    3    3  502    0  0.11553859920E+04  0.27464238640E+03  0.11079764517E+04  0.16241788844E+04  0.50400001928E-02 0.  1.
       -1    1    3    3    0  502 -0.11553859920E+04 -0.27464238640E+03 -0.16154438126E+04  0.20049947488E+04  0.50400001928E-02 0. -1.
</event>
<event>
 5   0  0.4344980E-06  0.3349168E+04  0.7818609E-02  0.8150496E-01
        2   -1    0    0  501    0  0.00000000000E+00  0.00000000000E+00  0.18350791415E+04  0.18350791415E+04  0.25500000920E-02 0.  1.
       -2   -1    0    0    0  501  0.00000000000E+00  0.00000000000E+00 -0.15281256993E+04  0.15281256993E+04  0.25500000920E-02 0. -1.
    10030    2    1    2    0    0  0.00000000000E+00  0.00000000000E+00  0.30695344220E+03  0.33632048408E+04  0.33491680139E+04 0.  0.
        3    1    3    3  502    0  0.92051518376E+03  0.11386114275E+04  0.96956192134E+03  0.17560849967E+04  0.10100000352E+00 0.  1.
       -3    1    3    3    0  502 -0.92051518376E+03 -0.11386114275E+04 -0.66260847914E+03  0.16071198440E+04  0.10100000352E+00 0. -1.
</event>
<event>
 5   0  0.2722449E-06  0.3843034E+04  0.7818609E-02  0.8036982E-01
        2   -1    0    0  501    0  0.00000000000E+00  0.00000000000E+00  0.14646753080E+04  0.14646753080E+04  0.25500000920E-02 0.  1.
       -2   -1    0    0    0  501  0.00000000000E+00  0.00000000000E+00 -0.25208509830E+04  0.25208509830E+04  0.25500000920E-02 0. -1.
    10030    2    1    2    0    0  0.00000000000E+00  0.00000000000E+00 -0.10561756750E+04  0.39855262909E+04  0.38430343167E+04 0.  0.
        2    1    3    3  502    0 -0.17644590960E+04 -0.27383352457E+03 -0.12642872060E+04  0.21878580484E+04  0.25500000920E-02 0. -1.
       -2    1    3    3    0  502  0.17644590960E+04  0.27383352457E+03  0.20811153096E+03  0.17976682425E+04  0.25500000920E-02 0.  1.
</event>
<event>
 5   0  0.4400349E-06  0.3396904E+04  0.7818609E-02  0.8138667E-01
        2   -1    0    0  501    0  0.00000000000E+00  0.00000000000E+00  0.22058066593E+04  0.22058066593E+04  0.25500000920E-02 0. -1.
       -2   -1    0    0    0  501  0.00000000000E+00  0.00000000000E+00 -0.13077934675E+04  0.13077934675E+04  0.25500000920E-02 0.  1.
    10030    2    1    2    0    0  0.00000000000E+00  0.00000000000E+00  0.89801319180E+03  0.35136001268E+04  0.33969042021E+04 0.  0.
        5    1    3    3  502    0  0.37925656029E+02 -0.12907087063E+03 -0.13022673366E+04  0.13092058475E+04  0.46999998093E+01 0.  1.
       -5    1    3    3    0  502 -0.37925656029E+02  0.12907087063E+03  0.22002805284E+04  0.22043942793E+04  0.46999998093E+01 0. -1.
</event>
<event>
 5   0  0.1550164E-06  0.2315890E+04  0.7818609E-02  0.8471682E-01
        1   -1    0    0  501    0  0.00000000000E+00  0.00000000000E+00  0.84246858936E+03  0.84246858937E+03  0.50400001928E-02 0.  1.
       -1   -1    0    0    0  501  0.00000000000E+00  0.00000000000E+00 -0.15915566783E+04  0.15915566783E+04  0.50400001928E-02 0. -1.
    10030    2    1    2    0    0  0.00000000000E+00  0.00000000000E+00 -0.74908808897E+03  0.24340252677E+04  0.23158899021E+04 0.  0.
        4    1    3    3  502    0  0.82310054649E+03 -0.20027690688E+03  0.45517525292E+03  0.96166078886E+03  0.12699999809E+01 0.  1.
       -4    1    3    3    0  502 -0.82310054649E+03  0.20027690688E+03 -0.12042633419E+04  0.14723644788E+04  0.12699999809E+01 0. -1.
</event>
<event>
 5   0  0.4173467E-06  0.3437109E+04  0.7818609E-02  0.8128858E-01
        2   -1    0    0  501    0  0.00000000000E+00  0.00000000000E+00  0.24983245326E+04  0.24983245326E+04  0.25500000920E-02 0. -1.
       -2   -1    0    0    0  501  0.00000000000E+00  0.00000000000E+00 -0.11821640149E+04  0.11821640149E+04  0.25500000920E-02 0.  1.
    10030    2    1    2    0    0  0.00000000000E+00  0.00000000000E+00  0.13161605177E+04  0.36804885475E+04  0.34371088781E+04 0.  0.
        4    1    3    3  502    0  0.11098644727E+04  0.13092755543E+04  0.56580330921E+03  0.18072455899E+04  0.12699999809E+01 0. -1.
       -4    1    3    3    0  502 -0.11098644727E+04 -0.13092755543E+04  0.75035720850E+03  0.18732429575E+04  0.12699999809E+01 0.  1.
</event>
<event>
 5   0  0.4344980E-06  0.3463521E+04  0.7818609E-02  0.8122490E-01
        2   -1    0    0  501    0  0.00000000000E+00  0.00000000000E+00  0.22264380308E+04  0.22264380308E+04  0.25500000920E-02 0.  1.
       -2   -1    0    0    0  501  0.00000000000E+00  0.00000000000E+00 -0.13469921576E+04  0.13469921576E+04  0.25500000920E-02 0. -1.
    10030    2    1    2    0    0  0.00000000000E+00  0.00000000000E+00  0.87944587322E+03  0.35734301883E+04  0.34635210793E+04 0.  0.
        3    1    3    3  502    0 -0.14218005315E+04  0.86304936760E+03 -0.57893076795E+02  0.16642483531E+04  0.10100000352E+00 0. -1.
       -3    1    3    3    0  502  0.14218005315E+04 -0.86304936760E+03  0.93733895002E+03  0.19091818352E+04  0.10100000352E+00 0.  1.
</event>
<event>
 5   0  0.4400349E-06  0.3457096E+04  0.7818609E-02  0.8124034E-01
        2   -1    0    0  501    0  0.00000000000E+00  0.00000000000E+00  0.22349767501E+04  0.22349767501E+04  0.25500000920E-02 0.  1.
       -2   -1    0    0    0  501  0.00000000000E+00  0.00000000000E+00 -0.13368720081E+04  0.13368720081E+04  0.25500000920E-02 0. -1.
    10030    2    1    2    0    0  0.00000000000E+00  0.00000000000E+00  0.89810474206E+03  0.35718487582E+04  0.34570958077E+04 0.  0.
        5    1    3    3  502    0 -0.12734393797E+03 -0.79149550805E+02 -0.13301339471E+04  0.13385662244E+04  0.46999998093E+01 0. -1.
       -5    1    3    3    0  502  0.12734393797E+03  0.79149550805E+02  0.22282386892E+04  0.22332825338E+04  0.46999998093E+01 0.  1.
</event>
<event>
 5   0  0.4344980E-06  0.3454103E+04  0.7818609E-02  0.8124754E-01
       -2   -1    0    0    0  501  0.00000000000E+00  0.00000000000E+00  0.14163283098E+04  0.14163283098E+04  0.25500000920E-02 0. -1.
        2   -1    0    0  501    0  0.00000000000E+00  0.00000000000E+00 -0.21059437190E+04  0.21059437190E+04  0.25500000920E-02 0.  1.
    10030    2    1    2    0    0  0.00000000000E+00  0.00000000000E+00 -0.68961540928E+03  0.35222720288E+04  0.34541034773E+04 0.  0.
        3    1    3    3  502    0  0.82004428894E+03  0.10685142412E+04 -0.14471188757E+04  0.19769543167E+04  0.10100000352E+00 0.  1.
       -3    1    3    3    0  502 -0.82004428894E+03 -0.10685142412E+04  0.75750346646E+03  0.15453177121E+04  0.10100000352E+00 0. -1.
</event>
<event>
 5   0  0.1571391E-06  0.1687502E+04  0.7818609E-02  0.8768525E-01
       -1   -1    0    0    0  501  0.00000000000E+00  0.00000000000E+00  0.68612589258E+03  0.68612589260E+03  0.50400001928E-02 0. -1.
        1   -1    0    0  501    0  0.00000000000E+00  0.00000000000E+00 -0.10375873806E+04  0.10375873806E+04  0.50400001928E-02 0.  1.
    10030    2    1    2    0    0  0.00000000000E+00  0.00000000000E+00 -0.35146148805E+03  0.17237132732E+04  0.16875017839E+04 0.  0.
        1    1    3    3  502    0  0.28696600475E+03 -0.48731995550E+03 -0.81533462146E+03  0.99227051346E+03  0.50400001928E-02 0.  1.
       -1    1    3    3    0  502 -0.28696600475E+03  0.48731995550E+03  0.46387313341E+03  0.73144275978E+03  0.50400001928E-02 0. -1.
</event>
<event>
 5   0  0.1654257E-06  0.1894328E+04  0.7818609E-02  0.8657685E-01
        1   -1    0    0  501    0  0.00000000000E+00  0.00000000000E+00  0.12792500636E+04  0.12792500636E+04  0.50400001928E-02 0. -1.
       -1   -1    0    0    0  501  0.00000000000E+00  0.00000000000E+00 -0.70128524123E+03  0.70128524124E+03  0.50400001928E-02 0.  1.
    10030    2    1    2    0    0  0.00000000000E+00  0.00000000000E+00  0.57796482236E+03  0.19805353048E+04  0.18943275213E+04 0.  0.
        3    1    3    3  502    0 -0.18085460401E+03  0.89991119531E+03  0.53321691125E+03  0.10615407820E+04  0.10100000352E+00 0.  1.
       -3    1    3    3    0  502  0.18085460401E+03 -0.89991119531E+03  0.44747911113E+02  0.91899452283E+03  0.10100000352E+00 0. -1.
</event>
<event>
 5   0  0.2722449E-06  0.3430355E+04  0.7818609E-02  0.8130496E-01
       -2   -1    0    0    0  501  0.00000000000E+00  0.00000000000E+00  0.10290661602E+04  0.10290661602E+04  0.25500000920E-02 0. -1.
        2   -1    0    0  501    0  0.00000000000E+00  0.00000000000E+00 -0.28587417616E+04  0.28587417616E+04  0.25500000920E-02 0.  1.
    10030    2    1    2    0    0  0.00000000000E+00  0.00000000000E+00 -0.18296756014E+04  0.38878079218E+04  0.34303553213E+04 0.  0.
        2    1    3    3  502    0 -0.15287275165E+04 -0.85809550102E+02 -0.38803092618E+02  0.15316255347E+04  0.25500000920E-02 0. -1.
       -2    1    3    3    0  502  0.15287275165E+04  0.85809550102E+02 -0.17908725087E+04  0.23561823871E+04  0.25500000920E-02 0.  1.
</event>
<event>
 5   0  0.2101998E-06  0.2016357E+04  0.7818609E-02  0.8599011E-01
       -1   -1    0    0    0  501  0.00000000000E+00  0.00000000000E+00  0.12326120505E+04  0.12326120506E+04  0.50400001928E-02 0. -1.
        1   -1    0    0  501    0  0.00000000000E+00  0.00000000000E+00 -0.82460941137E+03  0.82460941139E+03  0.50400001928E-02 0.  1.
    10030    2    1    2    0    0  0.00000000000E+00  0.00000000000E+00  0.40800263917E+03  0.20572214619E+04  0.20163566128E+04 0.  0.
        5    1    3    3  502    0 -0.25671294456E+03 -0.55692798168E+03 -0.61242312322E+03  0.86669168943E+03  0.46999998093E+01 0.  1.
       -5    1    3    3    0  502  0.25671294456E+03  0.55692798168E+03  0.10204257624E+04  0.11905297725E+04  0.46999998093E+01 0. -1.
</event>
<event>
 5   0  0.1401125E-06  0.3292512E+04  0.7818609E-02  0.8164803E-01
       -3   -1    0    0    0  501  0.00000000000E+00  0.00000000000E+00  0.99043750627E+03  0.99043751142E+03  0.10100000352E+00 0.  1.
        3   -1    0    0  501    0  0.00000000000E+00  0.00000000000E+00 -0.27363251395E+04  0.27363251414E+04  0.10100000352E+00 0. -1.
    10030    2    1    2    0    0  0.00000000000E+00  0.00000000000E+00 -0.17458876332E+04  0.37267626528E+04  0.32925121476E+04 0.  0.
        1    1    3    3  502    0  0.79791687775E+03  0.14076612214E+04 -0.52966627486E+03  0.17025650709E+04  0.50400001928E-02 0.  1.
       -1    1    3    3    0  502 -0.79791687775E+03 -0.14076612214E+04 -0.12162213584E+04  0.20241975819E+04  0.50400001928E-02 0. -1.
</event>
<event>
 5   0  0.1654257E-06  0.2669591E+04  0.7818609E-02  0.8344940E-01
        1   -1    0    0  501    0  0.00000000000E+00  0.00000000000E+00  0.68530086640E+03  0.68530086642E+03  0.50400001928E-02 0.  1.
       -1   -1    0    0    0  501  0.00000000000E+00  0.00000000000E+00 -0.25998485552E+04  0.25998485552E+04  0.50400001928E-02 0. -1.
    10030    2    1    2    0    0  0.00000000000E+00  0.00000000000E+00 -0.19145476888E+04  0.32851494216E+04  0.26695905809E+04 0.  0.
        3    1    3    3  502    0  0.42770626260E+03 -0.98352979192E+03  0.20566382718E+02  0.10727005570E+04  0.10100000352E+00 0.  1.
       -3    1    3    3    0  502 -0.42770626260E+03  0.98352979192E+03 -0.19351140715E+04  0.22124488646E+04  0.10100000352E+00 0. -1.
</event>
<event>
 5   0  0.2101998E-06  0.3397707E+04  0.7818609E-02  0.8138469E-01
       -1   -1    0    0    0  501  0.00000000000E+00  0.00000000000E+00  0.31705140538E+04  0.31705140538E+04  0.50400001928E-02 0. -1.
        1   -1    0    0  501    0  0.00000000000E+00  0.00000000000E+00 -0.91029485121E+03  0.91029485122E+03  0.50400001928E-02 0.  1.
    10030    2    1    2    0    0  0.00000000000E+00  0.00000000000E+00  0.22602192025E+04  0.40808089050E+04  0.33977066494E+04 0.  0.
        5    1    3    3  502    0 -0.80313219956E+03 -0.68061244857E+02 -0.66602024038E+03  0.10455901270E+04  0.46999998093E+01 0.  1.
       -5    1    3    3    0  502  0.80313219956E+03  0.68061244857E+02  0.29262394429E+04  0.30352187780E+04  0.46999998093E+01 0. -1.
</event>
<event>
 5   0  0.1571391E-06  0.3368423E+04  0.7818609E-02  0.8145700E-01
        1   -1    0    0  501    0  0.00000000000E+00  0.00000000000E+00  0.21738730867E+04  0.21738730867E+04  0.50400001928E-02 0.  1.
       -1   -1    0    0    0  501  0.00000000000E+00  0.00000000000E+00 -0.13048453774E+04  0.13048453774E+04  0.50400001928E-02 0. -1.
    10030    2    1    2    0    0  0.00000000000E+00  0.00000000000E+00  0.86902770934E+03  0.34787184641E+04  0.33684229237E+04 0.  0.
        1    1    3    3  502    0  0.14886386889E+04 -0.19031400111E+03  0.12239408618E+04  0.19365680464E+04  0.50400001928E-02 0.  1.
       -1    1    3    3    0  502 -0.14886386889E+04  0.19031400111E+03 -0.35491315246E+03  0.15421504177E+04  0.50400001928E-02 0. -1.
</event>
<event>
 5   0  0.4189587E-06  0.2576537E+04  0.7818609E-02  0.8376215E-01
       -2   -1    0    0    0  501  0.00000000000E+00  0.00000000000E+00  0.90552977448E+03  0.90552977448E+03  0.25500000920E-02 0.  1.
        2   -1    0    0  501    0  0.00000000000E+00  0.00000000000E+00 -0.18327787123E+04  0.18327787123E+04  0.25500000920E-02 0. -1.
    10030    2    1    2    0    0  0.00000000000E+00  0.00000000000E+00 -0.92724893783E+03  0.27383084868E+04  0.25765369736E+04 0.  0.
        1    1    3    3  502    0  0.10447493768E+04  0.53006167668E+03  0.10590317803E+03  0.11763001847E+04  0.50400001928E-02 0.  1.
       -1    1    3    3    0  502 -0.10447493768E+04 -0.53006167668E+03 -0.10331521159E+04  0.15620083021E+04  0.50400001928E-02 0. -1.
</event>
<event>
 5   0  0.1401125E-06  0.3483064E+04  0.7818609E-02  0.8117815E-01
       -4   -1    0    0    0  501  0.00000000000E+00  0.00000000000E+00  0.21410766508E+04  0.21410770275E+04  0.12699999809E+01 0. -1.
        4   -1    0    0  501    0  0.00000000000E+00  0.00000000000E+00 -0.14165453046E+04  0.14165458739E+04  0.12699999809E+01 0.  1.
    10030    2    1    2    0    0  0.00000000000E+00  0.00000000000E+00  0.72453134623E+03  0.35576229014E+04  0.34830640300E+04 0.  0.
        5    1    3    3  502    0  0.78393278047E+02 -0.92135538553E+03 -0.11450855986E+04  0.14718302792E+04  0.46999998093E+01 0.  1.
       -5    1    3    3    0  502 -0.78393278047E+02  0.92135538553E+03  0.18696169449E+04  0.20857926222E+04  0.46999998093E+01 0. -1.
</event>
<event>
 5   0  0.1654257E-06  0.2403842E+04  0.7818609E-02  0.8438067E-01
       -1   -1    0    0    0  501  0.00000000000E+00  0.00000000000E+00  0.98644017918E+03  0.98644017920E+03  0.50400001928E-02 0.  1.
        1   -1    0    0  501    0  0.00000000000E+00  0.00000000000E+00 -0.14644715788E+04  0.14644715788E+04  0.50400001928E-02 0. -1.
    10030    2    1    2    0    0  0.00000000000E+00  0.00000000000E+00 -0.47803139960E+03  0.24509117580E+04  0.24038415976E+04 0.  0.
        3    1    3    3  502    0 -0.90601499492E+03 -0.58820462117E+03 -0.77637055256E+03  0.13302627908E+04  0.10100000352E+00 0. -1.
       -3    1    3    3    0  502  0.90601499492E+03  0.58820462117E+03  0.29833915296E+03  0.11206489672E+04  0.10100000352E+00 0.  1.
</event>
<event>
 5   0  0.4400349E-06  0.1765733E+04  0.7818609E-02  0.8724738E-01
       -2   -1    0    0    0  501  0.00000000000E+00  0.00000000000E+00  0.56310312527E+03  0.56310312527E+03  0.25500000920E-02 0. -1.
        2   -1    0    0  501    0  0.00000000000E+00  0.00000000000E+00 -0.13842100485E+04  0.13842100485E+04  0.25500000920E-02 0.  1.
    10030    2    1    2    0    0  0.00000000000E+00  0.00000000000E+00 -0.82110692322E+03  0.19473131738E+04  0.17657327140E+04 0.  0.
        5    1    3    3  502    0  0.11825596367E+03  0.24419401942E+03 -0.13370770973E+04  0.13643358993E+04  0.46999998093E+01 0.  1.
       -5    1    3    3    0  502 -0.11825596367E+03 -0.24419401942E+03  0.51597017404E+03  0.58297727448E+03  0.46999998093E+01 0. -1.
</event>
<event>
 5   0  0.1654257E-06  0.2167722E+04  0.7818609E-02  0.8531984E-01
       -1   -1    0    0    0  501  0.00000000000E+00  0.00000000000E+00  0.66308505251E+03  0.66308505253E+03  0.50400001928E-02 0. -1.
        1   -1    0    0  501    0  0.00000000000E+00  0.00000000000E+00 -0.17716498416E+04  0.17716498416E+04  0.50400001928E-02 0.  1.
    10030    2    1    2    0    0  0.00000000000E+00  0.00000000000E+00 -0.11085647891E+04  0.24347348941E+04  0.21677218717E+04 0.  0.
        3    1    3    3  502    0  0.85201522759E+03  0.28792747049E+03 -0.12337090540E+04  0.15267187745E+04  0.10100000352E+00 0.  1.
       -3    1    3    3    0  502 -0.85201522759E+03 -0.28792747049E+03  0.12514426488E+03  0.90801611965E+03  0.10100000352E+00 0. -1.
</event>
<event>
 5   0  0.4400349E-06  0.3298078E+04  0.7818609E-02  0.8163385E-01
       -2   -1    0    0    0  501  0.00000000000E+00  0.00000000000E+00  0.14318524388E+04  0.14318524388E+04  0.25500000920E-02 0.  1.
        2   -1    0    0  501    0  0.00000000000E+00  0.00000000000E+00 -0.18991692618E+04  0.18991692618E+04  0.25500000920E-02 0. -1.
    10030    2    1    2    0    0  0.00000000000E+00  0.00000000000E+00 -0.46731682298E+03  0.33310217006E+04  0.32980783127E+04 0.  0.
        5    1    3    3  502    0  0.99965831032E+02 -0.11546431224E+04  0.95113799210E+03  0.14992929925E+04  0.46999998093E+01 0.  1.
       -5    1    3    3    0  502 -0.99965831032E+02  0.11546431224E+04 -0.14184548151E+04  0.18317287080E+04  0.46999998093E+01 0. -1.
</event>
<event>
 5   0  0.4189587E-06  0.2155821E+04  0.7818609E-02  0.8537045E-01
        2   -1    0    0  501    0  0.00000000000E+00  0.00000000000E+00  0.87449690439E+03  0.87449690439E+03  0.25500000920E-02 0.  1.
       -2   -1    0    0    0  501  0.00000000000E+00  0.00000000000E+00 -0.13286389364E+04  0.13286389364E+04  0.25500000920E-02 0. -1.
    10030    2    1    2    0    0  0.00000000000E+00  0.00000000000E+00 -0.45414203202E+03  0.22031358408E+04  0.21558206205E+04 0.  0.
        1    1    3    3  502    0  0.10723525266E+04  0.51882545441E+02 -0.12873597918E+03  0.10812976889E+04  0.50400001928E-02 0. -1.
       -1    1    3    3    0  502 -0.10723525266E+04 -0.51882545441E+02 -0.32540605284E+03  0.11218381519E+04  0.50400001928E-02 0.  1.
</event>
<event>
 5   0  0.1571391E-06  0.3459267E+04  0.7818609E-02  0.8123511E-01
       -1   -1    0    0    0  501  0.00000000000E+00  0.00000000000E+00  0.15422777301E+04  0.15422777301E+04  0.50400001928E-02 0. -1.
        1   -1    0    0  501    0  0.00000000000E+00  0.00000000000E+00 -0.19397494808E+04  0.19397494808E+04  0.50400001928E-02 0.  1.
    10030    2    1    2    0    0  0.00000000000E+00  0.00000000000E+00 -0.39747175069E+03  0.34820272109E+04  0.34592672208E+04 0.  0.
        1    1    3    3  502    0 -0.80774571916E+03 -0.12425854887E+04  0.69884888576E+03  0.16385547317E+04  0.50400001928E-02 0. -1.
       -1    1    3    3    0  502  0.80774571916E+03  0.12425854887E+04 -0.10963206364E+04  0.18434724792E+04  0.50400001928E-02 0.  1.
</event>
<event>
 5   0  0.2722449E-06  0.2226527E+04  0.7818609E-02  0.8507468E-01
       -2   -1    0    0    0  501  0.00000000000E+00  0.00000000000E+00  0.63889202181E+03  0.63889202182E+03  0.25500000920E-02 0.  1.
        2   -1    0    0  501    0  0.00000000000E+00  0.00000000000E+00 -0.19398505878E+04  0.19398505878E+04  0.25500000920E-02 0. -1.
    10030    2    1    2    0    0  0.00000000000E+00  0.00000000000E+00 -0.13009585659E+04  0.25787426096E+04  0.22265265002E+04 0.  0.
        2    1    3    3  502    0  0.55900130730E+03 -0.60548735386E+03  0.21643075562E+03  0.85202093239E+03  0.25500000920E-02 0.  1.
       -2    1    3    3    0  502 -0.55900130730E+03  0.60548735386E+03 -0.15173893216E+04  0.17267216772E+04  0.25500000920E-02 0. -1.
</event>
<event>
 5   0  0.4400349E-06  0.3444360E+04  0.7818609E-02  0.8127104E-01
       -2   -1    0    0    0  501  0.00000000000E+00  0.00000000000E+00  0.18169405605E+04  0.18169405605E+04  0.25500000920E-02 0. -1.
        2   -1    0    0  501    0  0.00000000000E+00  0.00000000000E+00 -0.16323619688E+04  0.16323619688E+04  0.25500000920E-02 0.  1.
    10030    2    1    2    0    0  0.00000000000E+00  0.00000000000E+00  0.18457859172E+03  0.34493025293E+04  0.34443604170E+04 0.  0.
        5    1    3    3  502    0 -0.12226558138E+04  0.73872075199E+03  0.10555878881E+04  0.17761991634E+04  0.46999998093E+01 0. -1.
       -5    1    3    3    0  502  0.12226558138E+04 -0.73872075199E+03 -0.87100929641E+03  0.16731033659E+04  0.46999998093E+01 0.  1.
</event>
<event>
 5   0  0.4400349E-06  0.3228971E+04  0.7818609E-02  0.8181208E-01
        2   -1    0    0  501    0  0.00000000000E+00  0.00000000000E+00  0.18028523449E+04  0.18028523449E+04  0.25500000920E-02 0.  1.
       -2   -1    0    0    0  501  0.00000000000E+00  0.00000000000E+00 -0.14457994903E+04  0.14457994903E+04  0.25500000920E-02 0. -1.
    10030    2    1    2    0    0  0.00000000000E+00  0.00000000000E+00  0.35705285463E+03  0.32486518352E+04  0.32289707347E+04 0.  0.
        5    1    3    3  502    0 -0.18258299336E+03 -0.15958383228E+04  0.34232047879E+03  0.16423281957E+04  0.46999998093E+01 0. -1.
       -5    1    3    3    0  502  0.18258299336E+03  0.15958383228E+04  0.14732375836E+02  0.16063236396E+04  0.46999998093E+01 0.  1.
</event>
<event>
 5   0  0.2722449E-06  0.2386866E+04  0.7818609E-02  0.8444437E-01
        2   -1    0    0  501    0  0.00000000000E+00  0.00000000000E+00  0.12402947178E+04  0.12402947178E+04  0.25500000920E-02 0.  1.
       -2   -1    0    0    0  501  0.00000000000E+00  0.00000000000E+00 -0.11483418830E+04  0.11483418830E+04  0.25500000920E-02 0. -1.
    10030    2    1    2    0    0  0.00000000000E+00  0.00000000000E+00  0.91952834807E+02  0.23886366008E+04  0.23868660387E+04 0.  0.
        2    1    3    3  502    0  0.30801868237E+03 -0.24771435932E+03 -0.10809336995E+04  0.11509368250E+04  0.25500000920E-02 0. -1.
       -2    1    3    3    0  502 -0.30801868237E+03  0.24771435932E+03  0.11728865343E+04  0.12376997757E+04  0.25500000920E-02 0.  1.
</event>
<event>
 5   0  0.4344980E-06  0.2730347E+04  0.7818609E-02  0.8325225E-01
        2   -1    0    0  501    0  0.00000000000E+00  0.00000000000E+00  0.30764352624E+04  0.30764352624E+04  0.25500000920E-02 0.  1.
       -2   -1    0    0    0  501  0.00000000000E+00  0.00000000000E+00 -0.60579814132E+03  0.60579814133E+03  0.25500000920E-02 0. -1.
    10030    2    1    2    0    0  0.00000000000E+00  0.00000000000E+00  0.24706371211E+04  0.36822334037E+04  0.27303470577E+04 0.  0.
        3    1    3    3  502    0  0.45155300368E+03 -0.20105258788E+03  0.29515164948E+04  0.29926195694E+04  0.10100000352E+00 0.  1.
       -3    1    3    3    0  502 -0.45155300368E+03  0.20105258788E+03 -0.48087937369E+03  0.68961383430E+03  0.10100000352E+00 0. -1.
</event>
<event>
 5   0  0.2101998E-06  0.3152888E+04  0.7818609E-02  0.8201371E-01
       -1   -1    0    0    0  501  0.00000000000E+00  0.00000000000E+00  0.10356452637E+04  0.10356452637E+04  0.50400001928E-02 0. -1.
        1   -1    0    0  501    0  0.00000000000E+00  0.00000000000E+00 -0.23996395635E+04  0.23996395635E+04  0.50400001928E-02 0.  1.
    10030    2    1    2    0    0  0.00000000000E+00  0.00000000000E+00 -0.13639942998E+04  0.34352848271E+04  0.31528877864E+04 0.  0.
        5    1    3    3  502    0 -0.38004150713E+03  0.85030128898E+02 -0.23463958077E+04  0.23784989062E+04  0.46999998093E+01 0.  1.
       -5    1    3    3    0  502  0.38004150713E+03 -0.85030128898E+02  0.98240150796E+03  0.10567859210E+04  0.46999998093E+01 0. -1.
</event>
<event>
 5   0  0.1654257E-06  0.3383825E+04  0.7818609E-02  0.8141888E-01
        1   -1    0    0  501    0  0.00000000000E+00  0.00000000000E+00  0.25665049210E+04  0.25665049210E+04  0.50400001928E-02 0. -1.
       -1   -1    0    0    0  501  0.00000000000E+00  0.00000000000E+00 -0.11153563092E+04  0.11153563093E+04  0.50400001928E-02 0.  1.
    10030    2    1    2    0    0  0.00000000000E+00  0.00000000000E+00  0.14511486117E+04  0.36818612302E+04  0.33838247332E+04 0.  0.
        3    1    3    3  502    0  0.56668457382E+03  0.78798456690E+03 -0.78231187530E+03  0.12466206176E+04  0.10100000352E+00 0.  1.
       -3    1    3    3    0  502 -0.56668457382E+03 -0.78798456690E+03  0.22334604870E+04  0.24352406126E+04  0.10100000352E+00 0. -1.
</event>
<event>
 5   0  0.4189587E-06  0.2883788E+04  0.7818609E-02  0.8277717E-01
        2   -1    0    0  501    0  0.00000000000E+00  0.00000000000E+00  0.15351895106E+04  0.15351895106E+04  0.25500000920E-02 0. -1.
       -2   -1    0    0    0  501  0.00000000000E+00  0.00000000000E+00 -0.13542682553E+04  0.13542682553E+04  0.25500000920E-02 0.  1.
    10030    2    1    2    0    0  0.00000000000E+00  0.00000000000E+00  0.18092125536E+03  0.28894577659E+04  0.28837880783E+04 0.  0.
        1    1    3    3  502    0 -0.53408273723E+03 -0.33545101543E+03 -0.12087330342E+04  0.13633808352E+04  0.50400001928E-02 0.  1.
       -1    1    3    3    0  502  0.53408273723E+03  0.33545101543E+03  0.13896542895E+04  0.15260769307E+04  0.50400001928E-02 0. -1.
</event>
<event>
 5   0  0.1562618E-06  0.3414948E+04  0.7818609E-02  0.8134247E-01
        1   -1    0    0  501    0  0.00000000000E+00  0.00000000000E+00  0.22464288093E+04  0.22464288093E+04  0.50400001928E-02 0. -1.
       -1   -1    0    0    0  501  0.00000000000E+00  0.00000000000E+00 -0.12978232344E+04  0.12978232344E+04  0.50400001928E-02 0.  1.
    10030    2    1    2    0    0  0.00000000000E+00  0.00000000000E+00  0.94860557492E+03  0.35442520437E+04  0.34149480249E+04 0.  0.
        2    1    3    3  502    0  0.10796832175E+04 -0.37860291921E+03  0.17897362948E+04  0.21241967954E+04  0.25500000920E-02 0. -1.
       -2    1    3    3    0  502 -0.10796832175E+04  0.37860291921E+03 -0.84113071989E+03  0.14200552484E+04  0.25500000920E-02 0.  1.
</event>
<event>
 5   0  0.1562618E-06  0.2094012E+04  0.7818609E-02  0.8563886E-01
       -1   -1    0    0    0  501  0.00000000000E+00  0.00000000000E+00  0.51719172594E+03  0.51719172597E+03  0.50400001928E-02 0. -1.
        1   -1    0    0  501    0  0.00000000000E+00  0.00000000000E+00 -0.21195653992E+04  0.21195653992E+04  0.50400001928E-02 0.  1.
    10030    2    1    2    0    0  0.00000000000E+00  0.00000000000E+00 -0.16023736732E+04  0.26367571252E+04  0.20940121175E+04 0.  0.
        2    1    3    3  502    0 -0.51647724580E+03  0.90742750133E+03 -0.89911476706E+03  0.13778899738E+04  0.25500000920E-02 0.  1.
       -2    1    3    3    0  502  0.51647724580E+03 -0.90742750133E+03 -0.70325890619E+03  0.12588671513E+04  0.25500000920E-02 0. -1.
</event>
<event>
 5   0  0.2722449E-06  0.3515688E+04  0.7818609E-02  0.8110082E-01
       -2   -1    0    0    0  501  0.00000000000E+00  0.00000000000E+00  0.11322711801E+04  0.11322711801E+04  0.25500000920E-02 0. -1.
        2   -1    0    0  501    0  0.00000000000E+00  0.00000000000E+00 -0.27290414573E+04  0.27290414573E+04  0.25500000920E-02 0.  1.
    10030    2    1    2    0    0  0.00000000000E+00  0.00000000000E+00 -0.15967702772E+04  0.38613126375E+04  0.35156876946E+04 0.  0.
        2    1    3    3  502    0  0.98600154162E+03 -0.14544078571E+04 -0.74331900649E+03  0.19078847974E+04  0.25500000920E-02 0.  1.
       -2    1    3    3    0  502 -0.98600154162E+03  0.14544078571E+04 -0.85345127071E+03  0.19534278401E+04  0.25500000920E-02 0. -1.
</event>
<event>
 5   0  0.2722449E-06  0.3454320E+04  0.7818609E-02  0.8124702E-01
       -2   -1    0    0    0  501  0.00000000000E+00  0.00000000000E+00  0.20875239839E+04  0.20875239839E+04  0.25500000920E-02 0. -1.
        2   -1    0    0  501    0  0.00000000000E+00  0.00000000000E+00 -0.14290046784E+04  0.14290046784E+04  0.25500000920E-02 0.  1.
    10030    2    1    2    0    0  0.00000000000E+00  0.00000000000E+00  0.65851930554E+03  0.35165286623E+04  0.34543199268E+04 0.  0.
        2    1    3    3  502    0  0.39238515261E+03 -0.37028083548E+02  0.20411331782E+04  0.20788366550E+04  0.25500000920E-02 0. -1.
       -2    1    3    3    0  502 -0.39238515261E+03  0.37028083548E+02 -0.13826138727E+04  0.14376920073E+04  0.25500000920E-02 0.  1.
</event>
<event>
 5   0  0.4344980E-06  0.1706515E+04  0.7818609E-02  0.8757657E-01
       -2   -1    0    0    0  501  0.00000000000E+00  0.00000000000E+00  0.95120252636E+03  0.95120252636E+03  0.25500000920E-02 0.  1.
        2   -1    0    0  501    0  0.00000000000E+00  0.00000000000E+00 -0.76539801939E+03  0.76539801939E+03  0.25500000920E-02 0. -1.
    10030    2    1    2    0    0  0.00000000000E+00  0.00000000000E+00  0.18580450697E+03  0.17166005458E+04  0.17065151974E+04 0.  0.
        3    1    3    3  502    0  0.59609544356E+03  0.24794817691E+03  0.65408860304E+03  0.91904297348E+03  0.10100000352E+00 0.  1.
       -3    1    3    3    0  502 -0.59609544356E+03 -0.24794817691E+03 -0.46828409607E+03  0.79755757228E+03  0.10100000352E+00 0. -1.
</event>
<event>
 5   0  0.4400349E-06  0.3498263E+04  0.7818609E-02  0.8114202E-01
       -2   -1    0    0    0  501  0.00000000000E+00  0.00000000000E+00  0.13315844183E+04  0.13315844183E+04  0.25500000920E-02 0.  1.
        2   -1    0    0  501    0  0.00000000000E+00  0.00000000000E+00 -0.22976090168E+04  0.22976090168E+04  0.25500000920E-02 0. -1.
    10030    2    1    2    0    0  0.00000000000E+00  0.00000000000E+00 -0.96602459854E+03  0.36291934351E+04  0.34982626352E+04 0.  0.
        5    1    3    3  502    0  0.93472236488E+03 -0.10058437160E+04  0.64105871865E+03  0.15153896697E+04  0.46999998093E+01 0.  1.
       -5    1    3    3    0  502 -0.93472236488E+03  0.10058437160E+04 -0.16070833172E+04  0.21138037654E+04  0.46999998093E+01 0. -1.
</event>
<event>
 5   0  0.2722449E-06  0.3423375E+04  0.7818609E-02  0.8132193E-01
       -2   -1    0    0    0  501  0.00000000000E+00  0.00000000000E+00  0.27487745480E+04  0.27487745480E+04  0.25500000920E-02 0.  1.
        2   -1    0    0  501    0  0.00000000000E+00  0.00000000000E+00 -0.10658837438E+04  0.10658837438E+04  0.25500000920E-02 0. -1.
    10030    2    1    2    0    0  0.00000000000E+00  0.00000000000E+00  0.16828908042E+04  0.38146582918E+04  0.34233750049E+04 0.  0.
        2    1    3    3  502    0  0.13173597054E+04 -0.78453629917E+03  0.16892935179E+04  0.22813694107E+04  0.25500000920E-02 0.  1.
       -2    1    3    3    0  502 -0.13173597054E+04  0.78453629917E+03 -0.64027137669E+01  0.15332888811E+04  0.25500000920E-02 0. -1.
</event>
<event>
 5   0  0.4189587E-06  0.3366874E+04  0.7818609E-02  0.8146085E-01
       -2   -1    0    0    0  501  0.00000000000E+00  0.00000000000E+00  0.20131274870E+04  0.20131274870E+04  0.25500000920E-02 0. -1.
        2   -1    0    0  501    0  0.00000000000E+00  0.00000000000E+00 -0.14077402775E+04  0.14077402775E+04  0.25500000920E-02 0.  1.
    10030    2    1    2    0    0  0.00000000000E+00  0.00000000000E+00  0.60538720948E+03  0.34208677645E+04  0.33668743054E+04 0.  0.
        1    1    3    3  502    0 -0.14830325058E+04 -0.67110094366E+03  0.73876011187E+03  0.17876040929E+04  0.50400001928E-02 0. -1.
       -1    1    3    3    0  502  0.14830325058E+04  0.67110094366E+03 -0.13337290239E+03  0.16332636716E+04  0.50400001928E-02 0.  1.
</event>
<event>
 5   0  0.1654257E-06  0.3092187E+04  0.7818609E-02  0.8217885E-01
       -1   -1    0    0    0  501  0.00000000000E+00  0.00000000000E+00  0.24989168136E+04  0.24989168136E+04  0.50400001928E-02 0.  1.
        1   -1    0    0  501    0  0.00000000000E+00  0.00000000000E+00 -0.95657666097E+03  0.95657666098E+03  0.50400001928E-02 0. -1.
    10030    2    1    2    0    0  0.00000000000E+00  0.00000000000E+00  0.15423401526E+04  0.34554934746E+04  0.30921872528E+04 0.  0.
        3    1    3    3  502    0  0.66758777730E+03 -0.91509760153E+03 -0.40476275823E+03  0.12028757049E+04  0.10100000352E+00 0. -1.
       -3    1    3    3    0  502 -0.66758777730E+03  0.91509760153E+03  0.19471029108E+04  0.22526177697E+04  0.10100000352E+00 0.  1.
</event>
<event>
 5   0  0.4189587E-06  0.3482486E+04  0.7818609E-02  0.8117953E-01
       -2   -1    0    0    0  501  0.00000000000E+00  0.00000000000E+00  0.17905862239E+04  0.17905862239E+04  0.25500000920E-02 0. -1.
        2   -1    0    0  501    0  0.00000000000E+00  0.00000000000E+00 -0.16932595096E+04  0.16932595096E+04  0.25500000920E-02 0.  1.
    10030    2    1    2    0    0  0.00000000000E+00  0.00000000000E+00  0.97326714343E+02  0.34838457335E+04  0.34824859807E+04 0.  0.
        1    1    3    3  502    0  0.13199522335E+04 -0.17036695949E+03  0.11718788219E+04  0.17733016588E+04  0.50400001928E-02 0. -1.
       -1    1    3    3    0  502 -0.13199522335E+04  0.17036695949E+03 -0.10745521076E+04  0.17105440747E+04  0.50400001928E-02 0.  1.
</event>
<event>
 5   0  0.1562618E-06  0.3338307E+04  0.7818609E-02  0.8153216E-01
       -1   -1    0    0    0  501  0.00000000000E+00  0.00000000000E+00  0.11153098774E+04  0.11153098774E+04  0.50400001928E-02 0.  1.
        1   -1    0    0  501    0  0.00000000000E+00  0.00000000000E+00 -0.24980257971E+04  0.24980257971E+04  0.50400001928E-02 0. -1.
    10030    2    1    2    0    0  0.00000000000E+00  0.00000000000E+00 -0.13827159197E+04  0.36133356745E+04  0.33383066639E+04 0.  0.
        2    1    3    3  502    0  0.71661574145E+03 -0.69863892218E+03  0.75452406090E+03  0.12533718614E+04  0.25500000920E-02 0.  1.
       -2    1    3    3    0  502 -0.71661574145E+03  0.69863892218E+03 -0.21372399806E+04  0.23599638131E+04  0.25500000920E-02 0. -1.
</event>
<event>
 5   0  0.1550164E-06  0.1754959E+04  0.7818609E-02  0.8730625E-01
        1   -1    0    0  501    0  0.00000000000E+00  0.00000000000E+00  0.53172518440E+03  0.53172518443E+03  0.50400001928E-02 0.  1.
       -1   -1    0    0    0  501  0.00000000000E+00  0.00000000000E+00 -0.14480605020E+04  0.14480605020E+04  0.50400001928E-02 0. -1.
    10030    2    1    2    0    0  0.00000000000E+00  0.00000000000E+00 -0.91633531759E+03  0.19797856864E+04  0.17549589596E+04 0.  0.
        4    1    3    3  502    0 -0.68896051894E+03 -0.28877795795E+02  0.15399994522E+03  0.70655369206E+03  0.12699999809E+01 0.  1.
       -4    1    3    3    0  502  0.68896051894E+03  0.28877795795E+02 -0.10703352628E+04  0.12732319944E+04  0.12699999809E+01 0. -1.
</event>
<event>
 5   0  0.2722449E-06  0.3238881E+04  0.7818609E-02  0.8178624E-01
        2   -1    0    0  501    0  0.00000000000E+00  0.00000000000E+00  0.20133273828E+04  0.20133273828E+04  0.25500000920E-02 0. -1.
       -2   -1    0    0    0  501  0.00000000000E+00  0.00000000000E+00 -0.13026138745E+04  0.13026138745E+04  0.25500000920E-02 0.  1.
    10030    2    1    2    0    0  0.00000000000E+00  0.00000000000E+00  0.71071350830E+03  0.33159412573E+04  0.32388814012E+04 0.  0.
        2    1    3    3  502    0 -0.42953515749E+03 -0.11220070358E+03 -0.12390984001E+04  0.13162272959E+04  0.25500000920E-02 0.  1.
       -2    1    3    3    0  502  0.42953515749E+03  0.11220070358E+03  0.19498119084E+04  0.19997139614E+04  0.25500000920E-02 0. -1.
</event>
<event>
 5   0  0.4173467E-06  0.1701706E+04  0.7818609E-02  0.8760392E-01
       -2   -1    0    0    0  501  0.00000000000E+00  0.00000000000E+00  0.16197597987E+04  0.16197597987E+04  0.25500000920E-02 0.  1.
        2   -1    0    0  501    0  0.00000000000E+00  0.00000000000E+00 -0.44694926068E+03  0.44694926069E+03  0.25500000920E-02 0. -1.
    10030    2    1    2    0    0  0.00000000000E+00  0.00000000000E+00  0.11728105380E+04  0.20667090593E+04  0.17017055497E+04 0.  0.
        4    1    3    3  502    0  0.98915895136E+02 -0.47444000430E+03 -0.26293351226E+03  0.55137402619E+03  0.12699999809E+01 0. -1.
       -4    1    3    3    0  502 -0.98915895136E+02  0.47444000430E+03  0.14357440502E+04  0.15153350331E+04  0.12699999809E+01 0.  1.
</event>
<event>
 5   0  0.2722449E-06  0.3381110E+04  0.7818609E-02  0.8142558E-01
       -2   -1    0    0    0  501  0.00000000000E+00  0.00000000000E+00  0.11086786427E+04  0.11086786427E+04  0.25500000920E-02 0. -1.
        2   -1    0    0  501    0  0.00000000000E+00  0.00000000000E+00 -0.25778221784E+04  0.25778221784E+04  0.25500000920E-02 0.  1.
    10030    2    1    2    0    0  0.00000000000E+00  0.00000000000E+00 -0.14691435357E+04  0.36865008211E+04  0.33811101099E+04 0.  0.
        2    1    3    3  502    0  0.56361755797E+03 -0.14387416462E+04 -0.14823249369E+04  0.21412448470E+04  0.25500000920E-02 0.  1.
       -2    1    3    3    0  502 -0.56361755797E+03  0.14387416462E+04  0.13181401145E+02  0.15452559741E+04  0.25500000920E-02 0. -1.
</event>
<event>
 5   0  0.1401125E-06  0.3542282E+04  0.7818609E-02  0.8103842E-01
       -3   -1    0    0    0  501  0.00000000000E+00  0.00000000000E+00  0.17477546638E+04  0.17477546667E+04  0.10100000352E+00 0. -1.
        3   -1    0    0  501    0  0.00000000000E+00  0.00000000000E+00 -0.17948406294E+04  0.17948406323E+04  0.10100000352E+00 0.  1.
    10030    2    1    2    0    0  0.00000000000E+00  0.00000000000E+00 -0.47085965658E+02  0.35425952990E+04  0.35422823665E+04 0.  0.
        1    1    3    3  502    0  0.71660978085E+03 -0.20242316975E+03  0.15835950538E+04  0.17499365738E+04  0.50400001928E-02 0. -1.
       -1    1    3    3    0  502 -0.71660978085E+03  0.20242316975E+03 -0.16306810195E+04  0.17926587252E+04  0.50400001928E-02 0.  1.
</event>
<event>
 5   0  0.1571391E-06  0.3366843E+04  0.7818609E-02  0.8146092E-01
       -1   -1    0    0    0  501  0.00000000000E+00  0.00000000000E+00  0.24734358390E+04  0.24734358390E+04  0.50400001928E-02 0.  1.
        1   -1    0    0  501    0  0.00000000000E+00  0.00000000000E+00 -0.11457374330E+04  0.11457374330E+04  0.50400001928E-02 0. -1.
    10030    2    1    2    0    0  0.00000000000E+00  0.00000000000E+00  0.13276984060E+04  0.36191732720E+04  0.33668430488E+04 0.  0.
        1    1    3    3  502    0  0.24516621958E+03  0.16339342519E+04  0.31708897545E+03  0.16823771970E+04  0.50400001928E-02 0. -1.
       -1    1    3    3    0  502 -0.24516621958E+03 -0.16339342519E+04  0.10106094306E+04  0.19367960750E+04  0.50400001928E-02 0.  1.
</event>
<event>
 5   0  0.1401125E-06  0.1922350E+04  0.7818609E-02  0.8643811E-01
       -3   -1    0    0    0  501  0.00000000000E+00  0.00000000000E+00  0.10366180815E+04  0.10366180864E+04  0.10100000352E+00 0.  1.
        3   -1    0    0  501    0  0.00000000000E+00  0.00000000000E+00 -0.89122212998E+03  0.89122213570E+03  0.10100000352E+00 0. -1.
    10030    2    1    2    0    0  0.00000000000E+00  0.00000000000E+00  0.14539595154E+03  0.19278402221E+04  0.19223495882E+04 0.  0.
        3    1    3    3  502    0 -0.69845145490E+03 -0.46899237216E+03 -0.39346158106E+03  0.92876278239E+03  0.10100000352E+00 0. -1.
       -3    1    3    3    0  502  0.69845145490E+03  0.46899237216E+03  0.53885753260E+03  0.99907743976E+03  0.10100000352E+00 0.  1.
</event>
<event>
 5   0  0.4344980E-06  0.2886883E+04  0.7818609E-02  0.8276791E-01
       -2   -1    0    0    0  501  0.00000000000E+00  0.00000000000E+00  0.11844919626E+04  0.11844919626E+04  0.25500000920E-02 0. -1.
        2   -1    0    0  501    0  0.00000000000E+00  0.00000000000E+00 -0.17590020961E+04  0.17590020961E+04  0.25500000920E-02 0.  1.
    10030    2    1    2    0    0  0.00000000000E+00  0.00000000000E+00 -0.57451013352E+03  0.29434940587E+04  0.28868833333E+04 0.  0.
        3    1    3    3  502    0  0.13187057495E+04 -0.46329553621E+03  0.80223656364E+02  0.14000226616E+04  0.10100000352E+00 0. -1.
       -3    1    3    3    0  502 -0.13187057495E+04  0.46329553621E+03 -0.65473378988E+03  0.15434713971E+04  0.10100000352E+00 0.  1.
</event>
<event>
 5   0  0.4189587E-06  0.3525652E+04  0.7818609E-02  0.8107738E-01
        2   -1    0    0  501    0  0.00000000000E+00  0.00000000000E+00  0.17364004832E+04  0.17364004832E+04  0.25500000920E-02 0. -1.
       -2   -1    0    0    0  501  0.00000000000E+00  0.00000000000E+00 -0.17896531724E+04  0.17896531724E+04  0.25500000920E-02 0.  1.
    10030    2    1    2    0    0  0.00000000000E+00  0.00000000000E+00 -0.53252689207E+02  0.35260536557E+04  0.35256515049E+04 0.  0.
        1    1    3    3  502    0 -0.31018041102E+03 -0.13052187723E+04 -0.11703243178E+04  0.17802996769E+04  0.50400001928E-02 0. -1.
       -1    1    3    3    0  502  0.31018041102E+03  0.13052187723E+04  0.11170716286E+04  0.17457539787E+04  0.50400001928E-02 0.  1.
</event>
<event>
 5   0  0.4400349E-06  0.3309264E+04  0.7818609E-02  0.8160542E-01
       -2   -1    0    0    0  501  0.00000000000E+00  0.00000000000E+00  0.19722563323E+04  0.19722563323E+04  0.25500000920E-02 0.  1.
        2   -1    0    0  501    0  0.00000000000E+00  0.00000000000E+00 -0.13881599435E+04  0.13881599435E+04  0.25500000920E-02 0. -1.
    10030    2    1    2    0    0  0.00000000000E+00  0.00000000000E+00  0.58409638880E+03  0.33604162758E+04  0.33092641108E+04 0.  0.
        5    1    3    3  502    0 -0.10759294763E+03  0.39390995185E+03 -0.13361842058E+04  0.13971941935E+04  0.46999998093E+01 0. -1.
       -5    1    3    3    0  502  0.10759294763E+03 -0.39390995185E+03  0.19202805946E+04  0.19632220823E+04  0.46999998093E+01 0.  1.
</event>
<event>
 5   0  0.1571391E-06  0.3333870E+04  0.7818609E-02  0.8154330E-01
        1   -1    0    0  501    0  0.00000000000E+00  0.00000000000E+00  0.23317986863E+04  0.23317986863E+04  0.50400001928E-02 0.  1.
       -1   -1    0    0    0  501  0.00000000000E+00  0.00000000000E+00 -0.11916433173E+04  0.11916433173E+04  0.50400001928E-02 0. -1.
    10030    2    1    2    0    0  0.00000000000E+00  0.00000000000E+00  0.11401553690E+04  0.35234420036E+04  0.33338700165E+04 0.  0.
        1    1    3    3  502    0 -0.12694589766E+04 -0.34828411686E+03 -0.51073890549E+03  0.14119780979E+04  0.50400001928E-02 0. -1.
       -1    1    3    3    0  502  0.12694589766E+04  0.34828411686E+03  0.16508942745E+04  0.21114639057E+04  0.50400001928E-02 0.  1.
</event>
<event>
 5   0  0.4400349E-06  0.2941694E+04  0.7818609E-02  0.8260579E-01
       -2   -1    0    0    0  501  0.00000000000E+00  0.00000000000E+00  0.27239609763E+04  0.27239609763E+04  0.25500000920E-02 0.  1.
        2   -1    0    0  501    0  0.00000000000E+00  0.00000000000E+00 -0.79420761326E+03  0.79420761327E+03  0.25500000920E-02 0. -1.
    10030    2    1    2    0    0  0.00000000000E+00  0.00000000000E+00  0.19297533631E+04  0.35181685896E+04  0.29416937608E+04 0.  0.
        5    1    3    3  502    0 -0.31739867016E+03 -0.65362824627E+03  0.24943106801E+04  0.25979953155E+04  0.46999998093E+01 0.  1.
       -5    1    3    3    0  502  0.31739867016E+03  0.65362824627E+03 -0.56455731708E+03  0.92017327412E+03  0.46999998093E+01 0. -1.
</event>
<event>
 5   0  0.4344980E-06  0.3457465E+04  0.7818609E-02  0.8123945E-01
       -2   -1    0    0    0  501  0.00000000000E+00  0.00000000000E+00  0.19133979549E+04  0.19133979549E+04  0.25500000920E-02 0. -1.
        2   -1    0    0  501    0  0.00000000000E+00  0.00000000000E+00 -0.15618896477E+04  0.15618896477E+04  0.25500000920E-02 0.  1.
    10030    2    1    2    0    0  0.00000000000E+00  0.00000000000E+00  0.35150830727E+03  0.34752876026E+04  0.34574652320E+04 0.  0.
        3    1    3    3  502    0  0.70011081507E+03  0.30469036534E+03 -0.13832162620E+04  0.15799615849E+04  0.10100000352E+00 0.  1.
       -3    1    3    3    0  502 -0.70011081507E+03 -0.30469036534E+03  0.17347245692E+04  0.18953260177E+04  0.10100000352E+00 0. -1.
</event>
<event>
 5   0  0.4400349E-06  0.3468651E+04  0.7818609E-02  0.8121260E-01
        2   -1    0    0  501    0  0.00000000000E+00  0.00000000000E+00  0.21997607841E+04  0.21997607841E+04  0.25500000920E-02 0. -1.
       -2   -1    0    0    0  501  0.00000000000E+00  0.00000000000E+00 -0.13673688346E+04  0.13673688346E+04  0.25500000920E-02 0.  1.
    10030    2    1    2    0    0  0.00000000000E+00  0.00000000000E+00  0.83239194945E+03  0.35671296187E+04  0.34686506539E+04 0.  0.
        5    1    3    3  502    0 -0.47109828280E+03  0.14006879373E+04 -0.51732149770E+03  0.15657279175E+04  0.46999998093E+01 0.  1.
       -5    1    3    3    0  502  0.47109828280E+03 -0.14006879373E+04  0.13497134472E+04  0.20014017011E+04  0.46999998093E+01 0. -1.
</event>
<event>
 5   0  0.2722449E-06  0.1935131E+04  0.7818609E-02  0.8637564E-01
        2   -1    0    0  501    0  0.00000000000E+00  0.00000000000E+00  0.24013782428E+04  0.24013782428E+04  0.25500000920E-02 0. -1.
       -2   -1    0    0    0  501  0.00000000000E+00  0.00000000000E+00 -0.38985239023E+03  0.38985239024E+03  0.25500000920E-02 0.  1.
    10030    2    1    2    0    0  0.00000000000E+00  0.00000000000E+00  0.20115258526E+04  0.27912306331E+04  0.19351310527E+04 0.  0.
        2    1    3    3  502    0  0.80470059022E+03  0.41683431247E+03  0.14946683724E+04  0.17479494923E+04  0.25500000920E-02 0. -1.
       -2    1    3    3    0  502 -0.80470059022E+03 -0.41683431247E+03  0.51685748017E+03  0.10432811408E+04  0.25500000920E-02 0.  1.
</event>
<event>
 5   0  0.1654257E-06  0.1680792E+04  0.7818609E-02  0.8772396E-01
        1   -1    0    0  501    0  0.00000000000E+00  0.00000000000E+00  0.12433546087E+04  0.12433546087E+04  0.50400001928E-02 0. -1.
       -1   -1    0    0    0  501  0.00000000000E+00  0.00000000000E+00 -0.56803240907E+03  0.56803240910E+03  0.50400001928E-02 0.  1.
    10030    2    1    2    0    0  0.00000000000E+00  0.00000000000E+00  0.67532219963E+03  0.18113870178E+04  0.16807923295E+04 0.  0.
        3    1    3    3  502    0  0.15503339609E+03  0.64908142481E+03 -0.21283458494E+03  0.70045743674E+03  0.10100000352E+00 0.  1.
       -3    1    3    3    0  502 -0.15503339609E+03 -0.64908142481E+03  0.88815678457E+03  0.11109295811E+04  0.10100000352E+00 0. -1.
</event>
<event>
 5   0  0.1550164E-06  0.2235921E+04  0.7818609E-02  0.8503624E-01
        1   -1    0    0  501    0  0.00000000000E+00  0.00000000000E+00  0.16144713641E+04  0.16144713641E+04  0.50400001928E-02 0.  1.
       -1   -1    0    0    0  501  0.00000000000E+00  0.00000000000E+00 -0.77414574310E+03  0.77414574311E+03  0.50400001928E-02 0. -1.
    10030    2    1    2    0    0  0.00000000000E+00  0.00000000000E+00  0.84032562099E+03  0.23886171072E+04  0.22359214064E+04 0.  0.
        4    1    3    3  502    0 -0.55365674700E+03 -0.15051458227E+03  0.14451911881E+04  0.15549178808E+04  0.12699999809E+01 0.  1.
       -4    1    3    3    0  502  0.55365674700E+03  0.15051458227E+03 -0.60486556710E+03  0.83369922642E+03  0.12699999809E+01 0. -1.
</event>
<event>
 5   0  0.2722449E-06  0.3470413E+04  0.7818609E-02  0.8120838E-01
       -2   -1    0    0    0  501  0.00000000000E+00  0.00000000000E+00  0.25766426773E+04  0.25766426773E+04  0.25500000920E-02 0. -1.
        2   -1    0    0  501    0  0.00000000000E+00  0.00000000000E+00 -0.11685521928E+04  0.11685521928E+04  0.25500000920E-02 0.  1.
    10030    2    1    2    0    0  0.00000000000E+00  0.00000000000E+00  0.14080904846E+04  0.37451948701E+04  0.34704129153E+04 0.  0.
        2    1    3    3  502    0  0.16972927500E+04 -0.29547389684E+03  0.48069454084E+03  0.17886237012E+04  0.25500000920E-02 0.  1.
       -2    1    3    3    0  502 -0.16972927500E+04  0.29547389684E+03  0.92739594372E+03  0.19565711690E+04  0.25500000920E-02 0. -1.
</event>
<event>
 5   0  0.4344980E-06  0.3416242E+04  0.7818609E-02  0.8133932E-01
        2   -1    0    0  501    0  0.00000000000E+00  0.00000000000E+00  0.19111541213E+04  0.19111541213E+04  0.25500000920E-02 0. -1.
       -2   -1    0    0    0  501  0.00000000000E+00  0.00000000000E+00 -0.15266568508E+04  0.15266568509E+04  0.25500000920E-02 0.  1.
    10030    2    1    2    0    0  0.00000000000E+00  0.00000000000E+00  0.38449727048E+03  0.34378109722E+04  0.34162415209E+04 0.  0.
        3    1    3    3  502    0 -0.29660116716E+02  0.22213140676E+03 -0.15117988375E+04  0.15283186250E+04  0.10100000352E+00 0.  1.
       -3    1    3    3    0  502  0.29660116716E+02 -0.22213140676E+03  0.18962961080E+04  0.19094923471E+04  0.10100000352E+00 0. -1.
</event>
<event>
 5   0  0.4400349E-06  0.3290719E+04  0.7818609E-02  0.8165261E-01
        2   -1    0    0  501    0  0.00000000000E+00  0.00000000000E+00  0.16659607893E+04  0.16659607893E+04  0.25500000920E-02 0. -1.
       -2   -1    0    0    0  501  0.00000000000E+00  0.00000000000E+00 -0.16250128711E+04  0.16250128711E+04  0.25500000920E-02 0.  1.
    10030    2    1    2    0    0  0.00000000000E+00  0.00000000000E+00  0.40947918180E+02  0.32909736604E+04  0.32907189034E+04 0.  0.
        5    1    3    3  502    0 -0.86592645799E+02  0.21235911927E+03  0.16498916432E+04  0.16657608490E+04  0.46999998093E+01 0. -1.
       -5    1    3    3    0  502  0.86592645799E+02 -0.21235911927E+03 -0.16089437250E+04  0.16252128114E+04  0.46999998093E+01 0.  1.
</event>
<event>
 5   0  0.1562618E-06  0.3284448E+04  0.7818609E-02  0.8166864E-01
       -1   -1    0    0    0  501  0.00000000000E+00  0.00000000000E+00  0.10386029887E+04  0.10386029887E+04  0.50400001928E-02 0.  1.
        1   -1    0    0  501    0  0.00000000000E+00  0.00000000000E+00 -0.25966615842E+04  0.25966615842E+04  0.50400001928E-02 0. -1.
    10030    2    1    2    0    0  0.00000000000E+00  0.00000000000E+00 -0.15580585955E+04  0.36352645729E+04  0.32844484968E+04 0.  0.
        2    1    3    3  502    0  0.83332779654E+03  0.19034742679E+03 -0.23310269927E+04  0.24828117528E+04  0.25500000920E-02 0. -1.
       -2    1    3    3    0  502 -0.83332779654E+03 -0.19034742679E+03  0.77296839721E+03  0.11524528201E+04  0.25500000920E-02 0.  1.
</event>
<event>
 5   0  0.1550164E-06  0.3358989E+04  0.7818609E-02  0.8148046E-01
       -1   -1    0    0    0  501  0.00000000000E+00  0.00000000000E+00  0.10532277397E+04  0.10532277397E+04  0.50400001928E-02 0.  1.
        1   -1    0    0  501    0  0.00000000000E+00  0.00000000000E+00 -0.26781502944E+04  0.26781502944E+04  0.50400001928E-02 0. -1.
    10030    2    1    2    0    0  0.00000000000E+00  0.00000000000E+00 -0.16249225547E+04  0.37313780341E+04  0.33589892415E+04 0.  0.
        4    1    3    3  502    0 -0.47705217672E+03  0.98362719999E+03 -0.22288008589E+04  0.24824697640E+04  0.12699999809E+01 0. -1.
       -4    1    3    3    0  502  0.47705217672E+03 -0.98362719999E+03  0.60387830423E+03  0.12489082701E+04  0.12699999809E+01 0.  1.
</event>
<event>
 5   0  0.2101998E-06  0.3388731E+04  0.7818609E-02  0.8140678E-01
        1   -1    0    0  501    0  0.00000000000E+00  0.00000000000E+00  0.21091563063E+04  0.21091563063E+04  0.50400001928E-02 0. -1.
       -1   -1    0    0    0  501  0.00000000000E+00  0.00000000000E+00 -0.13611484751E+04  0.13611484751E+04  0.50400001928E-02 0.  1.
    10030    2    1    2    0    0  0.00000000000E+00  0.00000000000E+00  0.74800783126E+03  0.34703047814E+04  0.33887312611E+04 0.  0.
        5    1    3    3  502    0  0.61022603131E+03  0.14923995662E+04 -0.15932086825E+03  0.16201967484E+04  0.46999998093E+01 0.  1.
       -5    1    3    3    0  502 -0.61022603131E+03 -0.14923995662E+04  0.90732869951E+03  0.18501080329E+04  0.46999998093E+01 0. -1.
</event>
<event>
 5   0  0.1571391E-06  0.3260271E+04  0.7818609E-02  0.8173079E-01
        1   -1    0    0  501    0  0.00000000000E+00  0.00000000000E+00  0.26301571048E+04  0.26301571048E+04  0.50400001928E-02 0.  1.
       -1   -1    0    0    0  501  0.00000000000E+00  0.00000000000E+00 -0.10103355302E+04  0.10103355302E+04  0.50400001928E-02 0. -1.
    10030    2    1    2    0    0  0.00000000000E+00  0.00000000000E+00  0.16198215746E+04  0.36404926351E+04  0.32602706471E+04 0.  0.
        1    1    3    3  502    0 -0.11803519249E+03 -0.98359073547E+03 -0.63565574637E+03  0.11770476921E+04  0.50400001928E-02 0. -1.
       -1    1    3    3    0  502  0.11803519249E+03  0.98359073547E+03  0.22554773210E+04  0.24634449430E+04  0.50400001928E-02 0.  1.
</event>
<event>
 5   0  0.4173467E-06  0.2229527E+04  0.7818609E-02  0.8506238E-01
       -2   -1    0    0    0  501  0.00000000000E+00  0.00000000000E+00  0.10427049635E+04  0.10427049635E+04  0.25500000920E-02 0. -1.
        2   -1    0    0  501    0  0.00000000000E+00  0.00000000000E+00 -0.11918019420E+04  0.11918019420E+04  0.25500000920E-02 0.  1.
    10030    2    1    2    0    0  0.00000000000E+00  0.00000000000E+00 -0.14909697852E+03  0.22345069055E+04  0.22295271251E+04 0.  0.
        4    1    3    3  502    0 -0.87173619057E+03  0.65858498080E+03 -0.29648840875E+03  0.11320623447E+04  0.12699999809E+01 0.  1.
       -4    1    3    3    0  502  0.87173619057E+03 -0.65858498080E+03  0.14739143023E+03  0.11024445607E+04  0.12699999809E+01 0. -1.
</event>
<event>
 5   0  0.1654257E-06  0.1851607E+04  0.7818609E-02  0.8679327E-01
       -1   -1    0    0    0  501  0.00000000000E+00  0.00000000000E+00  0.18682972495E+04  0.18682972495E+04  0.50400001928E-02 0. -1.
        1   -1    0    0  501    0  0.00000000000E+00  0.00000000000E+00 -0.45876625836E+03  0.45876625839E+03  0.50400001928E-02 0.  1.
    10030    2    1    2    0    0  0.00000000000E+00  0.00000000000E+00  0.14095309911E+04  0.23270635079E+04  0.18516065875E+04 0.  0.
        3    1    3    3  502    0  0.55790379602E+03 -0.26737852140E+03  0.15703615985E+04  0.16878339609E+04  0.10100000352E+00 0. -1.
       -3    1    3    3    0  502 -0.55790379602E+03  0.26737852140E+03 -0.16083060735E+03  0.63922954701E+03  0.10100000352E+00 0.  1.
</event>
<event>
 5   0  0.1571391E-06  0.3399707E+04  0.7818609E-02  0.8137978E-01
        1   -1    0    0  501    0  0.00000000000E+00  0.00000000000E+00  0.13281276709E+04  0.13281276709E+04  0.50400001928E-02 0. -1.
       -1   -1    0    0    0  501  0.00000000000E+00  0.00000000000E+00 -0.21756211852E+04  0.21756211852E+04  0.50400001928E-02 0.  1.
    10030    2    1    2    0    0  0.00000000000E+00  0.00000000000E+00 -0.84749351427E+03  0.35037488561E+04  0.33997074565E+04 0.  0.
        1    1    3    3  502    0  0.15328852881E+04  0.17356523725E+03 -0.11594850960E+04  0.19298362330E+04  0.50400001928E-02 0.  1.
       -1    1    3    3    0  502 -0.15328852881E+04 -0.17356523725E+03  0.31199158176E+03  0.15739126231E+04  0.50400001928E-02 0. -1.
</event>
<event>
 5   0  0.1571391E-06  0.3381412E+04  0.7818609E-02  0.8142484E-01
        1   -1    0    0  501    0  0.00000000000E+00  0.00000000000E+00  0.14627724998E+04  0.14627724998E+04  0.50400001928E-02 0. -1.
       -1   -1    0    0    0  501  0.00000000000E+00  0.00000000000E+00 -0.19541562642E+04  0.19541562642E+04  0.50400001928E-02 0.  1.
    10030    2    1    2    0    0  0.00000000000E+00  0.00000000000E+00 -0.49138376434E+03  0.34169287640E+04  0.33814115654E+04 0.  0.
        1    1    3    3  502    0  0.12500034696E+03 -0.42431787950E+03  0.14032616311E+04  0.14713306749E+04  0.50400001928E-02 0. -1.
       -1    1    3    3    0  502 -0.12500034696E+03  0.42431787950E+03 -0.18946453955E+04  0.19455980891E+04  0.50400001928E-02 0.  1.
</event>
<event>
 5   0  0.1562618E-06  0.2208155E+04  0.7818609E-02  0.8515041E-01
       -1   -1    0    0    0  501  0.00000000000E+00  0.00000000000E+00  0.10735314097E+04  0.10735314097E+04  0.50400001928E-02 0.  1.
        1   -1    0    0  501    0  0.00000000000E+00  0.00000000000E+00 -0.11354927788E+04  0.11354927788E+04  0.50400001928E-02 0. -1.
    10030    2    1    2    0    0  0.00000000000E+00  0.00000000000E+00 -0.61961369163E+02  0.22090241885E+04  0.22081550340E+04 0.  0.
        2    1    3    3  502    0 -0.31922446833E+03 -0.89556344883E+03  0.53053251552E+03  0.10887620962E+04  0.25500000920E-02 0.  1.
       -2    1    3    3    0  502  0.31922446833E+03  0.89556344883E+03 -0.59249388469E+03  0.11202620923E+04  0.25500000920E-02 0. -1.
</event>
<event>
 5   0  0.1654257E-06  0.3355612E+04  0.7818609E-02  0.8148887E-01
       -1   -1    0    0    0  501  0.00000000000E+00  0.00000000000E+00  0.16519261712E+04  0.16519261712E+04  0.50400001928E-02 0.  1.
        1   -1    0    0  501    0  0.00000000000E+00  0.00000000000E+00 -0.17040911876E+04  0.17040911876E+04  0.50400001928E-02 0. -1.
    10030    2    1    2    0    0  0.00000000000E+00  0.00000000000E+00 -0.52165016403E+02  0.33560173588E+04  0.33556119150E+04 0.  0.
        3    1    3    3  502    0  0.55844831107E+03 -0.15687004467E+04  0.17972674127E+03  0.16748096367E+04  0.10100000352E+00 0.  1.
       -3    1    3    3    0  502 -0.55844831107E+03  0.15687004467E+04 -0.23189175767E+03  0.16812077221E+04  0.10100000352E+00 0. -1.
</event>
<event>
 5   0  0.4173467E-06  0.2826677E+04  0.7818609E-02  0.8295034E-01
        2   -1    0    0  501    0  0.00000000000E+00  0.00000000000E+00  0.19486980454E+04  0.19486980454E+04  0.25500000920E-02 0. -1.
       -2   -1    0    0    0  501  0.00000000000E+00  0.00000000000E+00 -0.10250568539E+04  0.10250568539E+04  0.25500000920E-02 0.  1.
    10030    2    1    2    0    0  0.00000000000E+00  0.00000000000E+00  0.92364119147E+03  0.29737548993E+04  0.28266774047E+04 0.  0.
        4    1    3    3  502    0 -0.19300962089E+03  0.94036761543E+03  0.15530879560E+04  0.18258224935E+04  0.12699999809E+01 0. -1.
       -4    1    3    3    0  502  0.19300962089E+03 -0.94036761543E+03 -0.62944676453E+03  0.11479324058E+04  0.12699999809E+01 0.  1.
</event>
<event>
 5   0  0.4344980E-06  0.2529064E+04  0.7818609E-02  0.8392704E-01
        2   -1    0    0  501    0  0.00000000000E+00  0.00000000000E+00  0.17079587162E+04  0.17079587162E+04  0.25500000920E-02 0.  1.
       -2   -1    0    0    0  501  0.00000000000E+00  0.00000000000E+00 -0.93622905957E+03  0.93622905957E+03  0.25500000920E-02 0. -1.
    10030    2    1    2    0    0  0.00000000000E+00  0.00000000000E+00  0.77172965665E+03  0.26441877758E+04  0.25290635284E+04 0.  0.
        3    1    3    3  502    0  0.69618798638E+03  0.45447974595E+03 -0.61029788012E+03  0.10313549653E+04  0.10100000352E+00 0. -1.
       -3    1    3    3    0  502 -0.69618798638E+03 -0.45447974595E+03  0.13820275368E+04  0.16128328104E+04  0.10100000352E+00 0.  1.
</event>
<event>
 5   0  0.1571391E-06  0.3073770E+04  0.7818609E-02  0.8222974E-01
       -1   -1    0    0    0  501  0.00000000000E+00  0.00000000000E+00  0.15244391669E+04  0.15244391669E+04  0.50400001928E-02 0.  1.
        1   -1    0    0  501    0  0.00000000000E+00  0.00000000000E+00 -0.15494320158E+04  0.15494320158E+04  0.50400001928E-02 0. -1.
    10030    2    1    2    0    0  0.00000000000E+00  0.00000000000E+00 -0.24992848903E+02  0.30738711828E+04  0.30737695759E+04 0.  0.
        1    1    3    3  502    0 -0.31794957856E+03 -0.15035622319E+04  0.24550442664E+01  0.15368140249E+04  0.50400001928E-02 0.  1.
       -1    1    3    3    0  502  0.31794957856E+03  0.15035622319E+04 -0.27447893169E+02  0.15370571579E+04  0.50400001928E-02 0. -1.
</event>
<event>
 5   0  0.4400349E-06  0.3376521E+04  0.7818609E-02  0.8143693E-01
       -2   -1    0    0    0  501  0.00000000000E+00  0.00000000000E+00  0.16267278504E+04  0.16267278504E+04  0.25500000920E-02 0. -1.
        2   -1    0    0  501    0  0.00000000000E+00  0.00000000000E+00 -0.17521203506E+04  0.17521203506E+04  0.25500000920E-02 0.  1.
    10030    2    1    2    0    0  0.00000000000E+00  0.00000000000E+00 -0.12539250016E+03  0.33788482011E+04  0.33765206777E+04 0.  0.
        5    1    3    3  502    0  0.14693464474E+04 -0.81765682746E+03 -0.21332978459E+03  0.16950142645E+04  0.46999998093E+01 0.  1.
       -5    1    3    3    0  502 -0.14693464474E+04  0.81765682746E+03  0.87937284429E+02  0.16838339365E+04  0.46999998093E+01 0. -1.
</event>
<event>
 5   0  0.1562618E-06  0.3241341E+04  0.7818609E-02  0.8177984E-01
       -1   -1    0    0    0  501  0.00000000000E+00  0.00000000000E+00  0.14683190980E+04  0.14683190980E+04  0.50400001928E-02 0.  1.
        1   -1    0    0  501    0  0.00000000000E+00  0.00000000000E+00 -0.17888292548E+04  0.17888292548E+04  0.50400001928E-02 0. -1.
    10030    2    1    2    0    0  0.00000000000E+00  0.00000000000E+00 -0.32051015676E+03  0.32571483528E+04  0.32413405609E+04 0.  0.
        2    1    3    3  502    0  0.46116508578E+03  0.15533249531E+04 -0.19328652653E+03  0.16318245395E+04  0.25500000920E-02 0.  1.
       -2    1    3    3    0  502 -0.46116508578E+03 -0.15533249531E+04 -0.12722363022E+03  0.16253238134E+04  0.25500000920E-02 0. -1.
</event>
<event>
 5   0  0.1562618E-06  0.3378035E+04  0.7818609E-02  0.8143318E-01
        1   -1    0    0  501    0  0.00000000000E+00  0.00000000000E+00  0.13470670326E+04  0.13470670326E+04  0.50400001928E-02 0.  1.
       -1   -1    0    0    0  501  0.00000000000E+00  0.00000000000E+00 -0.21177720604E+04  0.21177720604E+04  0.50400001928E-02 0. -1.
    10030    2    1    2    0    0  0.00000000000E+00  0.00000000000E+00 -0.77070502779E+03  0.34648390930E+04  0.33780354794E+04 0.  0.
        2    1    3    3  502    0 -0.50959070086E+03  0.12899205683E+04 -0.13740745317E+04  0.19523469399E+04  0.25500000920E-02 0. -1.
       -2    1    3    3    0  502  0.50959070086E+03 -0.12899205683E+04  0.60336950387E+03  0.15124921531E+04  0.25500000920E-02 0.  1.
</event>
<event>
 5   0  0.1571391E-06  0.3107069E+04  0.7818609E-02  0.8213801E-01
       -1   -1    0    0    0  501  0.00000000000E+00  0.00000000000E+00  0.16824534392E+04  0.16824534392E+04  0.50400001928E-02 0.  1.
        1   -1    0    0  501    0  0.00000000000E+00  0.00000000000E+00 -0.14344940883E+04  0.14344940883E+04  0.50400001928E-02 0. -1.
    10030    2    1    2    0    0  0.00000000000E+00  0.00000000000E+00  0.24795935088E+03  0.31169475275E+04  0.31070690449E+04 0.  0.
        1    1    3    3  502    0  0.48459248398E+03 -0.14482740765E+04  0.40973938971E+03  0.15812065152E+04  0.50400001928E-02 0.  1.
       -1    1    3    3    0  502 -0.48459248398E+03  0.14482740765E+04 -0.16178003883E+03  0.15357410124E+04  0.50400001928E-02 0. -1.
</event>
<event>
 5   0  0.1654257E-06  0.3304310E+04  0.7818609E-02  0.8161799E-01
       -1   -1    0    0    0  501  0.00000000000E+00  0.00000000000E+00  0.12244499335E+04  0.12244499335E+04  0.50400001928E-02 0.  1.
        1   -1    0    0  501    0  0.00000000000E+00  0.00000000000E+00 -0.22292595860E+04  0.22292595860E+04  0.50400001928E-02 0. -1.
    10030    2    1    2    0    0  0.00000000000E+00  0.00000000000E+00 -0.10048096525E+04  0.34537095195E+04  0.33043103679E+04 0.  0.
        3    1    3    3  502    0  0.47234850585E+03 -0.10763382631E+04  0.71112331549E+03  0.13737953077E+04  0.10100000352E+00 0.  1.
       -3    1    3    3    0  502 -0.47234850585E+03  0.10763382631E+04 -0.17159329679E+04  0.20799142117E+04  0.10100000352E+00 0. -1.
</event>
<event>
 5   0  0.4344980E-06  0.2257255E+04  0.7818609E-02  0.8494968E-01
        2   -1    0    0  501    0  0.00000000000E+00  0.00000000000E+00  0.11338521057E+04  0.11338521057E+04  0.25500000920E-02 0. -1.
       -2   -1    0    0    0  501  0.00000000000E+00  0.00000000000E+00 -0.11234270864E+04  0.11234270864E+04  0.25500000920E-02 0.  1.
    10030    2    1    2    0    0  0.00000000000E+00  0.00000000000E+00  0.10425019218E+02  0.22572791921E+04  0.22572551185E+04 0.  0.
        3    1    3    3  502    0 -0.62021138448E+03  0.74607834138E+03 -0.57142619597E+03  0.11259764476E+04  0.10100000352E+00 0.  1.
       -3    1    3    3    0  502  0.62021138448E+03 -0.74607834138E+03  0.58185121519E+03  0.11313027445E+04  0.10100000352E+00 0. -1.
</event>
<event>
 5   0  0.2722449E-06  0.2224311E+04  0.7818609E-02  0.8508377E-01
        2   -1    0    0  501    0  0.00000000000E+00  0.00000000000E+00  0.15238103471E+04  0.15238103471E+04  0.25500000920E-02 0. -1.
       -2   -1    0    0    0  501  0.00000000000E+00  0.00000000000E+00 -0.81170859897E+03  0.81170859898E+03  0.25500000920E-02 0.  1.
    10030    2    1    2    0    0  0.00000000000E+00  0.00000000000E+00  0.71210174812E+03  0.23355189461E+04  0.22243110951E+04 0.  0.
        2    1    3    3  502    0 -0.52197064939E+03 -0.89304057187E+03  0.78502957744E+03  0.12985554510E+04  0.25500000920E-02 0. -1.
       -2    1    3    3    0  502  0.52197064939E+03  0.89304057187E+03 -0.72927829324E+02  0.10369634951E+04  0.25500000920E-02 0.  1.
</event>
<event>
 5   0  0.2101998E-06  0.3444849E+04  0.7818609E-02  0.8126986E-01
        1   -1    0    0  501    0  0.00000000000E+00  0.00000000000E+00  0.20905148586E+04  0.20905148586E+04  0.50400001928E-02 0.  1.
       -1   -1    0    0    0  501  0.00000000000E+00  0.00000000000E+00 -0.14191464616E+04  0.14191464616E+04  0.50400001928E-02 0. -1.
    10030    2    1    2    0    0  0.00000000000E+00  0.00000000000E+00  0.67136839702E+03  0.35096613201E+04  0.34448493520E+04 0.  0.
        5    1    3    3  502    0  0.75883834371E+03 -0.10185500887E+04 -0.84958020715E+03  0.15280996477E+04  0.46999998093E+01 0. -1.
       -5    1    3    3    0  502 -0.75883834371E+03  0.10185500887E+04  0.15209486042E+04  0.19815616724E+04  0.46999998093E+01 0.  1.
</event>
<event>
 5   0  0.2101998E-06  0.3330039E+04  0.7818609E-02  0.8155294E-01
        1   -1    0    0  501    0  0.00000000000E+00  0.00000000000E+00  0.25287541318E+04  0.25287541319E+04  0.50400001928E-02 0.  1.
       -1   -1    0    0    0  501  0.00000000000E+00  0.00000000000E+00 -0.10963064055E+04  0.10963064055E+04  0.50400001928E-02 0. -1.
    10030    2    1    2    0    0  0.00000000000E+00  0.00000000000E+00  0.14324477264E+04  0.36250605373E+04  0.33300386500E+04 0.  0.
        5    1    3    3  502    0 -0.54873877648E+03 -0.51429436611E+03 -0.90086222926E+03  0.11735364442E+04  0.46999998093E+01 0. -1.
       -5    1    3    3    0  502  0.54873877648E+03  0.51429436611E+03  0.23333099557E+04  0.24515240931E+04  0.46999998093E+01 0.  1.
</event>
<event>
 5   0  0.4189587E-06  0.3296710E+04  0.7818609E-02  0.8163733E-01
       -2   -1    0    0    0  501  0.00000000000E+00  0.00000000000E+00  0.13639997460E+04  0.13639997460E+04  0.25500000920E-02 0.  1.
        2   -1    0    0  501    0  0.00000000000E+00  0.00000000000E+00 -0.19919905503E+04  0.19919905503E+04  0.25500000920E-02 0. -1.
    10030    2    1    2    0    0  0.00000000000E+00  0.00000000000E+00 -0.62799080431E+03  0.33559902963E+04  0.32967102418E+04 0.  0.
        1    1    3    3  502    0  0.44821281762E+03 -0.13878472809E+04  0.46797071036E+03  0.15316694783E+04  0.50400001928E-02 0.  1.
       -1    1    3    3    0  502 -0.44821281762E+03  0.13878472809E+04 -0.10959615147E+04  0.18243208179E+04  0.50400001928E-02 0. -1.
</event>
<event>
 5   0  0.4173467E-06  0.3162952E+04  0.7818609E-02  0.8198671E-01
        2   -1    0    0  501    0  0.00000000000E+00  0.00000000000E+00  0.16320533422E+04  0.16320533422E+04  0.25500000920E-02 0. -1.
       -2   -1    0    0    0  501  0.00000000000E+00  0.00000000000E+00 -0.15324661300E+04  0.15324661300E+04  0.25500000920E-02 0.  1.
    10030    2    1    2    0    0  0.00000000000E+00  0.00000000000E+00  0.99587212238E+02  0.31645194722E+04  0.31629520827E+04 0.  0.
        4    1    3    3  502    0  0.15569917855E+03  0.13385042586E+04 -0.77840218339E+03  0.15561964710E+04  0.12699999809E+01 0.  1.
       -4    1    3    3    0  502 -0.15569917855E+03 -0.13385042586E+04  0.87798939563E+03  0.16083230012E+04  0.12699999809E+01 0. -1.
</event>
<event>
 5   0  0.4173467E-06  0.1818862E+04  0.7818609E-02  0.8696333E-01
        2   -1    0    0  501    0  0.00000000000E+00  0.00000000000E+00  0.13426185911E+04  0.13426185911E+04  0.25500000920E-02 0. -1.
       -2   -1    0    0    0  501  0.00000000000E+00  0.00000000000E+00 -0.61600846469E+03  0.61600846470E+03  0.25500000920E-02 0.  1.
    10030    2    1    2    0    0  0.00000000000E+00  0.00000000000E+00  0.72661012643E+03  0.19586270558E+04  0.18188616407E+04 0.  0.
        4    1    3    3  502    0 -0.29222232482E+03 -0.70505967766E+03  0.89583569295E+03  0.11768713769E+04  0.12699999809E+01 0. -1.
       -4    1    3    3    0  502  0.29222232482E+03  0.70505967766E+03 -0.16922556652E+03  0.78175567888E+03  0.12699999809E+01 0.  1.
</event>
<event>
 5   0  0.1550164E-06  0.3379916E+04  0.7818609E-02  0.8142853E-01
        1   -1    0    0  501    0  0.00000000000E+00  0.00000000000E+00  0.17467741794E+04  0.17467741794E+04  0.50400001928E-02 0.  1.
       -1   -1    0    0    0  501  0.00000000000E+00  0.00000000000E+00 -0.16349902831E+04  0.16349902831E+04  0.50400001928E-02 0. -1.
    10030    2    1    2    0    0  0.00000000000E+00  0.00000000000E+00  0.11178389626E+03  0.33817644625E+04  0.33799164546E+04 0.  0.
        4    1    3    3  502    0  0.93384547676E+03 -0.18175890143E+03  0.14533852077E+04  0.17370762354E+04  0.12699999809E+01 0.  1.
       -4    1    3    3    0  502 -0.93384547676E+03  0.18175890143E+03 -0.13416013114E+04  0.16446882271E+04  0.12699999809E+01 0. -1.
</event>
<event>
 5   0  0.1654257E-06  0.3483340E+04  0.7818609E-02  0.8117750E-01
       -1   -1    0    0    0  501  0.00000000000E+00  0.00000000000E+00  0.23627268863E+04  0.23627268863E+04  0.50400001928E-02 0. -1.
        1   -1    0    0  501    0  0.00000000000E+00  0.00000000000E+00 -0.12838614795E+04  0.12838614795E+04  0.50400001928E-02 0.  1.
    10030    2    1    2    0    0  0.00000000000E+00  0.00000000000E+00  0.10788654068E+04  0.36465883658E+04  0.34833397973E+04 0.  0.
        3    1    3    3  502    0 -0.13141597315E+04  0.90926879843E+03  0.12644416757E+04  0.20377925088E+04  0.10100000352E+00 0. -1.
       -3    1    3    3    0  502  0.13141597315E+04 -0.90926879843E+03 -0.18557626886E+03  0.16087958570E+04  0.10100000352E+00 0.  1.
</event>
<event>
 5   0  0.1571391E-06  0.1798091E+04  0.7818609E-02  0.8707315E-01
        1   -1    0    0  501    0  0.00000000000E+00  0.00000000000E+00  0.84635504212E+03  0.84635504213E+03  0.50400001928E-02 0.  1.
       -1   -1    0    0    0  501  0.00000000000E+00  0.00000000000E+00 -0.95501674774E+03  0.95501674775E+03  0.50400001928E-02 0. -1.
    10030    2    1    2    0    0  0.00000000000E+00  0.00000000000E+00 -0.10866170562E+03  0.18013717899E+04  0.17980914769E+04 0.  0.
        1    1    3    3  502    0  0.20671383073E+03 -0.80984260867E+03  0.27749475203E+03  0.88066962935E+03  0.50400001928E-02 0.  1.
       -1    1    3    3    0  502 -0.20671383073E+03  0.80984260867E+03 -0.38615645765E+03  0.92070216054E+03  0.50400001928E-02 0. -1.
</event>
<event>
 5   0  0.4173467E-06  0.3355591E+04  0.7818609E-02  0.8148893E-01
        2   -1    0    0  501    0  0.00000000000E+00  0.00000000000E+00  0.25963834343E+04  0.25963834343E+04  0.25500000920E-02 0. -1.
       -2   -1    0    0    0  501  0.00000000000E+00  0.00000000000E+00 -0.10841993644E+04  0.10841993644E+04  0.25500000920E-02 0.  1.
    10030    2    1    2    0    0  0.00000000000E+00  0.00000000000E+00  0.15121840699E+04  0.36805827987E+04  0.33555907195E+04 0.  0.
        4    1    3    3  502    0 -0.47157254514E+03 -0.12230636950E+04 -0.39258385756E+03  0.13683527197E+04  0.12699999809E+01 0.  1.
       -4    1    3    3    0  502  0.47157254514E+03  0.12230636950E+04  0.19047679275E+04  0.23122300790E+04  0.12699999809E+01 0. -1.
</event>
<event>
 5   0  0.1550164E-06  0.3396615E+04  0.7818609E-02  0.8138737E-01
       -1   -1    0    0    0  501  0.00000000000E+00  0.00000000000E+00  0.20004122612E+04  0.20004122612E+04  0.50400001928E-02 0.  1.
        1   -1    0    0  501    0  0.00000000000E+00  0.00000000000E+00 -0.14418273614E+04  0.14418273614E+04  0.50400001928E-02 0. -1.
    10030    2    1    2    0    0  0.00000000000E+00  0.00000000000E+00  0.55858489980E+03  0.34422396226E+04  0.33966154521E+04 0.  0.
        4    1    3    3  502    0  0.12999773059E+04  0.61417694079E+03  0.11953663691E+04  0.18697744997E+04  0.12699999809E+01 0.  1.
       -4    1    3    3    0  502 -0.12999773059E+04 -0.61417694079E+03 -0.63678146932E+03  0.15724651230E+04  0.12699999809E+01 0. -1.
</event>
<event>
 5   0  0.4189587E-06  0.3369742E+04  0.7818609E-02  0.8145373E-01
        2   -1    0    0  501    0  0.00000000000E+00  0.00000000000E+00  0.19825650761E+04  0.19825650761E+04  0.25500000920E-02 0.  1.
       -2   -1    0    0    0  501  0.00000000000E+00  0.00000000000E+00 -0.14318778364E+04  0.14318778364E+04  0.25500000920E-02 0. -1.
    10030    2    1    2    0    0  0.00000000000E+00  0.00000000000E+00  0.55068723968E+03  0.34144429125E+04  0.33697424184E+04 0.  0.
        1    1    3    3  502    0  0.41626598381E+03  0.66875091072E+03 -0.12338046312E+04  0.14638234244E+04  0.50400001928E-02 0. -1.
       -1    1    3    3    0  502 -0.41626598381E+03 -0.66875091072E+03  0.17844918709E+04  0.19506194881E+04  0.50400001928E-02 0.  1.
</event>
<event>
 5   0  0.1654257E-06  0.1833181E+04  0.7818609E-02  0.8688850E-01
        1   -1    0    0  501    0  0.00000000000E+00  0.00000000000E+00  0.14399850408E+04  0.14399850408E+04  0.50400001928E-02 0. -1.
       -1   -1    0    0    0  501  0.00000000000E+00  0.00000000000E+00 -0.58343542857E+03  0.58343542859E+03  0.50400001928E-02 0.  1.
    10030    2    1    2    0    0  0.00000000000E+00  0.00000000000E+00  0.85654961222E+03  0.20234204694E+04  0.18331811579E+04 0.  0.
        3    1    3    3  502    0 -0.73210159557E+03  0.16403011370E+03 -0.15292317018E+03  0.76567886912E+03  0.10100000352E+00 0.  1.
       -3    1    3    3    0  502  0.73210159557E+03 -0.16403011370E+03  0.10094727824E+04  0.12577416003E+04  0.10100000352E+00 0. -1.
</event>
<event>
 5   0  0.4189587E-06  0.3086607E+04  0.7818609E-02  0.8219423E-01
       -2   -1    0    0    0  501  0.00000000000E+00  0.00000000000E+00  0.94077662237E+03  0.94077662238E+03  0.25500000920E-02 0.  1.
        2   -1    0    0  501    0  0.00000000000E+00  0.00000000000E+00 -0.25317224589E+04  0.25317224589E+04  0.25500000920E-02 0. -1.
    10030    2    1    2    0    0  0.00000000000E+00  0.00000000000E+00 -0.15909458365E+04  0.34724990812E+04  0.30866067476E+04 0.  0.
        1    1    3    3  502    0 -0.13686099634E+04  0.70878748296E+03 -0.70608943817E+03  0.16952979746E+04  0.50400001928E-02 0. -1.
       -1    1    3    3    0  502  0.13686099634E+04 -0.70878748296E+03 -0.88485639831E+03  0.17772011067E+04  0.50400001928E-02 0.  1.
</event>
<event>
 5   0  0.4173467E-06  0.2756562E+04  0.7818609E-02  0.8316882E-01
        2   -1    0    0  501    0  0.00000000000E+00  0.00000000000E+00  0.24706017274E+04  0.24706017274E+04  0.25500000920E-02 0.  1.
       -2   -1    0    0    0  501  0.00000000000E+00  0.00000000000E+00 -0.76890525104E+03  0.76890525104E+03  0.25500000920E-02 0. -1.
    10030    2    1    2    0    0  0.00000000000E+00  0.00000000000E+00  0.17016964764E+04  0.32395069784E+04  0.27565620918E+04 0.  0.
        4    1    3    3  502    0 -0.93370428885E+03 -0.82431637663E+03  0.15444699654E+04  0.19841094412E+04  0.12699999809E+01 0.  1.
       -4    1    3    3    0  502  0.93370428885E+03  0.82431637663E+03  0.15722651095E+03  0.12553975372E+04  0.12699999809E+01 0. -1.
</event>
<event>
 5   0  0.2101998E-06  0.3388995E+04  0.7818609E-02  0.8140613E-01
        1   -1    0    0  501    0  0.00000000000E+00  0.00000000000E+00  0.25624740569E+04  0.25624740569E+04  0.50400001928E-02 0.  1.
       -1   -1    0    0    0  501  0.00000000000E+00  0.00000000000E+00 -0.11205271029E+04  0.11205271029E+04  0.50400001928E-02 0. -1.
    10030    2    1    2    0    0  0.00000000000E+00  0.00000000000E+00  0.14419469539E+04  0.36830011598E+04  0.33889949137E+04 0.  0.
        5    1    3    3  502    0  0.11814476445E+03 -0.16886923591E+04  0.80272933868E+03  0.18735091541E+04  0.46999998093E+01 0. -1.
       -5    1    3    3    0  502 -0.11814476445E+03  0.16886923591E+04  0.63921761526E+03  0.18094920057E+04  0.46999998093E+01 0.  1.
</event>
<event>
 5   0  0.1562618E-06  0.2956378E+04  0.7818609E-02  0.8256298E-01
       -1   -1    0    0    0  501  0.00000000000E+00  0.00000000000E+00  0.17779647439E+04  0.17779647439E+04  0.50400001928E-02 0.  1.
        1   -1    0    0  501    0  0.00000000000E+00  0.00000000000E+00 -0.12289568840E+04  0.12289568840E+04  0.50400001928E-02 0. -1.
    10030    2    1    2    0    0  0.00000000000E+00  0.00000000000E+00  0.54900785989E+03  0.30069216279E+04  0.29563775209E+04 0.  0.
        2    1    3    3  502    0  0.14703406425E+04 -0.13624507929E+03  0.20568860386E+03  0.14908964177E+04  0.25500000920E-02 0. -1.
       -2    1    3    3    0  502 -0.14703406425E+04  0.13624507929E+03  0.34331925603E+03  0.15160252102E+04  0.25500000920E-02 0.  1.
</event>
<event>
 5   0  0.2722449E-06  0.3419181E+04  0.7818609E-02  0.8133215E-01
        2   -1    0    0  501    0  0.00000000000E+00  0.00000000000E+00  0.12048628094E+04  0.12048628094E+04  0.25500000920E-02 0.  1.
       -2   -1    0    0    0  501  0.00000000000E+00  0.00000000000E+00 -0.24257535136E+04  0.24257535136E+04  0.25500000920E-02 0. -1.
    10030    2    1    2    0    0  0.00000000000E+00  0.00000000000E+00 -0.12208907041E+04  0.36306163230E+04  0.34191813017E+04 0.  0.
        2    1    3    3  502    0  0.27181973063E+03 -0.78601164583E+03  0.97557225181E+03  0.12819678201E+04  0.25500000920E-02 0.  1.
       -2    1    3    3    0  502 -0.27181973063E+03  0.78601164583E+03 -0.21964629560E+04  0.23486485029E+04  0.25500000920E-02 0. -1.
</event>
<event>
 5   0  0.2722449E-06  0.3380980E+04  0.7818609E-02  0.8142590E-01
       -2   -1    0    0    0  501  0.00000000000E+00  0.00000000000E+00  0.12661165797E+04  0.12661165797E+04  0.25500000920E-02 0.  1.
        2   -1    0    0  501    0  0.00000000000E+00  0.00000000000E+00 -0.22571039816E+04  0.22571039816E+04  0.25500000920E-02 0. -1.
    10030    2    1    2    0    0  0.00000000000E+00  0.00000000000E+00 -0.99098740191E+03  0.35232205613E+04  0.33809801970E+04 0.  0.
        2    1    3    3  502    0 -0.46949690218E+03 -0.12864762120E+04 -0.15283053580E+04  0.20521124853E+04  0.25500000920E-02 0. -1.
       -2    1    3    3    0  502  0.46949690218E+03  0.12864762120E+04  0.53731795608E+03  0.14711080760E+04  0.25500000920E-02 0.  1.
</event>
<event>
 5   0  0.1571391E-06  0.3508538E+04  0.7818609E-02  0.8111770E-01
       -1   -1    0    0    0  501  0.00000000000E+00  0.00000000000E+00  0.17737374367E+04  0.17737374367E+04  0.50400001928E-02 0.  1.
        1   -1    0    0  501    0  0.00000000000E+00  0.00000000000E+00 -0.17350142405E+04  0.17350142405E+04  0.50400001928E-02 0. -1.
    10030    2    1    2    0    0  0.00000000000E+00  0.00000000000E+00  0.38723196179E+02  0.35087516772E+04  0.35085379927E+04 0.  0.
        1    1    3    3  502    0 -0.31761889439E+03 -0.22909693250E+03 -0.16907403680E+04  0.17355028547E+04  0.50400001928E-02 0. -1.
       -1    1    3    3    0  502  0.31761889439E+03  0.22909693250E+03  0.17294635642E+04  0.17732488225E+04  0.50400001928E-02 0.  1.
</event>
<event>
 5   0  0.4400349E-06  0.3415611E+04  0.7818609E-02  0.8134085E-01
       -2   -1    0    0    0  501  0.00000000000E+00  0.00000000000E+00  0.13614860108E+04  0.13614860108E+04  0.25500000920E-02 0.  1.
        2   -1    0    0  501    0  0.00000000000E+00  0.00000000000E+00 -0.21422179394E+04  0.21422179394E+04  0.25500000920E-02 0. -1.
    10030    2    1    2    0    0  0.00000000000E+00  0.00000000000E+00 -0.78073192867E+03  0.35037039502E+04  0.34156110765E+04 0.  0.
        5    1    3    3  502    0 -0.14277648869E+04 -0.21557219323E+03  0.54507113721E+03  0.15434081046E+04  0.46999998093E+01 0.  1.
       -5    1    3    3    0  502  0.14277648869E+04  0.21557219323E+03 -0.13258030659E+04  0.19602958456E+04  0.46999998093E+01 0. -1.
</event>
<event>
 5   0  0.4173467E-06  0.3370942E+04  0.7818609E-02  0.8145075E-01
        2   -1    0    0  501    0  0.00000000000E+00  0.00000000000E+00  0.19016502740E+04  0.19016502740E+04  0.25500000920E-02 0. -1.
       -2   -1    0    0    0  501  0.00000000000E+00  0.00000000000E+00 -0.14938667877E+04  0.14938667877E+04  0.25500000920E-02 0.  1.
    10030    2    1    2    0    0  0.00000000000E+00  0.00000000000E+00  0.40778348626E+03  0.33955170617E+04  0.33709418186E+04 0.  0.
        4    1    3    3  502    0  0.58457235184E+03 -0.15746944073E+04  0.34427514039E+03  0.17146178280E+04  0.12699999809E+01 0. -1.
       -4    1    3    3    0  502 -0.58457235184E+03  0.15746944073E+04  0.63508345871E+02  0.16808992337E+04  0.12699999809E+01 0.  1.
</event>
<event>
 5   0  0.1550164E-06  0.3433327E+04  0.7818609E-02  0.8129775E-01
        1   -1    0    0  501    0  0.00000000000E+00  0.00000000000E+00  0.18713551838E+04  0.18713551838E+04  0.50400001928E-02 0.  1.
       -1   -1    0    0    0  501  0.00000000000E+00  0.00000000000E+00 -0.15747590437E+04  0.15747590437E+04  0.50400001928E-02 0. -1.
    10030    2    1    2    0    0  0.00000000000E+00  0.00000000000E+00  0.29659614011E+03  0.34461142275E+04  0.34333269577E+04 0.  0.
        4    1    3    3  502    0 -0.70198032167E+03  0.13907502792E+03 -0.14179024698E+04  0.15882591923E+04  0.12699999809E+01 0. -1.
       -4    1    3    3    0  502  0.70198032167E+03 -0.13907502792E+03  0.17144986099E+04  0.18578550351E+04  0.12699999809E+01 0.  1.
</event>
<event>
 5   0  0.4173467E-06  0.3304215E+04  0.7818609E-02  0.8161824E-01
        2   -1    0    0  501    0  0.00000000000E+00  0.00000000000E+00  0.18688410496E+04  0.18688410496E+04  0.25500000920E-02 0. -1.
       -2   -1    0    0    0  501  0.00000000000E+00  0.00000000000E+00 -0.14605091310E+04  0.14605091310E+04  0.25500000920E-02 0.  1.
    10030    2    1    2    0    0  0.00000000000E+00  0.00000000000E+00  0.40833191861E+03  0.33293501806E+04  0.33042151367E+04 0.  0.
        4    1    3    3  502    0 -0.12624570096E+04  0.54013109341E+03 -0.72147255222E+03  0.15511491081E+04  0.12699999809E+01 0.  1.
       -4    1    3    3    0  502  0.12624570096E+04 -0.54013109341E+03  0.11298044708E+04  0.17782010725E+04  0.12699999809E+01 0. -1.
</event>
<event>
 5   0  0.1571391E-06  0.2544132E+04  0.7818609E-02  0.8387430E-01
        1   -1    0    0  501    0  0.00000000000E+00  0.00000000000E+00  0.12935456945E+04  0.12935456945E+04  0.50400001928E-02 0.  1.
       -1   -1    0    0    0  501  0.00000000000E+00  0.00000000000E+00 -0.12509428168E+04  0.12509428168E+04  0.50400001928E-02 0. -1.
    10030    2    1    2    0    0  0.00000000000E+00  0.00000000000E+00  0.42602877743E+02  0.25444885113E+04  0.25441318321E+04 0.  0.
        1    1    3    3  502    0  0.84338725096E+03  0.32287909390E+03  0.91730578582E+03  0.12872462348E+04  0.50400001928E-02 0.  1.
       -1    1    3    3    0  502 -0.84338725096E+03 -0.32287909390E+03 -0.87470290808E+03  0.12572422765E+04  0.50400001928E-02 0. -1.
</event>
<event>
 5   0  0.4173467E-06  0.3662302E+04  0.7818609E-02  0.8076368E-01
       -2   -1    0    0    0  501  0.00000000000E+00  0.00000000000E+00  0.13660267272E+04  0.13660267272E+04  0.25500000920E-02 0. -1.
        2   -1    0    0  501    0  0.00000000000E+00  0.00000000000E+00 -0.24546471889E+04  0.24546471889E+04  0.25500000920E-02 0.  1.
    10030    2    1    2    0    0  0.00000000000E+00  0.00000000000E+00 -0.10886204617E+04  0.38206739161E+04  0.36623018258E+04 0.  0.
        4    1    3    3  502    0 -0.23176304251E+03  0.14892170998E+04  0.54067862458E+03  0.16011922640E+04  0.12699999809E+01 0. -1.
       -4    1    3    3    0  502  0.23176304251E+03 -0.14892170998E+04 -0.16292990863E+04  0.22194816521E+04  0.12699999809E+01 0.  1.
</event>
<event>
 5   0  0.2101998E-06  0.3184154E+04  0.7818609E-02  0.8193015E-01
        1   -1    0    0  501    0  0.00000000000E+00  0.00000000000E+00  0.15280711532E+04  0.15280711532E+04  0.50400001928E-02 0.  1.
       -1   -1    0    0    0  501  0.00000000000E+00  0.00000000000E+00 -0.16587634700E+04  0.16587634700E+04  0.50400001928E-02 0. -1.
    10030    2    1    2    0    0  0.00000000000E+00  0.00000000000E+00 -0.13069231676E+03  0.31868346232E+04  0.31841536448E+04 0.  0.
        5    1    3    3  502    0  0.46866973185E+03 -0.14293956072E+04 -0.58719038434E+03  0.16148181808E+04  0.46999998093E+01 0. -1.
       -5    1    3    3    0  502 -0.46866973185E+03  0.14293956072E+04  0.45649806759E+03  0.15720164424E+04  0.46999998093E+01 0.  1.
</event>
<event>
 5   0  0.4189587E-06  0.3414852E+04  0.7818609E-02  0.8134271E-01
        2   -1    0    0  501    0  0.00000000000E+00  0.00000000000E+00  0.15875203142E+04  0.15875203142E+04  0.25500000920E-02 0. -1.
       -2   -1    0    0    0  501  0.00000000000E+00  0.00000000000E+00 -0.18363884359E+04  0.18363884359E+04  0.25500000920E-02 0.  1.
    10030    2    1    2    0    0  0.00000000000E+00  0.00000000000E+00 -0.24886812172E+03  0.34239087502E+04  0.34148522351E+04 0.  0.
        1    1    3    3  502    0 -0.38245717089E+03 -0.14139029632E+04  0.75533751700E+03  0.16480078403E+04  0.50400001928E-02 0. -1.
       -1    1    3    3    0  502  0.38245717089E+03  0.14139029632E+04 -0.10042056387E+04  0.17759009099E+04  0.50400001928E-02 0.  1.
</event>
<event>
 5   0  0.2722449E-06  0.3363468E+04  0.7818609E-02  0.8146931E-01
       -2   -1    0    0    0  501  0.00000000000E+00  0.00000000000E+00  0.97845134104E+03  0.97845134105E+03  0.25500000920E-02 0. -1.
        2   -1    0    0  501    0  0.00000000000E+00  0.00000000000E+00 -0.28905159062E+04  0.28905159062E+04  0.25500000920E-02 0.  1.
    10030    2    1    2    0    0  0.00000000000E+00  0.00000000000E+00 -0.19120645652E+04  0.38689672473E+04  0.33634679512E+04 0.  0.
        2    1    3    3  502    0 -0.12877684217E+03  0.15795700818E+04 -0.16032732374E+04  0.22543536085E+04  0.25500000920E-02 0.  1.
       -2    1    3    3    0  502  0.12877684217E+03 -0.15795700818E+04 -0.30879132779E+03  0.16146136388E+04  0.25500000920E-02 0. -1.
</event>
<event>
 5   0  0.4173467E-06  0.3400999E+04  0.7818609E-02  0.8137661E-01
        2   -1    0    0  501    0  0.00000000000E+00  0.00000000000E+00  0.23947456887E+04  0.23947456887E+04  0.25500000920E-02 0. -1.
       -2   -1    0    0    0  501  0.00000000000E+00  0.00000000000E+00 -0.12075176716E+04  0.12075176716E+04  0.25500000920E-02 0.  1.
    10030    2    1    2    0    0  0.00000000000E+00  0.00000000000E+00  0.11872280171E+04  0.36022633603E+04  0.34009985228E+04 0.  0.
        4    1    3    3  502    0 -0.28751508355E+03 -0.60647911616E+02  0.23676514372E+04  0.23858160100E+04  0.12699999809E+01 0. -1.
       -4    1    3    3    0  502  0.28751508355E+03  0.60647911616E+02 -0.11804234201E+04  0.12164473503E+04  0.12699999809E+01 0.  1.
</event>
<event>
 5   0  0.1562618E-06  0.2851233E+04  0.7818609E-02  0.8287537E-01
        1   -1    0    0  501    0  0.00000000000E+00  0.00000000000E+00  0.13618870317E+04  0.13618870317E+04  0.50400001928E-02 0. -1.
       -1   -1    0    0    0  501  0.00000000000E+00  0.00000000000E+00 -0.14923286296E+04  0.14923286296E+04  0.50400001928E-02 0.  1.
    10030    2    1    2    0    0  0.00000000000E+00  0.00000000000E+00 -0.13044159797E+03  0.28542156613E+04  0.28512334227E+04 0.  0.
        2    1    3    3  502    0 -0.63500661091E+03  0.93377772024E+03  0.80586680259E+03  0.13872979241E+04  0.25500000920E-02 0. -1.
       -2    1    3    3    0  502  0.63500661091E+03 -0.93377772024E+03 -0.93630840057E+03  0.14669177372E+04  0.25500000920E-02 0.  1.
</event>
<event>
 5   0  0.2722449E-06  0.3313391E+04  0.7818609E-02  0.8159496E-01
       -2   -1    0    0    0  501  0.00000000000E+00  0.00000000000E+00  0.16077623676E+04  0.16077623676E+04  0.25500000920E-02 0. -1.
        2   -1    0    0  501    0  0.00000000000E+00  0.00000000000E+00 -0.17071181745E+04  0.17071181745E+04  0.25500000920E-02 0.  1.
    10030    2    1    2    0    0  0.00000000000E+00  0.00000000000E+00 -0.99355806863E+02  0.33148805420E+04  0.33133912283E+04 0.  0.
        2    1    3    3  502    0  0.76155361811E+03 -0.62647196582E+03  0.12821639924E+04  0.16175214189E+04  0.25500000920E-02 0. -1.
       -2    1    3    3    0  502 -0.76155361811E+03  0.62647196582E+03 -0.13815197992E+04  0.16973591231E+04  0.25500000920E-02 0.  1.
</event>
<event>
 5   0  0.1654257E-06  0.3386651E+04  0.7818609E-02  0.8141190E-01
       -1   -1    0    0    0  501  0.00000000000E+00  0.00000000000E+00  0.19189406867E+04  0.19189406867E+04  0.50400001928E-02 0. -1.
        1   -1    0    0  501    0  0.00000000000E+00  0.00000000000E+00 -0.14942363197E+04  0.14942363197E+04  0.50400001928E-02 0.  1.
    10030    2    1    2    0    0  0.00000000000E+00  0.00000000000E+00  0.42470436699E+03  0.34131770064E+04  0.33866507759E+04 0.  0.
        3    1    3    3  502    0  0.11132897794E+03  0.34107867812E+03 -0.14554880507E+04  0.14990577981E+04  0.10100000352E+00 0.  1.
       -3    1    3    3    0  502 -0.11132897794E+03 -0.34107867812E+03  0.18801924177E+04  0.19141192083E+04  0.10100000352E+00 0. -1.
</event>
<event>
 5   0  0.1562618E-06  0.3341170E+04  0.7818609E-02  0.8152498E-01
        1   -1    0    0  501    0  0.00000000000E+00  0.00000000000E+00  0.18901814483E+04  0.18901814484E+04  0.50400001928E-02 0. -1.
       -1   -1    0    0    0  501  0.00000000000E+00  0.00000000000E+00 -0.14765011096E+04  0.14765011096E+04  0.50400001928E-02 0.  1.
    10030    2    1    2    0    0  0.00000000000E+00  0.00000000000E+00  0.41368033878E+03  0.33666825579E+04  0.33411704571E+04 0.  0.
        2    1    3    3  502    0 -0.13132198075E+04 -0.86255001391E+03 -0.36522382542E+03  0.16130490482E+04  0.25500000920E-02 0.  1.
       -2    1    3    3    0  502  0.13132198075E+04  0.86255001391E+03  0.77890416420E+03  0.17536335097E+04  0.25500000920E-02 0. -1.
</event>
<event>
 5   0  0.1562618E-06  0.2125333E+04  0.7818609E-02  0.8550165E-01
        1   -1    0    0  501    0  0.00000000000E+00  0.00000000000E+00  0.87111027082E+03  0.87111027084E+03  0.50400001928E-02 0. -1.
       -1   -1    0    0    0  501  0.00000000000E+00  0.00000000000E+00 -0.12963454148E+04  0.12963454148E+04  0.50400001928E-02 0.  1.
    10030    2    1    2    0    0  0.00000000000E+00  0.00000000000E+00 -0.42523514396E+03  0.21674556856E+04  0.21253327320E+04 0.  0.
        2    1    3    3  502    0 -0.10078554466E+04 -0.28920833440E+03 -0.38880077334E+03  0.11182933887E+04  0.25500000920E-02 0.  1.
       -2    1    3    3    0  502  0.10078554466E+04  0.28920833440E+03 -0.36434370623E+02  0.10491622969E+04  0.25500000920E-02 0. -1.
</event>
<event>
 5   0  0.2101998E-06  0.2799317E+04  0.7818609E-02  0.8303480E-01
       -1   -1    0    0    0  501  0.00000000000E+00  0.00000000000E+00  0.81312256183E+03  0.81312256184E+03  0.50400001928E-02 0.  1.
        1   -1    0    0  501    0  0.00000000000E+00  0.00000000000E+00 -0.24092849033E+04  0.24092849033E+04  0.50400001928E-02 0. -1.
    10030    2    1    2    0    0  0.00000000000E+00  0.00000000000E+00 -0.15961623414E+04  0.32224074651E+04  0.27993169972E+04 0.  0.
        5    1    3    3  502    0 -0.12722914657E+04  0.57127279981E+03 -0.93401151344E+03  0.16785344151E+04  0.46999998093E+01 0.  1.
       -5    1    3    3    0  502  0.12722914657E+04 -0.57127279981E+03 -0.66215082801E+03  0.15438730500E+04  0.46999998093E+01 0. -1.
</event>
<event>
 5   0  0.4189587E-06  0.1731678E+04  0.7818609E-02  0.8743500E-01
        2   -1    0    0  501    0  0.00000000000E+00  0.00000000000E+00  0.20543653093E+04  0.20543653093E+04  0.25500000920E-02 0. -1.
       -2   -1    0    0    0  501  0.00000000000E+00  0.00000000000E+00 -0.36491931563E+03  0.36491931564E+03  0.25500000920E-02 0.  1.
    10030    2    1    2    0    0  0.00000000000E+00  0.00000000000E+00  0.16894459937E+04  0.24192846249E+04  0.17316784722E+04 0.  0.
        1    1    3    3  502    0 -0.62501941478E+03 -0.11247456117E+03  0.16669556580E+04  0.17838276154E+04  0.50400001928E-02 0. -1.
       -1    1    3    3    0  502  0.62501941478E+03  0.11247456117E+03  0.22490335690E+02  0.63545700955E+03  0.50400001928E-02 0.  1.
</event>
<event>
 5   0  0.4173467E-06  0.3187785E+04  0.7818609E-02  0.8192051E-01
        2   -1    0    0  501    0  0.00000000000E+00  0.00000000000E+00  0.18427809357E+04  0.18427809357E+04  0.25500000920E-02 0.  1.
       -2   -1    0    0    0  501  0.00000000000E+00  0.00000000000E+00 -0.13786193737E+04  0.13786193737E+04  0.25500000920E-02 0. -1.
    10030    2    1    2    0    0  0.00000000000E+00  0.00000000000E+00  0.46416156206E+03  0.32214003094E+04  0.31877851241E+04 0.  0.
        4    1    3    3  502    0  0.41203843321E+03  0.57858594603E+03 -0.12098343276E+04  0.14029390866E+04  0.12699999809E+01 0. -1.
       -4    1    3    3    0  502 -0.41203843321E+03 -0.57858594603E+03  0.16739958897E+04  0.18184612228E+04  0.12699999809E+01 0.  1.
</event>
<event>
 5   0  0.4344980E-06  0.1829554E+04  0.7818609E-02  0.8690739E-01
        2   -1    0    0  501    0  0.00000000000E+00  0.00000000000E+00  0.19630268645E+04  0.19630268645E+04  0.25500000920E-02 0. -1.
       -2   -1    0    0    0  501  0.00000000000E+00  0.00000000000E+00 -0.42628921828E+03  0.42628921829E+03  0.25500000920E-02 0.  1.
    10030    2    1    2    0    0  0.00000000000E+00  0.00000000000E+00  0.15367376462E+04  0.23893160828E+04  0.18295542490E+04 0.  0.
        3    1    3    3  502    0  0.70879135400E+03  0.50899805568E+03  0.40987761330E+03  0.96408706675E+03  0.10100000352E+00 0.  1.
       -3    1    3    3    0  502 -0.70879135400E+03 -0.50899805568E+03  0.11268600329E+04  0.14252290161E+04  0.10100000352E+00 0. -1.
</event>
<event>
 5   0  0.4400349E-06  0.3395612E+04  0.7818609E-02  0.8138984E-01
        2   -1    0    0  501    0  0.00000000000E+00  0.00000000000E+00  0.22708845838E+04  0.22708845838E+04  0.25500000920E-02 0.  1.
       -2   -1    0    0    0  501  0.00000000000E+00  0.00000000000E+00 -0.12693490998E+04  0.12693490998E+04  0.25500000920E-02 0. -1.
    10030    2    1    2    0    0  0.00000000000E+00  0.00000000000E+00  0.10015354840E+04  0.35402336836E+04  0.33956120522E+04 0.  0.
        5    1    3    3  502    0  0.50317513879E+03 -0.33327682299E+03  0.21552592391E+04  0.22381740636E+04  0.46999998093E+01 0.  1.
       -5    1    3    3    0  502 -0.50317513879E+03  0.33327682299E+03 -0.11537237551E+04  0.13020596201E+04  0.46999998093E+01 0. -1.
</event>
<event>
 5   0  0.4400349E-06  0.3400722E+04  0.7818609E-02  0.8137729E-01
       -2   -1    0    0    0  501  0.00000000000E+00  0.00000000000E+00  0.22229147613E+04  0.22229147613E+04  0.25500000920E-02 0.  1.
        2   -1    0    0  501    0  0.00000000000E+00  0.00000000000E+00 -0.13006471272E+04  0.13006471272E+04  0.25500000920E-02 0. -1.
    10030    2    1    2    0    0  0.00000000000E+00  0.00000000000E+00  0.92226763403E+03  0.35235618885E+04  0.34007220988E+04 0.  0.
        5    1    3    3  502    0 -0.10211255771E+04  0.13592508654E+04  0.49298927807E+03  0.17701188880E+04  0.46999998093E+01 0.  1.
       -5    1    3    3    0  502  0.10211255771E+04 -0.13592508654E+04  0.42927835596E+03  0.17534430005E+04  0.46999998093E+01 0. -1.
</event>
<event>
 5   0  0.1401125E-06  0.3402443E+04  0.7818609E-02  0.8137307E-01
       -3   -1    0    0    0  501  0.00000000000E+00  0.00000000000E+00  0.21021192531E+04  0.21021192555E+04  0.10100000352E+00 0.  1.
        3   -1    0    0  501    0  0.00000000000E+00  0.00000000000E+00 -0.13767796319E+04  0.13767796356E+04  0.10100000352E+00 0. -1.
    10030    2    1    2    0    0  0.00000000000E+00  0.00000000000E+00  0.72533962123E+03  0.34788988911E+04  0.34024432293E+04 0.  0.
        2    1    3    3  502    0  0.53588401329E+03 -0.14961650291E+04  0.98333023803E+03  0.18688552183E+04  0.25500000920E-02 0.  1.
       -2    1    3    3    0  502 -0.53588401329E+03  0.14961650291E+04 -0.25799061680E+03  0.16100436728E+04  0.25500000920E-02 0. -1.
</event>
<event>
 5   0  0.2101998E-06  0.1939887E+04  0.7818609E-02  0.8635253E-01
       -1   -1    0    0    0  501  0.00000000000E+00  0.00000000000E+00  0.73075896940E+03  0.73075896942E+03  0.50400001928E-02 0. -1.
        1   -1    0    0  501    0  0.00000000000E+00  0.00000000000E+00 -0.12874155999E+04  0.12874156000E+04  0.50400001928E-02 0.  1.
    10030    2    1    2    0    0  0.00000000000E+00  0.00000000000E+00 -0.55665663054E+03  0.20181745694E+04  0.19398871071E+04 0.  0.
        5    1    3    3  502    0 -0.40529046170E+03 -0.27300497514E+03 -0.11499810713E+04  0.12495081549E+04  0.46999998093E+01 0.  1.
       -5    1    3    3    0  502  0.40529046170E+03  0.27300497514E+03  0.59332444074E+03  0.76866641450E+03  0.46999998093E+01 0. -1.
</event>
<event>
 5   0  0.1550164E-06  0.2150525E+04  0.7818609E-02  0.8539307E-01
        1   -1    0    0  501    0  0.00000000000E+00  0.00000000000E+00  0.13608456440E+04  0.13608456440E+04  0.50400001928E-02 0. -1.
       -1   -1    0    0    0  501  0.00000000000E+00  0.00000000000E+00 -0.84961133706E+03  0.84961133707E+03  0.50400001928E-02 0.  1.
    10030    2    1    2    0    0  0.00000000000E+00  0.00000000000E+00  0.51123430694E+03  0.22104569811E+04  0.21505254122E+04 0.  0.
        4    1    3    3  502    0 -0.84974795862E+02 -0.29792128973E+03  0.13139774308E+04  0.13500059676E+04  0.12699999809E+01 0. -1.
       -4    1    3    3    0  502  0.84974795862E+02  0.29792128973E+03 -0.80274312389E+03  0.86045101352E+03  0.12699999809E+01 0.  1.
</event>
<event>
 5   0  0.1571391E-06  0.1784878E+04  0.7818609E-02  0.8714383E-01
       -1   -1    0    0    0  501  0.00000000000E+00  0.00000000000E+00  0.15283646006E+04  0.15283646006E+04  0.50400001928E-02 0.  1.
        1   -1    0    0  501    0  0.00000000000E+00  0.00000000000E+00 -0.52111081898E+03  0.52111081900E+03  0.50400001928E-02 0. -1.
    10030    2    1    2    0    0  0.00000000000E+00  0.00000000000E+00  0.10072537816E+04  0.20494754196E+04  0.17848779552E+04 0.  0.
        1    1    3    3  502    0  0.26597272981E+03  0.46431322614E+03 -0.31647906388E+03  0.62168099768E+03  0.50400001928E-02 0. -1.
       -1    1    3    3    0  502 -0.26597272981E+03 -0.46431322614E+03  0.13237328455E+04  0.14277944219E+04  0.50400001928E-02 0.  1.
</event>
<event>
 5   0  0.4173467E-06  0.2848600E+04  0.7818609E-02  0.8288337E-01
       -2   -1    0    0    0  501  0.00000000000E+00  0.00000000000E+00  0.95921179725E+03  0.95921179725E+03  0.25500000920E-02 0. -1.
        2   -1    0    0  501    0  0.00000000000E+00  0.00000000000E+00 -0.21148938779E+04  0.21148938779E+04  0.25500000920E-02 0.  1.
    10030    2    1    2    0    0  0.00000000000E+00  0.00000000000E+00 -0.11556820806E+04  0.30741056751E+04  0.28486004687E+04 0.  0.
        4    1    3    3  502    0 -0.73928865339E+03 -0.52730188775E+03  0.60630897805E+03  0.10918824037E+04  0.12699999809E+01 0. -1.
       -4    1    3    3    0  502  0.73928865339E+03  0.52730188775E+03 -0.17619910587E+04  0.19822232714E+04  0.12699999809E+01 0.  1.
</event>
<event>
 5   0  0.4344980E-06  0.3444979E+04  0.7818609E-02  0.8126954E-01
       -2   -1    0    0    0  501  0.00000000000E+00  0.00000000000E+00  0.14530359342E+04  0.14530359342E+04  0.25500000920E-02 0. -1.
        2   -1    0    0  501    0  0.00000000000E+00  0.00000000000E+00 -0.20419114424E+04  0.20419114424E+04  0.25500000920E-02 0.  1.
    10030    2    1    2    0    0  0.00000000000E+00  0.00000000000E+00 -0.58887550816E+03  0.34949473766E+04  0.34449793615E+04 0.  0.
        3    1    3    3  502    0  0.98841526246E+03  0.66319816534E+03 -0.15575567373E+04  0.19603008794E+04  0.10100000352E+00 0.  1.
       -3    1    3    3    0  502 -0.98841526246E+03 -0.66319816534E+03  0.96868122915E+03  0.15346464972E+04  0.10100000352E+00 0. -1.
</event>
<event>
 5   0  0.2101998E-06  0.3389612E+04  0.7818609E-02  0.8140461E-01
        1   -1    0    0  501    0  0.00000000000E+00  0.00000000000E+00  0.13931481138E+04  0.13931481139E+04  0.50400001928E-02 0.  1.
       -1   -1    0    0    0  501  0.00000000000E+00  0.00000000000E+00 -0.20617815314E+04  0.20617815314E+04  0.50400001928E-02 0. -1.
    10030    2    1    2    0    0  0.00000000000E+00  0.00000000000E+00 -0.66863341760E+03  0.34549296453E+04  0.33896118077E+04 0.  0.
        5    1    3    3  502    0  0.68905978736E+03 -0.14793926746E+04 -0.80022332850E+03  0.18176318499E+04  0.46999998093E+01 0.  1.
       -5    1    3    3    0  502 -0.68905978736E+03  0.14793926746E+04  0.13158991091E+03  0.16372977954E+04  0.46999998093E+01 0. -1.
</event>
<event>
 5   0  0.4173467E-06  0.3388560E+04  0.7818609E-02  0.8140720E-01
       -2   -1    0    0    0  501  0.00000000000E+00  0.00000000000E+00  0.10990042039E+04  0.10990042039E+04  0.25500000920E-02 0.  1.
        2   -1    0    0  501    0  0.00000000000E+00  0.00000000000E+00 -0.26119877414E+04  0.26119877414E+04  0.25500000920E-02 0. -1.
    10030    2    1    2    0    0  0.00000000000E+00  0.00000000000E+00 -0.15129835375E+04  0.37109919452E+04  0.33885604662E+04 0.  0.
        4    1    3    3  502    0 -0.80827339568E+03 -0.11167900714E+04  0.32214100387E+03  0.14157338680E+04  0.12699999809E+01 0.  1.
       -4    1    3    3    0  502  0.80827339568E+03  0.11167900714E+04 -0.18351245413E+04  0.22952580772E+04  0.12699999809E+01 0. -1.
</event>
<event>
 5   0  0.2722449E-06  0.3345444E+04  0.7818609E-02  0.8151427E-01
        2   -1    0    0  501    0  0.00000000000E+00  0.00000000000E+00  0.14320991804E+04  0.14320991804E+04  0.25500000920E-02 0.  1.
       -2   -1    0    0    0  501  0.00000000000E+00  0.00000000000E+00 -0.19537744867E+04  0.19537744867E+04  0.25500000920E-02 0. -1.
    10030    2    1    2    0    0  0.00000000000E+00  0.00000000000E+00 -0.52167530625E+03  0.33858736671E+04  0.33454439712E+04 0.  0.
        2    1    3    3  502    0  0.97799177732E+02 -0.48533819483E+03 -0.18779205150E+04  0.19420873572E+04  0.25500000920E-02 0. -1.
       -2    1    3    3    0  502 -0.97799177732E+02  0.48533819483E+03  0.13562452087E+04  0.14437863099E+04  0.25500000920E-02 0.  1.
</event>
<event>
 5   0  0.2722449E-06  0.3740773E+04  0.7818609E-02  0.8058986E-01
       -2   -1    0    0    0  501  0.00000000000E+00  0.00000000000E+00  0.13311190689E+04  0.13311190689E+04  0.25500000920E-02 0.  1.
        2   -1    0    0  501    0  0.00000000000E+00  0.00000000000E+00 -0.26281232786E+04  0.26281232786E+04  0.25500000920E-02 0. -1.
    10030    2    1    2    0    0  0.00000000000E+00  0.00000000000E+00 -0.12970042096E+04  0.39592423475E+04  0.37407726537E+04 0.  0.
        2    1    3    3  502    0 -0.10922749162E+03  0.17371061223E+04 -0.13732385324E+04  0.22170368495E+04  0.25500000920E-02 0. -1.
       -2    1    3    3    0  502  0.10922749162E+03 -0.17371061223E+04  0.76234322807E+02  0.17422054980E+04  0.25500000920E-02 0.  1.
</event>
<event>
 5   0  0.1550164E-06  0.3361254E+04  0.7818609E-02  0.8147482E-01
       -1   -1    0    0    0  501  0.00000000000E+00  0.00000000000E+00  0.15489014154E+04  0.15489014155E+04  0.50400001928E-02 0. -1.
        1   -1    0    0  501    0  0.00000000000E+00  0.00000000000E+00 -0.18235546906E+04  0.18235546906E+04  0.50400001928E-02 0.  1.
    10030    2    1    2    0    0  0.00000000000E+00  0.00000000000E+00 -0.27465327517E+03  0.33724561061E+04  0.33612536004E+04 0.  0.
        4    1    3    3  502    0  0.10865232757E+04 -0.27557298842E+03 -0.13937107063E+04  0.17885481392E+04  0.12699999809E+01 0.  1.
       -4    1    3    3    0  502 -0.10865232757E+04  0.27557298842E+03  0.11190574311E+04  0.15839079669E+04  0.12699999809E+01 0. -1.
</event>
<event>
 5   0  0.1571391E-06  0.3461384E+04  0.7818609E-02  0.8123003E-01
       -1   -1    0    0    0  501  0.00000000000E+00  0.00000000000E+00  0.12661852321E+04  0.12661852321E+04  0.50400001928E-02 0. -1.
        1   -1    0    0  501    0  0.00000000000E+00  0.00000000000E+00 -0.23656049059E+04  0.23656049059E+04  0.50400001928E-02 0.  1.
    10030    2    1    2    0    0  0.00000000000E+00  0.00000000000E+00 -0.10994196738E+04  0.36317901380E+04  0.34613835366E+04 0.  0.
        1    1    3    3  502    0  0.43287988671E+03 -0.55869994092E+03 -0.22072830699E+04  0.23176775382E+04  0.50400001928E-02 0.  1.
       -1    1    3    3    0  502 -0.43287988671E+03  0.55869994092E+03  0.11078633961E+04  0.13141125998E+04  0.50400001928E-02 0. -1.
</event>
<event>
 5   0  0.4400349E-06  0.3145690E+04  0.7818609E-02  0.8203309E-01
       -2   -1    0    0    0  501  0.00000000000E+00  0.00000000000E+00  0.12613266228E+04  0.12613266228E+04  0.25500000920E-02 0.  1.
        2   -1    0    0  501    0  0.00000000000E+00  0.00000000000E+00 -0.19613009811E+04  0.19613009811E+04  0.25500000920E-02 0. -1.
    10030    2    1    2    0    0  0.00000000000E+00  0.00000000000E+00 -0.69997435838E+03  0.32226276039E+04  0.31456898403E+04 0.  0.
        5    1    3    3  502    0  0.14637376765E+04  0.29660964445E+03  0.15534572915E+03  0.15015524141E+04  0.46999998093E+01 0.  1.
       -5    1    3    3    0  502 -0.14637376765E+04 -0.29660964445E+03 -0.85532008754E+03  0.17210751898E+04  0.46999998093E+01 0. -1.
</event>
<event>
 5   0  0.2101998E-06  0.3738446E+04  0.7818609E-02  0.8059495E-01
        1   -1    0    0  501    0  0.00000000000E+00  0.00000000000E+00  0.24419037999E+04  0.24419037999E+04  0.50400001928E-02 0. -1.
       -1   -1    0    0    0  501  0.00000000000E+00  0.00000000000E+00 -0.14308485205E+04  0.14308485206E+04  0.50400001928E-02 0.  1.
    10030    2    1    2    0    0  0.00000000000E+00  0.00000000000E+00  0.10110552794E+04  0.38727523205E+04  0.37384459014E+04 0.  0.
        5    1    3    3  502    0  0.15599624528E+04 -0.44794742431E+03  0.14661121430E+04  0.21871549225E+04  0.46999998093E+01 0. -1.
       -5    1    3    3    0  502 -0.15599624528E+04  0.44794742431E+03 -0.45505686361E+03  0.16855973980E+04  0.46999998093E+01 0.  1.
</event>
<event>
 5   0  0.2722449E-06  0.3376873E+04  0.7818609E-02  0.8143606E-01
        2   -1    0    0  501    0  0.00000000000E+00  0.00000000000E+00  0.17264834620E+04  0.17264834620E+04  0.25500000920E-02 0. -1.
       -2   -1    0    0    0  501  0.00000000000E+00  0.00000000000E+00 -0.16512280181E+04  0.16512280181E+04  0.25500000920E-02 0.  1.
    10030    2    1    2    0    0  0.00000000000E+00  0.00000000000E+00  0.75255443866E+02  0.33777114801E+04  0.33768730300E+04 0.  0.
        2    1    3    3  502    0  0.28770412919E+03  0.52587699190E+03  0.16164674793E+04  0.17240323048E+04  0.25500000920E-02 0. -1.
       -2    1    3    3    0  502 -0.28770412919E+03 -0.52587699190E+03 -0.15412120354E+04  0.16536791753E+04  0.25500000920E-02 0.  1.
</event>
<event>
 5   0  0.2722449E-06  0.3372367E+04  0.7818609E-02  0.8144722E-01
       -2   -1    0    0    0  501  0.00000000000E+00  0.00000000000E+00  0.15418362355E+04  0.15418362355E+04  0.25500000920E-02 0.  1.
        2   -1    0    0  501    0  0.00000000000E+00  0.00000000000E+00 -0.18440450520E+04  0.18440450520E+04  0.25500000920E-02 0. -1.
    10030    2    1    2    0    0  0.00000000000E+00  0.00000000000E+00 -0.30220881653E+03  0.33858812875E+04  0.33723674065E+04 0.  0.
        2    1    3    3  502    0  0.12110307192E+04 -0.16856710051E+03 -0.13168796955E+04  0.17969925995E+04  0.25500000920E-02 0. -1.
       -2    1    3    3    0  502 -0.12110307192E+04  0.16856710051E+03  0.10146708790E+04  0.15888886880E+04  0.25500000920E-02 0.  1.
</event>
<event>
 5   0  0.1550164E-06  0.3496341E+04  0.7818609E-02  0.8114658E-01
       -1   -1    0    0    0  501  0.00000000000E+00  0.00000000000E+00  0.13144050384E+04  0.13144050384E+04  0.50400001928E-02 0. -1.
        1   -1    0    0  501    0  0.00000000000E+00  0.00000000000E+00 -0.23250827909E+04  0.23250827909E+04  0.50400001928E-02 0.  1.
    10030    2    1    2    0    0  0.00000000000E+00  0.00000000000E+00 -0.10106777525E+04  0.36394878292E+04  0.34963412505E+04 0.  0.
        4    1    3    3  502    0  0.13202327635E+04 -0.84974402635E+03  0.29491419284E+03  0.15975154003E+04  0.12699999809E+01 0. -1.
       -4    1    3    3    0  502 -0.13202327635E+04  0.84974402635E+03 -0.13055919453E+04  0.20419724290E+04  0.12699999809E+01 0.  1.
</event>
<event>
 5   0  0.4400349E-06  0.3379550E+04  0.7818609E-02  0.8142944E-01
       -2   -1    0    0    0  501  0.00000000000E+00  0.00000000000E+00  0.13833367568E+04  0.13833367568E+04  0.25500000920E-02 0. -1.
        2   -1    0    0  501    0  0.00000000000E+00  0.00000000000E+00 -0.20640953358E+04  0.20640953358E+04  0.25500000920E-02 0.  1.
    10030    2    1    2    0    0  0.00000000000E+00  0.00000000000E+00 -0.68075857897E+03  0.34474320926E+04  0.33795496431E+04 0.  0.
        5    1    3    3  502    0  0.23842117805E+03 -0.11671051062E+04  0.88216667249E+03  0.14823019649E+04  0.46999998093E+01 0. -1.
       -5    1    3    3    0  502 -0.23842117805E+03  0.11671051062E+04 -0.15629252515E+04  0.19651301277E+04  0.46999998093E+01 0.  1.
</event>
<event>
 5   0  0.4344980E-06  0.2335631E+04  0.7818609E-02  0.8464003E-01
        2   -1    0    0  501    0  0.00000000000E+00  0.00000000000E+00  0.12154275762E+04  0.12154275762E+04  0.25500000920E-02 0. -1.
       -2   -1    0    0    0  501  0.00000000000E+00  0.00000000000E+00 -0.11220688636E+04  0.11220688636E+04  0.25500000920E-02 0.  1.
    10030    2    1    2    0    0  0.00000000000E+00  0.00000000000E+00  0.93358712566E+02  0.23374964398E+04  0.23356313401E+04 0.  0.
        3    1    3    3  502    0  0.25243900908E+03  0.95137419441E+02 -0.10904571934E+04  0.11233314216E+04  0.10100000352E+00 0.  1.
       -3    1    3    3    0  502 -0.25243900908E+03 -0.95137419441E+02  0.11838159060E+04  0.12141650182E+04  0.10100000352E+00 0. -1.
</event>
<event>
 5   0  0.2722449E-06  0.3293957E+04  0.7818609E-02  0.8164435E-01
        2   -1    0    0  501    0  0.00000000000E+00  0.00000000000E+00  0.17066482336E+04  0.17066482336E+04  0.25500000920E-02 0. -1.
       -2   -1    0    0    0  501  0.00000000000E+00  0.00000000000E+00 -0.15893953030E+04  0.15893953030E+04  0.25500000920E-02 0.  1.
    10030    2    1    2    0    0  0.00000000000E+00  0.00000000000E+00  0.11725293058E+03  0.32960435367E+04  0.32939573078E+04 0.  0.
        2    1    3    3  502    0 -0.86628064111E+03 -0.30800637854E+03  0.14259576529E+04  0.16966629914E+04  0.25500000920E-02 0. -1.
       -2    1    3    3    0  502  0.86628064111E+03  0.30800637854E+03 -0.13087047223E+04  0.15993805453E+04  0.25500000920E-02 0.  1.
</event>
<event>
 5   0  0.1401125E-06  0.2681169E+04  0.7818609E-02  0.8341141E-01
       -4   -1    0    0    0  501  0.00000000000E+00  0.00000000000E+00  0.14424872049E+04  0.14424877639E+04  0.12699999809E+01 0. -1.
        4   -1    0    0  501    0  0.00000000000E+00  0.00000000000E+00 -0.12458798197E+04  0.12458804670E+04  0.12699999809E+01 0.  1.
    10030    2    1    2    0    0  0.00000000000E+00  0.00000000000E+00  0.19660738512E+03  0.26883682310E+04  0.26811693869E+04 0.  0.
        1    1    3    3  502    0  0.10724642596E+04  0.16053188501E+02  0.90465819499E+03  0.14031549247E+04  0.50400001928E-02 0. -1.
       -1    1    3    3    0  502 -0.10724642596E+04 -0.16053188501E+02 -0.70805080987E+03  0.12852133062E+04  0.50400001928E-02 0.  1.
</event>
<event>
 5   0  0.4344980E-06  0.2334302E+04  0.7818609E-02  0.8464518E-01
        2   -1    0    0  501    0  0.00000000000E+00  0.00000000000E+00  0.10551145486E+04  0.10551145486E+04  0.25500000920E-02 0.  1.
       -2   -1    0    0    0  501  0.00000000000E+00  0.00000000000E+00 -0.12910836195E+04  0.12910836195E+04  0.25500000920E-02 0. -1.
    10030    2    1    2    0    0  0.00000000000E+00  0.00000000000E+00 -0.23596907098E+03  0.23461981681E+04  0.23343017032E+04 0.  0.
        3    1    3    3  502    0  0.23910280259E+03 -0.10941016684E+04  0.21234293489E+03  0.11398763719E+04  0.10100000352E+00 0.  1.
       -3    1    3    3    0  502 -0.23910280259E+03  0.10941016684E+04 -0.44831200586E+03  0.12063217962E+04  0.10100000352E+00 0. -1.
</event>
<event>
 5   0  0.1654257E-06  0.1728469E+04  0.7818609E-02  0.8745292E-01
        1   -1    0    0  501    0  0.00000000000E+00  0.00000000000E+00  0.17045608161E+04  0.17045608161E+04  0.50400001928E-02 0.  1.
       -1   -1    0    0    0  501  0.00000000000E+00  0.00000000000E+00 -0.43817827776E+03  0.43817827779E+03  0.50400001928E-02 0. -1.
    10030    2    1    2    0    0  0.00000000000E+00  0.00000000000E+00  0.12663825383E+04  0.21427390939E+04  0.17284692913E+04 0.  0.
        3    1    3    3  502    0  0.13304709806E+03  0.81831213546E+03  0.33063647346E+03  0.89255631146E+03  0.10100000352E+00 0. -1.
       -3    1    3    3    0  502 -0.13304709806E+03 -0.81831213546E+03  0.93574606484E+03  0.12501827824E+04  0.10100000352E+00 0.  1.
</event>
<event>
 5   0  0.2722449E-06  0.3412953E+04  0.7818609E-02  0.8134735E-01
       -2   -1    0    0    0  501  0.00000000000E+00  0.00000000000E+00  0.17466799863E+04  0.17466799863E+04  0.25500000920E-02 0. -1.
        2   -1    0    0  501    0  0.00000000000E+00  0.00000000000E+00 -0.16671980742E+04  0.16671980742E+04  0.25500000920E-02 0.  1.
    10030    2    1    2    0    0  0.00000000000E+00  0.00000000000E+00  0.79481912142E+02  0.34138780605E+04  0.34129526861E+04 0.  0.
        2    1    3    3  502    0  0.63938407603E+03  0.12901269121E+03  0.16170658552E+04  0.17436623100E+04  0.25500000920E-02 0. -1.
       -2    1    3    3    0  502 -0.63938407603E+03 -0.12901269121E+03 -0.15375839431E+04  0.16702157505E+04  0.25500000920E-02 0.  1.
</event>
<event>
 5   0  0.1571391E-06  0.3026707E+04  0.7818609E-02  0.8236145E-01
       -1   -1    0    0    0  501  0.00000000000E+00  0.00000000000E+00  0.17531058315E+04  0.17531058315E+04  0.50400001928E-02 0. -1.
        1   -1    0    0  501    0  0.00000000000E+00  0.00000000000E+00 -0.13063892492E+04  0.13063892492E+04  0.50400001928E-02 0.  1.
    10030    2    1    2    0    0  0.00000000000E+00  0.00000000000E+00  0.44671658228E+03  0.30594950808E+04  0.30267068646E+04 0.  0.
        1    1    3    3  502    0 -0.79725765137E+03 -0.11384309524E+04 -0.38195581506E+03  0.14413656860E+04  0.50400001928E-02 0.  1.
       -1    1    3    3    0  502  0.79725765137E+03  0.11384309524E+04  0.82867239734E+03  0.16181293948E+04  0.50400001928E-02 0. -1.
</event>
<event>
 5   0  0.4344980E-06  0.3019712E+04  0.7818609E-02  0.8238124E-01
        2   -1    0    0  501    0  0.00000000000E+00  0.00000000000E+00  0.13204185970E+04  0.13204185970E+04  0.25500000920E-02 0.  1.
       -2   -1    0    0    0  501  0.00000000000E+00  0.00000000000E+00 -0.17264719745E+04  0.17264719745E+04  0.25500000920E-02 0. -1.
    10030    2    1    2    0    0  0.00000000000E+00  0.00000000000E+00 -0.40605337747E+03  0.30468905715E+04  0.30197123720E+04 0.  0.
        3    1    3    3  502    0  0.47097083346E+03  0.14294305959E+04 -0.81190846035E+02  0.15072084521E+04  0.10100000352E+00 0. -1.
       -3    1    3    3    0  502 -0.47097083346E+03 -0.14294305959E+04 -0.32486253143E+03  0.15396821194E+04  0.10100000352E+00 0.  1.
</event>
<event>
 5   0  0.1654257E-06  0.3401597E+04  0.7818609E-02  0.8137514E-01
       -1   -1    0    0    0  501  0.00000000000E+00  0.00000000000E+00  0.19354530449E+04  0.19354530449E+04  0.50400001928E-02 0.  1.
        1   -1    0    0  501    0  0.00000000000E+00  0.00000000000E+00 -0.14945935629E+04  0.14945935629E+04  0.50400001928E-02 0. -1.
    10030    2    1    2    0    0  0.00000000000E+00  0.00000000000E+00  0.44085948209E+03  0.34300466078E+04  0.34015970733E+04 0.  0.
        3    1    3    3  502    0  0.14661366898E+04 -0.78208828020E+03 -0.14522794997E+03  0.16680257908E+04  0.10100000352E+00 0. -1.
       -3    1    3    3    0  502 -0.14661366898E+04  0.78208828020E+03  0.58608743206E+03  0.17620208170E+04  0.10100000352E+00 0.  1.
</event>
<event>
 5   0  0.2101998E-06  0.3114109E+04  0.7818609E-02  0.8211877E-01
        1   -1    0    0  501    0  0.00000000000E+00  0.00000000000E+00  0.21023433890E+04  0.21023433890E+04  0.50400001928E-02 0. -1.
       -1   -1    0    0    0  501  0.00000000000E+00  0.00000000000E+00 -0.11531980599E+04  0.11531980599E+04  0.50400001928E-02 0.  1.
    10030    2    1    2    0    0  0.00000000000E+00  0.00000000000E+00  0.94914532916E+03  0.32555414489E+04  0.31141087441E+04 0.  0.
        5    1    3    3  502    0  0.90343506243E+03  0.62531091000E+03  0.16279414975E+04  0.19640326513E+04  0.46999998093E+01 0. -1.
       -5    1    3    3    0  502 -0.90343506243E+03 -0.62531091000E+03 -0.67879616833E+03  0.12915087976E+04  0.46999998093E+01 0.  1.
</event>
<event>
 5   0  0.4400349E-06  0.3363278E+04  0.7818609E-02  0.8146978E-01
       -2   -1    0    0    0  501  0.00000000000E+00  0.00000000000E+00  0.15301343379E+04  0.15301343379E+04  0.25500000920E-02 0. -1.
        2   -1    0    0  501    0  0.00000000000E+00  0.00000000000E+00 -0.18481444587E+04  0.18481444587E+04  0.25500000920E-02 0.  1.
    10030    2    1    2    0    0  0.00000000000E+00  0.00000000000E+00 -0.31801012080E+03  0.33782787965E+04  0.33632777450E+04 0.  0.
        5    1    3    3  502    0  0.62881226377E+03  0.88405169932E+03 -0.14496231054E+04  0.18106301411E+04  0.46999998093E+01 0.  1.
       -5    1    3    3    0  502 -0.62881226377E+03 -0.88405169932E+03  0.11316129846E+04  0.15676486555E+04  0.46999998093E+01 0. -1.
</event>
<event>
 5   0  0.1550164E-06  0.3107237E+04  0.7818609E-02  0.8213755E-01
        1   -1    0    0  501    0  0.00000000000E+00  0.00000000000E+00  0.23691427561E+04  0.23691427561E+04  0.50400001928E-02 0.  1.
       -1   -1    0    0    0  501  0.00000000000E+00  0.00000000000E+00 -0.10188199765E+04  0.10188199766E+04  0.50400001928E-02 0. -1.
    10030    2    1    2    0    0  0.00000000000E+00  0.00000000000E+00  0.13503227795E+04  0.33879627326E+04  0.31072366934E+04 0.  0.
        4    1    3    3  502    0 -0.61443012594E+03  0.29757025153E+03  0.21968311331E+04  0.23004654039E+04  0.12699999809E+01 0.  1.
       -4    1    3    3    0  502  0.61443012594E+03 -0.29757025153E+03 -0.84650835363E+03  0.10874973287E+04  0.12699999809E+01 0. -1.
</event>
<event>
 5   0  0.1550164E-06  0.3435026E+04  0.7818609E-02  0.8129363E-01
       -1   -1    0    0    0  501  0.00000000000E+00  0.00000000000E+00  0.22160942478E+04  0.22160942478E+04  0.50400001928E-02 0.  1.
        1   -1    0    0  501    0  0.00000000000E+00  0.00000000000E+00 -0.13311039109E+04  0.13311039109E+04  0.50400001928E-02 0. -1.
    10030    2    1    2    0    0  0.00000000000E+00  0.00000000000E+00  0.88499033687E+03  0.35471981587E+04  0.34350264746E+04 0.  0.
        4    1    3    3  502    0  0.11905731927E+04  0.19053029258E+03  0.17055823278E+04  0.20887266478E+04  0.12699999809E+01 0.  1.
       -4    1    3    3    0  502 -0.11905731927E+04 -0.19053029258E+03 -0.82059199092E+03  0.14584715109E+04  0.12699999809E+01 0. -1.
</event>
<event>
 5   0  0.1654257E-06  0.3266595E+04  0.7818609E-02  0.8171448E-01
       -1   -1    0    0    0  501  0.00000000000E+00  0.00000000000E+00  0.17326790732E+04  0.17326790732E+04  0.50400001928E-02 0.  1.
        1   -1    0    0  501    0  0.00000000000E+00  0.00000000000E+00 -0.15396157747E+04  0.15396157748E+04  0.50400001928E-02 0. -1.
    10030    2    1    2    0    0  0.00000000000E+00  0.00000000000E+00  0.19306329845E+03  0.32722948480E+04  0.32665945777E+04 0.  0.
        3    1    3    3  502    0  0.69811184687E+03  0.12992518931E+04  0.79935726186E+03  0.16776136846E+04  0.10100000352E+00 0.  1.
       -3    1    3    3    0  502 -0.69811184687E+03 -0.12992518931E+04 -0.60629396341E+03  0.15946811634E+04  0.10100000352E+00 0. -1.
</event>
<event>
 5   0  0.1562618E-06  0.2932452E+04  0.7818609E-02  0.8263287E-01
        1   -1    0    0  501    0  0.00000000000E+00  0.00000000000E+00  0.20594448779E+04  0.20594448779E+04  0.50400001928E-02 0.  1.
       -1   -1    0    0    0  501  0.00000000000E+00  0.00000000000E+00 -0.10438826746E+04  0.10438826746E+04  0.50400001928E-02 0. -1.
    10030    2    1    2    0    0  0.00000000000E+00  0.00000000000E+00  0.10155622033E+04  0.31033275525E+04  0.29324520984E+04 0.  0.
        2    1    3    3  502    0 -0.10104615893E+04 -0.28410040515E+03 -0.57562802823E+03  0.11971187453E+04  0.25500000920E-02 0. -1.
       -2    1    3    3    0  502  0.10104615893E+04  0.28410040515E+03  0.15911902316E+04  0.19062088072E+04  0.25500000920E-02 0.  1.
</event>
<event>
 5   0  0.1562618E-06  0.3412937E+04  0.7818609E-02  0.8134738E-01
       -1   -1    0    0    0  501  0.00000000000E+00  0.00000000000E+00  0.13179090671E+04  0.13179090671E+04  0.50400001928E-02 0. -1.
        1   -1    0    0  501    0  0.00000000000E+00  0.00000000000E+00 -0.22095874016E+04  0.22095874016E+04  0.50400001928E-02 0.  1.
    10030    2    1    2    0    0  0.00000000000E+00  0.00000000000E+00 -0.89167833448E+03  0.35274964687E+04  0.34129373104E+04 0.  0.
        2    1    3    3  502    0 -0.12766084623E+04  0.45350577197E+02 -0.16152997065E+04  0.20593637325E+04  0.25500000920E-02 0. -1.
       -2    1    3    3    0  502  0.12766084623E+04 -0.45350577197E+02  0.72362137204E+03  0.14681327362E+04  0.25500000920E-02 0.  1.
</event>
<event>
 5   0  0.1550164E-06  0.2191288E+04  0.7818609E-02  0.8522063E-01
        1   -1    0    0  501    0  0.00000000000E+00  0.00000000000E+00  0.90105209976E+03  0.90105209977E+03  0.50400001928E-02 0.  1.
       -1   -1    0    0    0  501  0.00000000000E+00  0.00000000000E+00 -0.13322602018E+04  0.13322602018E+04  0.50400001928E-02 0. -1.
    10030    2    1    2    0    0  0.00000000000E+00  0.00000000000E+00 -0.43120810203E+03  0.22333123016E+04  0.21912880708E+04 0.  0.
        4    1    3    3  502    0 -0.62248382829E+02  0.20829500167E+02 -0.13302536396E+04  0.13318727746E+04  0.12699999809E+01 0. -1.
       -4    1    3    3    0  502  0.62248382829E+02 -0.20829500167E+02  0.89904553756E+03  0.90143952695E+03  0.12699999809E+01 0.  1.
</event>
<event>
 5   0  0.1571391E-06  0.3289546E+04  0.7818609E-02  0.8165560E-01
        1   -1    0    0  501    0  0.00000000000E+00  0.00000000000E+00  0.18904678382E+04  0.18904678382E+04  0.50400001928E-02 0.  1.
       -1   -1    0    0    0  501  0.00000000000E+00  0.00000000000E+00 -0.14310102163E+04  0.14310102163E+04  0.50400001928E-02 0. -1.
    10030    2    1    2    0    0  0.00000000000E+00  0.00000000000E+00  0.45945762187E+03  0.33214780545E+04  0.32895463457E+04 0.  0.
        1    1    3    3  502    0  0.14676860628E+03 -0.14483129636E+04 -0.54329231393E+03  0.15538075823E+04  0.50400001928E-02 0.  1.
       -1    1    3    3    0  502 -0.14676860628E+03  0.14483129636E+04  0.10027499358E+04  0.17676704722E+04  0.50400001928E-02 0. -1.
</event>
<event>
 5   0  0.2722449E-06  0.1872327E+04  0.7818609E-02  0.8668755E-01
       -2   -1    0    0    0  501  0.00000000000E+00  0.00000000000E+00  0.22301056408E+04  0.22301056408E+04  0.25500000920E-02 0.  1.
        2   -1    0    0  501    0  0.00000000000E+00  0.00000000000E+00 -0.39298670400E+03  0.39298670401E+03  0.25500000920E-02 0. -1.
    10030    2    1    2    0    0  0.00000000000E+00  0.00000000000E+00  0.18371189368E+04  0.26230923448E+04  0.18723267507E+04 0.  0.
        2    1    3    3  502    0 -0.22810178214E+03 -0.18352257571E+03  0.21643221296E+04  0.21840332506E+04  0.25500000920E-02 0.  1.
       -2    1    3    3    0  502  0.22810178214E+03  0.18352257571E+03 -0.32720319284E+03  0.43905909423E+03  0.25500000920E-02 0. -1.
</event>
<event>
 5   0  0.1571391E-06  0.2221854E+04  0.7818609E-02  0.8509387E-01
        1   -1    0    0  501    0  0.00000000000E+00  0.00000000000E+00  0.25265604656E+04  0.25265604656E+04  0.50400001928E-02 0. -1.
       -1   -1    0    0    0  501  0.00000000000E+00  0.00000000000E+00 -0.48847375508E+03  0.48847375510E+03  0.50400001928E-02 0.  1.
    10030    2    1    2    0    0  0.00000000000E+00  0.00000000000E+00  0.20380867106E+04  0.30150342207E+04  0.22218537109E+04 0.  0.
        1    1    3    3  502    0 -0.10658768289E+04  0.99840465381E+02  0.61627326803E+03  0.12352547405E+04  0.50400001928E-02 0. -1.
       -1    1    3    3    0  502  0.10658768289E+04 -0.99840465381E+02  0.14218134425E+04  0.17797794803E+04  0.50400001928E-02 0.  1.
</event>
<event>
 5   0  0.1550164E-06  0.2532417E+04  0.7818609E-02  0.8391527E-01
       -1   -1    0    0    0  501  0.00000000000E+00  0.00000000000E+00  0.12950668027E+04  0.12950668027E+04  0.50400001928E-02 0.  1.
        1   -1    0    0  501    0  0.00000000000E+00  0.00000000000E+00 -0.12379936339E+04  0.12379936339E+04  0.50400001928E-02 0. -1.
    10030    2    1    2    0    0  0.00000000000E+00  0.00000000000E+00  0.57073168742E+02  0.25330604366E+04  0.25324173884E+04 0.  0.
        4    1    3    3  502    0  0.86224447888E+03  0.68518485143E+02 -0.89642657820E+03  0.12456895870E+04  0.12699999809E+01 0. -1.
       -4    1    3    3    0  502 -0.86224447888E+03 -0.68518485143E+02  0.95349974695E+03  0.12873708496E+04  0.12699999809E+01 0.  1.
</event>
<event>
 5   0  0.4400349E-06  0.3221201E+04  0.7818609E-02  0.8183240E-01
        2   -1    0    0  501    0  0.00000000000E+00  0.00000000000E+00  0.16092592296E+04  0.16092592297E+04  0.25500000920E-02 0.  1.
       -2   -1    0    0    0  501  0.00000000000E+00  0.00000000000E+00 -0.16119427468E+04  0.16119427468E+04  0.25500000920E-02 0. -1.
    10030    2    1    2    0    0  0.00000000000E+00  0.00000000000E+00 -0.26835171084E+01  0.32212019764E+04  0.32212008586E+04 0.  0.
        5    1    3    3  502    0 -0.11678939290E+04  0.12371648745E+03 -0.11034898871E+04  0.16115191651E+04  0.46999998093E+01 0. -1.
       -5    1    3    3    0  502  0.11678939290E+04 -0.12371648745E+03  0.11008063700E+04  0.16096828113E+04  0.46999998093E+01 0.  1.
</event>
<event>
 5   0  0.4400349E-06  0.3407858E+04  0.7818609E-02  0.8135980E-01
       -2   -1    0    0    0  501  0.00000000000E+00  0.00000000000E+00  0.15965602139E+04  0.15965602139E+04  0.25500000920E-02 0.  1.
        2   -1    0    0  501    0  0.00000000000E+00  0.00000000000E+00 -0.18185179829E+04  0.18185179829E+04  0.25500000920E-02 0. -1.
    10030    2    1    2    0    0  0.00000000000E+00  0.00000000000E+00 -0.22195776898E+03  0.34150781969E+04  0.34078576613E+04 0.  0.
        5    1    3    3  502    0 -0.11314536818E+04  0.72362532887E+02  0.11636939996E+04  0.16246936896E+04  0.46999998093E+01 0.  1.
       -5    1    3    3    0  502  0.11314536818E+04 -0.72362532887E+02 -0.13856517685E+04  0.17903845073E+04  0.46999998093E+01 0. -1.
</event>
<event>
 5   0  0.1654257E-06  0.3412259E+04  0.7818609E-02  0.8134904E-01
       -1   -1    0    0    0  501  0.00000000000E+00  0.00000000000E+00  0.20110293616E+04  0.20110293616E+04  0.50400001928E-02 0.  1.
        1   -1    0    0  501    0  0.00000000000E+00  0.00000000000E+00 -0.14474566700E+04  0.14474566700E+04  0.50400001928E-02 0. -1.
    10030    2    1    2    0    0  0.00000000000E+00  0.00000000000E+00  0.56357269153E+03  0.34584860316E+04  0.34122589955E+04 0.  0.
        3    1    3    3  502    0 -0.15528443267E+04 -0.52550205499E+03  0.76084155260E+03  0.18073067783E+04  0.10100000352E+00 0.  1.
       -3    1    3    3    0  502  0.15528443267E+04  0.52550205499E+03 -0.19726886107E+03  0.16511792533E+04  0.10100000352E+00 0. -1.
</event>
<event>
 5   0  0.1562618E-06  0.3398220E+04  0.7818609E-02  0.8138343E-01
        1   -1    0    0  501    0  0.00000000000E+00  0.00000000000E+00  0.27410030256E+04  0.27410030256E+04  0.50400001928E-02 0. -1.
       -1   -1    0    0    0  501  0.00000000000E+00  0.00000000000E+00 -0.10532549635E+04  0.10532549635E+04  0.50400001928E-02 0.  1.
    10030    2    1    2    0    0  0.00000000000E+00  0.00000000000E+00  0.16877480621E+04  0.37942579891E+04  0.33982201469E+04 0.  0.
        2    1    3    3  502    0 -0.66176507083E+03  0.12149619351E+04 -0.25744102232E+03  0.14072460313E+04  0.25500000920E-02 0.  1.
       -2    1    3    3    0  502  0.66176507083E+03 -0.12149619351E+04  0.19451890844E+04  0.23870119578E+04  0.25500000920E-02 0. -1.
</event>
<event>
 5   0  0.1562618E-06  0.2745198E+04  0.7818609E-02  0.8320487E-01
       -1   -1    0    0    0  501  0.00000000000E+00  0.00000000000E+00  0.16025386150E+04  0.16025386150E+04  0.50400001928E-02 0. -1.
        1   -1    0    0  501    0  0.00000000000E+00  0.00000000000E+00 -0.11756525934E+04  0.11756525934E+04  0.50400001928E-02 0.  1.
    10030    2    1    2    0    0  0.00000000000E+00  0.00000000000E+00  0.42688602163E+03  0.27781912084E+04  0.27451984837E+04 0.  0.
        2    1    3    3  502    0  0.13420515777E+04  0.23094911745E+03  0.38752412869E+03  0.14158442296E+04  0.25500000920E-02 0.  1.
       -2    1    3    3    0  502 -0.13420515777E+04 -0.23094911745E+03  0.39361892937E+02  0.13623469788E+04  0.25500000920E-02 0. -1.
</event>
<event>
 5   0  0.2722449E-06  0.3126453E+04  0.7818609E-02  0.8208515E-01
       -2   -1    0    0    0  501  0.00000000000E+00  0.00000000000E+00  0.16050064737E+04  0.16050064737E+04  0.25500000920E-02 0. -1.
        2   -1    0    0  501    0  0.00000000000E+00  0.00000000000E+00 -0.15225337854E+04  0.15225337854E+04  0.25500000920E-02 0.  1.
    10030    2    1    2    0    0  0.00000000000E+00  0.00000000000E+00  0.82472688266E+02  0.31275402591E+04  0.31264526748E+04 0.  0.
        2    1    3    3  502    0  0.20263802982E+03  0.27176384767E+03 -0.14853216444E+04  0.15235150630E+04  0.25500000920E-02 0.  1.
       -2    1    3    3    0  502 -0.20263802982E+03 -0.27176384767E+03  0.15677943326E+04  0.16040251960E+04  0.25500000920E-02 0. -1.
</event>
<event>
 5   0  0.1401125E-06  0.3207752E+04  0.7818609E-02  0.8186773E-01
        3   -1    0    0  501    0  0.00000000000E+00  0.00000000000E+00  0.25934815311E+04  0.25934815330E+04  0.10100000352E+00 0. -1.
       -3   -1    0    0    0  501  0.00000000000E+00  0.00000000000E+00 -0.99187841145E+03  0.99187841659E+03  0.10100000352E+00 0.  1.
    10030    2    1    2    0    0  0.00000000000E+00  0.00000000000E+00  0.16016031196E+04  0.35853599496E+04  0.32077520814E+04 0.  0.
        2    1    3    3  502    0 -0.13105188370E+04 -0.55168718584E+02  0.18324462251E+04  0.22535222159E+04  0.25500000920E-02 0. -1.
       -2    1    3    3    0  502  0.13105188370E+04  0.55168718584E+02 -0.23084310548E+03  0.13318377337E+04  0.25500000920E-02 0.  1.
</event>
<event>
 5   0  0.1654257E-06  0.2907907E+04  0.7818609E-02  0.8270529E-01
       -1   -1    0    0    0  501  0.00000000000E+00  0.00000000000E+00  0.12334713796E+04  0.12334713796E+04  0.50400001928E-02 0.  1.
        1   -1    0    0  501    0  0.00000000000E+00  0.00000000000E+00 -0.17138468501E+04  0.17138468501E+04  0.50400001928E-02 0. -1.
    10030    2    1    2    0    0  0.00000000000E+00  0.00000000000E+00 -0.48037547052E+03  0.29473182296E+04  0.29079071777E+04 0.  0.
        3    1    3    3  502    0 -0.59530331870E+03 -0.12280536134E+04  0.26808594409E+03  0.13908169550E+04  0.10100000352E+00 0.  1.
       -3    1    3    3    0  502  0.59530331870E+03  0.12280536134E+04 -0.74846141461E+03  0.15565012747E+04  0.10100000352E+00 0. -1.
</event>
<event>
 5   0  0.2722449E-06  0.3368451E+04  0.7818609E-02  0.8145693E-01
        2   -1    0    0  501    0  0.00000000000E+00  0.00000000000E+00  0.15901926052E+04  0.15901926052E+04  0.25500000920E-02 0. -1.
       -2   -1    0    0    0  501  0.00000000000E+00  0.00000000000E+00 -0.17838188857E+04  0.17838188857E+04  0.25500000920E-02 0.  1.
    10030    2    1    2    0    0  0.00000000000E+00  0.00000000000E+00 -0.19362628055E+03  0.33740114909E+04  0.33684510393E+04 0.  0.
        2    1    3    3  502    0  0.15058540780E+04  0.48792620675E+03  0.47941653062E+03  0.16539373317E+04  0.25500000920E-02 0. -1.
       -2    1    3    3    0  502 -0.15058540780E+04 -0.48792620675E+03 -0.67304281116E+03  0.17200741592E+04  0.25500000920E-02 0.  1.
</event>
<event>
 5   0  0.4344980E-06  0.3365734E+04  0.7818609E-02  0.8146368E-01
       -2   -1    0    0    0  501  0.00000000000E+00  0.00000000000E+00  0.34001286639E+04  0.34001286639E+04  0.25500000920E-02 0. -1.
        2   -1    0    0  501    0  0.00000000000E+00  0.00000000000E+00 -0.83292188173E+03  0.83292188173E+03  0.25500000920E-02 0.  1.
    10030    2    1    2    0    0  0.00000000000E+00  0.00000000000E+00  0.25672067822E+04  0.42330505457E+04  0.33657341338E+04 0.  0.
        3    1    3    3  502    0 -0.15162994244E+04  0.51235787438E+03  0.62964441792E+03  0.17199205328E+04  0.10100000352E+00 0. -1.
       -3    1    3    3    0  502  0.15162994244E+04 -0.51235787438E+03  0.19375623643E+04  0.25131300129E+04  0.10100000352E+00 0.  1.
</event>
<event>
 5   0  0.4344980E-06  0.3417106E+04  0.7818609E-02  0.8133721E-01
       -2   -1    0    0    0  501  0.00000000000E+00  0.00000000000E+00  0.89203920953E+03  0.89203920954E+03  0.25500000920E-02 0. -1.
        2   -1    0    0  501    0  0.00000000000E+00  0.00000000000E+00 -0.32724503552E+04  0.32724503552E+04  0.25500000920E-02 0.  1.
    10030    2    1    2    0    0  0.00000000000E+00  0.00000000000E+00 -0.23804111456E+04  0.41644895647E+04  0.34171063946E+04 0.  0.
        3    1    3    3  502    0  0.67390053194E+03 -0.75634452348E+03  0.48656416787E+03  0.11238076636E+04  0.10100000352E+00 0. -1.
       -3    1    3    3    0  502 -0.67390053194E+03  0.75634452348E+03 -0.28669753135E+04  0.30406819011E+04  0.10100000352E+00 0.  1.
</event>
<event>
 5   0  0.4400349E-06  0.3207485E+04  0.7818609E-02  0.8186843E-01
       -2   -1    0    0    0  501  0.00000000000E+00  0.00000000000E+00  0.12714468604E+04  0.12714468604E+04  0.25500000920E-02 0.  1.
        2   -1    0    0  501    0  0.00000000000E+00  0.00000000000E+00 -0.20228847848E+04  0.20228847848E+04  0.25500000920E-02 0. -1.
    10030    2    1    2    0    0  0.00000000000E+00  0.00000000000E+00 -0.75143792444E+03  0.32943316452E+04  0.32074853131E+04 0.  0.
        5    1    3    3  502    0 -0.86537356078E+03  0.32665548383E+03 -0.17213036489E+04  0.19540940475E+04  0.46999998093E+01 0. -1.
       -5    1    3    3    0  502  0.86537356078E+03 -0.32665548383E+03  0.96986572443E+03  0.13402375977E+04  0.46999998093E+01 0.  1.
</event>
<event>
 5   0  0.4189587E-06  0.3465276E+04  0.7818609E-02  0.8122069E-01
       -2   -1    0    0    0  501  0.00000000000E+00  0.00000000000E+00  0.12455103875E+04  0.12455103875E+04  0.25500000920E-02 0.  1.
        2   -1    0    0  501    0  0.00000000000E+00  0.00000000000E+00 -0.24102850831E+04  0.24102850831E+04  0.25500000920E-02 0. -1.
    10030    2    1    2    0    0  0.00000000000E+00  0.00000000000E+00 -0.11647746956E+04  0.36557954705E+04  0.34652763860E+04 0.  0.
        1    1    3    3  502    0  0.16512269218E+04  0.16584750195E+02 -0.28940542413E+02  0.16515637911E+04  0.50400001928E-02 0.  1.
       -1    1    3    3    0  502 -0.16512269218E+04 -0.16584750195E+02 -0.11358341531E+04  0.20042316794E+04  0.50400001928E-02 0. -1.
</event>
<event>
 5   0  0.1654257E-06  0.1740564E+04  0.7818609E-02  0.8738562E-01
       -1   -1    0    0    0  501  0.00000000000E+00  0.00000000000E+00  0.38941116102E+03  0.38941116105E+03  0.50400001928E-02 0. -1.
        1   -1    0    0  501    0  0.00000000000E+00  0.00000000000E+00 -0.19449637176E+04  0.19449637176E+04  0.50400001928E-02 0.  1.
    10030    2    1    2    0    0  0.00000000000E+00  0.00000000000E+00 -0.15555525566E+04  0.23343748787E+04  0.17405637931E+04 0.  0.
        3    1    3    3  502    0  0.25106144147E+02 -0.85138414408E+03 -0.10173350093E+04  0.13268216951E+04  0.10100000352E+00 0. -1.
       -3    1    3    3    0  502 -0.25106144147E+02  0.85138414408E+03 -0.53821754728E+03  0.10075531835E+04  0.10100000352E+00 0.  1.
</event>
<event>
 5   0  0.1654257E-06  0.2194839E+04  0.7818609E-02  0.8520579E-01
        1   -1    0    0  501    0  0.00000000000E+00  0.00000000000E+00  0.14218683662E+04  0.14218683663E+04  0.50400001928E-02 0.  1.
       -1   -1    0    0    0  501  0.00000000000E+00  0.00000000000E+00 -0.84700530349E+03  0.84700530350E+03  0.50400001928E-02 0. -1.
    10030    2    1    2    0    0  0.00000000000E+00  0.00000000000E+00  0.57486306276E+03  0.22688736698E+04  0.21948394448E+04 0.  0.
        3    1    3    3  502    0  0.24050100231E+03 -0.23471343319E+03  0.13673707578E+04  0.14080603423E+04  0.10100000352E+00 0.  1.
       -3    1    3    3    0  502 -0.24050100231E+03  0.23471343319E+03 -0.79250769509E+03  0.86081332750E+03  0.10100000352E+00 0. -1.
</event>
<event>
 5   0  0.1550164E-06  0.1678427E+04  0.7818609E-02  0.8773765E-01
       -1   -1    0    0    0  501  0.00000000000E+00  0.00000000000E+00  0.52239876542E+03  0.52239876545E+03  0.50400001928E-02 0.  1.
        1   -1    0    0  501    0  0.00000000000E+00  0.00000000000E+00 -0.13481634988E+04  0.13481634988E+04  0.50400001928E-02 0. -1.
    10030    2    1    2    0    0  0.00000000000E+00  0.00000000000E+00 -0.82576473341E+03  0.18705622643E+04  0.16784265815E+04 0.  0.
        4    1    3    3  502    0  0.61897124650E+03  0.31451358977E+03 -0.93826319855E+03  0.11672119108E+04  0.12699999809E+01 0. -1.
       -4    1    3    3    0  502 -0.61897124650E+03 -0.31451358977E+03  0.11249846514E+03  0.70335035345E+03  0.12699999809E+01 0.  1.
</event>
<event>
 5   0  0.2722449E-06  0.2894118E+04  0.7818609E-02  0.8274630E-01
        2   -1    0    0  501    0  0.00000000000E+00  0.00000000000E+00  0.26548188910E+04  0.26548188910E+04  0.25500000920E-02 0. -1.
       -2   -1    0    0    0  501  0.00000000000E+00  0.00000000000E+00 -0.78874654489E+03  0.78874654489E+03  0.25500000920E-02 0.  1.
    10030    2    1    2    0    0  0.00000000000E+00  0.00000000000E+00  0.18660723461E+04  0.34435654358E+04  0.28941176393E+04 0.  0.
        2    1    3    3  502    0 -0.90724814465E+03  0.11269561918E+04  0.89835101423E+03  0.17029867877E+04  0.25500000920E-02 0. -1.
       -2    1    3    3    0  502  0.90724814465E+03 -0.11269561918E+04  0.96772133184E+03  0.17405786481E+04  0.25500000920E-02 0.  1.
</event>
<event>
 5   0  0.1550164E-06  0.2701420E+04  0.7818609E-02  0.8334545E-01
       -1   -1    0    0    0  501  0.00000000000E+00  0.00000000000E+00  0.86436892264E+03  0.86436892266E+03  0.50400001928E-02 0. -1.
        1   -1    0    0  501    0  0.00000000000E+00  0.00000000000E+00 -0.21106924474E+04  0.21106924474E+04  0.50400001928E-02 0.  1.
    10030    2    1    2    0    0  0.00000000000E+00  0.00000000000E+00 -0.12463235247E+04  0.29750613700E+04  0.27014195948E+04 0.  0.
        4    1    3    3  502    0  0.96756109019E+03 -0.51195742557E+03  0.24828281609E+03  0.11224619541E+04  0.12699999809E+01 0. -1.
       -4    1    3    3    0  502 -0.96756109019E+03  0.51195742557E+03 -0.14946063408E+04  0.18525994159E+04  0.12699999809E+01 0.  1.
</event>
<event>
 5   0  0.4400349E-06  0.3453465E+04  0.7818609E-02  0.8124907E-01
       -2   -1    0    0    0  501  0.00000000000E+00  0.00000000000E+00  0.13576196654E+04  0.13576196654E+04  0.25500000920E-02 0. -1.
        2   -1    0    0  501    0  0.00000000000E+00  0.00000000000E+00 -0.21962007405E+04  0.21962007405E+04  0.25500000920E-02 0.  1.
    10030    2    1    2    0    0  0.00000000000E+00  0.00000000000E+00 -0.83858107513E+03  0.35538204058E+04  0.34534651088E+04 0.  0.
        5    1    3    3  502    0 -0.45839695537E+03  0.36925310678E+03 -0.20897640005E+04  0.21710852800E+04  0.46999998093E+01 0.  1.
       -5    1    3    3    0  502  0.45839695537E+03 -0.36925310678E+03  0.12511829253E+04  0.13827351258E+04  0.46999998093E+01 0. -1.
</event>
<event>
 5   0  0.1654257E-06  0.3060010E+04  0.7818609E-02  0.8226799E-01
       -1   -1    0    0    0  501  0.00000000000E+00  0.00000000000E+00  0.15755493610E+04  0.15755493610E+04  0.50400001928E-02 0. -1.
        1   -1    0    0  501    0  0.00000000000E+00  0.00000000000E+00 -0.14857774770E+04  0.14857774770E+04  0.50400001928E-02 0.  1.
    10030    2    1    2    0    0  0.00000000000E+00  0.00000000000E+00  0.89771883976E+02  0.30613268381E+04  0.30600102971E+04 0.  0.
        3    1    3    3  502    0  0.83088744947E+03 -0.78534114466E+03 -0.97230175847E+03  0.15008348966E+04  0.10100000352E+00 0.  1.
       -3    1    3    3    0  502 -0.83088744947E+03  0.78534114466E+03  0.10620736424E+04  0.15604919415E+04  0.10100000352E+00 0. -1.
</event>
<event>
 5   0  0.2722449E-06  0.3441337E+04  0.7818609E-02  0.8127835E-01
        2   -1    0    0  501    0  0.00000000000E+00  0.00000000000E+00  0.17133842380E+04  0.17133842380E+04  0.25500000920E-02 0.  1.
       -2   -1    0    0    0  501  0.00000000000E+00  0.00000000000E+00 -0.17279836117E+04  0.17279836117E+04  0.25500000920E-02 0. -1.
    10030    2    1    2    0    0  0.00000000000E+00  0.00000000000E+00 -0.14599373723E+02  0.34413678497E+04  0.34413368820E+04 0.  0.
        2    1    3    3  502    0  0.63945203452E+03  0.75040323047E+03  0.14029243247E+04  0.17147013074E+04  0.25500000920E-02 0.  1.
       -2    1    3    3    0  502 -0.63945203452E+03 -0.75040323047E+03 -0.14175236984E+04  0.17266665423E+04  0.25500000920E-02 0. -1.
</event>
<event>
 5   0  0.2722449E-06  0.3490408E+04  0.7818609E-02  0.8116067E-01
       -2   -1    0    0    0  501  0.00000000000E+00  0.00000000000E+00  0.10379992638E+04  0.10379992638E+04  0.25500000920E-02 0. -1.
        2   -1    0    0  501    0  0.00000000000E+00  0.00000000000E+00 -0.29342389148E+04  0.29342389148E+04  0.25500000920E-02 0.  1.
    10030    2    1    2    0    0  0.00000000000E+00  0.00000000000E+00 -0.18962396510E+04  0.39722381786E+04  0.34904084766E+04 0.  0.
        2    1    3    3  502    0  0.93517244620E+03 -0.65059401364E+03 -0.24527145126E+04  0.27043721185E+04  0.25500000920E-02 0.  1.
       -2    1    3    3    0  502 -0.93517244620E+03  0.65059401364E+03  0.55647486168E+03  0.12678660601E+04  0.25500000920E-02 0. -1.
</event>
<event>
 5   0  0.2722449E-06  0.3344363E+04  0.7818609E-02  0.8151698E-01
       -2   -1    0    0    0  501  0.00000000000E+00  0.00000000000E+00  0.96596882411E+03  0.96596882411E+03  0.25500000920E-02 0. -1.
        2   -1    0    0  501    0  0.00000000000E+00  0.00000000000E+00 -0.28947004259E+04  0.28947004259E+04  0.25500000920E-02 0.  1.
    10030    2    1    2    0    0  0.00000000000E+00  0.00000000000E+00 -0.19287316018E+04  0.38606692500E+04  0.33443626398E+04 0.  0.
        2    1    3    3  502    0  0.14767097845E+04 -0.46319615824E+03 -0.16953433444E+04  0.22955198810E+04  0.25500000920E-02 0.  1.
       -2    1    3    3    0  502 -0.14767097845E+04  0.46319615824E+03 -0.23338825739E+03  0.15651493690E+04  0.25500000920E-02 0. -1.
</event>
<event>
 5   0  0.1550164E-06  0.2208301E+04  0.7818609E-02  0.8514981E-01
        1   -1    0    0  501    0  0.00000000000E+00  0.00000000000E+00  0.66109238793E+03  0.66109238794E+03  0.50400001928E-02 0.  1.
       -1   -1    0    0    0  501  0.00000000000E+00  0.00000000000E+00 -0.18441415379E+04  0.18441415379E+04  0.50400001928E-02 0. -1.
    10030    2    1    2    0    0  0.00000000000E+00  0.00000000000E+00 -0.11830491500E+04  0.25052339258E+04  0.22083006435E+04 0.  0.
        4    1    3    3  502    0 -0.70963795685E+03  0.36916793794E+03 -0.14549654410E+04  0.16603605161E+04  0.12699999809E+01 0. -1.
       -4    1    3    3    0  502  0.70963795685E+03 -0.36916793794E+03  0.27191629101E+03  0.84487340971E+03  0.12699999809E+01 0.  1.
</event>
<event>
 5   0  0.4400349E-06  0.2098687E+04  0.7818609E-02  0.8561822E-01
       -2   -1    0    0    0  501  0.00000000000E+00  0.00000000000E+00  0.52189074432E+03  0.52189074432E+03  0.25500000920E-02 0. -1.
        2   -1    0    0  501    0  0.00000000000E+00  0.00000000000E+00 -0.21098697390E+04  0.21098697390E+04  0.25500000920E-02 0.  1.
    10030    2    1    2    0    0  0.00000000000E+00  0.00000000000E+00 -0.15879789947E+04  0.26317604833E+04  0.20986867213E+04 0.  0.
        5    1    3    3  502    0 -0.72950000482E+03 -0.48049274650E+03 -0.64879618683E+02  0.87594234478E+03  0.46999998093E+01 0. -1.
       -5    1    3    3    0  502  0.72950000482E+03  0.48049274650E+03 -0.15230993760E+04  0.17558181386E+04  0.46999998093E+01 0.  1.
</event>
<event>
 5   0  0.4400349E-06  0.3359652E+04  0.7818609E-02  0.8147881E-01
       -2   -1    0    0    0  501  0.00000000000E+00  0.00000000000E+00  0.11412595946E+04  0.11412595946E+04  0.25500000920E-02 0. -1.
        2   -1    0    0  501    0  0.00000000000E+00  0.00000000000E+00 -0.24725440260E+04  0.24725440260E+04  0.25500000920E-02 0.  1.
    10030    2    1    2    0    0  0.00000000000E+00  0.00000000000E+00 -0.13312844314E+04  0.36138036206E+04  0.33596515252E+04 0.  0.
        5    1    3    3  502    0 -0.78260179954E+01  0.10807755386E+04 -0.20488672301E+04  0.23164662803E+04  0.46999998093E+01 0.  1.
       -5    1    3    3    0  502  0.78260179954E+01 -0.10807755386E+04  0.71758279862E+03  0.12973373402E+04  0.46999998093E+01 0. -1.
</event>
<event>
 5   0  0.1550164E-06  0.2772017E+04  0.7818609E-02  0.8312009E-01
        1   -1    0    0  501    0  0.00000000000E+00  0.00000000000E+00  0.21194563386E+04  0.21194563386E+04  0.50400001928E-02 0.  1.
       -1   -1    0    0    0  501  0.00000000000E+00  0.00000000000E+00 -0.90637344971E+03  0.90637344973E+03  0.50400001928E-02 0. -1.
    10030    2    1    2    0    0  0.00000000000E+00  0.00000000000E+00  0.12130828889E+04  0.30258297883E+04  0.27720165607E+04 0.  0.
        4    1    3    3  502    0  0.42118120047E+03 -0.86306904249E+03 -0.48433089841E+03  0.10755741759E+04  0.12699999809E+01 0. -1.
       -4    1    3    3    0  502 -0.42118120047E+03  0.86306904249E+03  0.16974137873E+04  0.19502556124E+04  0.12699999809E+01 0.  1.
</event>
<event>
 5   0  0.1654257E-06  0.3126546E+04  0.7818609E-02  0.8208490E-01
       -1   -1    0    0    0  501  0.00000000000E+00  0.00000000000E+00  0.10710270922E+04  0.10710270922E+04  0.50400001928E-02 0.  1.
        1   -1    0    0  501    0  0.00000000000E+00  0.00000000000E+00 -0.22817561773E+04  0.22817561773E+04  0.50400001928E-02 0. -1.
    10030    2    1    2    0    0  0.00000000000E+00  0.00000000000E+00 -0.12107290851E+04  0.33527832694E+04  0.31265461350E+04 0.  0.
        3    1    3    3  502    0  0.15186502677E+04  0.25256608189E+03 -0.31417501604E+03  0.15712397055E+04  0.10100000352E+00 0.  1.
       -3    1    3    3    0  502 -0.15186502677E+04 -0.25256608189E+03 -0.89655406906E+03  0.17815435639E+04  0.10100000352E+00 0. -1.
</event>
<event>
 5   0  0.1562618E-06  0.2721973E+04  0.7818609E-02  0.8327911E-01
       -1   -1    0    0    0  501  0.00000000000E+00  0.00000000000E+00  0.18849841923E+04  0.18849841923E+04  0.50400001928E-02 0.  1.
        1   -1    0    0  501    0  0.00000000000E+00  0.00000000000E+00 -0.98265212212E+03  0.98265212213E+03  0.50400001928E-02 0. -1.
    10030    2    1    2    0    0  0.00000000000E+00  0.00000000000E+00  0.90233207015E+03  0.28676363144E+04  0.27219726058E+04 0.  0.
        2    1    3    3  502    0  0.11761363553E+04  0.71497297724E+02 -0.26636528783E+03  0.12080393439E+04  0.25500000920E-02 0. -1.
       -2    1    3    3    0  502 -0.11761363553E+04 -0.71497297724E+02  0.11686973580E+04  0.16595969705E+04  0.25500000920E-02 0.  1.
</event>
<event>
 5   0  0.4189587E-06  0.3341437E+04  0.7818609E-02  0.8152431E-01
        2   -1    0    0  501    0  0.00000000000E+00  0.00000000000E+00  0.15194121452E+04  0.15194121452E+04  0.25500000920E-02 0.  1.
       -2   -1    0    0    0  501  0.00000000000E+00  0.00000000000E+00 -0.18370926205E+04  0.18370926205E+04  0.25500000920E-02 0. -1.
    10030    2    1    2    0    0  0.00000000000E+00  0.00000000000E+00 -0.31768047530E+03  0.33565047656E+04  0.33414373191E+04 0.  0.
        1    1    3    3  502    0  0.10160092195E+04 -0.13201592552E+04 -0.30964802303E+02  0.16661494567E+04  0.50400001928E-02 0.  1.
       -1    1    3    3    0  502 -0.10160092195E+04  0.13201592552E+04 -0.28671567300E+03  0.16903553089E+04  0.50400001928E-02 0. -1.
</event>
<event>
 5   0  0.1550164E-06  0.3392274E+04  0.7818609E-02  0.8139805E-01
       -1   -1    0    0    0  501  0.00000000000E+00  0.00000000000E+00  0.11079664969E+04  0.11079664969E+04  0.50400001928E-02 0.  1.
        1   -1    0    0  501    0  0.00000000000E+00  0.00000000000E+00 -0.25965406619E+04  0.25965406619E+04  0.50400001928E-02 0. -1.
    10030    2    1    2    0    0  0.00000000000E+00  0.00000000000E+00 -0.14885741650E+04  0.37045071589E+04  0.33922736100E+04 0.  0.
        4    1    3    3  502    0 -0.16613377565E+03  0.16879307796E+04 -0.73014521973E+03  0.18465709850E+04  0.12699999809E+01 0. -1.
       -4    1    3    3    0  502  0.16613377565E+03 -0.16879307796E+04 -0.75842894531E+03  0.18579361738E+04  0.12699999809E+01 0.  1.
</event>
<event>
 5   0  0.4189587E-06  0.2708619E+04  0.7818609E-02  0.8332214E-01
        2   -1    0    0  501    0  0.00000000000E+00  0.00000000000E+00  0.25710342976E+04  0.25710342976E+04  0.25500000920E-02 0.  1.
       -2   -1    0    0    0  501  0.00000000000E+00  0.00000000000E+00 -0.71339132049E+03  0.71339132050E+03  0.25500000920E-02 0. -1.
    10030    2    1    2    0    0  0.00000000000E+00  0.00000000000E+00  0.18576429771E+04  0.32844256181E+04  0.27086185059E+04 0.  0.
        1    1    3    3  502    0 -0.20722079049E+03 -0.44097061589E+03 -0.60343384462E+03  0.77558232635E+03  0.50400001928E-02 0. -1.
       -1    1    3    3    0  502  0.20722079049E+03  0.44097061589E+03  0.24610768217E+04  0.25088432918E+04  0.50400001928E-02 0.  1.
</event>
<event>
 5   0  0.4189587E-06  0.3459152E+04  0.7818609E-02  0.8123539E-01
       -2   -1    0    0    0  501  0.00000000000E+00  0.00000000000E+00  0.19656895226E+04  0.19656895226E+04  0.25500000920E-02 0.  1.
        2   -1    0    0  501    0  0.00000000000E+00  0.00000000000E+00 -0.15218236285E+04  0.15218236285E+04  0.25500000920E-02 0. -1.
    10030    2    1    2    0    0  0.00000000000E+00  0.00000000000E+00  0.44386589415E+03  0.34875131511E+04  0.34591517815E+04 0.  0.
        1    1    3    3  502    0 -0.39003369475E+03 -0.67292615839E+03 -0.13355555566E+04  0.15455305052E+04  0.50400001928E-02 0. -1.
       -1    1    3    3    0  502  0.39003369475E+03  0.67292615839E+03  0.17794214507E+04  0.19419826459E+04  0.50400001928E-02 0.  1.
</event>
<event>
 5   0  0.4173467E-06  0.3067680E+04  0.7818609E-02  0.8224664E-01
       -2   -1    0    0    0  501  0.00000000000E+00  0.00000000000E+00  0.12175840321E+04  0.12175840321E+04  0.25500000920E-02 0.  1.
        2   -1    0    0  501    0  0.00000000000E+00  0.00000000000E+00 -0.19322401307E+04  0.19322401307E+04  0.25500000920E-02 0. -1.
    10030    2    1    2    0    0  0.00000000000E+00  0.00000000000E+00 -0.71465609863E+03  0.31498241628E+04  0.30676797286E+04 0.  0.
        4    1    3    3  502    0  0.63717955141E+03  0.54960228300E+03 -0.16740885449E+04  0.18736687326E+04  0.12699999809E+01 0. -1.
       -4    1    3    3    0  502 -0.63717955141E+03 -0.54960228300E+03  0.95943244630E+03  0.12761554302E+04  0.12699999809E+01 0.  1.
</event>
<event>
 5   0  0.4344980E-06  0.3400249E+04  0.7818609E-02  0.8137845E-01
       -2   -1    0    0    0  501  0.00000000000E+00  0.00000000000E+00  0.14119196786E+04  0.14119196786E+04  0.25500000920E-02 0.  1.
        2   -1    0    0  501    0  0.00000000000E+00  0.00000000000E+00 -0.20471586180E+04  0.20471586180E+04  0.25500000920E-02 0. -1.
    10030    2    1    2    0    0  0.00000000000E+00  0.00000000000E+00 -0.63523893937E+03  0.34590782966E+04  0.34002491309E+04 0.  0.
        3    1    3    3  502    0 -0.85361385483E+02  0.14850285886E+04 -0.11551663072E+04  0.18833495912E+04  0.10100000352E+00 0. -1.
       -3    1    3    3    0  502  0.85361385483E+02 -0.14850285886E+04  0.51992736784E+03  0.15757287054E+04  0.10100000352E+00 0.  1.
</event>
<event>
 5   0  0.2101998E-06  0.3348143E+04  0.7818609E-02  0.8150752E-01
       -1   -1    0    0    0  501  0.00000000000E+00  0.00000000000E+00  0.17948173594E+04  0.17948173594E+04  0.50400001928E-02 0.  1.
        1   -1    0    0  501    0  0.00000000000E+00  0.00000000000E+00 -0.15614490166E+04  0.15614490166E+04  0.50400001928E-02 0. -1.
    10030    2    1    2    0    0  0.00000000000E+00  0.00000000000E+00  0.23336834284E+03  0.33562663760E+04  0.33481432471E+04 0.  0.
        5    1    3    3  502    0 -0.78984181928E+03  0.11888561778E+04  0.99360059388E+03  0.17391070528E+04  0.46999998093E+01 0. -1.
       -5    1    3    3    0  502  0.78984181928E+03 -0.11888561778E+04 -0.76023225104E+03  0.16171593232E+04  0.46999998093E+01 0.  1.
</event>
<event>
 5   0  0.4189587E-06  0.2617262E+04  0.7818609E-02  0.8362361E-01
        2   -1    0    0  501    0  0.00000000000E+00  0.00000000000E+00  0.20984176240E+04  0.20984176240E+04  0.25500000920E-02 0.  1.
       -2   -1    0    0    0  501  0.00000000000E+00  0.00000000000E+00 -0.81609847057E+03  0.81609847057E+03  0.25500000920E-02 0. -1.
    10030    2    1    2    0    0  0.00000000000E+00  0.00000000000E+00  0.12823191534E+04  0.29145160946E+04  0.26172622441E+04 0.  0.
        1    1    3    3  502    0 -0.20860088095E+03 -0.21736872780E+03 -0.77695535028E+03  0.83332053120E+03  0.50400001928E-02 0. -1.
       -1    1    3    3    0  502  0.20860088095E+03  0.21736872780E+03  0.20592745037E+04  0.20811955634E+04  0.50400001928E-02 0.  1.
</event>
<event>
 5   0  0.1562618E-06  0.2067839E+04  0.7818609E-02  0.8575544E-01
       -1   -1    0    0    0  501  0.00000000000E+00  0.00000000000E+00  0.74014109129E+03  0.74014109131E+03  0.50400001928E-02 0.  1.
        1   -1    0    0  501    0  0.00000000000E+00  0.00000000000E+00 -0.14443052248E+04  0.14443052248E+04  0.50400001928E-02 0. -1.
    10030    2    1    2    0    0  0.00000000000E+00  0.00000000000E+00 -0.70416413348E+03  0.21844463161E+04  0.20678391091E+04 0.  0.
        2    1    3    3  502    0  0.77401341018E+03  0.29267246017E+03  0.30274028873E+03  0.88113881455E+03  0.25500000920E-02 0.  1.
       -2    1    3    3    0  502 -0.77401341018E+03 -0.29267246017E+03 -0.10069044222E+04  0.13033075015E+04  0.25500000920E-02 0. -1.
</event>
<event>
 5   0  0.1571391E-06  0.3056803E+04  0.7818609E-02  0.8227694E-01
       -1   -1    0    0    0  501  0.00000000000E+00  0.00000000000E+00  0.94130590993E+03  0.94130590995E+03  0.50400001928E-02 0. -1.
        1   -1    0    0  501    0  0.00000000000E+00  0.00000000000E+00 -0.24816697837E+04  0.24816697837E+04  0.50400001928E-02 0.  1.
    10030    2    1    2    0    0  0.00000000000E+00  0.00000000000E+00 -0.15403638738E+04  0.34229756937E+04  0.30568025346E+04 0.  0.
        1    1    3    3  502    0  0.95424880844E+02 -0.27055369441E+03 -0.24512487949E+04  0.24679801182E+04  0.50400001928E-02 0.  1.
       -1    1    3    3    0  502 -0.95424880844E+02  0.27055369441E+03  0.91088492115E+03  0.95499557541E+03  0.50400001928E-02 0. -1.
</event>
<event>
 5   0  0.1571391E-06  0.3385807E+04  0.7818609E-02  0.8141399E-01
       -1   -1    0    0    0  501  0.00000000000E+00  0.00000000000E+00  0.14785162565E+04  0.14785162565E+04  0.50400001928E-02 0. -1.
        1   -1    0    0  501    0  0.00000000000E+00  0.00000000000E+00 -0.19383768031E+04  0.19383768031E+04  0.50400001928E-02 0.  1.
    10030    2    1    2    0    0  0.00000000000E+00  0.00000000000E+00 -0.45986054658E+03  0.34168930596E+04  0.33858066186E+04 0.  0.
        1    1    3    3  502    0 -0.47041652356E+03 -0.16220220241E+04 -0.11191876359E+03  0.16925640200E+04  0.50400001928E-02 0. -1.
       -1    1    3    3    0  502  0.47041652356E+03  0.16220220241E+04 -0.34794178300E+03  0.17243290395E+04  0.50400001928E-02 0.  1.
</event>
<event>
 5   0  0.1654257E-06  0.3367373E+04  0.7818609E-02  0.8145961E-01
       -1   -1    0    0    0  501  0.00000000000E+00  0.00000000000E+00  0.16931456910E+04  0.16931456910E+04  0.50400001928E-02 0.  1.
        1   -1    0    0  501    0  0.00000000000E+00  0.00000000000E+00 -0.16742797382E+04  0.16742797382E+04  0.50400001928E-02 0. -1.
    10030    2    1    2    0    0  0.00000000000E+00  0.00000000000E+00  0.18865952799E+02  0.33674254291E+04  0.33673725806E+04 0.  0.
        3    1    3    3  502    0  0.47602620612E+03  0.74095040167E+03  0.14444436742E+04  0.16917523415E+04  0.10100000352E+00 0.  1.
       -3    1    3    3    0  502 -0.47602620612E+03 -0.74095040167E+03 -0.14255777214E+04  0.16756730877E+04  0.10100000352E+00 0. -1.
</event>
<event>
 5   0  0.2722449E-06  0.2076308E+04  0.7818609E-02  0.8571752E-01
       -2   -1    0    0    0  501  0.00000000000E+00  0.00000000000E+00  0.12012002170E+04  0.12012002170E+04  0.25500000920E-02 0. -1.
        2   -1    0    0  501    0  0.00000000000E+00  0.00000000000E+00 -0.89723889389E+03  0.89723889390E+03  0.25500000920E-02 0.  1.
    10030    2    1    2    0    0  0.00000000000E+00  0.00000000000E+00  0.30396132312E+03  0.20984391109E+04  0.20763078327E+04 0.  0.
        2    1    3    3  502    0  0.81950854575E+03  0.26128799835E+03  0.73946644677E+03  0.11343175484E+04  0.25500000920E-02 0. -1.
       -2    1    3    3    0  502 -0.81950854575E+03 -0.26128799835E+03 -0.43550512365E+03  0.96412156255E+03  0.25500000920E-02 0.  1.
</event>
<event>
 5   0  0.2101998E-06  0.3401643E+04  0.7818609E-02  0.8137503E-01
       -1   -1    0    0    0  501  0.00000000000E+00  0.00000000000E+00  0.14477526517E+04  0.14477526517E+04  0.50400001928E-02 0. -1.
        1   -1    0    0  501    0  0.00000000000E+00  0.00000000000E+00 -0.19981267677E+04  0.19981267677E+04  0.50400001928E-02 0.  1.
    10030    2    1    2    0    0  0.00000000000E+00  0.00000000000E+00 -0.55037411604E+03  0.34458794194E+04  0.34016427363E+04 0.  0.
        5    1    3    3  502    0 -0.10753480758E+04 -0.23544133794E+03  0.10381939418E+04  0.15131671614E+04  0.46999998093E+01 0. -1.
       -5    1    3    3    0  502  0.10753480758E+04  0.23544133794E+03 -0.15885680578E+04  0.19327122580E+04  0.46999998093E+01 0.  1.
</event>
<event>
 5   0  0.4400349E-06  0.3458343E+04  0.7818609E-02  0.8123734E-01
       -2   -1    0    0    0  501  0.00000000000E+00  0.00000000000E+00  0.15755045847E+04  0.15755045847E+04  0.25500000920E-02 0. -1.
        2   -1    0    0  501    0  0.00000000000E+00  0.00000000000E+00 -0.18978263578E+04  0.18978263578E+04  0.25500000920E-02 0.  1.
    10030    2    1    2    0    0  0.00000000000E+00  0.00000000000E+00 -0.32232177304E+03  0.34733309425E+04  0.34583430297E+04 0.  0.
        5    1    3    3  502    0  0.51042134341E+03 -0.22063215793E+03  0.14832509387E+04  0.15840656344E+04  0.46999998093E+01 0. -1.
       -5    1    3    3    0  502 -0.51042134341E+03  0.22063215793E+03 -0.18055727118E+04  0.18892653081E+04  0.46999998093E+01 0.  1.
</event>
<event>
 5   0  0.4400349E-06  0.3364390E+04  0.7818609E-02  0.8146702E-01
       -2   -1    0    0    0  501  0.00000000000E+00  0.00000000000E+00  0.16559580881E+04  0.16559580881E+04  0.25500000920E-02 0. -1.
        2   -1    0    0  501    0  0.00000000000E+00  0.00000000000E+00 -0.17088472569E+04  0.17088472569E+04  0.25500000920E-02 0.  1.
    10030    2    1    2    0    0  0.00000000000E+00  0.00000000000E+00 -0.52889168815E+02  0.33648053450E+04  0.33643896542E+04 0.  0.
        5    1    3    3  502    0  0.47552615185E+03 -0.24274517669E+03  0.15689662941E+04  0.16573254551E+04  0.46999998093E+01 0. -1.
       -5    1    3    3    0  502 -0.47552615185E+03  0.24274517669E+03 -0.16218554629E+04  0.17074798899E+04  0.46999998093E+01 0.  1.
</event>
<event>
 5   0  0.4400349E-06  0.1840823E+04  0.7818609E-02  0.8684887E-01
       -2   -1    0    0    0  501  0.00000000000E+00  0.00000000000E+00  0.77747061653E+03  0.77747061653E+03  0.25500000920E-02 0. -1.
        2   -1    0    0  501    0  0.00000000000E+00  0.00000000000E+00 -0.10896320867E+04  0.10896320867E+04  0.25500000920E-02 0.  1.
    10030    2    1    2    0    0  0.00000000000E+00  0.00000000000E+00 -0.31216147016E+03  0.18671027032E+04  0.18408225664E+04 0.  0.
        5    1    3    3  502    0 -0.62357917203E+03  0.46719840038E+03  0.34082098972E+03  0.85047420075E+03  0.46999998093E+01 0. -1.
       -5    1    3    3    0  502  0.62357917203E+03 -0.46719840038E+03 -0.65298245989E+03  0.10166285025E+04  0.46999998093E+01 0.  1.
</event>
<event>
 5   0  0.1571391E-06  0.2628921E+04  0.7818609E-02  0.8358443E-01
       -1   -1    0    0    0  501  0.00000000000E+00  0.00000000000E+00  0.10955400421E+04  0.10955400421E+04  0.50400001928E-02 0.  1.
        1   -1    0    0  501    0  0.00000000000E+00  0.00000000000E+00 -0.15771274467E+04  0.15771274467E+04  0.50400001928E-02 0. -1.
    10030    2    1    2    0    0  0.00000000000E+00  0.00000000000E+00 -0.48158740464E+03  0.26726674888E+04  0.26289208960E+04 0.  0.
        1    1    3    3  502    0  0.10859217654E+04  0.64532888328E+03 -0.61034053069E+03  0.14029223113E+04  0.50400001928E-02 0. -1.
       -1    1    3    3    0  502 -0.10859217654E+04 -0.64532888328E+03  0.12875312605E+03  0.12697451775E+04  0.50400001928E-02 0.  1.
</event>
<event>
 5   0  0.1401125E-06  0.2051644E+04  0.7818609E-02  0.8582849E-01
        4   -1    0    0  501    0  0.00000000000E+00  0.00000000000E+00  0.14201491769E+04  0.14201497448E+04  0.12699999809E+01 0. -1.
       -4   -1    0    0    0  501  0.00000000000E+00  0.00000000000E+00 -0.74098464667E+03  0.74098573502E+03  0.12699999809E+01 0.  1.
    10030    2    1    2    0    0  0.00000000000E+00  0.00000000000E+00  0.67916453023E+03  0.21611354798E+04  0.20516437563E+04 0.  0.
        5    1    3    3  502    0 -0.14820885589E+03 -0.91052749446E+03  0.81214688646E+03  0.12290772304E+04  0.46999998093E+01 0. -1.
       -5    1    3    3    0  502  0.14820885589E+03  0.91052749446E+03 -0.13298235623E+03  0.93205824936E+03  0.46999998093E+01 0.  1.
</event>
<event>
 5   0  0.4173467E-06  0.3184360E+04  0.7818609E-02  0.8192960E-01
        2   -1    0    0  501    0  0.00000000000E+00  0.00000000000E+00  0.13689123354E+04  0.13689123354E+04  0.25500000920E-02 0. -1.
       -2   -1    0    0    0  501  0.00000000000E+00  0.00000000000E+00 -0.18518621659E+04  0.18518621659E+04  0.25500000920E-02 0.  1.
    10030    2    1    2    0    0  0.00000000000E+00  0.00000000000E+00 -0.48294983048E+03  0.32207745013E+04  0.31843598806E+04 0.  0.
        4    1    3    3  502    0 -0.39061431451E+03 -0.30042817198E+03 -0.17727891106E+04  0.18400052915E+04  0.12699999809E+01 0.  1.
       -4    1    3    3    0  502  0.39061431451E+03  0.30042817198E+03  0.12898392801E+04  0.13807692098E+04  0.12699999809E+01 0. -1.
</event>
<event>
 5   0  0.4189587E-06  0.3289371E+04  0.7818609E-02  0.8165605E-01
       -2   -1    0    0    0  501  0.00000000000E+00  0.00000000000E+00  0.19667724911E+04  0.19667724911E+04  0.25500000920E-02 0. -1.
        2   -1    0    0  501    0  0.00000000000E+00  0.00000000000E+00 -0.13753448965E+04  0.13753448965E+04  0.25500000920E-02 0.  1.
    10030    2    1    2    0    0  0.00000000000E+00  0.00000000000E+00  0.59142759457E+03  0.33421173876E+04  0.32893710695E+04 0.  0.
        1    1    3    3  502    0  0.43416070950E+03  0.10243534713E+04 -0.93498774136E+03  0.14532713554E+04  0.50400001928E-02 0.  1.
       -1    1    3    3    0  502 -0.43416070950E+03 -0.10243534713E+04  0.15264153359E+04  0.18888460323E+04  0.50400001928E-02 0. -1.
</event>
<event>
 5   0  0.1401125E-06  0.3343818E+04  0.7818609E-02  0.8151834E-01
        3   -1    0    0  501    0  0.00000000000E+00  0.00000000000E+00  0.24024513030E+04  0.24024513051E+04  0.10100000352E+00 0.  1.
       -3   -1    0    0    0  501  0.00000000000E+00  0.00000000000E+00 -0.11635116275E+04  0.11635116319E+04  0.10100000352E+00 0. -1.
    10030    2    1    2    0    0  0.00000000000E+00  0.00000000000E+00  0.12389396754E+04  0.35659629370E+04  0.33438181991E+04 0.  0.
        2    1    3    3  502    0 -0.35975898861E+03 -0.83665734628E+03 -0.87576786419E+03  0.12634838333E+04  0.25500000920E-02 0. -1.
       -2    1    3    3    0  502  0.35975898861E+03  0.83665734628E+03  0.21147075396E+04  0.23024791037E+04  0.25500000920E-02 0.  1.
</event>
<event>
 5   0  0.1562618E-06  0.3248449E+04  0.7818609E-02  0.8176138E-01
        1   -1    0    0  501    0  0.00000000000E+00  0.00000000000E+00  0.15207915143E+04  0.15207915143E+04  0.50400001928E-02 0. -1.
       -1   -1    0    0    0  501  0.00000000000E+00  0.00000000000E+00 -0.17346918271E+04  0.17346918271E+04  0.50400001928E-02 0.  1.
    10030    2    1    2    0    0  0.00000000000E+00  0.00000000000E+00 -0.21390031271E+03  0.32554833414E+04  0.32484486209E+04 0.  0.
        2    1    3    3  502    0 -0.12267517382E+04 -0.17217264332E+03  0.94582052923E+03  0.15585697674E+04  0.25500000920E-02 0. -1.
       -2    1    3    3    0  502  0.12267517382E+04  0.17217264332E+03 -0.11597208419E+04  0.16969135740E+04  0.25500000920E-02 0.  1.
</event>
<event>
 5   0  0.4344980E-06  0.3708868E+04  0.7818609E-02  0.8065999E-01
        2   -1    0    0  501    0  0.00000000000E+00  0.00000000000E+00  0.23686469143E+04  0.23686469143E+04  0.25500000920E-02 0. -1.
       -2   -1    0    0    0  501  0.00000000000E+00  0.00000000000E+00 -0.14518522199E+04  0.14518522199E+04  0.25500000920E-02 0.  1.
    10030    2    1    2    0    0  0.00000000000E+00  0.00000000000E+00  0.91679469447E+03  0.38204991342E+04  0.37088679031E+04 0.  0.
        3    1    3    3  502    0  0.12891035491E+02 -0.13088138410E+04 -0.89482643437E+03  0.15855201692E+04  0.10100000352E+00 0.  1.
       -3    1    3    3    0  502 -0.12891035491E+02  0.13088138410E+04  0.18116211288E+04  0.22349789650E+04  0.10100000352E+00 0. -1.
</event>
<event>
 5   0  0.1654257E-06  0.3372483E+04  0.7818609E-02  0.8144693E-01
        1   -1    0    0  501    0  0.00000000000E+00  0.00000000000E+00  0.24270869610E+04  0.24270869610E+04  0.50400001928E-02 0.  1.
       -1   -1    0    0    0  501  0.00000000000E+00  0.00000000000E+00 -0.11715320292E+04  0.11715320292E+04  0.50400001928E-02 0. -1.
    10030    2    1    2    0    0  0.00000000000E+00  0.00000000000E+00  0.12555549317E+04  0.35986189902E+04  0.33724828317E+04 0.  0.
        3    1    3    3  502    0  0.61633742906E+03  0.56114437206E+03  0.21918953845E+04  0.23450288313E+04  0.10100000352E+00 0.  1.
       -3    1    3    3    0  502 -0.61633742906E+03 -0.56114437206E+03 -0.93634045280E+03  0.12535901589E+04  0.10100000352E+00 0. -1.
</event>
<event>
 5   0  0.4400349E-06  0.1823874E+04  0.7818609E-02  0.8693706E-01
        2   -1    0    0  501    0  0.00000000000E+00  0.00000000000E+00  0.46035374929E+03  0.46035374929E+03  0.25500000920E-02 0. -1.
       -2   -1    0    0    0  501  0.00000000000E+00  0.00000000000E+00 -0.18065000174E+04  0.18065000174E+04  0.25500000920E-02 0.  1.
    10030    2    1    2    0    0  0.00000000000E+00  0.00000000000E+00 -0.13461462681E+04  0.22668537667E+04  0.18238739607E+04 0.  0.
        5    1    3    3  502    0  0.81165808659E+03 -0.29931400106E+03 -0.31450915357E+03  0.92049759285E+03  0.46999998093E+01 0. -1.
       -5    1    3    3    0  502 -0.81165808659E+03  0.29931400106E+03 -0.10316371145E+04  0.13463561738E+04  0.46999998093E+01 0.  1.
</event>
<event>
 5   0  0.4400349E-06  0.3413380E+04  0.7818609E-02  0.8134630E-01
        2   -1    0    0  501    0  0.00000000000E+00  0.00000000000E+00  0.13707727386E+04  0.13707727386E+04  0.25500000920E-02 0.  1.
       -2   -1    0    0    0  501  0.00000000000E+00  0.00000000000E+00 -0.21249265862E+04  0.21249265862E+04  0.25500000920E-02 0. -1.
    10030    2    1    2    0    0  0.00000000000E+00  0.00000000000E+00 -0.75415384762E+03  0.34956993247E+04  0.34133803982E+04 0.  0.
        5    1    3    3  502    0  0.10661300592E+04  0.81701198395E+03 -0.14553833574E+04  0.19804809245E+04  0.46999998093E+01 0. -1.
       -5    1    3    3    0  502 -0.10661300592E+04 -0.81701198395E+03  0.70122950978E+03  0.15152184003E+04  0.46999998093E+01 0.  1.
</event>
<event>
 5   0  0.4189587E-06  0.3160508E+04  0.7818609E-02  0.8199326E-01
        2   -1    0    0  501    0  0.00000000000E+00  0.00000000000E+00  0.16231884599E+04  0.16231884599E+04  0.25500000920E-02 0.  1.
       -2   -1    0    0    0  501  0.00000000000E+00  0.00000000000E+00 -0.15384547664E+04  0.15384547664E+04  0.25500000920E-02 0. -1.
    10030    2    1    2    0    0  0.00000000000E+00  0.00000000000E+00  0.84733693541E+02  0.31616432263E+04  0.31605075687E+04 0.  0.
        1    1    3    3  502    0 -0.52613903919E+03  0.78789941286E+03  0.13075719736E+04  0.16147297729E+04  0.50400001928E-02 0.  1.
       -1    1    3    3    0  502  0.52613903919E+03 -0.78789941286E+03 -0.12228382800E+04  0.15469134534E+04  0.50400001928E-02 0. -1.
</event>
<event>
 5   0  0.1562618E-06  0.2412462E+04  0.7818609E-02  0.8434853E-01
        1   -1    0    0  501    0  0.00000000000E+00  0.00000000000E+00  0.10807034022E+04  0.10807034023E+04  0.50400001928E-02 0.  1.
       -1   -1    0    0    0  501  0.00000000000E+00  0.00000000000E+00 -0.13463387631E+04  0.13463387631E+04  0.50400001928E-02 0. -1.
    10030    2    1    2    0    0  0.00000000000E+00  0.00000000000E+00 -0.26563536085E+03  0.24270421654E+04  0.24124617152E+04 0.  0.
        2    1    3    3  502    0  0.10947402907E+03  0.11176917321E+04  0.31003991265E+03  0.11650511227E+04  0.25500000920E-02 0.  1.
       -2    1    3    3    0  502 -0.10947402907E+03 -0.11176917321E+04 -0.57567527350E+03  0.12619910426E+04  0.25500000920E-02 0. -1.
</event>
<event>
 5   0  0.2101998E-06  0.1720050E+04  0.7818609E-02  0.8750011E-01
        1   -1    0    0  501    0  0.00000000000E+00  0.00000000000E+00  0.19916015857E+04  0.19916015857E+04  0.50400001928E-02 0. -1.
       -1   -1    0    0    0  501  0.00000000000E+00  0.00000000000E+00 -0.37138117937E+03  0.37138117941E+03  0.50400001928E-02 0.  1.
    10030    2    1    2    0    0  0.00000000000E+00  0.00000000000E+00  0.16202204064E+04  0.23629827651E+04  0.17200504013E+04 0.  0.
        5    1    3    3  502    0 -0.19324018661E+03  0.43207521554E+03  0.17965528323E+04  0.18578630011E+04  0.46999998093E+01 0. -1.
       -5    1    3    3    0  502  0.19324018661E+03 -0.43207521554E+03 -0.17633242593E+03  0.50511976405E+03  0.46999998093E+01 0.  1.
</event>
<event>
 5   0  0.1654257E-06  0.2749953E+04  0.7818609E-02  0.8318977E-01
        1   -1    0    0  501    0  0.00000000000E+00  0.00000000000E+00  0.17777663188E+04  0.17777663188E+04  0.50400001928E-02 0.  1.
       -1   -1    0    0    0  501  0.00000000000E+00  0.00000000000E+00 -0.10634467224E+04  0.10634467224E+04  0.50400001928E-02 0. -1.
    10030    2    1    2    0    0  0.00000000000E+00  0.00000000000E+00  0.71431959641E+03  0.28412130411E+04  0.27499525558E+04 0.  0.
        3    1    3    3  502    0  0.10897639812E+04 -0.47247905452E+03 -0.35845704049E+03  0.12406907156E+04  0.10100000352E+00 0. -1.
       -3    1    3    3    0  502 -0.10897639812E+04  0.47247905452E+03  0.10727766369E+04  0.16005223255E+04  0.10100000352E+00 0.  1.
</event>
<event>
 5   0  0.1571391E-06  0.2422600E+04  0.7818609E-02  0.8431091E-01
        1   -1    0    0  501    0  0.00000000000E+00  0.00000000000E+00  0.15431017357E+04  0.15431017357E+04  0.50400001928E-02 0.  1.
       -1   -1    0    0    0  501  0.00000000000E+00  0.00000000000E+00 -0.95084326963E+03  0.95084326964E+03  0.50400001928E-02 0. -1.
    10030    2    1    2    0    0  0.00000000000E+00  0.00000000000E+00  0.59225846608E+03  0.24939450054E+04  0.24226001732E+04 0.  0.
        1    1    3    3  502    0  0.54156968037E+03  0.11081274082E+03 -0.81342018417E+03  0.98347830595E+03  0.50400001928E-02 0. -1.
       -1    1    3    3    0  502 -0.54156968037E+03 -0.11081274082E+03  0.14056786503E+04  0.15104666994E+04  0.50400001928E-02 0.  1.
</event>
<event>
 5   0  0.2101998E-06  0.1891372E+04  0.7818609E-02  0.8659163E-01
        1   -1    0    0  501    0  0.00000000000E+00  0.00000000000E+00  0.17329378311E+04  0.17329378311E+04  0.50400001928E-02 0.  1.
       -1   -1    0    0    0  501  0.00000000000E+00  0.00000000000E+00 -0.51607289208E+03  0.51607289211E+03  0.50400001928E-02 0. -1.
    10030    2    1    2    0    0  0.00000000000E+00  0.00000000000E+00  0.12168649390E+04  0.22490107232E+04  0.18913722408E+04 0.  0.
        5    1    3    3  502    0 -0.68332702616E+03  0.29440279225E+03  0.13024893271E+04  0.15000364549E+04  0.46999998093E+01 0.  1.
       -5    1    3    3    0  502  0.68332702616E+03 -0.29440279225E+03 -0.85624388105E+02  0.74897426831E+03  0.46999998093E+01 0. -1.
</event>
<event>
 5   0  0.1562618E-06  0.1706142E+04  0.7818609E-02  0.8757869E-01
       -1   -1    0    0    0  501  0.00000000000E+00  0.00000000000E+00  0.48018631309E+03  0.48018631312E+03  0.50400001928E-02 0.  1.
        1   -1    0    0  501    0  0.00000000000E+00  0.00000000000E+00 -0.15155153443E+04  0.15155153443E+04  0.50400001928E-02 0. -1.
    10030    2    1    2    0    0  0.00000000000E+00  0.00000000000E+00 -0.10353290312E+04  0.19957016574E+04  0.17061415248E+04 0.  0.
        2    1    3    3  502    0  0.82463383928E+03  0.21839860412E+03 -0.52150974719E+03  0.99984565589E+03  0.25500000920E-02 0.  1.
       -2    1    3    3    0  502 -0.82463383928E+03 -0.21839860412E+03 -0.51381928403E+03  0.99585600155E+03  0.25500000920E-02 0. -1.
</event>
<event>
 5   0  0.1654257E-06  0.3441546E+04  0.7818609E-02  0.8127784E-01
       -1   -1    0    0    0  501  0.00000000000E+00  0.00000000000E+00  0.28372140475E+04  0.28372140475E+04  0.50400001928E-02 0. -1.
        1   -1    0    0  501    0  0.00000000000E+00  0.00000000000E+00 -0.10436506503E+04  0.10436506504E+04  0.50400001928E-02 0.  1.
    10030    2    1    2    0    0  0.00000000000E+00  0.00000000000E+00  0.17935633971E+04  0.38808646978E+04  0.34415463303E+04 0.  0.
        3    1    3    3  502    0 -0.16169485801E+04  0.51199152373E+03  0.12243877232E+04  0.20918373115E+04  0.10100000352E+00 0.  1.
       -3    1    3    3    0  502  0.16169485801E+04 -0.51199152373E+03  0.56917567391E+03  0.17890273863E+04  0.10100000352E+00 0. -1.
</event>
<event>
 5   0  0.4173467E-06  0.3335613E+04  0.7818609E-02  0.8153892E-01
        2   -1    0    0  501    0  0.00000000000E+00  0.00000000000E+00  0.15792154998E+04  0.15792154998E+04  0.25500000920E-02 0. -1.
       -2   -1    0    0    0  501  0.00000000000E+00  0.00000000000E+00 -0.17613669354E+04  0.17613669354E+04  0.25500000920E-02 0.  1.
    10030    2    1    2    0    0  0.00000000000E+00  0.00000000000E+00 -0.18215143560E+03  0.33405824353E+04  0.33356126666E+04 0.  0.
        4    1    3    3  502    0 -0.38995775433E+03 -0.10158065487E+04 -0.13569393000E+04  0.17393147706E+04  0.12699999809E+01 0.  1.
       -4    1    3    3    0  502  0.38995775433E+03  0.10158065487E+04  0.11747878644E+04  0.16012676646E+04  0.12699999809E+01 0. -1.
</event>
<event>
 5   0  0.1654257E-06  0.3376772E+04  0.7818609E-02  0.8143631E-01
        1   -1    0    0  501    0  0.00000000000E+00  0.00000000000E+00  0.11407724792E+04  0.11407724792E+04  0.50400001928E-02 0.  1.
       -1   -1    0    0    0  501  0.00000000000E+00  0.00000000000E+00 -0.24988746496E+04  0.24988746496E+04  0.50400001928E-02 0. -1.
    10030    2    1    2    0    0  0.00000000000E+00  0.00000000000E+00 -0.13581021703E+04  0.36396471288E+04  0.33767720855E+04 0.  0.
        3    1    3    3  502    0 -0.62863884864E+02  0.20421707230E+03 -0.24842425117E+04  0.24934147966E+04  0.10100000352E+00 0. -1.
       -3    1    3    3    0  502  0.62863884864E+02 -0.20421707230E+03  0.11261403414E+04  0.11462323322E+04  0.10100000352E+00 0.  1.
</event>
<event>
 5   0  0.4344980E-06  0.1916830E+04  0.7818609E-02  0.8646524E-01
       -2   -1    0    0    0  501  0.00000000000E+00  0.00000000000E+00  0.39448973991E+03  0.39448973992E+03  0.25500000920E-02 0.  1.
        2   -1    0    0  501    0  0.00000000000E+00  0.00000000000E+00 -0.23284754574E+04  0.23284754574E+04  0.25500000920E-02 0. -1.
    10030    2    1    2    0    0  0.00000000000E+00  0.00000000000E+00 -0.19339857175E+04  0.27229651973E+04  0.19168303812E+04 0.  0.
        3    1    3    3  502    0 -0.30974401081E+03  0.82121655774E+03 -0.15139008544E+04  0.17499239396E+04  0.10100000352E+00 0.  1.
       -3    1    3    3    0  502  0.30974401081E+03 -0.82121655774E+03 -0.42008486303E+03  0.97304125775E+03  0.10100000352E+00 0. -1.
</event>
<event>
 5   0  0.4344980E-06  0.3456559E+04  0.7818609E-02  0.8124163E-01
       -2   -1    0    0    0  501  0.00000000000E+00  0.00000000000E+00  0.15826855685E+04  0.15826855685E+04  0.25500000920E-02 0.  1.
        2   -1    0    0  501    0  0.00000000000E+00  0.00000000000E+00 -0.18872672254E+04  0.18872672254E+04  0.25500000920E-02 0. -1.
    10030    2    1    2    0    0  0.00000000000E+00  0.00000000000E+00 -0.30458165688E+03  0.34699527938E+04  0.34565593306E+04 0.  0.
        3    1    3    3  502    0 -0.21152978552E+03  0.11397210834E+04  0.11345660858E+04  0.16220201020E+04  0.10100000352E+00 0.  1.
       -3    1    3    3    0  502  0.21152978552E+03 -0.11397210834E+04 -0.14391477427E+04  0.18479326918E+04  0.10100000352E+00 0. -1.
</event>
<event>
 5   0  0.4400349E-06  0.2147209E+04  0.7818609E-02  0.8540728E-01
        2   -1    0    0  501    0  0.00000000000E+00  0.00000000000E+00  0.12185479293E+04  0.12185479293E+04  0.25500000920E-02 0.  1.
       -2   -1    0    0    0  501  0.00000000000E+00  0.00000000000E+00 -0.94590217439E+03  0.94590217439E+03  0.25500000920E-02 0. -1.
    10030    2    1    2    0    0  0.00000000000E+00  0.00000000000E+00  0.27264575494E+03  0.21644501037E+04  0.21472094783E+04 0.  0.
        5    1    3    3  502    0 -0.10603134544E+04  0.12378847228E+03  0.21315441899E+02  0.10677380979E+04  0.46999998093E+01 0. -1.
       -5    1    3    3    0  502  0.10603134544E+04 -0.12378847228E+03  0.25133031304E+03  0.10967120059E+04  0.46999998093E+01 0.  1.
</event>
<event>
 5   0  0.4400349E-06  0.3111165E+04  0.7818609E-02  0.8212681E-01
       -2   -1    0    0    0  501  0.00000000000E+00  0.00000000000E+00  0.12697247058E+04  0.12697247058E+04  0.25500000920E-02 0. -1.
        2   -1    0    0  501    0  0.00000000000E+00  0.00000000000E+00 -0.19057959684E+04  0.19057959684E+04  0.25500000920E-02 0.  1.
    10030    2    1    2    0    0  0.00000000000E+00  0.00000000000E+00 -0.63607126257E+03  0.31755206741E+04  0.31111645570E+04 0.  0.
        5    1    3    3  502    0 -0.64232906143E+03 -0.14134330561E+04 -0.41717624230E+03  0.16076186533E+04  0.46999998093E+01 0. -1.
       -5    1    3    3    0  502  0.64232906143E+03  0.14134330561E+04 -0.21889502027E+03  0.15679020209E+04  0.46999998093E+01 0.  1.
</event>
<event>
 5   0  0.2101998E-06  0.3337436E+04  0.7818609E-02  0.8153435E-01
        1   -1    0    0  501    0  0.00000000000E+00  0.00000000000E+00  0.16961030840E+04  0.16961030840E+04  0.50400001928E-02 0. -1.
       -1   -1    0    0    0  501  0.00000000000E+00  0.00000000000E+00 -0.16417749565E+04  0.16417749566E+04  0.50400001928E-02 0.  1.
    10030    2    1    2    0    0  0.00000000000E+00  0.00000000000E+00  0.54328127454E+02  0.33378780406E+04  0.33374358823E+04 0.  0.
        5    1    3    3  502    0  0.93014283048E+03  0.57860026441E+02  0.14115743156E+04  0.16914720235E+04  0.46999998093E+01 0. -1.
       -5    1    3    3    0  502 -0.93014283048E+03 -0.57860026441E+02 -0.13572461882E+04  0.16464060171E+04  0.46999998093E+01 0.  1.
</event>
<event>
 5   0  0.1562618E-06  0.1988180E+04  0.7818609E-02  0.8612167E-01
       -1   -1    0    0    0  501  0.00000000000E+00  0.00000000000E+00  0.12991233238E+04  0.12991233238E+04  0.50400001928E-02 0.  1.
        1   -1    0    0  501    0  0.00000000000E+00  0.00000000000E+00 -0.76067832084E+03  0.76067832086E+03  0.50400001928E-02 0. -1.
    10030    2    1    2    0    0  0.00000000000E+00  0.00000000000E+00  0.53844500294E+03  0.20598016446E+04  0.19881800205E+04 0.  0.
        2    1    3    3  502    0 -0.84673626425E+03 -0.26345748537E+03  0.73467603027E+03  0.11515732792E+04  0.25500000920E-02 0.  1.
       -2    1    3    3    0  502  0.84673626425E+03  0.26345748537E+03 -0.19623102733E+03  0.90822836550E+03  0.25500000920E-02 0. -1.
</event>
<event>
 5   0  0.4400349E-06  0.3380076E+04  0.7818609E-02  0.8142814E-01
       -2   -1    0    0    0  501  0.00000000000E+00  0.00000000000E+00  0.11819936925E+04  0.11819936925E+04  0.25500000920E-02 0.  1.
        2   -1    0    0  501    0  0.00000000000E+00  0.00000000000E+00 -0.24164497471E+04  0.24164497471E+04  0.25500000920E-02 0. -1.
    10030    2    1    2    0    0  0.00000000000E+00  0.00000000000E+00 -0.12344560546E+04  0.35984434397E+04  0.33800759514E+04 0.  0.
        5    1    3    3  502    0  0.18722114551E+03 -0.10387810158E+03  0.11674895342E+04  0.11869693845E+04  0.46999998093E+01 0.  1.
       -5    1    3    3    0  502 -0.18722114551E+03  0.10387810158E+03 -0.24019455888E+04  0.24114740552E+04  0.46999998093E+01 0. -1.
</event>
<event>
 5   0  0.4173467E-06  0.3376346E+04  0.7818609E-02  0.8143736E-01
        2   -1    0    0  501    0  0.00000000000E+00  0.00000000000E+00  0.25761376252E+04  0.25761376252E+04  0.25500000920E-02 0. -1.
       -2   -1    0    0    0  501  0.00000000000E+00  0.00000000000E+00 -0.11062796184E+04  0.11062796184E+04  0.25500000920E-02 0.  1.
    10030    2    1    2    0    0  0.00000000000E+00  0.00000000000E+00  0.14698580068E+04  0.36824172437E+04  0.33763462791E+04 0.  0.
        4    1    3    3  502    0 -0.68376378990E+03 -0.83243794541E+03  0.21525415210E+04  0.24070568057E+04  0.12699999809E+01 0. -1.
       -4    1    3    3    0  502  0.68376378990E+03  0.83243794541E+03 -0.68268351420E+03  0.12753604380E+04  0.12699999809E+01 0.  1.
</event>
<event>
 5   0  0.1562618E-06  0.2080642E+04  0.7818609E-02  0.8569819E-01
       -1   -1    0    0    0  501  0.00000000000E+00  0.00000000000E+00  0.10459932623E+04  0.10459932623E+04  0.50400001928E-02 0.  1.
        1   -1    0    0  501    0  0.00000000000E+00  0.00000000000E+00 -0.10346795156E+04  0.10346795156E+04  0.50400001928E-02 0. -1.
    10030    2    1    2    0    0  0.00000000000E+00  0.00000000000E+00  0.11313746693E+02  0.20806727780E+04  0.20806420183E+04 0.  0.
        2    1    3    3  502    0 -0.29715195806E+02  0.29234122773E+03  0.10036302512E+04  0.10457629117E+04  0.25500000920E-02 0.  1.
       -2    1    3    3    0  502  0.29715195806E+02 -0.29234122773E+03 -0.99231650450E+03  0.10349098663E+04  0.25500000920E-02 0. -1.
</event>
<event>
 5   0  0.4189587E-06  0.3435354E+04  0.7818609E-02  0.8129283E-01
        2   -1    0    0  501    0  0.00000000000E+00  0.00000000000E+00  0.20167769499E+04  0.20167769499E+04  0.25500000920E-02 0. -1.
       -2   -1    0    0    0  501  0.00000000000E+00  0.00000000000E+00 -0.14629354600E+04  0.14629354600E+04  0.25500000920E-02 0.  1.
    10030    2    1    2    0    0  0.00000000000E+00  0.00000000000E+00  0.55384148983E+03  0.34797124099E+04  0.34353541389E+04 0.  0.
        1    1    3    3  502    0 -0.68047375138E+03 -0.15601300435E+04  0.51091057696E+03  0.17770987302E+04  0.50400001928E-02 0. -1.
       -1    1    3    3    0  502  0.68047375138E+03  0.15601300435E+04  0.42930912869E+02  0.17026136797E+04  0.50400001928E-02 0.  1.
</event>
<event>
 5   0  0.1550164E-06  0.3394366E+04  0.7818609E-02  0.8139291E-01
        1   -1    0    0  501    0  0.00000000000E+00  0.00000000000E+00  0.18012379869E+04  0.18012379869E+04  0.50400001928E-02 0.  1.
       -1   -1    0    0    0  501  0.00000000000E+00  0.00000000000E+00 -0.15991388531E+04  0.15991388532E+04  0.50400001928E-02 0. -1.
    10030    2    1    2    0    0  0.00000000000E+00  0.00000000000E+00  0.20209913377E+03  0.34003768401E+04  0.33943657132E+04 0.  0.
        4    1    3    3  502    0 -0.11019945185E+04 -0.87972459521E+03 -0.84514454013E+03  0.16439520032E+04  0.12699999809E+01 0. -1.
       -4    1    3    3    0  502  0.11019945185E+04  0.87972459521E+03  0.10472436739E+04  0.17564248369E+04  0.12699999809E+01 0.  1.
</event>
<event>
 5   0  0.4344980E-06  0.3392262E+04  0.7818609E-02  0.8139808E-01
       -2   -1    0    0    0  501  0.00000000000E+00  0.00000000000E+00  0.18313775722E+04  0.18313775722E+04  0.25500000920E-02 0.  1.
        2   -1    0    0  501    0  0.00000000000E+00  0.00000000000E+00 -0.15708725088E+04  0.15708725088E+04  0.25500000920E-02 0. -1.
    10030    2    1    2    0    0  0.00000000000E+00  0.00000000000E+00  0.26050506342E+03  0.34022500810E+04  0.33922621841E+04 0.  0.
        3    1    3    3  502    0 -0.16189797726E+04  0.20022424179E+03  0.59602857622E+03  0.17367887969E+04  0.10100000352E+00 0.  1.
       -3    1    3    3    0  502  0.16189797726E+04 -0.20022424179E+03 -0.33552351280E+03  0.16654612841E+04  0.10100000352E+00 0. -1.
</event>
<event>
 5   0  0.1550164E-06  0.3520543E+04  0.7818609E-02  0.8108939E-01
       -1   -1    0    0    0  501  0.00000000000E+00  0.00000000000E+00  0.22562836478E+04  0.22562836478E+04  0.50400001928E-02 0. -1.
        1   -1    0    0  501    0  0.00000000000E+00  0.00000000000E+00 -0.13733008125E+04  0.13733008125E+04  0.50400001928E-02 0.  1.
    10030    2    1    2    0    0  0.00000000000E+00  0.00000000000E+00  0.88298283528E+03  0.36295844604E+04  0.35205432347E+04 0.  0.
        4    1    3    3  502    0 -0.64816855376E+03 -0.14024722581E+04  0.13111239729E+04  0.20263510540E+04  0.12699999809E+01 0. -1.
       -4    1    3    3    0  502  0.64816855376E+03  0.14024722581E+04 -0.42814113757E+03  0.16032334064E+04  0.12699999809E+01 0.  1.
</event>
<event>
 5   0  0.4344980E-06  0.3098292E+04  0.7818609E-02  0.8216207E-01
       -2   -1    0    0    0  501  0.00000000000E+00  0.00000000000E+00  0.12600305540E+04  0.12600305540E+04  0.25500000920E-02 0. -1.
        2   -1    0    0  501    0  0.00000000000E+00  0.00000000000E+00 -0.19045989984E+04  0.19045989984E+04  0.25500000920E-02 0.  1.
    10030    2    1    2    0    0  0.00000000000E+00  0.00000000000E+00 -0.64456844442E+03  0.31646295524E+04  0.30982917429E+04 0.  0.
        3    1    3    3  502    0  0.17489087730E+03 -0.11300319877E+04 -0.13897901757E+04  0.17997432747E+04  0.10100000352E+00 0.  1.
       -3    1    3    3    0  502 -0.17489087730E+03  0.11300319877E+04  0.74522173125E+03  0.13648862777E+04  0.10100000352E+00 0. -1.
</event>
<event>
 5   0  0.2722449E-06  0.3546482E+04  0.7818609E-02  0.8102862E-01
        2   -1    0    0  501    0  0.00000000000E+00  0.00000000000E+00  0.29611418620E+04  0.29611418620E+04  0.25500000920E-02 0. -1.
       -2   -1    0    0    0  501  0.00000000000E+00  0.00000000000E+00 -0.10618822397E+04  0.10618822397E+04  0.25500000920E-02 0.  1.
    10030    2    1    2    0    0  0.00000000000E+00  0.00000000000E+00  0.18992596224E+04  0.40230241017E+04  0.35464821739E+04 0.  0.
        2    1    3    3  502    0  0.91017421911E+03 -0.15126768379E+04  0.11386842126E+04  0.21007641612E+04  0.25500000920E-02 0. -1.
       -2    1    3    3    0  502 -0.91017421911E+03  0.15126768379E+04  0.76057540977E+03  0.19222599405E+04  0.25500000920E-02 0.  1.
</event>
<event>
 5   0  0.2722449E-06  0.3358724E+04  0.7818609E-02  0.8148112E-01
       -2   -1    0    0    0  501  0.00000000000E+00  0.00000000000E+00  0.14583542946E+04  0.14583542946E+04  0.25500000920E-02 0.  1.
        2   -1    0    0  501    0  0.00000000000E+00  0.00000000000E+00 -0.19338623557E+04  0.19338623557E+04  0.25500000920E-02 0. -1.
    10030    2    1    2    0    0  0.00000000000E+00  0.00000000000E+00 -0.47550806109E+03  0.33922166502E+04  0.33587238478E+04 0.  0.
        2    1    3    3  502    0  0.10643279578E+04  0.12538712989E+04  0.10514478924E+03  0.16480420694E+04  0.25500000920E-02 0.  1.
       -2    1    3    3    0  502 -0.10643279578E+04 -0.12538712989E+04 -0.58065285033E+03  0.17441745808E+04  0.25500000920E-02 0. -1.
</event>
<event>
 5   0  0.2722449E-06  0.3278362E+04  0.7818609E-02  0.8168423E-01
       -2   -1    0    0    0  501  0.00000000000E+00  0.00000000000E+00  0.13104456226E+04  0.13104456226E+04  0.25500000920E-02 0.  1.
        2   -1    0    0  501    0  0.00000000000E+00  0.00000000000E+00 -0.20503824204E+04  0.20503824204E+04  0.25500000920E-02 0. -1.
    10030    2    1    2    0    0  0.00000000000E+00  0.00000000000E+00 -0.73993679780E+03  0.33608280430E+04  0.32783621932E+04 0.  0.
        2    1    3    3  502    0  0.34963230615E+03  0.36477375874E+00 -0.20117117140E+04  0.20418684833E+04  0.25500000920E-02 0. -1.
       -2    1    3    3    0  502 -0.34963230615E+03 -0.36477375874E+00  0.12717749162E+04  0.13189595597E+04  0.25500000920E-02 0.  1.
</event>
<event>
 5   0  0.1562618E-06  0.3515280E+04  0.7818609E-02  0.8110178E-01
        1   -1    0    0  501    0  0.00000000000E+00  0.00000000000E+00  0.19774084376E+04  0.19774084376E+04  0.50400001928E-02 0.  1.
       -1   -1    0    0    0  501  0.00000000000E+00  0.00000000000E+00 -0.15622964180E+04  0.15622964180E+04  0.50400001928E-02 0. -1.
    10030    2    1    2    0    0  0.00000000000E+00  0.00000000000E+00  0.41511201958E+03  0.35397048556E+04  0.35152798574E+04 0.  0.
        2    1    3    3  502    0 -0.16340878567E+04  0.34184093008E+03  0.76110264293E+03  0.18347685353E+04  0.25500000920E-02 0. -1.
       -2    1    3    3    0  502  0.16340878567E+04 -0.34184093008E+03 -0.34599062334E+03  0.17049363203E+04  0.25500000920E-02 0.  1.
</event>
<event>
 5   0  0.2722449E-06  0.3456686E+04  0.7818609E-02  0.8124132E-01
       -2   -1    0    0    0  501  0.00000000000E+00  0.00000000000E+00  0.98462334540E+03  0.98462334540E+03  0.25500000920E-02 0.  1.
        2   -1    0    0  501    0  0.00000000000E+00  0.00000000000E+00 -0.30338202225E+04  0.30338202225E+04  0.25500000920E-02 0. -1.
    10030    2    1    2    0    0  0.00000000000E+00  0.00000000000E+00 -0.20491968771E+04  0.40184435679E+04  0.34566863999E+04 0.  0.
        2    1    3    3  502    0  0.83114388679E+03 -0.14898402162E+04 -0.13466506572E+04  0.21734516380E+04  0.25500000920E-02 0.  1.
       -2    1    3    3    0  502 -0.83114388679E+03  0.14898402162E+04 -0.70254621993E+03  0.18449919299E+04  0.25500000920E-02 0. -1.
</event>
<event>
 5   0  0.4400349E-06  0.3478447E+04  0.7818609E-02  0.8118917E-01
       -2   -1    0    0    0  501  0.00000000000E+00  0.00000000000E+00  0.14190135489E+04  0.14190135489E+04  0.25500000920E-02 0.  1.
        2   -1    0    0  501    0  0.00000000000E+00  0.00000000000E+00 -0.21316912428E+04  0.21316912428E+04  0.25500000920E-02 0. -1.
    10030    2    1    2    0    0  0.00000000000E+00  0.00000000000E+00 -0.71267769391E+03  0.35507047917E+04  0.34784472142E+04 0.  0.
        5    1    3    3  502    0 -0.12840140696E+04 -0.18441151181E+03 -0.15389283877E+04  0.20127151833E+04  0.46999998093E+01 0. -1.
       -5    1    3    3    0  502  0.12840140696E+04  0.18441151181E+03  0.82625069379E+03  0.15379896084E+04  0.46999998093E+01 0.  1.
</event>
<event>
 5   0  0.4344980E-06  0.2504023E+04  0.7818609E-02  0.8401554E-01
       -2   -1    0    0    0  501  0.00000000000E+00  0.00000000000E+00  0.12526157677E+04  0.12526157677E+04  0.25500000920E-02 0. -1.
        2   -1    0    0  501    0  0.00000000000E+00  0.00000000000E+00 -0.12514075653E+04  0.12514075653E+04  0.25500000920E-02 0.  1.
    10030    2    1    2    0    0  0.00000000000E+00  0.00000000000E+00  0.12082024785E+01  0.25040233330E+04  0.25040230415E+04 0.  0.
        3    1    3    3  502    0  0.20650962915E+03  0.72412135567E+03 -0.99966341607E+03  0.12515290329E+04  0.10100000352E+00 0.  1.
       -3    1    3    3    0  502 -0.20650962915E+03 -0.72412135567E+03  0.10008716186E+04  0.12524943001E+04  0.10100000352E+00 0. -1.
</event>
<event>
 5   0  0.4189587E-06  0.3397197E+04  0.7818609E-02  0.8138595E-01
        2   -1    0    0  501    0  0.00000000000E+00  0.00000000000E+00  0.15061055513E+04  0.15061055513E+04  0.25500000920E-02 0.  1.
       -2   -1    0    0    0  501  0.00000000000E+00  0.00000000000E+00 -0.19156933181E+04  0.19156933181E+04  0.25500000920E-02 0. -1.
    10030    2    1    2    0    0  0.00000000000E+00  0.00000000000E+00 -0.40958776684E+03  0.34217988694E+04  0.33971966919E+04 0.  0.
        1    1    3    3  502    0  0.94347377482E+03 -0.94580135802E+03  0.85187602436E+03  0.15844165278E+04  0.50400001928E-02 0.  1.
       -1    1    3    3    0  502 -0.94347377482E+03  0.94580135802E+03 -0.12614637912E+04  0.18373823416E+04  0.50400001928E-02 0. -1.
</event>
<event>
 5   0  0.1654257E-06  0.3131017E+04  0.7818609E-02  0.8207277E-01
       -1   -1    0    0    0  501  0.00000000000E+00  0.00000000000E+00  0.14341908978E+04  0.14341908978E+04  0.50400001928E-02 0.  1.
        1   -1    0    0  501    0  0.00000000000E+00  0.00000000000E+00 -0.17088494637E+04  0.17088494637E+04  0.50400001928E-02 0. -1.
    10030    2    1    2    0    0  0.00000000000E+00  0.00000000000E+00 -0.27465856585E+03  0.31430403615E+04  0.31310166697E+04 0.  0.
        3    1    3    3  502    0 -0.11434150624E+04  0.10352755743E+04  0.13132284008E+03  0.15480436745E+04  0.10100000352E+00 0. -1.
       -3    1    3    3    0  502  0.11434150624E+04 -0.10352755743E+04 -0.40598140594E+03  0.15949966870E+04  0.10100000352E+00 0.  1.
</event>
<event>
 5   0  0.1550164E-06  0.3541384E+04  0.7818609E-02  0.8104052E-01
       -1   -1    0    0    0  501  0.00000000000E+00  0.00000000000E+00  0.19433779966E+04  0.19433779967E+04  0.50400001928E-02 0. -1.
        1   -1    0    0  501    0  0.00000000000E+00  0.00000000000E+00 -0.16133508314E+04  0.16133508314E+04  0.50400001928E-02 0.  1.
    10030    2    1    2    0    0  0.00000000000E+00  0.00000000000E+00  0.33002716521E+03  0.35567288281E+04  0.35413841965E+04 0.  0.
        4    1    3    3  502    0 -0.21233184034E+03  0.17399531150E+04  0.41675327912E+03  0.18017232200E+04  0.12699999809E+01 0. -1.
       -4    1    3    3    0  502  0.21233184034E+03 -0.17399531150E+04 -0.86726113907E+02  0.17550056081E+04  0.12699999809E+01 0.  1.
</event>
<event>
 5   0  0.4189587E-06  0.3361901E+04  0.7818609E-02  0.8147321E-01
        2   -1    0    0  501    0  0.00000000000E+00  0.00000000000E+00  0.17630134562E+04  0.17630134562E+04  0.25500000920E-02 0. -1.
       -2   -1    0    0    0  501  0.00000000000E+00  0.00000000000E+00 -0.16027075441E+04  0.16027075441E+04  0.25500000920E-02 0.  1.
    10030    2    1    2    0    0  0.00000000000E+00  0.00000000000E+00  0.16030591210E+03  0.33657210003E+04  0.33619012279E+04 0.  0.
        1    1    3    3  502    0 -0.12947459153E+04  0.54752713207E+03  0.10028519209E+04  0.17268077254E+04  0.50400001928E-02 0. -1.
       -1    1    3    3    0  502  0.12947459153E+04 -0.54752713207E+03 -0.84254600876E+03  0.16389132748E+04  0.50400001928E-02 0.  1.
</event>
<event>
 5   0  0.4400349E-06  0.3213642E+04  0.7818609E-02  0.8185224E-01
        2   -1    0    0  501    0  0.00000000000E+00  0.00000000000E+00  0.14872807897E+04  0.14872807897E+04  0.25500000920E-02 0.  1.
       -2   -1    0    0    0  501  0.00000000000E+00  0.00000000000E+00 -0.17359696921E+04  0.17359696921E+04  0.25500000920E-02 0. -1.
    10030    2    1    2    0    0  0.00000000000E+00  0.00000000000E+00 -0.24868890246E+03  0.32232504818E+04  0.32136424036E+04 0.  0.
        5    1    3    3  502    0 -0.11224684423E+04  0.90081093594E+03  0.59225404504E+03  0.15563363037E+04  0.46999998093E+01 0.  1.
       -5    1    3    3    0  502  0.11224684423E+04 -0.90081093594E+03 -0.84094294750E+03  0.16669141781E+04  0.46999998093E+01 0. -1.
</event>
<event>
 5   0  0.2722449E-06  0.2951299E+04  0.7818609E-02  0.8257776E-01
        2   -1    0    0  501    0  0.00000000000E+00  0.00000000000E+00  0.17927853754E+04  0.17927853754E+04  0.25500000920E-02 0.  1.
       -2   -1    0    0    0  501  0.00000000000E+00  0.00000000000E+00 -0.12146136881E+04  0.12146136881E+04  0.25500000920E-02 0. -1.
    10030    2    1    2    0    0  0.00000000000E+00  0.00000000000E+00  0.57817168727E+03  0.30073990636E+04  0.29512991423E+04 0.  0.
        2    1    3    3  502    0 -0.91823813284E+03 -0.40517959790E+03  0.13914109758E+04  0.17156212515E+04  0.25500000920E-02 0.  1.
       -2    1    3    3    0  502  0.91823813284E+03  0.40517959790E+03 -0.81323928853E+03  0.12917778120E+04  0.25500000920E-02 0. -1.
</event>
<event>
 5   0  0.1550164E-06  0.3070822E+04  0.7818609E-02  0.8223792E-01
        1   -1    0    0  501    0  0.00000000000E+00  0.00000000000E+00  0.22305461368E+04  0.22305461368E+04  0.50400001928E-02 0. -1.
       -1   -1    0    0    0  501  0.00000000000E+00  0.00000000000E+00 -0.10569098834E+04  0.10569098834E+04  0.50400001928E-02 0.  1.
    10030    2    1    2    0    0  0.00000000000E+00  0.00000000000E+00  0.11736362534E+04  0.32874560202E+04  0.30708215561E+04 0.  0.
        4    1    3    3  502    0 -0.10440802878E+04  0.11188812259E+04  0.45359728117E+03  0.15961675825E+04  0.12699999809E+01 0. -1.
       -4    1    3    3    0  502  0.10440802878E+04 -0.11188812259E+04  0.72003897225E+03  0.16912884377E+04  0.12699999809E+01 0.  1.
</event>
<event>
 5   0  0.2722449E-06  0.2709657E+04  0.7818609E-02  0.8331879E-01
       -2   -1    0    0    0  501  0.00000000000E+00  0.00000000000E+00  0.14012515512E+04  0.14012515512E+04  0.25500000920E-02 0.  1.
        2   -1    0    0  501    0  0.00000000000E+00  0.00000000000E+00 -0.13099430986E+04  0.13099430986E+04  0.25500000920E-02 0. -1.
    10030    2    1    2    0    0  0.00000000000E+00  0.00000000000E+00  0.91308452636E+02  0.27111946498E+04  0.27096566564E+04 0.  0.
        2    1    3    3  502    0  0.12536900444E+04  0.10923977655E+03  0.54782328690E+03  0.13725095300E+04  0.25500000920E-02 0. -1.
       -2    1    3    3    0  502 -0.12536900444E+04 -0.10923977655E+03 -0.45651483427E+03  0.13386851198E+04  0.25500000920E-02 0.  1.
</event>
<event>
 5   0  0.4173467E-06  0.3439747E+04  0.7818609E-02  0.8128219E-01
       -2   -1    0    0    0  501  0.00000000000E+00  0.00000000000E+00  0.16182119808E+04  0.16182119808E+04  0.25500000920E-02 0.  1.
        2   -1    0    0  501    0  0.00000000000E+00  0.00000000000E+00 -0.18279221523E+04  0.18279221523E+04  0.25500000920E-02 0. -1.
    10030    2    1    2    0    0  0.00000000000E+00  0.00000000000E+00 -0.20971017155E+03  0.34461341331E+04  0.34397473901E+04 0.  0.
        4    1    3    3  502    0  0.86977896292E+03 -0.77533501968E+03  0.11625250134E+04  0.16459422398E+04  0.12699999809E+01 0.  1.
       -4    1    3    3    0  502 -0.86977896292E+03  0.77533501968E+03 -0.13722351849E+04  0.18001918933E+04  0.12699999809E+01 0. -1.
</event>
<event>
 5   0  0.2722449E-06  0.3389246E+04  0.7818609E-02  0.8140551E-01
       -2   -1    0    0    0  501  0.00000000000E+00  0.00000000000E+00  0.26835258692E+04  0.26835258692E+04  0.25500000920E-02 0.  1.
        2   -1    0    0  501    0  0.00000000000E+00  0.00000000000E+00 -0.10701396338E+04  0.10701396338E+04  0.25500000920E-02 0. -1.
    10030    2    1    2    0    0  0.00000000000E+00  0.00000000000E+00  0.16133862354E+04  0.37536655030E+04  0.33892461645E+04 0.  0.
        2    1    3    3  502    0  0.27162100734E+03  0.12789531283E+04  0.20006864965E+04  0.23900304461E+04  0.25500000920E-02 0.  1.
       -2    1    3    3    0  502 -0.27162100734E+03 -0.12789531283E+04 -0.38730026115E+03  0.13636350569E+04  0.25500000920E-02 0. -1.
</event>
<event>
 5   0  0.1571391E-06  0.2585456E+04  0.7818609E-02  0.8373158E-01
       -1   -1    0    0    0  501  0.00000000000E+00  0.00000000000E+00  0.11882211555E+04  0.11882211555E+04  0.50400001928E-02 0. -1.
        1   -1    0    0  501    0  0.00000000000E+00  0.00000000000E+00 -0.14064264734E+04  0.14064264734E+04  0.50400001928E-02 0.  1.
    10030    2    1    2    0    0  0.00000000000E+00  0.00000000000E+00 -0.21820531790E+03  0.25946476288E+04  0.25854560056E+04 0.  0.
        1    1    3    3  502    0  0.83685524921E+03 -0.35997218214E+03  0.81134889533E+03  0.12199154520E+04  0.50400001928E-02 0. -1.
       -1    1    3    3    0  502 -0.83685524921E+03  0.35997218214E+03 -0.10295542132E+04  0.13747321768E+04  0.50400001928E-02 0.  1.
</event>
<event>
 5   0  0.1401125E-06  0.3474635E+04  0.7818609E-02  0.8119828E-01
       -3   -1    0    0    0  501  0.00000000000E+00  0.00000000000E+00  0.17101476420E+04  0.17101476450E+04  0.10100000352E+00 0. -1.
        3   -1    0    0  501    0  0.00000000000E+00  0.00000000000E+00 -0.17649191635E+04  0.17649191664E+04  0.10100000352E+00 0.  1.
    10030    2    1    2    0    0  0.00000000000E+00  0.00000000000E+00 -0.54771521502E+02  0.34750668115E+04  0.34746351499E+04 0.  0.
        3    1    3    3  502    0  0.34461287910E+02  0.16336678100E+04  0.56278436428E+03  0.17282315657E+04  0.10100000352E+00 0. -1.
       -3    1    3    3    0  502 -0.34461287910E+02 -0.16336678100E+04 -0.61755588579E+03  0.17468352458E+04  0.10100000352E+00 0.  1.
</event>
<event>
 5   0  0.1550164E-06  0.3466946E+04  0.7818609E-02  0.8121668E-01
       -1   -1    0    0    0  501  0.00000000000E+00  0.00000000000E+00  0.13082962811E+04  0.13082962811E+04  0.50400001928E-02 0. -1.
        1   -1    0    0  501    0  0.00000000000E+00  0.00000000000E+00 -0.22968256306E+04  0.22968256306E+04  0.50400001928E-02 0.  1.
    10030    2    1    2    0    0  0.00000000000E+00  0.00000000000E+00 -0.98852934949E+03  0.36051219117E+04  0.34669458783E+04 0.  0.
        4    1    3    3  502    0 -0.10431725204E+04  0.37781785536E+03 -0.18792533500E+04  0.21823267412E+04  0.12699999809E+01 0.  1.
       -4    1    3    3    0  502  0.10431725204E+04 -0.37781785536E+03  0.89072400049E+03  0.14227951705E+04  0.12699999809E+01 0. -1.
</event>
<event>
 5   0  0.1562618E-06  0.3431851E+04  0.7818609E-02  0.8130133E-01
       -1   -1    0    0    0  501  0.00000000000E+00  0.00000000000E+00  0.12208645970E+04  0.12208645970E+04  0.50400001928E-02 0. -1.
        1   -1    0    0  501    0  0.00000000000E+00  0.00000000000E+00 -0.24117343271E+04  0.24117343271E+04  0.50400001928E-02 0.  1.
    10030    2    1    2    0    0  0.00000000000E+00  0.00000000000E+00 -0.11908697301E+04  0.36325989241E+04  0.34318514288E+04 0.  0.
        2    1    3    3  502    0 -0.30238098751E+03 -0.75593197960E+03  0.10033955814E+04  0.12921571546E+04  0.25500000920E-02 0. -1.
       -2    1    3    3    0  502  0.30238098751E+03  0.75593197960E+03 -0.21942653115E+04  0.23404417695E+04  0.25500000920E-02 0.  1.
</event>
<event>
 5   0  0.2722449E-06  0.3374674E+04  0.7818609E-02  0.8144150E-01
        2   -1    0    0  501    0  0.00000000000E+00  0.00000000000E+00  0.21924577132E+04  0.21924577132E+04  0.25500000920E-02 0. -1.
       -2   -1    0    0    0  501  0.00000000000E+00  0.00000000000E+00 -0.12985914450E+04  0.12985914450E+04  0.25500000920E-02 0.  1.
    10030    2    1    2    0    0  0.00000000000E+00  0.00000000000E+00  0.89386626825E+03  0.34910491582E+04  0.33746744020E+04 0.  0.
        2    1    3    3  502    0  0.49998794886E+03 -0.38885175562E+03 -0.11709405345E+04  0.13312758438E+04  0.25500000920E-02 0.  1.
       -2    1    3    3    0  502 -0.49998794886E+03  0.38885175562E+03  0.20648068028E+04  0.21597733144E+04  0.25500000920E-02 0. -1.
</event>
<event>
 5   0  0.4400349E-06  0.3376951E+04  0.7818609E-02  0.8143586E-01
        2   -1    0    0  501    0  0.00000000000E+00  0.00000000000E+00  0.22999092085E+04  0.22999092085E+04  0.25500000920E-02 0. -1.
       -2   -1    0    0    0  501  0.00000000000E+00  0.00000000000E+00 -0.12395924872E+04  0.12395924872E+04  0.25500000920E-02 0.  1.
    10030    2    1    2    0    0  0.00000000000E+00  0.00000000000E+00  0.10603167213E+04  0.35395016956E+04  0.33769513920E+04 0.  0.
        5    1    3    3  502    0  0.98224691483E+03  0.72928674674E+02  0.19675948997E+04  0.22003589190E+04  0.46999998093E+01 0. -1.
       -5    1    3    3    0  502 -0.98224691483E+03 -0.72928674674E+02 -0.90727817835E+03  0.13391427766E+04  0.46999998093E+01 0.  1.
</event>
<event>
 5   0  0.1571391E-06  0.3487201E+04  0.7818609E-02  0.8116830E-01
       -1   -1    0    0    0  501  0.00000000000E+00  0.00000000000E+00  0.11962235500E+04  0.11962235500E+04  0.50400001928E-02 0.  1.
        1   -1    0    0  501    0  0.00000000000E+00  0.00000000000E+00 -0.25414500899E+04  0.25414500899E+04  0.50400001928E-02 0. -1.
    10030    2    1    2    0    0  0.00000000000E+00  0.00000000000E+00 -0.13452265399E+04  0.37376736399E+04  0.34872008538E+04 0.  0.
        1    1    3    3  502    0  0.40393972414E+03 -0.39032027261E+03  0.10965902815E+04  0.12320825709E+04  0.50400001928E-02 0.  1.
       -1    1    3    3    0  502 -0.40393972414E+03  0.39032027261E+03 -0.24418168214E+04  0.25055910691E+04  0.50400001928E-02 0. -1.
</event>
<event>
 5   0  0.4173467E-06  0.2617806E+04  0.7818609E-02  0.8362178E-01
       -2   -1    0    0    0  501  0.00000000000E+00  0.00000000000E+00  0.15493823061E+04  0.15493823061E+04  0.25500000920E-02 0. -1.
        2   -1    0    0  501    0  0.00000000000E+00  0.00000000000E+00 -0.11057481159E+04  0.11057481159E+04  0.25500000920E-02 0.  1.
    10030    2    1    2    0    0  0.00000000000E+00  0.00000000000E+00  0.44363419017E+03  0.26551304220E+04  0.26178056199E+04 0.  0.
        4    1    3    3  502    0  0.12033939464E+04 -0.51273993513E+03  0.17461624985E+03  0.13196786272E+04  0.12699999809E+01 0.  1.
       -4    1    3    3    0  502 -0.12033939464E+04  0.51273993513E+03  0.26901794033E+03  0.13354517949E+04  0.12699999809E+01 0. -1.
</event>
<event>
 5   0  0.1550164E-06  0.3397972E+04  0.7818609E-02  0.8138404E-01
        1   -1    0    0  501    0  0.00000000000E+00  0.00000000000E+00  0.95630394062E+03  0.95630394063E+03  0.50400001928E-02 0. -1.
       -1   -1    0    0    0  501  0.00000000000E+00  0.00000000000E+00 -0.30184469471E+04  0.30184469471E+04  0.50400001928E-02 0.  1.
    10030    2    1    2    0    0  0.00000000000E+00  0.00000000000E+00 -0.20621430065E+04  0.39747508877E+04  0.33979715773E+04 0.  0.
        4    1    3    3  502    0 -0.55126348998E+03  0.15880512171E+04 -0.13193910022E+04  0.21369586643E+04  0.12699999809E+01 0. -1.
       -4    1    3    3    0  502  0.55126348998E+03 -0.15880512171E+04 -0.74275200430E+03  0.18377922234E+04  0.12699999809E+01 0.  1.
</event>
<event>
 5   0  0.4344980E-06  0.3348292E+04  0.7818609E-02  0.8150715E-01
       -2   -1    0    0    0  501  0.00000000000E+00  0.00000000000E+00  0.15212568484E+04  0.15212568484E+04  0.25500000920E-02 0. -1.
        2   -1    0    0  501    0  0.00000000000E+00  0.00000000000E+00 -0.18424004480E+04  0.18424004480E+04  0.25500000920E-02 0.  1.
    10030    2    1    2    0    0  0.00000000000E+00  0.00000000000E+00 -0.32114359962E+03  0.33636572964E+04  0.33482916832E+04 0.  0.
        3    1    3    3  502    0 -0.35810232321E+02 -0.14840290400E+04 -0.93816510921E+03  0.17560690040E+04  0.10100000352E+00 0.  1.
       -3    1    3    3    0  502  0.35810232321E+02  0.14840290400E+04  0.61702150958E+03  0.16075882924E+04  0.10100000352E+00 0. -1.
</event>
<event>
 5   0  0.4173467E-06  0.3384896E+04  0.7818609E-02  0.8141623E-01
        2   -1    0    0  501    0  0.00000000000E+00  0.00000000000E+00  0.20640576049E+04  0.20640576049E+04  0.25500000920E-02 0.  1.
       -2   -1    0    0    0  501  0.00000000000E+00  0.00000000000E+00 -0.13877425630E+04  0.13877425630E+04  0.25500000920E-02 0. -1.
    10030    2    1    2    0    0  0.00000000000E+00  0.00000000000E+00  0.67631504193E+03  0.34518001679E+04  0.33848962116E+04 0.  0.
        4    1    3    3  502    0  0.41720829440E+03 -0.16354035199E+04  0.46622456793E+03  0.17509924027E+04  0.12699999809E+01 0. -1.
       -4    1    3    3    0  502 -0.41720829440E+03  0.16354035199E+04  0.21009047400E+03  0.17008077652E+04  0.12699999809E+01 0.  1.
</event>
<event>
 5   0  0.4344980E-06  0.2939033E+04  0.7818609E-02  0.8261358E-01
       -2   -1    0    0    0  501  0.00000000000E+00  0.00000000000E+00  0.16997785081E+04  0.16997785081E+04  0.25500000920E-02 0. -1.
        2   -1    0    0  501    0  0.00000000000E+00  0.00000000000E+00 -0.12704473481E+04  0.12704473481E+04  0.25500000920E-02 0.  1.
    10030    2    1    2    0    0  0.00000000000E+00  0.00000000000E+00  0.42933115993E+03  0.29702258562E+04  0.29390332411E+04 0.  0.
        3    1    3    3  502    0  0.12298117497E+04 -0.33457597856E+03 -0.52460408019E+03  0.13782552290E+04  0.10100000352E+00 0.  1.
       -3    1    3    3    0  502 -0.12298117497E+04  0.33457597856E+03  0.95393524012E+03  0.15919706272E+04  0.10100000352E+00 0. -1.
</event>
<event>
 5   0  0.4400349E-06  0.1901530E+04  0.7818609E-02  0.8654095E-01
       -2   -1    0    0    0  501  0.00000000000E+00  0.00000000000E+00  0.65754777782E+03  0.65754777782E+03  0.25500000920E-02 0.  1.
        2   -1    0    0  501    0  0.00000000000E+00  0.00000000000E+00 -0.13747348258E+04  0.13747348258E+04  0.25500000920E-02 0. -1.
    10030    2    1    2    0    0  0.00000000000E+00  0.00000000000E+00 -0.71718704799E+03  0.20322826036E+04  0.19015297314E+04 0.  0.
        5    1    3    3  502    0  0.37010943915E+03 -0.79257975172E+03 -0.75672431720E+03  0.11566405846E+04  0.46999998093E+01 0.  1.
       -5    1    3    3    0  502 -0.37010943915E+03  0.79257975172E+03  0.39537269210E+02  0.87564201900E+03  0.46999998093E+01 0. -1.
</event>
<event>
 5   0  0.4400349E-06  0.2472756E+04  0.7818609E-02  0.8412756E-01
       -2   -1    0    0    0  501  0.00000000000E+00  0.00000000000E+00  0.96758005410E+03  0.96758005411E+03  0.25500000920E-02 0. -1.
        2   -1    0    0  501    0  0.00000000000E+00  0.00000000000E+00 -0.15798495908E+04  0.15798495908E+04  0.25500000920E-02 0.  1.
    10030    2    1    2    0    0  0.00000000000E+00  0.00000000000E+00 -0.61226953672E+03  0.25474296449E+04  0.24727563184E+04 0.  0.
        5    1    3    3  502    0  0.68978243368E+03 -0.26610114226E+03 -0.13270189012E+04  0.15190822485E+04  0.46999998093E+01 0.  1.
       -5    1    3    3    0  502 -0.68978243368E+03  0.26610114226E+03  0.71474936444E+03  0.10283473964E+04  0.46999998093E+01 0. -1.
</event>
<event>
 5   0  0.4189587E-06  0.1860651E+04  0.7818609E-02  0.8674694E-01
        2   -1    0    0  501    0  0.00000000000E+00  0.00000000000E+00  0.15153141202E+04  0.15153141202E+04  0.25500000920E-02 0. -1.
       -2   -1    0    0    0  501  0.00000000000E+00  0.00000000000E+00 -0.57117262741E+03  0.57117262742E+03  0.25500000920E-02 0.  1.
    10030    2    1    2    0    0  0.00000000000E+00  0.00000000000E+00  0.94414149275E+03  0.20864867476E+04  0.18606514422E+04 0.  0.
        1    1    3    3  502    0 -0.67479535978E+03 -0.63743533647E+03  0.40264181182E+03  0.10118265733E+04  0.50400001928E-02 0.  1.
       -1    1    3    3    0  502  0.67479535978E+03  0.63743533647E+03  0.54149968093E+03  0.10746601743E+04  0.50400001928E-02 0. -1.
</event>
<event>
 5   0  0.1562618E-06  0.3398428E+04  0.7818609E-02  0.8138292E-01
        1   -1    0    0  501    0  0.00000000000E+00  0.00000000000E+00  0.17024231393E+04  0.17024231393E+04  0.50400001928E-02 0. -1.
       -1   -1    0    0    0  501  0.00000000000E+00  0.00000000000E+00 -0.16960113143E+04  0.16960113143E+04  0.50400001928E-02 0.  1.
    10030    2    1    2    0    0  0.00000000000E+00  0.00000000000E+00  0.64118250622E+01  0.33984344536E+04  0.33984284050E+04 0.  0.
        2    1    3    3  502    0  0.18990759502E+03 -0.53021439664E+03 -0.15999615315E+04  0.16961925314E+04  0.25500000920E-02 0.  1.
       -2    1    3    3    0  502 -0.18990759502E+03  0.53021439664E+03  0.16063733566E+04  0.17022419222E+04  0.25500000920E-02 0. -1.
</event>
<event>
 5   0  0.4173467E-06  0.3449990E+04  0.7818609E-02  0.8125745E-01
       -2   -1    0    0    0  501  0.00000000000E+00  0.00000000000E+00  0.12403327978E+04  0.12403327978E+04  0.25500000920E-02 0. -1.
        2   -1    0    0  501    0  0.00000000000E+00  0.00000000000E+00 -0.23990399112E+04  0.23990399112E+04  0.25500000920E-02 0.  1.
    10030    2    1    2    0    0  0.00000000000E+00  0.00000000000E+00 -0.11587071134E+04  0.36393727090E+04  0.34499900783E+04 0.  0.
        4    1    3    3  502    0 -0.96985658221E+03  0.69265818973E+03 -0.18948906083E+04  0.22385283533E+04  0.12699999809E+01 0.  1.
       -4    1    3    3    0  502  0.96985658221E+03 -0.69265818973E+03  0.73618349495E+03  0.14008443557E+04  0.12699999809E+01 0. -1.
</event>
<event>
 5   0  0.1571391E-06  0.3267337E+04  0.7818609E-02  0.8171256E-01
        1   -1    0    0  501    0  0.00000000000E+00  0.00000000000E+00  0.18310909125E+04  0.18310909125E+04  0.50400001928E-02 0. -1.
       -1   -1    0    0    0  501  0.00000000000E+00  0.00000000000E+00 -0.14575319643E+04  0.14575319643E+04  0.50400001928E-02 0.  1.
    10030    2    1    2    0    0  0.00000000000E+00  0.00000000000E+00  0.37355894817E+03  0.32886228768E+04  0.32673374693E+04 0.  0.
        1    1    3    3  502    0 -0.15076091420E+04 -0.44287124688E+01  0.82013921196E+03  0.17162555945E+04  0.50400001928E-02 0. -1.
       -1    1    3    3    0  502  0.15076091420E+04  0.44287124688E+01 -0.44658026379E+03  0.15723672823E+04  0.50400001928E-02 0.  1.
</event>
<event>
 5   0  0.4344980E-06  0.3063119E+04  0.7818609E-02  0.8225933E-01
       -2   -1    0    0    0  501  0.00000000000E+00  0.00000000000E+00  0.13328988044E+04  0.13328988044E+04  0.25500000920E-02 0.  1.
        2   -1    0    0  501    0  0.00000000000E+00  0.00000000000E+00 -0.17598290940E+04  0.17598290940E+04  0.25500000920E-02 0. -1.
    10030    2    1    2    0    0  0.00000000000E+00  0.00000000000E+00 -0.42693028957E+03  0.30927278984E+04  0.30631187344E+04 0.  0.
        3    1    3    3  502    0  0.20704806004E+03  0.55768101779E+03  0.12114874774E+04  0.13496588217E+04  0.10100000352E+00 0.  1.
       -3    1    3    3    0  502 -0.20704806004E+03 -0.55768101779E+03 -0.16384177670E+04  0.17430690767E+04  0.10100000352E+00 0. -1.
</event>
<event>
 5   0  0.1550164E-06  0.3372458E+04  0.7818609E-02  0.8144699E-01
       -1   -1    0    0    0  501  0.00000000000E+00  0.00000000000E+00  0.13243300713E+04  0.13243300713E+04  0.50400001928E-02 0.  1.
        1   -1    0    0  501    0  0.00000000000E+00  0.00000000000E+00 -0.21470239586E+04  0.21470239586E+04  0.50400001928E-02 0. -1.
    10030    2    1    2    0    0  0.00000000000E+00  0.00000000000E+00 -0.82269388728E+03  0.34713540298E+04  0.33724580899E+04 0.  0.
        4    1    3    3  502    0  0.15640718255E+04 -0.61510697551E+03 -0.27062839935E+03  0.17023274098E+04  0.12699999809E+01 0.  1.
       -4    1    3    3    0  502 -0.15640718255E+04  0.61510697551E+03 -0.55206548794E+03  0.17690266201E+04  0.12699999809E+01 0. -1.
</event>
<event>
 5   0  0.4173467E-06  0.3507502E+04  0.7818609E-02  0.8112014E-01
        2   -1    0    0  501    0  0.00000000000E+00  0.00000000000E+00  0.22090160922E+04  0.22090160922E+04  0.25500000920E-02 0.  1.
       -2   -1    0    0    0  501  0.00000000000E+00  0.00000000000E+00 -0.13923136477E+04  0.13923136477E+04  0.25500000920E-02 0. -1.
    10030    2    1    2    0    0  0.00000000000E+00  0.00000000000E+00  0.81670244453E+03  0.36013297399E+04  0.35075023895E+04 0.  0.
        4    1    3    3  502    0  0.55694961479E+03 -0.59522547738E+03 -0.11859761874E+04  0.14391064493E+04  0.12699999809E+01 0. -1.
       -4    1    3    3    0  502 -0.55694961479E+03  0.59522547738E+03  0.20026786320E+04  0.21622232906E+04  0.12699999809E+01 0.  1.
</event>
<event>
 5   0  0.1654257E-06  0.2216126E+04  0.7818609E-02  0.8511746E-01
        1   -1    0    0  501    0  0.00000000000E+00  0.00000000000E+00  0.17579108794E+04  0.17579108794E+04  0.50400001928E-02 0. -1.
       -1   -1    0    0    0  501  0.00000000000E+00  0.00000000000E+00 -0.69844490787E+03  0.69844490789E+03  0.50400001928E-02 0.  1.
    10030    2    1    2    0    0  0.00000000000E+00  0.00000000000E+00  0.10594659715E+04  0.24563557873E+04  0.22161262620E+04 0.  0.
        3    1    3    3  502    0 -0.37495097360E+03  0.46556576077E+03  0.15638560493E+04  0.16742118932E+04  0.10100000352E+00 0. -1.
       -3    1    3    3    0  502  0.37495097360E+03 -0.46556576077E+03 -0.50439007782E+03  0.78214389406E+03  0.10100000352E+00 0.  1.
</event>
<event>
 5   0  0.1550164E-06  0.3442625E+04  0.7818609E-02  0.8127523E-01
        1   -1    0    0  501    0  0.00000000000E+00  0.00000000000E+00  0.11841861724E+04  0.11841861724E+04  0.50400001928E-02 0. -1.
       -1   -1    0    0    0  501  0.00000000000E+00  0.00000000000E+00 -0.25020701761E+04  0.25020701761E+04  0.50400001928E-02 0.  1.
    10030    2    1    2    0    0  0.00000000000E+00  0.00000000000E+00 -0.13178840038E+04  0.36862563485E+04  0.34426251059E+04 0.  0.
        4    1    3    3  502    0 -0.20168481194E+03 -0.85588062758E+03  0.92554541049E+03  0.12766535677E+04  0.12699999809E+01 0. -1.
       -4    1    3    3    0  502  0.20168481194E+03  0.85588062758E+03 -0.22434294142E+04  0.24096027809E+04  0.12699999809E+01 0.  1.
</event>
<event>
 5   0  0.4344980E-06  0.3473111E+04  0.7818609E-02  0.8120192E-01
        2   -1    0    0  501    0  0.00000000000E+00  0.00000000000E+00  0.17530046176E+04  0.17530046176E+04  0.25500000920E-02 0.  1.
       -2   -1    0    0    0  501  0.00000000000E+00  0.00000000000E+00 -0.17202605228E+04  0.17202605228E+04  0.25500000920E-02 0. -1.
    10030    2    1    2    0    0  0.00000000000E+00  0.00000000000E+00  0.32744094713E+02  0.34732651404E+04  0.34731107900E+04 0.  0.
        3    1    3    3  502    0  0.56186611008E+03 -0.16359280545E+04 -0.13748700710E+03  0.17351820689E+04  0.10100000352E+00 0. -1.
       -3    1    3    3    0  502 -0.56186611008E+03  0.16359280545E+04  0.17023110181E+03  0.17380830715E+04  0.10100000352E+00 0.  1.
</event>
<event>
 5   0  0.2101998E-06  0.3386623E+04  0.7818609E-02  0.8141197E-01
        1   -1    0    0  501    0  0.00000000000E+00  0.00000000000E+00  0.21925841609E+04  0.21925841609E+04  0.50400001928E-02 0.  1.
       -1   -1    0    0    0  501  0.00000000000E+00  0.00000000000E+00 -0.13077279147E+04  0.13077279147E+04  0.50400001928E-02 0. -1.
    10030    2    1    2    0    0  0.00000000000E+00  0.00000000000E+00  0.88485624614E+03  0.35003120756E+04  0.33866228090E+04 0.  0.
        5    1    3    3  502    0  0.97956350267E+03 -0.21343876647E+03  0.18528558701E+04  0.21067030470E+04  0.46999998093E+01 0.  1.
       -5    1    3    3    0  502 -0.97956350267E+03  0.21343876647E+03 -0.96799962395E+03  0.13936090287E+04  0.46999998093E+01 0. -1.
</event>
<event>
 5   0  0.1654257E-06  0.3318503E+04  0.7818609E-02  0.8158203E-01
       -1   -1    0    0    0  501  0.00000000000E+00  0.00000000000E+00  0.11449607830E+04  0.11449607830E+04  0.50400001928E-02 0.  1.
        1   -1    0    0  501    0  0.00000000000E+00  0.00000000000E+00 -0.24045503567E+04  0.24045503567E+04  0.50400001928E-02 0. -1.
    10030    2    1    2    0    0  0.00000000000E+00  0.00000000000E+00 -0.12595895737E+04  0.35495111397E+04  0.33185031923E+04 0.  0.
        3    1    3    3  502    0  0.93477873694E+03 -0.12493546820E+04 -0.26228842105E+02  0.15605724497E+04  0.10100000352E+00 0.  1.
       -3    1    3    3    0  502 -0.93477873694E+03  0.12493546820E+04 -0.12333607316E+04  0.19889386901E+04  0.10100000352E+00 0. -1.
</event>
<event>
 5   0  0.1401125E-06  0.3387321E+04  0.7818609E-02  0.8141025E-01
       -4   -1    0    0    0  501  0.00000000000E+00  0.00000000000E+00  0.17882401718E+04  0.17882406227E+04  0.12699999809E+01 0.  1.
        4   -1    0    0  501    0  0.00000000000E+00  0.00000000000E+00 -0.16040821176E+04  0.16040826204E+04  0.12699999809E+01 0. -1.
    10030    2    1    2    0    0  0.00000000000E+00  0.00000000000E+00  0.18415805411E+03  0.33923232431E+04  0.33873208878E+04 0.  0.
        4    1    3    3  502    0 -0.14008516378E+04 -0.37616466229E+02  0.10446323338E+04  0.17478726027E+04  0.12699999809E+01 0.  1.
       -4    1    3    3    0  502  0.14008516378E+04  0.37616466229E+02 -0.86047427968E+03  0.16444506404E+04  0.12699999809E+01 0. -1.
</event>
<event>
 5   0  0.2722449E-06  0.3311713E+04  0.7818609E-02  0.8159921E-01
        2   -1    0    0  501    0  0.00000000000E+00  0.00000000000E+00  0.23439417861E+04  0.23439417861E+04  0.25500000920E-02 0.  1.
       -2   -1    0    0    0  501  0.00000000000E+00  0.00000000000E+00 -0.11697650764E+04  0.11697650764E+04  0.25500000920E-02 0. -1.
    10030    2    1    2    0    0  0.00000000000E+00  0.00000000000E+00  0.11741767097E+04  0.35137068625E+04  0.33117132983E+04 0.  0.
        2    1    3    3  502    0  0.25351533287E+03  0.12144319684E+04 -0.57650114589E+03  0.13680163014E+04  0.25500000920E-02 0. -1.
       -2    1    3    3    0  502 -0.25351533287E+03 -0.12144319684E+04  0.17506778555E+04  0.21456905610E+04  0.25500000920E-02 0.  1.
</event>
<event>
 5   0  0.1562618E-06  0.3246534E+04  0.7818609E-02  0.8176635E-01
        1   -1    0    0  501    0  0.00000000000E+00  0.00000000000E+00  0.10069718935E+04  0.10069718935E+04  0.50400001928E-02 0.  1.
       -1   -1    0    0    0  501  0.00000000000E+00  0.00000000000E+00 -0.26167516058E+04  0.26167516058E+04  0.50400001928E-02 0. -1.
    10030    2    1    2    0    0  0.00000000000E+00  0.00000000000E+00 -0.16097797123E+04  0.36237234993E+04  0.32465337327E+04 0.  0.
        2    1    3    3  502    0  0.94425986337E+03  0.83817370669E+03  0.33385323928E+03  0.13059938122E+04  0.25500000920E-02 0.  1.
       -2    1    3    3    0  502 -0.94425986337E+03 -0.83817370669E+03 -0.19436329516E+04  0.23177296871E+04  0.25500000920E-02 0. -1.
</event>
<event>
 5   0  0.1401125E-06  0.2725225E+04  0.7818609E-02  0.8326867E-01
        4   -1    0    0  501    0  0.00000000000E+00  0.00000000000E+00  0.14018856052E+04  0.14018861805E+04  0.12699999809E+01 0. -1.
       -4   -1    0    0    0  501  0.00000000000E+00  0.00000000000E+00 -0.13244381600E+04  0.13244387689E+04  0.12699999809E+01 0.  1.
    10030    2    1    2    0    0  0.00000000000E+00  0.00000000000E+00  0.77447445198E+02  0.27263249494E+04  0.27252246922E+04 0.  0.
        5    1    3    3  502    0  0.95025393888E+03  0.86104522761E+03 -0.42223218565E+03  0.13500679764E+04  0.46999998093E+01 0. -1.
       -5    1    3    3    0  502 -0.95025393888E+03 -0.86104522761E+03  0.49967963085E+03  0.13762569730E+04  0.46999998093E+01 0.  1.
</event>
<event>
 5   0  0.1571391E-06  0.3368449E+04  0.7818609E-02  0.8145694E-01
        1   -1    0    0  501    0  0.00000000000E+00  0.00000000000E+00  0.25867620476E+04  0.25867620476E+04  0.50400001928E-02 0.  1.
       -1   -1    0    0    0  501  0.00000000000E+00  0.00000000000E+00 -0.10965880737E+04  0.10965880737E+04  0.50400001928E-02 0. -1.
    10030    2    1    2    0    0  0.00000000000E+00  0.00000000000E+00  0.14901739739E+04  0.36833501212E+04  0.33684491451E+04 0.  0.
        1    1    3    3  502    0 -0.29789353593E+03  0.10549179278E+04 -0.65312990564E+03  0.12759980670E+04  0.50400001928E-02 0. -1.
       -1    1    3    3    0  502  0.29789353593E+03 -0.10549179278E+04  0.21433038795E+04  0.24073520543E+04  0.50400001928E-02 0.  1.
</event>
<event>
 5   0  0.4189587E-06  0.3447419E+04  0.7818609E-02  0.8126365E-01
       -2   -1    0    0    0  501  0.00000000000E+00  0.00000000000E+00  0.17894671019E+04  0.17894671019E+04  0.25500000920E-02 0. -1.
        2   -1    0    0  501    0  0.00000000000E+00  0.00000000000E+00 -0.16603681722E+04  0.16603681722E+04  0.25500000920E-02 0.  1.
    10030    2    1    2    0    0  0.00000000000E+00  0.00000000000E+00  0.12909892975E+03  0.34498352741E+04  0.34474188728E+04 0.  0.
        1    1    3    3  502    0 -0.81421932123E+03 -0.17180800098E+03  0.15751449348E+04  0.17814467878E+04  0.50400001928E-02 0. -1.
       -1    1    3    3    0  502  0.81421932123E+03  0.17180800098E+03 -0.14460460051E+04  0.16683884862E+04  0.50400001928E-02 0.  1.
</event>
<event>
 5   0  0.4173467E-06  0.2257629E+04  0.7818609E-02  0.8494817E-01
        2   -1    0    0  501    0  0.00000000000E+00  0.00000000000E+00  0.11075865065E+04  0.11075865066E+04  0.25500000920E-02 0. -1.
       -2   -1    0    0    0  501  0.00000000000E+00  0.00000000000E+00 -0.11504491241E+04  0.11504491241E+04  0.25500000920E-02 0.  1.
    10030    2    1    2    0    0  0.00000000000E+00  0.00000000000E+00 -0.42862617521E+02  0.22580356306E+04  0.22576287793E+04 0.  0.
        4    1    3    3  502    0 -0.48054799972E+03  0.95943151256E+03  0.32903889639E+03  0.11223650991E+04  0.12699999809E+01 0. -1.
       -4    1    3    3    0  502  0.48054799972E+03 -0.95943151256E+03 -0.37190151391E+03  0.11356705316E+04  0.12699999809E+01 0.  1.
</event>
<event>
 5   0  0.1571391E-06  0.3570502E+04  0.7818609E-02  0.8097282E-01
        1   -1    0    0  501    0  0.00000000000E+00  0.00000000000E+00  0.25335468379E+04  0.25335468379E+04  0.50400001928E-02 0.  1.
       -1   -1    0    0    0  501  0.00000000000E+00  0.00000000000E+00 -0.12579683001E+04  0.12579683001E+04  0.50400001928E-02 0. -1.
    10030    2    1    2    0    0  0.00000000000E+00  0.00000000000E+00  0.12755785378E+04  0.37915151380E+04  0.35705022665E+04 0.  0.
        1    1    3    3  502    0 -0.11228521328E+04  0.22491705599E+03  0.20921410110E+04  0.23850447803E+04  0.50400001928E-02 0.  1.
       -1    1    3    3    0  502  0.11228521328E+04 -0.22491705599E+03 -0.81656247323E+03  0.14064703576E+04  0.50400001928E-02 0. -1.
</event>
<event>
 5   0  0.4173467E-06  0.3446322E+04  0.7818609E-02  0.8126630E-01
       -2   -1    0    0    0  501  0.00000000000E+00  0.00000000000E+00  0.18817083824E+04  0.18817083824E+04  0.25500000920E-02 0. -1.
        2   -1    0    0  501    0  0.00000000000E+00  0.00000000000E+00 -0.15779722182E+04  0.15779722182E+04  0.25500000920E-02 0.  1.
    10030    2    1    2    0    0  0.00000000000E+00  0.00000000000E+00  0.30373616416E+03  0.34596806007E+04  0.34463218366E+04 0.  0.
        4    1    3    3  502    0  0.94606616402E+01 -0.32180329889E+03 -0.15475123623E+04  0.15806463841E+04  0.12699999809E+01 0.  1.
       -4    1    3    3    0  502 -0.94606616402E+01  0.32180329889E+03  0.18512485265E+04  0.18790342165E+04  0.12699999809E+01 0. -1.
</event>
<event>
 5   0  0.4173467E-06  0.3458821E+04  0.7818609E-02  0.8123619E-01
       -2   -1    0    0    0  501  0.00000000000E+00  0.00000000000E+00  0.11999403300E+04  0.11999403300E+04  0.25500000920E-02 0.  1.
        2   -1    0    0  501    0  0.00000000000E+00  0.00000000000E+00 -0.24925080465E+04  0.24925080465E+04  0.25500000920E-02 0. -1.
    10030    2    1    2    0    0  0.00000000000E+00  0.00000000000E+00 -0.12925677165E+04  0.36924483766E+04  0.34588211448E+04 0.  0.
        4    1    3    3  502    0  0.15597844769E+04  0.69836708260E+03 -0.92916346754E+03  0.19452481998E+04  0.12699999809E+01 0. -1.
       -4    1    3    3    0  502 -0.15597844769E+04 -0.69836708260E+03 -0.36340424896E+03  0.17472001768E+04  0.12699999809E+01 0.  1.
</event>
<event>
 5   0  0.4400349E-06  0.3365102E+04  0.7818609E-02  0.8146525E-01
        2   -1    0    0  501    0  0.00000000000E+00  0.00000000000E+00  0.22286516114E+04  0.22286516114E+04  0.25500000920E-02 0.  1.
       -2   -1    0    0    0  501  0.00000000000E+00  0.00000000000E+00 -0.12702646008E+04  0.12702646008E+04  0.25500000920E-02 0. -1.
    10030    2    1    2    0    0  0.00000000000E+00  0.00000000000E+00  0.95838701068E+03  0.34989162122E+04  0.33651016326E+04 0.  0.
        5    1    3    3  502    0  0.92426069016E+03  0.18077738381E+03  0.19289176515E+04  0.21465515792E+04  0.46999998093E+01 0.  1.
       -5    1    3    3    0  502 -0.92426069016E+03 -0.18077738381E+03 -0.97053064082E+03  0.13523646330E+04  0.46999998093E+01 0. -1.
</event>
<event>
 5   0  0.4173467E-06  0.3236701E+04  0.7818609E-02  0.8179191E-01
        2   -1    0    0  501    0  0.00000000000E+00  0.00000000000E+00  0.18434547534E+04  0.18434547534E+04  0.25500000920E-02 0. -1.
       -2   -1    0    0    0  501  0.00000000000E+00  0.00000000000E+00 -0.14207336450E+04  0.14207336450E+04  0.25500000920E-02 0.  1.
    10030    2    1    2    0    0  0.00000000000E+00  0.00000000000E+00  0.42272110839E+03  0.32641883984E+04  0.32367009075E+04 0.  0.
        4    1    3    3  502    0 -0.50051641171E+03  0.83682724836E+02 -0.13384193809E+04  0.14313935619E+04  0.12699999809E+01 0.  1.
       -4    1    3    3    0  502  0.50051641171E+03 -0.83682724836E+02  0.17611404893E+04  0.18327948365E+04  0.12699999809E+01 0. -1.
</event>
<event>
 5   0  0.4344980E-06  0.3482301E+04  0.7818609E-02  0.8117997E-01
       -2   -1    0    0    0  501  0.00000000000E+00  0.00000000000E+00  0.10493835347E+04  0.10493835347E+04  0.25500000920E-02 0. -1.
        2   -1    0    0  501    0  0.00000000000E+00  0.00000000000E+00 -0.28889389355E+04  0.28889389355E+04  0.25500000920E-02 0.  1.
    10030    2    1    2    0    0  0.00000000000E+00  0.00000000000E+00 -0.18395554008E+04  0.39383224703E+04  0.34823009358E+04 0.  0.
        3    1    3    3  502    0 -0.18477717819E+03  0.51843968041E+03 -0.27879696111E+04  0.28417770620E+04  0.10100000352E+00 0.  1.
       -3    1    3    3    0  502  0.18477717819E+03 -0.51843968041E+03  0.94841421031E+03  0.10965454082E+04  0.10100000352E+00 0. -1.
</event>
<event>
 5   0  0.4189587E-06  0.1675675E+04  0.7818609E-02  0.8775361E-01
       -2   -1    0    0    0  501  0.00000000000E+00  0.00000000000E+00  0.42827011888E+03  0.42827011889E+03  0.25500000920E-02 0. -1.
        2   -1    0    0  501    0  0.00000000000E+00  0.00000000000E+00 -0.16390854073E+04  0.16390854073E+04  0.25500000920E-02 0.  1.
    10030    2    1    2    0    0  0.00000000000E+00  0.00000000000E+00 -0.12108152884E+04  0.20673555262E+04  0.16756745534E+04 0.  0.
        1    1    3    3  502    0  0.47569175741E+03 -0.64613769469E+03 -0.90303122481E+03  0.12079908781E+04  0.50400001928E-02 0.  1.
       -1    1    3    3    0  502 -0.47569175741E+03  0.64613769469E+03 -0.30778406363E+03  0.85936464810E+03  0.50400001928E-02 0. -1.
</event>
<event>
 5   0  0.1550164E-06  0.3457437E+04  0.7818609E-02  0.8123951E-01
        1   -1    0    0  501    0  0.00000000000E+00  0.00000000000E+00  0.18093461199E+04  0.18093461199E+04  0.50400001928E-02 0. -1.
       -1   -1    0    0    0  501  0.00000000000E+00  0.00000000000E+00 -0.16516840280E+04  0.16516840280E+04  0.50400001928E-02 0.  1.
    10030    2    1    2    0    0  0.00000000000E+00  0.00000000000E+00  0.15766209190E+03  0.34610301478E+04  0.34574372516E+04 0.  0.
        4    1    3    3  502    0 -0.26054623210E+03  0.13286778348E+04  0.11547490297E+04  0.17795269209E+04  0.12699999809E+01 0. -1.
       -4    1    3    3    0  502  0.26054623210E+03 -0.13286778348E+04 -0.99708693777E+03  0.16815032269E+04  0.12699999809E+01 0.  1.
</event>
<event>
 5   0  0.1571391E-06  0.3234980E+04  0.7818609E-02  0.8179640E-01
       -1   -1    0    0    0  501  0.00000000000E+00  0.00000000000E+00  0.12930491369E+04  0.12930491369E+04  0.50400001928E-02 0. -1.
        1   -1    0    0  501    0  0.00000000000E+00  0.00000000000E+00 -0.20233368622E+04  0.20233368622E+04  0.50400001928E-02 0.  1.
    10030    2    1    2    0    0  0.00000000000E+00  0.00000000000E+00 -0.73028772529E+03  0.33163859992E+04  0.32349800515E+04 0.  0.
        1    1    3    3  502    0 -0.79697008006E+03 -0.89908435928E+03  0.74504799187E+03  0.14137222159E+04  0.50400001928E-02 0. -1.
       -1    1    3    3    0  502  0.79697008006E+03  0.89908435928E+03 -0.14753357172E+04  0.19026637832E+04  0.50400001928E-02 0.  1.
</event>
<event>
 5   0  0.4189587E-06  0.3304523E+04  0.7818609E-02  0.8161746E-01
       -2   -1    0    0    0  501  0.00000000000E+00  0.00000000000E+00  0.16292100619E+04  0.16292100619E+04  0.25500000920E-02 0.  1.
        2   -1    0    0  501    0  0.00000000000E+00  0.00000000000E+00 -0.16756388536E+04  0.16756388536E+04  0.25500000920E-02 0. -1.
    10030    2    1    2    0    0  0.00000000000E+00  0.00000000000E+00 -0.46428791670E+02  0.33048489155E+04  0.33045227676E+04 0.  0.
        1    1    3    3  502    0 -0.59964325789E+03 -0.97750823654E+03  0.11663874676E+04  0.16357121122E+04  0.50400001928E-02 0.  1.
       -1    1    3    3    0  502  0.59964325789E+03  0.97750823654E+03 -0.12128162593E+04  0.16691368033E+04  0.50400001928E-02 0. -1.
</event>
<event>
 5   0  0.1562618E-06  0.3424459E+04  0.7818609E-02  0.8131929E-01
       -1   -1    0    0    0  501  0.00000000000E+00  0.00000000000E+00  0.10047312989E+04  0.10047312989E+04  0.50400001928E-02 0. -1.
        1   -1    0    0  501    0  0.00000000000E+00  0.00000000000E+00 -0.29179247246E+04  0.29179247246E+04  0.50400001928E-02 0.  1.
    10030    2    1    2    0    0  0.00000000000E+00  0.00000000000E+00 -0.19131934256E+04  0.39226560235E+04  0.34244592558E+04 0.  0.
        2    1    3    3  502    0  0.98362211098E+02  0.59684030889E+03 -0.27914558959E+04  0.28562421987E+04  0.25500000920E-02 0.  1.
       -2    1    3    3    0  502 -0.98362211098E+02 -0.59684030889E+03  0.87826247031E+03  0.10664138248E+04  0.25500000920E-02 0. -1.
</event>
<event>
 5   0  0.2722449E-06  0.3407308E+04  0.7818609E-02  0.8136115E-01
        2   -1    0    0  501    0  0.00000000000E+00  0.00000000000E+00  0.23944355230E+04  0.23944355230E+04  0.25500000920E-02 0. -1.
       -2   -1    0    0    0  501  0.00000000000E+00  0.00000000000E+00 -0.12121591362E+04  0.12121591362E+04  0.25500000920E-02 0.  1.
    10030    2    1    2    0    0  0.00000000000E+00  0.00000000000E+00  0.11822763868E+04  0.36065946593E+04  0.34073079669E+04 0.  0.
        2    1    3    3  502    0 -0.89554436006E+03  0.99517805063E+03  0.17063535759E+04  0.21688756487E+04  0.25500000920E-02 0. -1.
       -2    1    3    3    0  502  0.89554436006E+03 -0.99517805063E+03 -0.52407718911E+03  0.14377190106E+04  0.25500000920E-02 0.  1.
</event>
<event>
 5   0  0.1562618E-06  0.3421545E+04  0.7818609E-02  0.8132639E-01
       -1   -1    0    0    0  501  0.00000000000E+00  0.00000000000E+00  0.16793057950E+04  0.16793057950E+04  0.50400001928E-02 0. -1.
        1   -1    0    0  501    0  0.00000000000E+00  0.00000000000E+00 -0.17428284037E+04  0.17428284038E+04  0.50400001928E-02 0.  1.
    10030    2    1    2    0    0  0.00000000000E+00  0.00000000000E+00 -0.63522608726E+02  0.34221341988E+04  0.34215445858E+04 0.  0.
        2    1    3    3  502    0  0.12827886899E+04  0.10211058304E+04  0.45672627683E+03  0.17019996568E+04  0.25500000920E-02 0. -1.
       -2    1    3    3    0  502 -0.12827886899E+04 -0.10211058304E+04 -0.52024888555E+03  0.17201345420E+04  0.25500000920E-02 0.  1.
</event>
<event>
 5   0  0.4344980E-06  0.3079331E+04  0.7818609E-02  0.8221433E-01
       -2   -1    0    0    0  501  0.00000000000E+00  0.00000000000E+00  0.11241684494E+04  0.11241684494E+04  0.25500000920E-02 0. -1.
        2   -1    0    0  501    0  0.00000000000E+00  0.00000000000E+00 -0.21087317013E+04  0.21087317013E+04  0.25500000920E-02 0.  1.
    10030    2    1    2    0    0  0.00000000000E+00  0.00000000000E+00 -0.98456325194E+03  0.32329001508E+04  0.30793308669E+04 0.  0.
        3    1    3    3  502    0 -0.74932582734E+03 -0.95824921293E+03  0.49863135909E+03  0.13146725798E+04  0.10100000352E+00 0. -1.
       -3    1    3    3    0  502  0.74932582734E+03  0.95824921293E+03 -0.14831946110E+04  0.19182275710E+04  0.10100000352E+00 0.  1.
</event>
<event>
 5   0  0.1550164E-06  0.3390983E+04  0.7818609E-02  0.8140123E-01
        1   -1    0    0  501    0  0.00000000000E+00  0.00000000000E+00  0.18384305276E+04  0.18384305277E+04  0.50400001928E-02 0. -1.
       -1   -1    0    0    0  501  0.00000000000E+00  0.00000000000E+00 -0.15636661167E+04  0.15636661167E+04  0.50400001928E-02 0.  1.
    10030    2    1    2    0    0  0.00000000000E+00  0.00000000000E+00  0.27476441093E+03  0.34020966444E+04  0.33909830575E+04 0.  0.
        4    1    3    3  502    0  0.86553089199E+03 -0.12205830079E+04 -0.66255352120E+03  0.16364429063E+04  0.12699999809E+01 0. -1.
       -4    1    3    3    0  502 -0.86553089199E+03  0.12205830079E+04  0.93731793213E+03  0.17656537381E+04  0.12699999809E+01 0.  1.
</event>
<event>
 5   0  0.4189587E-06  0.3070485E+04  0.7818609E-02  0.8223885E-01
        2   -1    0    0  501    0  0.00000000000E+00  0.00000000000E+00  0.19487366207E+04  0.19487366207E+04  0.25500000920E-02 0.  1.
       -2   -1    0    0    0  501  0.00000000000E+00  0.00000000000E+00 -0.12094855512E+04  0.12094855512E+04  0.25500000920E-02 0. -1.
    10030    2    1    2    0    0  0.00000000000E+00  0.00000000000E+00  0.73925106945E+03  0.31582221719E+04  0.30704845128E+04 0.  0.
        1    1    3    3  502    0 -0.10779062075E+04  0.26478377547E+03  0.14605822026E+04  0.18344733878E+04  0.50400001928E-02 0.  1.
       -1    1    3    3    0  502  0.10779062075E+04 -0.26478377547E+03 -0.72133113316E+03  0.13237487842E+04  0.50400001928E-02 0. -1.
</event>
<event>
 5   0  0.4400349E-06  0.3402365E+04  0.7818609E-02  0.8137326E-01
       -2   -1    0    0    0  501  0.00000000000E+00  0.00000000000E+00  0.13738364314E+04  0.13738364314E+04  0.25500000920E-02 0.  1.
        2   -1    0    0  501    0  0.00000000000E+00  0.00000000000E+00 -0.21065259314E+04  0.21065259314E+04  0.25500000920E-02 0. -1.
    10030    2    1    2    0    0  0.00000000000E+00  0.00000000000E+00 -0.73268950000E+03  0.34803623628E+04  0.34023650998E+04 0.  0.
        5    1    3    3  502    0  0.53504658386E+03 -0.15750585055E+04 -0.19253783900E+01  0.16634632367E+04  0.46999998093E+01 0. -1.
       -5    1    3    3    0  502 -0.53504658386E+03  0.15750585055E+04 -0.73076412161E+03  0.18168991260E+04  0.46999998093E+01 0.  1.
</event>
<event>
 5   0  0.4400349E-06  0.3425097E+04  0.7818609E-02  0.8131774E-01
        2   -1    0    0  501    0  0.00000000000E+00  0.00000000000E+00  0.21430130618E+04  0.21430130618E+04  0.25500000920E-02 0. -1.
       -2   -1    0    0    0  501  0.00000000000E+00  0.00000000000E+00 -0.13685509813E+04  0.13685509813E+04  0.25500000920E-02 0.  1.
    10030    2    1    2    0    0  0.00000000000E+00  0.00000000000E+00  0.77446208057E+03  0.35115640431E+04  0.34250971540E+04 0.  0.
        5    1    3    3  502    0 -0.75356701625E+03  0.13834950102E+04  0.10756576188E+04  0.19076118825E+04  0.46999998093E+01 0. -1.
       -5    1    3    3    0  502  0.75356701625E+03 -0.13834950102E+04 -0.30119553820E+03  0.16039521606E+04  0.46999998093E+01 0.  1.
</event>
<event>
 5   0  0.1654257E-06  0.3261008E+04  0.7818609E-02  0.8172888E-01
        1   -1    0    0  501    0  0.00000000000E+00  0.00000000000E+00  0.18038391373E+04  0.18038391373E+04  0.50400001928E-02 0. -1.
       -1   -1    0    0    0  501  0.00000000000E+00  0.00000000000E+00 -0.14738252014E+04  0.14738252014E+04  0.50400001928E-02 0.  1.
    10030    2    1    2    0    0  0.00000000000E+00  0.00000000000E+00  0.33001393594E+03  0.32776643387E+04  0.32610081753E+04 0.  0.
        3    1    3    3  502    0 -0.31426919642E+03 -0.54772056796E+03  0.16759417832E+04  0.17909617024E+04  0.10100000352E+00 0. -1.
       -3    1    3    3    0  502  0.31426919642E+03  0.54772056796E+03 -0.13459278473E+04  0.14867026363E+04  0.10100000352E+00 0.  1.
</event>
<event>
 5   0  0.2101998E-06  0.3137540E+04  0.7818609E-02  0.8205510E-01
        1   -1    0    0  501    0  0.00000000000E+00  0.00000000000E+00  0.19961283981E+04  0.19961283981E+04  0.50400001928E-02 0. -1.
       -1   -1    0    0    0  501  0.00000000000E+00  0.00000000000E+00 -0.12329066000E+04  0.12329066000E+04  0.50400001928E-02 0.  1.
    10030    2    1    2    0    0  0.00000000000E+00  0.00000000000E+00  0.76322179807E+03  0.32290349981E+04  0.31375403592E+04 0.  0.
        5    1    3    3  502    0  0.79010104411E+02 -0.95934564528E+03  0.16564551520E+04  0.19158424842E+04  0.46999998093E+01 0. -1.
       -5    1    3    3    0  502 -0.79010104411E+02  0.95934564528E+03 -0.89323335396E+03  0.13131925138E+04  0.46999998093E+01 0.  1.
</event>
<event>
 5   0  0.1562618E-06  0.1717508E+04  0.7818609E-02  0.8751441E-01
        1   -1    0    0  501    0  0.00000000000E+00  0.00000000000E+00  0.70742973872E+03  0.70742973874E+03  0.50400001928E-02 0. -1.
       -1   -1    0    0    0  501  0.00000000000E+00  0.00000000000E+00 -0.10424479836E+04  0.10424479836E+04  0.50400001928E-02 0.  1.
    10030    2    1    2    0    0  0.00000000000E+00  0.00000000000E+00 -0.33501824486E+03  0.17498777223E+04  0.17175083169E+04 0.  0.
        2    1    3    3  502    0 -0.84652614189E+03  0.89857352554E+02 -0.52339543356E+02  0.85288937179E+03  0.25500000920E-02 0. -1.
       -2    1    3    3    0  502  0.84652614189E+03 -0.89857352554E+02 -0.28267870150E+03  0.89698835053E+03  0.25500000920E-02 0.  1.
</event>
<event>
 5   0  0.2722449E-06  0.2766707E+04  0.7818609E-02  0.8313680E-01
       -2   -1    0    0    0  501  0.00000000000E+00  0.00000000000E+00  0.99294594184E+03  0.99294594184E+03  0.25500000920E-02 0.  1.
        2   -1    0    0  501    0  0.00000000000E+00  0.00000000000E+00 -0.19272613632E+04  0.19272613632E+04  0.25500000920E-02 0. -1.
    10030    2    1    2    0    0  0.00000000000E+00  0.00000000000E+00 -0.93431542133E+03  0.29202073050E+04  0.27667065977E+04 0.  0.
        2    1    3    3  502    0 -0.12642032378E+04 -0.21815783279E+03 -0.10134278924E+04  0.16348818794E+04  0.25500000920E-02 0. -1.
       -2    1    3    3    0  502  0.12642032378E+04  0.21815783279E+03  0.79112471073E+02  0.12853254256E+04  0.25500000920E-02 0.  1.
</event>
<event>
 5   0  0.4173467E-06  0.3509791E+04  0.7818609E-02  0.8111473E-01
        2   -1    0    0  501    0  0.00000000000E+00  0.00000000000E+00  0.21564546324E+04  0.21564546324E+04  0.25500000920E-02 0. -1.
       -2   -1    0    0    0  501  0.00000000000E+00  0.00000000000E+00 -0.14281120035E+04  0.14281120035E+04  0.25500000920E-02 0.  1.
    10030    2    1    2    0    0  0.00000000000E+00  0.00000000000E+00  0.72834262892E+03  0.35845666360E+04  0.35097913019E+04 0.  0.
        4    1    3    3  502    0 -0.61333485423E+03 -0.10325604451E+04 -0.94265845918E+03  0.15267505690E+04  0.12699999809E+01 0.  1.
       -4    1    3    3    0  502  0.61333485423E+03  0.10325604451E+04  0.16710010881E+04  0.20578160670E+04  0.12699999809E+01 0. -1.
</event>
<event>
 5   0  0.4344980E-06  0.2831729E+04  0.7818609E-02  0.8293485E-01
        2   -1    0    0  501    0  0.00000000000E+00  0.00000000000E+00  0.20999681532E+04  0.20999681532E+04  0.25500000920E-02 0.  1.
       -2   -1    0    0    0  501  0.00000000000E+00  0.00000000000E+00 -0.95462000364E+03  0.95462000364E+03  0.25500000920E-02 0. -1.
    10030    2    1    2    0    0  0.00000000000E+00  0.00000000000E+00  0.11453481495E+04  0.30545881568E+04  0.28317285223E+04 0.  0.
        3    1    3    3  502    0 -0.94544217209E+03 -0.80322740846E+03 -0.16340508447E+03  0.12512938913E+04  0.10100000352E+00 0. -1.
       -3    1    3    3    0  502  0.94544217209E+03  0.80322740846E+03  0.13087532340E+04  0.18032942655E+04  0.10100000352E+00 0.  1.
</event>
<event>
 5   0  0.2722449E-06  0.3232190E+04  0.7818609E-02  0.8180367E-01
        2   -1    0    0  501    0  0.00000000000E+00  0.00000000000E+00  0.15539993420E+04  0.15539993420E+04  0.25500000920E-02 0. -1.
       -2   -1    0    0    0  501  0.00000000000E+00  0.00000000000E+00 -0.16806716175E+04  0.16806716175E+04  0.25500000920E-02 0.  1.
    10030    2    1    2    0    0  0.00000000000E+00  0.00000000000E+00 -0.12667227556E+03  0.32346709595E+04  0.32321897146E+04 0.  0.
        2    1    3    3  502    0 -0.36663404970E+03  0.15248904059E+04  0.32690077778E+03  0.16020534932E+04  0.25500000920E-02 0. -1.
       -2    1    3    3    0  502  0.36663404970E+03 -0.15248904059E+04 -0.45357305335E+03  0.16326174663E+04  0.25500000920E-02 0.  1.
</event>
<event>
 5   0  0.4400349E-06  0.3400412E+04  0.7818609E-02  0.8137805E-01
       -2   -1    0    0    0  501  0.00000000000E+00  0.00000000000E+00  0.10835143685E+04  0.10835143685E+04  0.25500000920E-02 0. -1.
        2   -1    0    0  501    0  0.00000000000E+00  0.00000000000E+00 -0.26678929698E+04  0.26678929698E+04  0.25500000920E-02 0.  1.
    10030    2    1    2    0    0  0.00000000000E+00  0.00000000000E+00 -0.15843786013E+04  0.37514073383E+04  0.34004119553E+04 0.  0.
        5    1    3    3  502    0  0.38878053907E+03  0.89676399911E+03 -0.23269532295E+04  0.25238996414E+04  0.46999998093E+01 0.  1.
       -5    1    3    3    0  502 -0.38878053907E+03 -0.89676399911E+03  0.74257462818E+03  0.12275076969E+04  0.46999998093E+01 0. -1.
</event>
<event>
 5   0  0.1550164E-06  0.2387123E+04  0.7818609E-02  0.8444340E-01
       -1   -1    0    0    0  501  0.00000000000E+00  0.00000000000E+00  0.12044493065E+04  0.12044493065E+04  0.50400001928E-02 0. -1.
        1   -1    0    0  501    0  0.00000000000E+00  0.00000000000E+00 -0.11827722626E+04  0.11827722627E+04  0.50400001928E-02 0.  1.
    10030    2    1    2    0    0  0.00000000000E+00  0.00000000000E+00  0.21677043869E+02  0.23872215692E+04  0.23871231485E+04 0.  0.
        4    1    3    3  502    0  0.59592897024E+03  0.10293530708E+04  0.11028374326E+03  0.11945137919E+04  0.12699999809E+01 0. -1.
       -4    1    3    3    0  502 -0.59592897024E+03 -0.10293530708E+04 -0.88606699393E+02  0.11927077773E+04  0.12699999809E+01 0.  1.
</event>
<event>
 5   0  0.4344980E-06  0.3397057E+04  0.7818609E-02  0.8138629E-01
        2   -1    0    0  501    0  0.00000000000E+00  0.00000000000E+00  0.14686191285E+04  0.14686191285E+04  0.25500000920E-02 0. -1.
       -2   -1    0    0    0  501  0.00000000000E+00  0.00000000000E+00 -0.19644298511E+04  0.19644298511E+04  0.25500000920E-02 0.  1.
    10030    2    1    2    0    0  0.00000000000E+00  0.00000000000E+00 -0.49581072259E+03  0.34330489796E+04  0.33970571122E+04 0.  0.
        3    1    3    3  502    0 -0.13200581460E+03 -0.11039811937E+04 -0.15455657256E+04  0.19039362997E+04  0.10100000352E+00 0.  1.
       -3    1    3    3    0  502  0.13200581460E+03  0.11039811937E+04  0.10497550030E+04  0.15291126799E+04  0.10100000352E+00 0. -1.
</event>
<event>
 5   0  0.4189587E-06  0.2043203E+04  0.7818609E-02  0.8586684E-01
        2   -1    0    0  501    0  0.00000000000E+00  0.00000000000E+00  0.24831278719E+04  0.24831278719E+04  0.25500000920E-02 0. -1.
       -2   -1    0    0    0  501  0.00000000000E+00  0.00000000000E+00 -0.42030443677E+03  0.42030443678E+03  0.25500000920E-02 0.  1.
    10030    2    1    2    0    0  0.00000000000E+00  0.00000000000E+00  0.20628234352E+04  0.29034323087E+04  0.20432030361E+04 0.  0.
        1    1    3    3  502    0  0.70725021723E+03 -0.73097062007E+03  0.89549248046E+03  0.13551485895E+04  0.50400001928E-02 0.  1.
       -1    1    3    3    0  502 -0.70725021723E+03  0.73097062007E+03  0.11673309547E+04  0.15482837192E+04  0.50400001928E-02 0. -1.
</event>
<event>
 5   0  0.2101998E-06  0.3075413E+04  0.7818609E-02  0.8222518E-01
        1   -1    0    0  501    0  0.00000000000E+00  0.00000000000E+00  0.13764703032E+04  0.13764703032E+04  0.50400001928E-02 0.  1.
       -1   -1    0    0    0  501  0.00000000000E+00  0.00000000000E+00 -0.17178293143E+04  0.17178293143E+04  0.50400001928E-02 0. -1.
    10030    2    1    2    0    0  0.00000000000E+00  0.00000000000E+00 -0.34135901108E+03  0.30942996175E+04  0.30754128420E+04 0.  0.
        5    1    3    3  502    0 -0.12100902067E+04  0.25348730728E+03  0.74923559228E+03  0.14456660008E+04  0.46999998093E+01 0.  1.
       -5    1    3    3    0  502  0.12100902067E+04 -0.25348730728E+03 -0.10905946034E+04  0.16486336167E+04  0.46999998093E+01 0. -1.
</event>
<event>
 5   0  0.1571391E-06  0.3144695E+04  0.7818609E-02  0.8203578E-01
       -1   -1    0    0    0  501  0.00000000000E+00  0.00000000000E+00  0.19855312886E+04  0.19855312886E+04  0.50400001928E-02 0.  1.
        1   -1    0    0  501    0  0.00000000000E+00  0.00000000000E+00 -0.12451460968E+04  0.12451460968E+04  0.50400001928E-02 0. -1.
    10030    2    1    2    0    0  0.00000000000E+00  0.00000000000E+00  0.74038519177E+03  0.32306773854E+04  0.31446949195E+04 0.  0.
        1    1    3    3  502    0  0.73236303908E+03  0.13156755290E+04  0.83524938740E+03  0.17219173203E+04  0.50400001928E-02 0.  1.
       -1    1    3    3    0  502 -0.73236303908E+03 -0.13156755290E+04 -0.94864195630E+02  0.15087600652E+04  0.50400001928E-02 0. -1.
</event>
<event>
 5   0  0.4400349E-06  0.3347123E+04  0.7818609E-02  0.8151007E-01
       -2   -1    0    0    0  501  0.00000000000E+00  0.00000000000E+00  0.18951013219E+04  0.18951013219E+04  0.25500000920E-02 0.  1.
        2   -1    0    0  501    0  0.00000000000E+00  0.00000000000E+00 -0.14779200160E+04  0.14779200160E+04  0.25500000920E-02 0. -1.
    10030    2    1    2    0    0  0.00000000000E+00  0.00000000000E+00  0.41718130586E+03  0.33730213378E+04  0.33471230488E+04 0.  0.
        5    1    3    3  502    0  0.96480040700E+03  0.13582412938E+04  0.48849645070E+02  0.16667536157E+04  0.46999998093E+01 0. -1.
       -5    1    3    3    0  502 -0.96480040700E+03 -0.13582412938E+04  0.36833166079E+03  0.17062677222E+04  0.46999998093E+01 0.  1.
</event>
<event>
 5   0  0.1571391E-06  0.1868987E+04  0.7818609E-02  0.8670450E-01
       -1   -1    0    0    0  501  0.00000000000E+00  0.00000000000E+00  0.43824036100E+03  0.43824036103E+03  0.50400001928E-02 0.  1.
        1   -1    0    0  501    0  0.00000000000E+00  0.00000000000E+00 -0.19926912497E+04  0.19926912497E+04  0.50400001928E-02 0. -1.
    10030    2    1    2    0    0  0.00000000000E+00  0.00000000000E+00 -0.15544508887E+04  0.24309316107E+04  0.18689866053E+04 0.  0.
        1    1    3    3  502    0 -0.48025988403E+03  0.71503296793E+03 -0.12486275968E+04  0.15169022965E+04  0.50400001928E-02 0.  1.
       -1    1    3    3    0  502  0.48025988403E+03 -0.71503296793E+03 -0.30582329183E+03  0.91402931424E+03  0.50400001928E-02 0. -1.
</event>
<event>
 5   0  0.4344980E-06  0.2467710E+04  0.7818609E-02  0.8414580E-01
       -2   -1    0    0    0  501  0.00000000000E+00  0.00000000000E+00  0.71234037584E+03  0.71234037584E+03  0.25500000920E-02 0. -1.
        2   -1    0    0  501    0  0.00000000000E+00  0.00000000000E+00 -0.21371784998E+04  0.21371784998E+04  0.25500000920E-02 0.  1.
    10030    2    1    2    0    0  0.00000000000E+00  0.00000000000E+00 -0.14248381240E+04  0.28495188757E+04  0.24677103037E+04 0.  0.
        3    1    3    3  502    0 -0.23567249001E+03  0.29092700362E+03 -0.20699999379E+04  0.21035873638E+04  0.10100000352E+00 0.  1.
       -3    1    3    3    0  502  0.23567249001E+03 -0.29092700362E+03  0.64516181395E+03  0.74593151184E+03  0.10100000352E+00 0. -1.
</event>
<event>
 5   0  0.4400349E-06  0.3311307E+04  0.7818609E-02  0.8160024E-01
        2   -1    0    0  501    0  0.00000000000E+00  0.00000000000E+00  0.24051897205E+04  0.24051897205E+04  0.25500000920E-02 0. -1.
       -2   -1    0    0    0  501  0.00000000000E+00  0.00000000000E+00 -0.11396975922E+04  0.11396975922E+04  0.25500000920E-02 0.  1.
    10030    2    1    2    0    0  0.00000000000E+00  0.00000000000E+00  0.12654921284E+04  0.35448873127E+04  0.33113072544E+04 0.  0.
        5    1    3    3  502    0 -0.94551489780E+03  0.82647964147E+03  0.17877888321E+04  0.21847832886E+04  0.46999998093E+01 0. -1.
       -5    1    3    3    0  502  0.94551489780E+03 -0.82647964147E+03 -0.52229670376E+03  0.13601040241E+04  0.46999998093E+01 0.  1.
</event>
<event>
 5   0  0.4173467E-06  0.2543065E+04  0.7818609E-02  0.8387802E-01
       -2   -1    0    0    0  501  0.00000000000E+00  0.00000000000E+00  0.10272597986E+04  0.10272597986E+04  0.25500000920E-02 0. -1.
        2   -1    0    0  501    0  0.00000000000E+00  0.00000000000E+00 -0.15738907098E+04  0.15738907098E+04  0.25500000920E-02 0.  1.
    10030    2    1    2    0    0  0.00000000000E+00  0.00000000000E+00 -0.54663091121E+03  0.26011505085E+04  0.25430648074E+04 0.  0.
        4    1    3    3  502    0 -0.80948829285E+03 -0.52566757809E+03 -0.11199875680E+04  0.14785031161E+04  0.12699999809E+01 0.  1.
       -4    1    3    3    0  502  0.80948829285E+03  0.52566757809E+03  0.57335665675E+03  0.11226473924E+04  0.12699999809E+01 0. -1.
</event>
<event>
 5   0  0.4400349E-06  0.2881265E+04  0.7818609E-02  0.8278473E-01
       -2   -1    0    0    0  501  0.00000000000E+00  0.00000000000E+00  0.12084584097E+04  0.12084584097E+04  0.25500000920E-02 0. -1.
        2   -1    0    0  501    0  0.00000000000E+00  0.00000000000E+00 -0.17174132463E+04  0.17174132463E+04  0.25500000920E-02 0.  1.
    10030    2    1    2    0    0  0.00000000000E+00  0.00000000000E+00 -0.50895483657E+03  0.29258716560E+04  0.28812653334E+04 0.  0.
        5    1    3    3  502    0 -0.84598604990E+03  0.18600065008E+03  0.91447886753E+03  0.12595960970E+04  0.46999998093E+01 0. -1.
       -5    1    3    3    0  502  0.84598604990E+03 -0.18600065008E+03 -0.14234337041E+04  0.16662755590E+04  0.46999998093E+01 0.  1.
</event>
<event>
 5   0  0.2722449E-06  0.3305953E+04  0.7818609E-02  0.8161382E-01
       -2   -1    0    0    0  501  0.00000000000E+00  0.00000000000E+00  0.12167758961E+04  0.12167758961E+04  0.25500000920E-02 0.  1.
        2   -1    0    0  501    0  0.00000000000E+00  0.00000000000E+00 -0.22455502531E+04  0.22455502531E+04  0.25500000920E-02 0. -1.
    10030    2    1    2    0    0  0.00000000000E+00  0.00000000000E+00 -0.10287743570E+04  0.34623261491E+04  0.33059530676E+04 0.  0.
        2    1    3    3  502    0 -0.13794388254E+04  0.24707490251E+03 -0.14324545683E+04  0.20039519881E+04  0.25500000920E-02 0. -1.
       -2    1    3    3    0  502  0.13794388254E+04 -0.24707490251E+03  0.40368021137E+03  0.14583741610E+04  0.25500000920E-02 0.  1.
</event>
<event>
 5   0  0.1562618E-06  0.3377406E+04  0.7818609E-02  0.8143474E-01
       -1   -1    0    0    0  501  0.00000000000E+00  0.00000000000E+00  0.13763263938E+04  0.13763263938E+04  0.50400001928E-02 0.  1.
        1   -1    0    0  501    0  0.00000000000E+00  0.00000000000E+00 -0.20719779794E+04  0.20719779794E+04  0.50400001928E-02 0. -1.
    10030    2    1    2    0    0  0.00000000000E+00  0.00000000000E+00 -0.69565158553E+03  0.34483043732E+04  0.33774060937E+04 0.  0.
        2    1    3    3  502    0  0.12873065292E+04 -0.10829796270E+04 -0.19737228893E+03  0.16938001042E+04  0.25500000920E-02 0. -1.
       -2    1    3    3    0  502 -0.12873065292E+04  0.10829796270E+04 -0.49827929660E+03  0.17545042690E+04  0.25500000920E-02 0.  1.
</event>
<event>
 5   0  0.4400349E-06  0.3418382E+04  0.7818609E-02  0.8133409E-01
       -2   -1    0    0    0  501  0.00000000000E+00  0.00000000000E+00  0.12301261745E+04  0.12301261745E+04  0.25500000920E-02 0. -1.
        2   -1    0    0  501    0  0.00000000000E+00  0.00000000000E+00 -0.23748245207E+04  0.23748245207E+04  0.25500000920E-02 0.  1.
    10030    2    1    2    0    0  0.00000000000E+00  0.00000000000E+00 -0.11446983462E+04  0.36049506953E+04  0.34183819581E+04 0.  0.
        5    1    3    3  502    0 -0.16383190865E+04  0.15196655322E+02 -0.58962034306E+02  0.16394569159E+04  0.46999998093E+01 0.  1.
       -5    1    3    3    0  502  0.16383190865E+04 -0.15196655322E+02 -0.10857363119E+04  0.19654937793E+04  0.46999998093E+01 0. -1.
</event>
<event>
 5   0  0.1654257E-06  0.3390927E+04  0.7818609E-02  0.8140137E-01
       -1   -1    0    0    0  501  0.00000000000E+00  0.00000000000E+00  0.12423140592E+04  0.12423140592E+04  0.50400001928E-02 0. -1.
        1   -1    0    0  501    0  0.00000000000E+00  0.00000000000E+00 -0.23139044356E+04  0.23139044356E+04  0.50400001928E-02 0.  1.
    10030    2    1    2    0    0  0.00000000000E+00  0.00000000000E+00 -0.10715903764E+04  0.35562184948E+04  0.33909267240E+04 0.  0.
        3    1    3    3  502    0 -0.14017829348E+04  0.58222214133E+03 -0.13280096363E+04  0.20168261260E+04  0.10100000352E+00 0.  1.
       -3    1    3    3    0  502  0.14017829348E+04 -0.58222214133E+03  0.25641925990E+03  0.15393923688E+04  0.10100000352E+00 0. -1.
</event>
<event>
 5   0  0.1562618E-06  0.3481959E+04  0.7818609E-02  0.8118079E-01
       -1   -1    0    0    0  501  0.00000000000E+00  0.00000000000E+00  0.22098130773E+04  0.22098130773E+04  0.50400001928E-02 0.  1.
        1   -1    0    0  501    0  0.00000000000E+00  0.00000000000E+00 -0.13716137110E+04  0.13716137110E+04  0.50400001928E-02 0. -1.
    10030    2    1    2    0    0  0.00000000000E+00  0.00000000000E+00  0.83819936627E+03  0.35814267883E+04  0.34819591701E+04 0.  0.
        2    1    3    3  502    0  0.11289101256E+03 -0.64955430456E+03 -0.12382478343E+04  0.14028267442E+04  0.25500000920E-02 0. -1.
       -2    1    3    3    0  502 -0.11289101256E+03  0.64955430456E+03  0.20764472005E+04  0.21786000440E+04  0.25500000920E-02 0.  1.
</event>
<event>
 5   0  0.1571391E-06  0.3405388E+04  0.7818609E-02  0.8136585E-01
        1   -1    0    0  501    0  0.00000000000E+00  0.00000000000E+00  0.17823098547E+04  0.17823098547E+04  0.50400001928E-02 0.  1.
       -1   -1    0    0    0  501  0.00000000000E+00  0.00000000000E+00 -0.16266344641E+04  0.16266344641E+04  0.50400001928E-02 0. -1.
    10030    2    1    2    0    0  0.00000000000E+00  0.00000000000E+00  0.15567539060E+03  0.34089443188E+04  0.34053878695E+04 0.  0.
        1    1    3    3  502    0 -0.46766725602E+03 -0.15999278044E+04  0.42559796093E+03  0.17203532387E+04  0.50400001928E-02 0. -1.
       -1    1    3    3    0  502  0.46766725602E+03  0.15999278044E+04 -0.26992257033E+03  0.16885910801E+04  0.50400001928E-02 0.  1.
</event>
<event>
 5   0  0.1654257E-06  0.3427994E+04  0.7818609E-02  0.8131070E-01
       -1   -1    0    0    0  501  0.00000000000E+00  0.00000000000E+00  0.12749560209E+04  0.12749560209E+04  0.50400001928E-02 0. -1.
        1   -1    0    0  501    0  0.00000000000E+00  0.00000000000E+00 -0.23042254624E+04  0.23042254624E+04  0.50400001928E-02 0.  1.
    10030    2    1    2    0    0  0.00000000000E+00  0.00000000000E+00 -0.10292694416E+04  0.35791814833E+04  0.34279942396E+04 0.  0.
        3    1    3    3  502    0  0.10126760196E+04 -0.13816607392E+04 -0.57449563277E+03  0.18068050147E+04  0.10100000352E+00 0.  1.
       -3    1    3    3    0  502 -0.10126760196E+04  0.13816607392E+04 -0.45477380878E+03  0.17723764686E+04  0.10100000352E+00 0. -1.
</event>
<event>
 5   0  0.2101998E-06  0.3440434E+04  0.7818609E-02  0.8128053E-01
       -1   -1    0    0    0  501  0.00000000000E+00  0.00000000000E+00  0.15041260595E+04  0.15041260595E+04  0.50400001928E-02 0. -1.
        1   -1    0    0  501    0  0.00000000000E+00  0.00000000000E+00 -0.19673532246E+04  0.19673532246E+04  0.50400001928E-02 0.  1.
    10030    2    1    2    0    0  0.00000000000E+00  0.00000000000E+00 -0.46322716511E+03  0.34714792841E+04  0.34404344222E+04 0.  0.
        5    1    3    3  502    0  0.96888429860E+03 -0.10827975207E+04 -0.11607582090E+04  0.18597228193E+04  0.46999998093E+01 0.  1.
       -5    1    3    3    0  502 -0.96888429860E+03  0.10827975207E+04  0.69753104386E+03  0.16117564649E+04  0.46999998093E+01 0. -1.
</event>
<event>
 5   0  0.2101998E-06  0.1917409E+04  0.7818609E-02  0.8646239E-01
        1   -1    0    0  501    0  0.00000000000E+00  0.00000000000E+00  0.12000729188E+04  0.12000729188E+04  0.50400001928E-02 0.  1.
       -1   -1    0    0    0  501  0.00000000000E+00  0.00000000000E+00 -0.76588234498E+03  0.76588234499E+03  0.50400001928E-02 0. -1.
    10030    2    1    2    0    0  0.00000000000E+00  0.00000000000E+00  0.43419057380E+03  0.19659552638E+04  0.19174093577E+04 0.  0.
        5    1    3    3  502    0  0.57167139727E+03  0.76642982222E+03  0.14554515424E+03  0.96717544466E+03  0.46999998093E+01 0.  1.
       -5    1    3    3    0  502 -0.57167139727E+03 -0.76642982222E+03  0.28864541956E+03  0.99877981912E+03  0.46999998093E+01 0. -1.
</event>
<event>
 5   0  0.2722449E-06  0.3390797E+04  0.7818609E-02  0.8140169E-01
       -2   -1    0    0    0  501  0.00000000000E+00  0.00000000000E+00  0.12986458536E+04  0.12986458536E+04  0.25500000920E-02 0. -1.
        2   -1    0    0  501    0  0.00000000000E+00  0.00000000000E+00 -0.22133639254E+04  0.22133639254E+04  0.25500000920E-02 0.  1.
    10030    2    1    2    0    0  0.00000000000E+00  0.00000000000E+00 -0.91471807187E+03  0.35120097790E+04  0.33907968882E+04 0.  0.
        2    1    3    3  502    0 -0.12752529920E+04 -0.94470492599E+03  0.16031336911E+03  0.15951294515E+04  0.25500000920E-02 0. -1.
       -2    1    3    3    0  502  0.12752529920E+04  0.94470492599E+03 -0.10750314410E+04  0.19168803275E+04  0.25500000920E-02 0.  1.
</event>
<event>
 5   0  0.1562618E-06  0.3416828E+04  0.7818609E-02  0.8133788E-01
        1   -1    0    0  501    0  0.00000000000E+00  0.00000000000E+00  0.16311889058E+04  0.16311889059E+04  0.50400001928E-02 0.  1.
       -1   -1    0    0    0  501  0.00000000000E+00  0.00000000000E+00 -0.17892956417E+04  0.17892956417E+04  0.50400001928E-02 0. -1.
    10030    2    1    2    0    0  0.00000000000E+00  0.00000000000E+00 -0.15810673589E+03  0.34204845476E+04  0.34168284710E+04 0.  0.
        2    1    3    3  502    0 -0.57287172657E+02 -0.16961633919E+04  0.11718477160E+03  0.17011714620E+04  0.25500000920E-02 0.  1.
       -2    1    3    3    0  502  0.57287172657E+02  0.16961633919E+04 -0.27529150749E+03  0.17193130856E+04  0.25500000920E-02 0. -1.
</event>
<event>
 5   0  0.4189587E-06  0.3520022E+04  0.7818609E-02  0.8109061E-01
       -2   -1    0    0    0  501  0.00000000000E+00  0.00000000000E+00  0.15269757872E+04  0.15269757872E+04  0.25500000920E-02 0. -1.
        2   -1    0    0  501    0  0.00000000000E+00  0.00000000000E+00 -0.20286104147E+04  0.20286104147E+04  0.25500000920E-02 0.  1.
    10030    2    1    2    0    0  0.00000000000E+00  0.00000000000E+00 -0.50163462748E+03  0.35555862019E+04  0.35200221504E+04 0.  0.
        1    1    3    3  502    0  0.80314604265E+03 -0.12856050814E+03 -0.18273772461E+04  0.20002197303E+04  0.50400001928E-02 0.  1.
       -1    1    3    3    0  502 -0.80314604265E+03  0.12856050814E+03  0.13257426186E+04  0.15553664716E+04  0.50400001928E-02 0. -1.
</event>
<event>
 5   0  0.4189587E-06  0.3487069E+04  0.7818609E-02  0.8116861E-01
       -2   -1    0    0    0  501  0.00000000000E+00  0.00000000000E+00  0.14088686156E+04  0.14088686156E+04  0.25500000920E-02 0.  1.
        2   -1    0    0  501    0  0.00000000000E+00  0.00000000000E+00 -0.21576975202E+04  0.21576975202E+04  0.25500000920E-02 0. -1.
    10030    2    1    2    0    0  0.00000000000E+00  0.00000000000E+00 -0.74882890457E+03  0.35665661358E+04  0.34870688655E+04 0.  0.
        1    1    3    3  502    0  0.60650903580E+03 -0.71777039155E+03 -0.18765226493E+04  0.20986626215E+04  0.50400001928E-02 0. -1.
       -1    1    3    3    0  502 -0.60650903580E+03  0.71777039155E+03  0.11276937447E+04  0.14679035143E+04  0.50400001928E-02 0.  1.
</event>
<event>
 5   0  0.1562618E-06  0.3395548E+04  0.7818609E-02  0.8139000E-01
       -1   -1    0    0    0  501  0.00000000000E+00  0.00000000000E+00  0.16302016913E+04  0.16302016913E+04  0.50400001928E-02 0.  1.
        1   -1    0    0  501    0  0.00000000000E+00  0.00000000000E+00 -0.17681472349E+04  0.17681472349E+04  0.50400001928E-02 0. -1.
    10030    2    1    2    0    0  0.00000000000E+00  0.00000000000E+00 -0.13794554361E+03  0.33983489263E+04  0.33955480341E+04 0.  0.
        2    1    3    3  502    0 -0.72396885461E+03  0.85195687869E+03 -0.13477102210E+04  0.17510808849E+04  0.25500000920E-02 0. -1.
       -2    1    3    3    0  502  0.72396885461E+03 -0.85195687869E+03  0.12097646774E+04  0.16472680414E+04  0.25500000920E-02 0.  1.
</event>
<event>
 5   0  0.4173467E-06  0.3317331E+04  0.7818609E-02  0.8158499E-01
        2   -1    0    0  501    0  0.00000000000E+00  0.00000000000E+00  0.18734352462E+04  0.18734352462E+04  0.25500000920E-02 0.  1.
       -2   -1    0    0    0  501  0.00000000000E+00  0.00000000000E+00 -0.14685171599E+04  0.14685171599E+04  0.25500000920E-02 0. -1.
    10030    2    1    2    0    0  0.00000000000E+00  0.00000000000E+00  0.40491808633E+03  0.33419524062E+04  0.33173313414E+04 0.  0.
        4    1    3    3  502    0  0.58383513439E+03 -0.10338418234E+04 -0.96435905340E+03  0.15296020321E+04  0.12699999809E+01 0. -1.
       -4    1    3    3    0  502 -0.58383513439E+03  0.10338418234E+04  0.13692771397E+04  0.18123503740E+04  0.12699999809E+01 0.  1.
</event>
<event>
 5   0  0.4189587E-06  0.3554432E+04  0.7818609E-02  0.8101010E-01
        2   -1    0    0  501    0  0.00000000000E+00  0.00000000000E+00  0.15257821290E+04  0.15257821290E+04  0.25500000920E-02 0.  1.
       -2   -1    0    0    0  501  0.00000000000E+00  0.00000000000E+00 -0.20700838449E+04  0.20700838449E+04  0.25500000920E-02 0. -1.
    10030    2    1    2    0    0  0.00000000000E+00  0.00000000000E+00 -0.54430171587E+03  0.35958659739E+04  0.35544321268E+04 0.  0.
        1    1    3    3  502    0  0.35306693226E+03 -0.11727494291E+04 -0.15749904174E+04  0.19951421746E+04  0.50400001928E-02 0. -1.
       -1    1    3    3    0  502 -0.35306693226E+03  0.11727494291E+04  0.10306887015E+04  0.16007237993E+04  0.50400001928E-02 0.  1.
</event>
<event>
 5   0  0.1562618E-06  0.2073931E+04  0.7818609E-02  0.8572815E-01
        1   -1    0    0  501    0  0.00000000000E+00  0.00000000000E+00  0.10603499821E+04  0.10603499821E+04  0.50400001928E-02 0.  1.
       -1   -1    0    0    0  501  0.00000000000E+00  0.00000000000E+00 -0.10140967532E+04  0.10140967532E+04  0.50400001928E-02 0. -1.
    10030    2    1    2    0    0  0.00000000000E+00  0.00000000000E+00  0.46253228896E+02  0.20744467353E+04  0.20739310250E+04 0.  0.
        2    1    3    3  502    0 -0.48552532660E+03 -0.51795719527E+03 -0.73289397033E+03  0.10203666354E+04  0.25500000920E-02 0. -1.
       -2    1    3    3    0  502  0.48552532660E+03  0.51795719527E+03  0.77914719923E+03  0.10540800999E+04  0.25500000920E-02 0.  1.
</event>
<event>
 5   0  0.4189587E-06  0.2755441E+04  0.7818609E-02  0.8317237E-01
       -2   -1    0    0    0  501  0.00000000000E+00  0.00000000000E+00  0.11583561726E+04  0.11583561726E+04  0.25500000920E-02 0.  1.
        2   -1    0    0  501    0  0.00000000000E+00  0.00000000000E+00 -0.16386268280E+04  0.16386268280E+04  0.25500000920E-02 0. -1.
    10030    2    1    2    0    0  0.00000000000E+00  0.00000000000E+00 -0.48027065535E+03  0.27969830006E+04  0.27554408002E+04 0.  0.
        1    1    3    3  502    0 -0.12648682923E+04 -0.40581679852E+03 -0.61106824093E+03  0.14621844842E+04  0.50400001928E-02 0. -1.
       -1    1    3    3    0  502  0.12648682923E+04  0.40581679852E+03  0.13079758557E+03  0.13347985164E+04  0.50400001928E-02 0.  1.
</event>
<event>
 5   0  0.1550164E-06  0.3367313E+04  0.7818609E-02  0.8145976E-01
       -1   -1    0    0    0  501  0.00000000000E+00  0.00000000000E+00  0.11669377251E+04  0.11669377251E+04  0.50400001928E-02 0. -1.
        1   -1    0    0  501    0  0.00000000000E+00  0.00000000000E+00 -0.24291783795E+04  0.24291783795E+04  0.50400001928E-02 0.  1.
    10030    2    1    2    0    0  0.00000000000E+00  0.00000000000E+00 -0.12622406545E+04  0.35961161046E+04  0.33673134051E+04 0.  0.
        4    1    3    3  502    0  0.84524043534E+03 -0.14540672358E+04 -0.71353492580E+03  0.18269856658E+04  0.12699999809E+01 0.  1.
       -4    1    3    3    0  502 -0.84524043534E+03  0.14540672358E+04 -0.54870572867E+03  0.17691304388E+04  0.12699999809E+01 0. -1.
</event>
<event>
 5   0  0.4400349E-06  0.3300700E+04  0.7818609E-02  0.8162717E-01
       -2   -1    0    0    0  501  0.00000000000E+00  0.00000000000E+00  0.11743050505E+04  0.11743050505E+04  0.25500000920E-02 0. -1.
        2   -1    0    0  501    0  0.00000000000E+00  0.00000000000E+00 -0.23193760680E+04  0.23193760680E+04  0.25500000920E-02 0.  1.
    10030    2    1    2    0    0  0.00000000000E+00  0.00000000000E+00 -0.11450710175E+04  0.34936811186E+04  0.33006999444E+04 0.  0.
        5    1    3    3  502    0 -0.42948192475E+03  0.36329726558E+03  0.10696896497E+04  0.12085932581E+04  0.46999998093E+01 0. -1.
       -5    1    3    3    0  502  0.42948192475E+03 -0.36329726558E+03 -0.22147606672E+04  0.22850878604E+04  0.46999998093E+01 0.  1.
</event>
<event>
 5   0  0.1550164E-06  0.1850018E+04  0.7818609E-02  0.8680144E-01
        1   -1    0    0  501    0  0.00000000000E+00  0.00000000000E+00  0.12564706187E+04  0.12564706188E+04  0.50400001928E-02 0.  1.
       -1   -1    0    0    0  501  0.00000000000E+00  0.00000000000E+00 -0.68098813213E+03  0.68098813215E+03  0.50400001928E-02 0. -1.
    10030    2    1    2    0    0  0.00000000000E+00  0.00000000000E+00  0.57548248661E+03  0.19374587509E+04  0.18500179240E+04 0.  0.
        4    1    3    3  502    0 -0.93113974669E+02 -0.52221455710E+03 -0.50587666479E+03  0.73300141119E+03  0.12699999809E+01 0. -1.
       -4    1    3    3    0  502  0.93113974669E+02  0.52221455710E+03  0.10813591514E+04  0.12044573397E+04  0.12699999809E+01 0.  1.
</event>
<event>
 5   0  0.4173467E-06  0.3267587E+04  0.7818609E-02  0.8171192E-01
       -2   -1    0    0    0  501  0.00000000000E+00  0.00000000000E+00  0.85001955969E+03  0.85001955969E+03  0.25500000920E-02 0.  1.
        2   -1    0    0  501    0  0.00000000000E+00  0.00000000000E+00 -0.31402586855E+04  0.31402586855E+04  0.25500000920E-02 0. -1.
    10030    2    1    2    0    0  0.00000000000E+00  0.00000000000E+00 -0.22902391258E+04  0.39902782452E+04  0.32675870640E+04 0.  0.
        4    1    3    3  502    0  0.94580148547E+03  0.13105820871E+04 -0.85327831441E+03  0.18276354537E+04  0.12699999809E+01 0.  1.
       -4    1    3    3    0  502 -0.94580148547E+03 -0.13105820871E+04 -0.14369608114E+04  0.21626427915E+04  0.12699999809E+01 0. -1.
</event>
<event>
 5   0  0.1550164E-06  0.2177115E+04  0.7818609E-02  0.8528014E-01
       -1   -1    0    0    0  501  0.00000000000E+00  0.00000000000E+00  0.12836959585E+04  0.12836959585E+04  0.50400001928E-02 0.  1.
        1   -1    0    0  501    0  0.00000000000E+00  0.00000000000E+00 -0.92308259298E+03  0.92308259299E+03  0.50400001928E-02 0. -1.
    10030    2    1    2    0    0  0.00000000000E+00  0.00000000000E+00  0.36061336556E+03  0.22067785515E+04  0.21771149662E+04 0.  0.
        4    1    3    3  502    0  0.14116405366E+03  0.92180691131E+03  0.74947370260E+03  0.11963978082E+04  0.12699999809E+01 0.  1.
       -4    1    3    3    0  502 -0.14116405366E+03 -0.92180691131E+03 -0.38886033704E+03  0.10103807433E+04  0.12699999809E+01 0. -1.
</event>
<event>
 5   0  0.1562618E-06  0.3458695E+04  0.7818609E-02  0.8123649E-01
        1   -1    0    0  501    0  0.00000000000E+00  0.00000000000E+00  0.22914166924E+04  0.22914166925E+04  0.50400001928E-02 0. -1.
       -1   -1    0    0    0  501  0.00000000000E+00  0.00000000000E+00 -0.13051500334E+04  0.13051500335E+04  0.50400001928E-02 0.  1.
    10030    2    1    2    0    0  0.00000000000E+00  0.00000000000E+00  0.98626665900E+03  0.35965667259E+04  0.34586948827E+04 0.  0.
        2    1    3    3  502    0 -0.41517767374E+03  0.13810779064E+04  0.14855859090E+04  0.20704381607E+04  0.25500000920E-02 0. -1.
       -2    1    3    3    0  502  0.41517767374E+03 -0.13810779064E+04 -0.49931924997E+03  0.15261285652E+04  0.25500000920E-02 0.  1.
</event>
<event>
 5   0  0.2722449E-06  0.3275416E+04  0.7818609E-02  0.8169179E-01
       -2   -1    0    0    0  501  0.00000000000E+00  0.00000000000E+00  0.12388757190E+04  0.12388757190E+04  0.25500000920E-02 0. -1.
        2   -1    0    0  501    0  0.00000000000E+00  0.00000000000E+00 -0.21649369891E+04  0.21649369891E+04  0.25500000920E-02 0.  1.
    10030    2    1    2    0    0  0.00000000000E+00  0.00000000000E+00 -0.92606127015E+03  0.34038127081E+04  0.32754162294E+04 0.  0.
        2    1    3    3  502    0  0.16356380832E+04 -0.17357971877E+02 -0.37941131120E+03  0.16791563898E+04  0.25500000920E-02 0. -1.
       -2    1    3    3    0  502 -0.16356380832E+04  0.17357971877E+02 -0.54664995895E+03  0.17246563182E+04  0.25500000920E-02 0.  1.
</event>
<event>
 5   0  0.2722449E-06  0.3258924E+04  0.7818609E-02  0.8173427E-01
       -2   -1    0    0    0  501  0.00000000000E+00  0.00000000000E+00  0.10311920273E+04  0.10311920273E+04  0.25500000920E-02 0.  1.
        2   -1    0    0  501    0  0.00000000000E+00  0.00000000000E+00 -0.25748313932E+04  0.25748313932E+04  0.25500000920E-02 0. -1.
    10030    2    1    2    0    0  0.00000000000E+00  0.00000000000E+00 -0.15436393658E+04  0.36060234205E+04  0.32589235059E+04 0.  0.
        2    1    3    3  502    0 -0.56397673956E+02 -0.79009246659E+03  0.80382482603E+03  0.11285216676E+04  0.25500000920E-02 0.  1.
       -2    1    3    3    0  502  0.56397673956E+02  0.79009246659E+03 -0.23474641919E+04  0.24775017529E+04  0.25500000920E-02 0. -1.
</event>
<event>
 5   0  0.4400349E-06  0.3448653E+04  0.7818609E-02  0.8126067E-01
       -2   -1    0    0    0  501  0.00000000000E+00  0.00000000000E+00  0.11205960503E+04  0.11205960504E+04  0.25500000920E-02 0. -1.
        2   -1    0    0  501    0  0.00000000000E+00  0.00000000000E+00 -0.26533223932E+04  0.26533223932E+04  0.25500000920E-02 0.  1.
    10030    2    1    2    0    0  0.00000000000E+00  0.00000000000E+00 -0.15327263429E+04  0.37739184436E+04  0.34486534150E+04 0.  0.
        5    1    3    3  502    0  0.59162314697E+03  0.86482237933E+03  0.73222922691E+03  0.12783260251E+04  0.46999998093E+01 0. -1.
       -5    1    3    3    0  502 -0.59162314697E+03 -0.86482237933E+03 -0.22649555698E+04  0.24955924184E+04  0.46999998093E+01 0.  1.
</event>
<event>
 5   0  0.4173467E-06  0.3191394E+04  0.7818609E-02  0.8191094E-01
        2   -1    0    0  501    0  0.00000000000E+00  0.00000000000E+00  0.79096896937E+03  0.79096896938E+03  0.25500000920E-02 0. -1.
       -2   -1    0    0    0  501  0.00000000000E+00  0.00000000000E+00 -0.32191518670E+04  0.32191518670E+04  0.25500000920E-02 0.  1.
    10030    2    1    2    0    0  0.00000000000E+00  0.00000000000E+00 -0.24281828976E+04  0.40101208364E+04  0.31913941997E+04 0.  0.
        4    1    3    3  502    0 -0.14892319003E+04 -0.11545828410E+03 -0.19194418191E+04  0.24321596942E+04  0.12699999809E+01 0.  1.
       -4    1    3    3    0  502  0.14892319003E+04  0.11545828410E+03 -0.50874107859E+03  0.15779611422E+04  0.12699999809E+01 0. -1.
</event>
<event>
 5   0  0.1571391E-06  0.2353923E+04  0.7818609E-02  0.8456959E-01
       -1   -1    0    0    0  501  0.00000000000E+00  0.00000000000E+00  0.15027570693E+04  0.15027570693E+04  0.50400001928E-02 0. -1.
        1   -1    0    0  501    0  0.00000000000E+00  0.00000000000E+00 -0.92179763496E+03  0.92179763497E+03  0.50400001928E-02 0.  1.
    10030    2    1    2    0    0  0.00000000000E+00  0.00000000000E+00  0.58095943438E+03  0.24245547043E+04  0.23539226091E+04 0.  0.
        1    1    3    3  502    0  0.84386128075E+03 -0.73016881422E+03 -0.94898907126E+02  0.11199348914E+04  0.50400001928E-02 0.  1.
       -1    1    3    3    0  502 -0.84386128075E+03  0.73016881422E+03  0.67585834151E+03  0.13046198129E+04  0.50400001928E-02 0. -1.
</event>
<event>
 5   0  0.2722449E-06  0.3267164E+04  0.7818609E-02  0.8171301E-01
       -2   -1    0    0    0  501  0.00000000000E+00  0.00000000000E+00  0.21977147230E+04  0.21977147230E+04  0.25500000920E-02 0. -1.
        2   -1    0    0  501    0  0.00000000000E+00  0.00000000000E+00 -0.12142571618E+04  0.12142571618E+04  0.25500000920E-02 0.  1.
    10030    2    1    2    0    0  0.00000000000E+00  0.00000000000E+00  0.98345756126E+03  0.34119718848E+04  0.32671644231E+04 0.  0.
        2    1    3    3  502    0 -0.33615659017E+02  0.98247762753E+03 -0.87078078351E+03  0.13132598654E+04  0.25500000920E-02 0.  1.
       -2    1    3    3    0  502  0.33615659017E+02 -0.98247762753E+03  0.18542383448E+04  0.20987120194E+04  0.25500000920E-02 0. -1.
</event>
<event>
 5   0  0.4400349E-06  0.3460972E+04  0.7818609E-02  0.8123102E-01
       -2   -1    0    0    0  501  0.00000000000E+00  0.00000000000E+00  0.31000130599E+04  0.31000130599E+04  0.25500000920E-02 0.  1.
        2   -1    0    0  501    0  0.00000000000E+00  0.00000000000E+00 -0.96599017834E+03  0.96599017834E+03  0.25500000920E-02 0. -1.
    10030    2    1    2    0    0  0.00000000000E+00  0.00000000000E+00  0.21340228815E+04  0.40660032382E+04  0.34609722152E+04 0.  0.
        5    1    3    3  502    0  0.16226191440E+04 -0.42913897631E+03  0.57204327799E+03  0.17732198818E+04  0.46999998093E+01 0. -1.
       -5    1    3    3    0  502 -0.16226191440E+04  0.42913897631E+03  0.15619796035E+04  0.22927833564E+04  0.46999998093E+01 0.  1.
</event>
<event>
 5   0  0.4189587E-06  0.2604566E+04  0.7818609E-02  0.8366652E-01
        2   -1    0    0  501    0  0.00000000000E+00  0.00000000000E+00  0.23472172832E+04  0.23472172832E+04  0.25500000920E-02 0.  1.
       -2   -1    0    0    0  501  0.00000000000E+00  0.00000000000E+00 -0.72253260833E+03  0.72253260833E+03  0.25500000920E-02 0. -1.
    10030    2    1    2    0    0  0.00000000000E+00  0.00000000000E+00  0.16246846749E+04  0.30697498915E+04  0.26045660106E+04 0.  0.
        1    1    3    3  502    0  0.96928054354E+03 -0.67976083375E+03  0.14517945584E+04  0.18733091050E+04  0.50400001928E-02 0.  1.
       -1    1    3    3    0  502 -0.96928054354E+03  0.67976083375E+03  0.17289011646E+03  0.11964407865E+04  0.50400001928E-02 0. -1.
</event>
<event>
 5   0  0.1571391E-06  0.3445169E+04  0.7818609E-02  0.8126909E-01
        1   -1    0    0  501    0  0.00000000000E+00  0.00000000000E+00  0.26520691403E+04  0.26520691404E+04  0.50400001928E-02 0.  1.
       -1   -1    0    0    0  501  0.00000000000E+00  0.00000000000E+00 -0.11188612173E+04  0.11188612173E+04  0.50400001928E-02 0. -1.
    10030    2    1    2    0    0  0.00000000000E+00  0.00000000000E+00  0.15332079230E+04  0.37709303577E+04  0.34451689693E+04 0.  0.
        1    1    3    3  502    0 -0.23562609509E+03  0.12045190975E+04  0.20895737390E+04  0.24233663206E+04  0.50400001928E-02 0. -1.
       -1    1    3    3    0  502  0.23562609509E+03 -0.12045190975E+04 -0.55636581601E+03  0.13475640371E+04  0.50400001928E-02 0.  1.
</event>
<event>
 5   0  0.4400349E-06  0.3275101E+04  0.7818609E-02  0.8169260E-01
        2   -1    0    0  501    0  0.00000000000E+00  0.00000000000E+00  0.23880683737E+04  0.23880683737E+04  0.25500000920E-02 0. -1.
       -2   -1    0    0    0  501  0.00000000000E+00  0.00000000000E+00 -0.11229040804E+04  0.11229040804E+04  0.25500000920E-02 0.  1.
    10030    2    1    2    0    0  0.00000000000E+00  0.00000000000E+00  0.12651642933E+04  0.35109724542E+04  0.32751010495E+04 0.  0.
        5    1    3    3  502    0 -0.67702761107E+03  0.17799327357E+02  0.22308862021E+04  0.23314284332E+04  0.46999998093E+01 0. -1.
       -5    1    3    3    0  502  0.67702761107E+03 -0.17799327357E+02 -0.96572190882E+03  0.11795440210E+04  0.46999998093E+01 0.  1.
</event>
<event>
 5   0  0.1562618E-06  0.3083685E+04  0.7818609E-02  0.8220230E-01
        1   -1    0    0  501    0  0.00000000000E+00  0.00000000000E+00  0.26053401380E+04  0.26053401380E+04  0.50400001928E-02 0. -1.
       -1   -1    0    0    0  501  0.00000000000E+00  0.00000000000E+00 -0.91246368009E+03  0.91246368011E+03  0.50400001928E-02 0.  1.
    10030    2    1    2    0    0  0.00000000000E+00  0.00000000000E+00  0.16928764579E+04  0.35178038181E+04  0.30836849711E+04 0.  0.
        2    1    3    3  502    0  0.10471741688E+04  0.31972083768E+03 -0.39196846422E+03  0.11629421442E+04  0.25500000920E-02 0.  1.
       -2    1    3    3    0  502 -0.10471741688E+04 -0.31972083768E+03  0.20848449221E+04  0.23548616739E+04  0.25500000920E-02 0. -1.
</event>
<event>
 5   0  0.2722449E-06  0.3488530E+04  0.7818609E-02  0.8116514E-01
        2   -1    0    0  501    0  0.00000000000E+00  0.00000000000E+00  0.23907019131E+04  0.23907019132E+04  0.25500000920E-02 0. -1.
       -2   -1    0    0    0  501  0.00000000000E+00  0.00000000000E+00 -0.12726220462E+04  0.12726220462E+04  0.25500000920E-02 0.  1.
    10030    2    1    2    0    0  0.00000000000E+00  0.00000000000E+00  0.11180798670E+04  0.36633239593E+04  0.34885297536E+04 0.  0.
        2    1    3    3  502    0 -0.13071747006E+04 -0.75630553024E+03  0.14755577166E+04  0.21113915620E+04  0.25500000920E-02 0.  1.
       -2    1    3    3    0  502  0.13071747006E+04  0.75630553024E+03 -0.35747784961E+03  0.15519323973E+04  0.25500000920E-02 0. -1.
</event>
<event>
 5   0  0.2722449E-06  0.3412022E+04  0.7818609E-02  0.8134962E-01
       -2   -1    0    0    0  501  0.00000000000E+00  0.00000000000E+00  0.10862040257E+04  0.10862040257E+04  0.25500000920E-02 0. -1.
        2   -1    0    0  501    0  0.00000000000E+00  0.00000000000E+00 -0.26794901342E+04  0.26794901342E+04  0.25500000920E-02 0.  1.
    10030    2    1    2    0    0  0.00000000000E+00  0.00000000000E+00 -0.15932861086E+04  0.37656941599E+04  0.34120216708E+04 0.  0.
        2    1    3    3  502    0  0.15065145444E+04 -0.54105688811E+03 -0.14544523945E+03  0.16073216686E+04  0.25500000920E-02 0. -1.
       -2    1    3    3    0  502 -0.15065145444E+04  0.54105688811E+03 -0.14478408691E+04  0.21583724913E+04  0.25500000920E-02 0.  1.
</event>
<event>
 5   0  0.4400349E-06  0.2994667E+04  0.7818609E-02  0.8245255E-01
       -2   -1    0    0    0  501  0.00000000000E+00  0.00000000000E+00  0.14064485934E+04  0.14064485934E+04  0.25500000920E-02 0.  1.
        2   -1    0    0  501    0  0.00000000000E+00  0.00000000000E+00 -0.15940911214E+04  0.15940911214E+04  0.25500000920E-02 0. -1.
    10030    2    1    2    0    0  0.00000000000E+00  0.00000000000E+00 -0.18764252807E+03  0.30005397148E+04  0.29946667364E+04 0.  0.
        5    1    3    3  502    0 -0.13843995168E+04 -0.56900774503E+02 -0.66254821925E+03  0.15358359135E+04  0.46999998093E+01 0. -1.
       -5    1    3    3    0  502  0.13843995168E+04  0.56900774503E+02  0.47490569118E+03  0.14647038014E+04  0.46999998093E+01 0.  1.
</event>
<event>
 5   0  0.1550164E-06  0.3259317E+04  0.7818609E-02  0.8173325E-01
       -1   -1    0    0    0  501  0.00000000000E+00  0.00000000000E+00  0.14139254041E+04  0.14139254041E+04  0.50400001928E-02 0. -1.
        1   -1    0    0  501    0  0.00000000000E+00  0.00000000000E+00 -0.18783077052E+04  0.18783077053E+04  0.50400001928E-02 0.  1.
    10030    2    1    2    0    0  0.00000000000E+00  0.00000000000E+00 -0.46438230116E+03  0.32922331093E+04  0.32593170948E+04 0.  0.
        4    1    3    3  502    0 -0.20979351455E+03 -0.87994294617E+03 -0.16014147730E+04  0.18392508788E+04  0.12699999809E+01 0.  1.
       -4    1    3    3    0  502  0.20979351455E+03  0.87994294617E+03  0.11370324718E+04  0.14529822305E+04  0.12699999809E+01 0. -1.
</event>
<event>
 5   0  0.1562618E-06  0.1699463E+04  0.7818609E-02  0.8761671E-01
       -1   -1    0    0    0  501  0.00000000000E+00  0.00000000000E+00  0.35975170640E+03  0.35975170643E+03  0.50400001928E-02 0. -1.
        1   -1    0    0  501    0  0.00000000000E+00  0.00000000000E+00 -0.20070607917E+04  0.20070607917E+04  0.50400001928E-02 0.  1.
    10030    2    1    2    0    0  0.00000000000E+00  0.00000000000E+00 -0.16473090853E+04  0.23668124981E+04  0.16994629089E+04 0.  0.
        2    1    3    3  502    0 -0.38151975469E+03 -0.70511431559E+03 -0.12158375941E+04  0.14563669100E+04  0.25500000920E-02 0. -1.
       -2    1    3    3    0  502  0.38151975469E+03  0.70511431559E+03 -0.43147149123E+03  0.91044558817E+03  0.25500000920E-02 0.  1.
</event>
<event>
 5   0  0.2722449E-06  0.3392540E+04  0.7818609E-02  0.8139740E-01
        2   -1    0    0  501    0  0.00000000000E+00  0.00000000000E+00  0.35237404107E+04  0.35237404107E+04  0.25500000920E-02 0.  1.
       -2   -1    0    0    0  501  0.00000000000E+00  0.00000000000E+00 -0.81655616709E+03  0.81655616710E+03  0.25500000920E-02 0. -1.
    10030    2    1    2    0    0  0.00000000000E+00  0.00000000000E+00  0.27071842436E+04  0.43402965778E+04  0.33925400299E+04 0.  0.
        2    1    3    3  502    0  0.16000293245E+04 -0.30072031991E+03  0.19628780301E+04  0.25501797409E+04  0.25500000920E-02 0.  1.
       -2    1    3    3    0  502 -0.16000293245E+04  0.30072031991E+03  0.74430621354E+03  0.17901168369E+04  0.25500000920E-02 0. -1.
</event>
<event>
 5   0  0.4189587E-06  0.3356016E+04  0.7818609E-02  0.8148787E-01
       -2   -1    0    0    0  501  0.00000000000E+00  0.00000000000E+00  0.17304094914E+04  0.17304094914E+04  0.25500000920E-02 0. -1.
        2   -1    0    0  501    0  0.00000000000E+00  0.00000000000E+00 -0.16271930983E+04  0.16271930983E+04  0.25500000920E-02 0.  1.
    10030    2    1    2    0    0  0.00000000000E+00  0.00000000000E+00  0.10321639306E+03  0.33576025897E+04  0.33560157220E+04 0.  0.
        1    1    3    3  502    0 -0.10621963175E+04  0.57160640820E+03  0.12186568638E+04  0.17146776533E+04  0.50400001928E-02 0. -1.
       -1    1    3    3    0  502  0.10621963175E+04 -0.57160640820E+03 -0.11154404708E+04  0.16429249364E+04  0.50400001928E-02 0.  1.
</event>
<event>
 5   0  0.4173467E-06  0.1872467E+04  0.7818609E-02  0.8668684E-01
        2   -1    0    0  501    0  0.00000000000E+00  0.00000000000E+00  0.24893922230E+04  0.24893922230E+04  0.25500000920E-02 0.  1.
       -2   -1    0    0    0  501  0.00000000000E+00  0.00000000000E+00 -0.35210722897E+03  0.35210722898E+03  0.25500000920E-02 0. -1.
    10030    2    1    2    0    0  0.00000000000E+00  0.00000000000E+00  0.21372849940E+04  0.28414994519E+04  0.18724668194E+04 0.  0.
        4    1    3    3  502    0  0.65245187666E+03 -0.65261916344E+03  0.82905666000E+03  0.12405409232E+04  0.12699999809E+01 0. -1.
       -4    1    3    3    0  502 -0.65245187666E+03  0.65261916344E+03  0.13082283340E+04  0.16009585287E+04  0.12699999809E+01 0.  1.
</event>
<event>
 5   0  0.4400349E-06  0.3238836E+04  0.7818609E-02  0.8178635E-01
       -2   -1    0    0    0  501  0.00000000000E+00  0.00000000000E+00  0.18711040215E+04  0.18711040215E+04  0.25500000920E-02 0. -1.
        2   -1    0    0  501    0  0.00000000000E+00  0.00000000000E+00 -0.14015865311E+04  0.14015865311E+04  0.25500000920E-02 0.  1.
    10030    2    1    2    0    0  0.00000000000E+00  0.00000000000E+00  0.46951749040E+03  0.32726905526E+04  0.32388357135E+04 0.  0.
        5    1    3    3  502    0 -0.11193867053E+04 -0.10183878345E+04  0.81728431519E+03  0.17199174746E+04  0.46999998093E+01 0.  1.
       -5    1    3    3    0  502  0.11193867053E+04  0.10183878345E+04 -0.34776682479E+03  0.15527730780E+04  0.46999998093E+01 0. -1.
</event>
<event>
 5   0  0.4344980E-06  0.3420853E+04  0.7818609E-02  0.8132807E-01
       -2   -1    0    0    0  501  0.00000000000E+00  0.00000000000E+00  0.16299549800E+04  0.16299549800E+04  0.25500000920E-02 0.  1.
        2   -1    0    0  501    0  0.00000000000E+00  0.00000000000E+00 -0.17948712605E+04  0.17948712605E+04  0.25500000920E-02 0. -1.
    10030    2    1    2    0    0  0.00000000000E+00  0.00000000000E+00 -0.16491628054E+03  0.34248262405E+04  0.34208533143E+04 0.  0.
        3    1    3    3  502    0 -0.11733228585E+03 -0.16147795407E+04 -0.63471414117E+03  0.17390060039E+04  0.10100000352E+00 0. -1.
       -3    1    3    3    0  502  0.11733228585E+03  0.16147795407E+04  0.46979786063E+03  0.16858202366E+04  0.10100000352E+00 0.  1.
</event>
<event>
 5   0  0.1562618E-06  0.2148664E+04  0.7818609E-02  0.8540104E-01
        1   -1    0    0  501    0  0.00000000000E+00  0.00000000000E+00  0.12058061085E+04  0.12058061085E+04  0.50400001928E-02 0. -1.
       -1   -1    0    0    0  501  0.00000000000E+00  0.00000000000E+00 -0.95719330471E+03  0.95719330473E+03  0.50400001928E-02 0.  1.
    10030    2    1    2    0    0  0.00000000000E+00  0.00000000000E+00  0.24861280377E+03  0.21629994132E+04  0.21486642677E+04 0.  0.
        2    1    3    3  502    0 -0.76794162969E+02  0.10484844610E+04  0.34708019003E+03  0.11071050839E+04  0.25500000920E-02 0. -1.
       -2    1    3    3    0  502  0.76794162969E+02 -0.10484844610E+04 -0.98467386259E+02  0.10558943293E+04  0.25500000920E-02 0.  1.
</event>
<event>
 5   0  0.1571391E-06  0.2671381E+04  0.7818609E-02  0.8344351E-01
       -1   -1    0    0    0  501  0.00000000000E+00  0.00000000000E+00  0.14919437277E+04  0.14919437277E+04  0.50400001928E-02 0.  1.
        1   -1    0    0  501    0  0.00000000000E+00  0.00000000000E+00 -0.11958016203E+04  0.11958016203E+04  0.50400001928E-02 0. -1.
    10030    2    1    2    0    0  0.00000000000E+00  0.00000000000E+00  0.29614210744E+03  0.26877453480E+04  0.26713807119E+04 0.  0.
        1    1    3    3  502    0 -0.82487226195E+02 -0.21017624445E+03 -0.11764624789E+04  0.11979324524E+04  0.50400001928E-02 0. -1.
       -1    1    3    3    0  502  0.82487226195E+02  0.21017624445E+03  0.14726045863E+04  0.14898128956E+04  0.50400001928E-02 0.  1.
</event>
<event>
 5   0  0.1550164E-06  0.3252481E+04  0.7818609E-02  0.8175093E-01
        1   -1    0    0  501    0  0.00000000000E+00  0.00000000000E+00  0.18210788631E+04  0.18210788631E+04  0.50400001928E-02 0.  1.
       -1   -1    0    0    0  501  0.00000000000E+00  0.00000000000E+00 -0.14522482825E+04  0.14522482825E+04  0.50400001928E-02 0. -1.
    10030    2    1    2    0    0  0.00000000000E+00  0.00000000000E+00  0.36883058059E+03  0.32733271456E+04  0.32524812997E+04 0.  0.
        4    1    3    3  502    0 -0.10534423095E+04 -0.35159554650E+03  0.13800094896E+04  0.17713802336E+04  0.12699999809E+01 0.  1.
       -4    1    3    3    0  502  0.10534423095E+04  0.35159554650E+03 -0.10111789090E+04  0.15019469120E+04  0.12699999809E+01 0. -1.
</event>
<event>
 5   0  0.4400349E-06  0.3310879E+04  0.7818609E-02  0.8160133E-01
        2   -1    0    0  501    0  0.00000000000E+00  0.00000000000E+00  0.10414308285E+04  0.10414308285E+04  0.25500000920E-02 0. -1.
       -2   -1    0    0    0  501  0.00000000000E+00  0.00000000000E+00 -0.26314561912E+04  0.26314561912E+04  0.25500000920E-02 0.  1.
    10030    2    1    2    0    0  0.00000000000E+00  0.00000000000E+00 -0.15900253627E+04  0.36728870198E+04  0.33108787966E+04 0.  0.
        5    1    3    3  502    0  0.12419353557E+04  0.87204454500E+03 -0.15288489458E+04  0.21541277366E+04  0.46999998093E+01 0.  1.
       -5    1    3    3    0  502 -0.12419353557E+04 -0.87204454500E+03 -0.61176416863E+02  0.15187592832E+04  0.46999998093E+01 0. -1.
</event>
<event>
 5   0  0.1571391E-06  0.3401942E+04  0.7818609E-02  0.8137430E-01
       -1   -1    0    0    0  501  0.00000000000E+00  0.00000000000E+00  0.15300044420E+04  0.15300044420E+04  0.50400001928E-02 0.  1.
        1   -1    0    0  501    0  0.00000000000E+00  0.00000000000E+00 -0.18910414698E+04  0.18910414698E+04  0.50400001928E-02 0. -1.
    10030    2    1    2    0    0  0.00000000000E+00  0.00000000000E+00 -0.36103702780E+03  0.34210459119E+04  0.34019417096E+04 0.  0.
        1    1    3    3  502    0 -0.32964097751E+03 -0.15037194593E+04 -0.90809133259E+03  0.17873067042E+04  0.50400001928E-02 0. -1.
       -1    1    3    3    0  502  0.32964097751E+03  0.15037194593E+04  0.54705430479E+03  0.16337392077E+04  0.50400001928E-02 0.  1.
</event>
<event>
 5   0  0.4189587E-06  0.3360688E+04  0.7818609E-02  0.8147623E-01
        2   -1    0    0  501    0  0.00000000000E+00  0.00000000000E+00  0.20825804210E+04  0.20825804210E+04  0.25500000920E-02 0. -1.
       -2   -1    0    0    0  501  0.00000000000E+00  0.00000000000E+00 -0.13557965365E+04  0.13557965365E+04  0.25500000920E-02 0.  1.
    10030    2    1    2    0    0  0.00000000000E+00  0.00000000000E+00  0.72678388451E+03  0.34383769574E+04  0.33606876211E+04 0.  0.
        1    1    3    3  502    0  0.13609302674E+03  0.16013159426E+04  0.86547174940E+03  0.18253151533E+04  0.50400001928E-02 0. -1.
       -1    1    3    3    0  502 -0.13609302674E+03 -0.16013159426E+04 -0.13868786490E+03  0.16130618041E+04  0.50400001928E-02 0.  1.
</event>
<event>
 5   0  0.1571391E-06  0.3194819E+04  0.7818609E-02  0.8190187E-01
        1   -1    0    0  501    0  0.00000000000E+00  0.00000000000E+00  0.23729877406E+04  0.23729877406E+04  0.50400001928E-02 0.  1.
       -1   -1    0    0    0  501  0.00000000000E+00  0.00000000000E+00 -0.10753183050E+04  0.10753183050E+04  0.50400001928E-02 0. -1.
    10030    2    1    2    0    0  0.00000000000E+00  0.00000000000E+00  0.12976694356E+04  0.34483060456E+04  0.31948190277E+04 0.  0.
        1    1    3    3  502    0  0.14667631100E+04 -0.13859741354E+03 -0.17491544042E+02  0.14734005627E+04  0.50400001928E-02 0. -1.
       -1    1    3    3    0  502 -0.14667631100E+04  0.13859741354E+03  0.13151609796E+04  0.19749054829E+04  0.50400001928E-02 0.  1.
</event>
<event>
 5   0  0.2722449E-06  0.3346331E+04  0.7818609E-02  0.8151206E-01
       -2   -1    0    0    0  501  0.00000000000E+00  0.00000000000E+00  0.17238736052E+04  0.17238736052E+04  0.25500000920E-02 0.  1.
        2   -1    0    0  501    0  0.00000000000E+00  0.00000000000E+00 -0.16239487982E+04  0.16239487982E+04  0.25500000920E-02 0. -1.
    10030    2    1    2    0    0  0.00000000000E+00  0.00000000000E+00  0.99924806935E+02  0.33478224034E+04  0.33463308082E+04 0.  0.
        2    1    3    3  502    0  0.16287558018E+04  0.57145825413E+02 -0.32885048387E+03  0.16626045074E+04  0.25500000920E-02 0. -1.
       -2    1    3    3    0  502 -0.16287558018E+04 -0.57145825413E+02  0.42877529081E+03  0.16852178960E+04  0.25500000920E-02 0.  1.
</event>
<event>
 5   0  0.4344980E-06  0.3000821E+04  0.7818609E-02  0.8243497E-01
       -2   -1    0    0    0  501  0.00000000000E+00  0.00000000000E+00  0.20330123355E+04  0.20330123355E+04  0.25500000920E-02 0. -1.
        2   -1    0    0  501    0  0.00000000000E+00  0.00000000000E+00 -0.11073375959E+04  0.11073375959E+04  0.25500000920E-02 0.  1.
    10030    2    1    2    0    0  0.00000000000E+00  0.00000000000E+00  0.92567473961E+03  0.31403499315E+04  0.30008205492E+04 0.  0.
        3    1    3    3  502    0  0.61917797463E+03  0.66110503629E+03  0.17146113770E+04  0.19391579146E+04  0.10100000352E+00 0. -1.
       -3    1    3    3    0  502 -0.61917797463E+03 -0.66110503629E+03 -0.78893663743E+03  0.12011920169E+04  0.10100000352E+00 0.  1.
</event>
<event>
 5   0  0.2722449E-06  0.3466889E+04  0.7818609E-02  0.8121682E-01
       -2   -1    0    0    0  501  0.00000000000E+00  0.00000000000E+00  0.17256956795E+04  0.17256956795E+04  0.25500000920E-02 0. -1.
        2   -1    0    0  501    0  0.00000000000E+00  0.00000000000E+00 -0.17412281115E+04  0.17412281115E+04  0.25500000920E-02 0.  1.
    10030    2    1    2    0    0  0.00000000000E+00  0.00000000000E+00 -0.15532432025E+02  0.34669237910E+04  0.34668889968E+04 0.  0.
        2    1    3    3  502    0 -0.18117912771E+03 -0.30242370973E+03  0.16894673189E+04  0.17258579890E+04  0.25500000920E-02 0. -1.
       -2    1    3    3    0  502  0.18117912771E+03  0.30242370973E+03 -0.17049997509E+04  0.17410658020E+04  0.25500000920E-02 0.  1.
</event>
<event>
 5   0  0.2101998E-06  0.2650305E+04  0.7818609E-02  0.8351312E-01
       -1   -1    0    0    0  501  0.00000000000E+00  0.00000000000E+00  0.12466715173E+04  0.12466715173E+04  0.50400001928E-02 0. -1.
        1   -1    0    0  501    0  0.00000000000E+00  0.00000000000E+00 -0.14085737466E+04  0.14085737466E+04  0.50400001928E-02 0.  1.
    10030    2    1    2    0    0  0.00000000000E+00  0.00000000000E+00 -0.16190222935E+03  0.26552452639E+04  0.26503047145E+04 0.  0.
        5    1    3    3  502    0 -0.84322105280E+02  0.99970345754E+03  0.78639332466E+03  0.12747367460E+04  0.46999998093E+01 0. -1.
       -5    1    3    3    0  502  0.84322105280E+02 -0.99970345754E+03 -0.94829555400E+03  0.13805085180E+04  0.46999998093E+01 0.  1.
</event>
<event>
 5   0  0.1571391E-06  0.3369789E+04  0.7818609E-02  0.8145361E-01
        1   -1    0    0  501    0  0.00000000000E+00  0.00000000000E+00  0.22292487042E+04  0.22292487042E+04  0.50400001928E-02 0. -1.
       -1   -1    0    0    0  501  0.00000000000E+00  0.00000000000E+00 -0.12734650457E+04  0.12734650457E+04  0.50400001928E-02 0.  1.
    10030    2    1    2    0    0  0.00000000000E+00  0.00000000000E+00  0.95578365851E+03  0.35027137500E+04  0.33697894908E+04 0.  0.
        1    1    3    3  502    0  0.57911411795E+03 -0.49694888927E+03  0.20393246078E+04  0.21774242160E+04  0.50400001928E-02 0. -1.
       -1    1    3    3    0  502 -0.57911411795E+03  0.49694888927E+03 -0.10835409493E+04  0.13252895340E+04  0.50400001928E-02 0.  1.
</event>
<event>
 5   0  0.4173467E-06  0.3107404E+04  0.7818609E-02  0.8213709E-01
        2   -1    0    0  501    0  0.00000000000E+00  0.00000000000E+00  0.26796515328E+04  0.26796515328E+04  0.25500000920E-02 0.  1.
       -2   -1    0    0    0  501  0.00000000000E+00  0.00000000000E+00 -0.90085941936E+03  0.90085941937E+03  0.25500000920E-02 0. -1.
    10030    2    1    2    0    0  0.00000000000E+00  0.00000000000E+00  0.17787921135E+04  0.35805109522E+04  0.31074036262E+04 0.  0.
        4    1    3    3  502    0 -0.49783384174E+03  0.32245437936E+03 -0.76526794276E+03  0.96822104804E+03  0.12699999809E+01 0. -1.
       -4    1    3    3    0  502  0.49783384174E+03 -0.32245437936E+03  0.25440600562E+04  0.26122899042E+04  0.12699999809E+01 0.  1.
</event>
<event>
 5   0  0.2722449E-06  0.3625883E+04  0.7818609E-02  0.8084588E-01
        2   -1    0    0  501    0  0.00000000000E+00  0.00000000000E+00  0.25028922086E+04  0.25028922087E+04  0.25500000920E-02 0.  1.
       -2   -1    0    0    0  501  0.00000000000E+00  0.00000000000E+00 -0.13131835163E+04  0.13131835163E+04  0.25500000920E-02 0. -1.
    10030    2    1    2    0    0  0.00000000000E+00  0.00000000000E+00  0.11897086923E+04  0.38160757250E+04  0.36258829498E+04 0.  0.
        2    1    3    3  502    0 -0.14491857310E+04 -0.50758373247E+03  0.16092456386E+04  0.22242868641E+04  0.25500000920E-02 0.  1.
       -2    1    3    3    0  502  0.14491857310E+04  0.50758373247E+03 -0.41953694622E+03  0.15917888609E+04  0.25500000920E-02 0. -1.
</event>
<event>
 5   0  0.4400349E-06  0.2712569E+04  0.7818609E-02  0.8330938E-01
       -2   -1    0    0    0  501  0.00000000000E+00  0.00000000000E+00  0.99139067229E+03  0.99139067229E+03  0.25500000920E-02 0.  1.
        2   -1    0    0  501    0  0.00000000000E+00  0.00000000000E+00 -0.18554824250E+04  0.18554824250E+04  0.25500000920E-02 0. -1.
    10030    2    1    2    0    0  0.00000000000E+00  0.00000000000E+00 -0.86409175270E+03  0.28468730973E+04  0.27125692387E+04 0.  0.
        5    1    3    3  502    0  0.13047412299E+04  0.36948841788E+03 -0.40602918486E+03  0.14155398817E+04  0.46999998093E+01 0. -1.
       -5    1    3    3    0  502 -0.13047412299E+04 -0.36948841788E+03 -0.45806256784E+03  0.14313332155E+04  0.46999998093E+01 0.  1.
</event>
<event>
 5   0  0.4189587E-06  0.1968341E+04  0.7818609E-02  0.8621567E-01
       -2   -1    0    0    0  501  0.00000000000E+00  0.00000000000E+00  0.48397111418E+03  0.48397111419E+03  0.25500000920E-02 0.  1.
        2   -1    0    0  501    0  0.00000000000E+00  0.00000000000E+00 -0.20013423430E+04  0.20013423430E+04  0.25500000920E-02 0. -1.
    10030    2    1    2    0    0  0.00000000000E+00  0.00000000000E+00 -0.15173712288E+04  0.24853134572E+04  0.19683413155E+04 0.  0.
        1    1    3    3  502    0  0.69233706007E+02  0.80751057398E+03 -0.53721915426E+02  0.81225160964E+03  0.50400001928E-02 0.  1.
       -1    1    3    3    0  502 -0.69233706007E+02 -0.80751057398E+03 -0.14636493134E+04  0.16730618476E+04  0.50400001928E-02 0. -1.
</event>
<event>
 5   0  0.4173467E-06  0.1749453E+04  0.7818609E-02  0.8733651E-01
       -2   -1    0    0    0  501  0.00000000000E+00  0.00000000000E+00  0.85929672003E+03  0.85929672003E+03  0.25500000920E-02 0.  1.
        2   -1    0    0  501    0  0.00000000000E+00  0.00000000000E+00 -0.89043360652E+03  0.89043360653E+03  0.25500000920E-02 0. -1.
    10030    2    1    2    0    0  0.00000000000E+00  0.00000000000E+00 -0.31136886498E+02  0.17497303266E+04  0.17494532603E+04 0.  0.
        4    1    3    3  502    0  0.13835603601E+03  0.98689127200E+02  0.84262521497E+03  0.85959339361E+03  0.12699999809E+01 0.  1.
       -4    1    3    3    0  502 -0.13835603601E+03 -0.98689127200E+02 -0.87376210147E+03  0.89013693295E+03  0.12699999809E+01 0. -1.
</event>
<event>
 5   0  0.1654257E-06  0.1961246E+04  0.7818609E-02  0.8624957E-01
        1   -1    0    0  501    0  0.00000000000E+00  0.00000000000E+00  0.19491709250E+04  0.19491709250E+04  0.50400001928E-02 0. -1.
       -1   -1    0    0    0  501  0.00000000000E+00  0.00000000000E+00 -0.49334911786E+03  0.49334911789E+03  0.50400001928E-02 0.  1.
    10030    2    1    2    0    0  0.00000000000E+00  0.00000000000E+00  0.14558218072E+04  0.24425200429E+04  0.19612462940E+04 0.  0.
        3    1    3    3  502    0  0.56143269501E+03 -0.29926887202E+03 -0.20143281281E+03  0.66734078031E+03  0.10100000352E+00 0.  1.
       -3    1    3    3    0  502 -0.56143269501E+03  0.29926887202E+03  0.16572546200E+04  0.17751792626E+04  0.10100000352E+00 0. -1.
</event>
<event>
 5   0  0.1562618E-06  0.3344562E+04  0.7818609E-02  0.8151648E-01
       -1   -1    0    0    0  501  0.00000000000E+00  0.00000000000E+00  0.11082658060E+04  0.11082658060E+04  0.50400001928E-02 0.  1.
        1   -1    0    0  501    0  0.00000000000E+00  0.00000000000E+00 -0.25233333734E+04  0.25233333734E+04  0.50400001928E-02 0. -1.
    10030    2    1    2    0    0  0.00000000000E+00  0.00000000000E+00 -0.14150675673E+04  0.36315991794E+04  0.33445622105E+04 0.  0.
        2    1    3    3  502    0 -0.15037507167E+04  0.67586816901E+03 -0.40338712796E+03  0.16972875935E+04  0.25500000920E-02 0.  1.
       -2    1    3    3    0  502  0.15037507167E+04 -0.67586816901E+03 -0.10116804394E+04  0.19343115859E+04  0.25500000920E-02 0. -1.
</event>
<event>
 5   0  0.4173467E-06  0.1908750E+04  0.7818609E-02  0.8650513E-01
        2   -1    0    0  501    0  0.00000000000E+00  0.00000000000E+00  0.10202127935E+04  0.10202127936E+04  0.25500000920E-02 0. -1.
       -2   -1    0    0    0  501  0.00000000000E+00  0.00000000000E+00 -0.89278637832E+03  0.89278637833E+03  0.25500000920E-02 0.  1.
    10030    2    1    2    0    0  0.00000000000E+00  0.00000000000E+00  0.12742641523E+03  0.19129991719E+04  0.19087504657E+04 0.  0.
        4    1    3    3  502    0 -0.68882006114E+03 -0.31162015634E+03  0.64746164276E+03  0.99538353925E+03  0.12699999809E+01 0. -1.
       -4    1    3    3    0  502  0.68882006114E+03  0.31162015634E+03 -0.52003522754E+03  0.91761563263E+03  0.12699999809E+01 0.  1.
</event>
<event>
 5   0  0.4189587E-06  0.3092849E+04  0.7818609E-02  0.8217703E-01
        2   -1    0    0  501    0  0.00000000000E+00  0.00000000000E+00  0.17117196669E+04  0.17117196669E+04  0.25500000920E-02 0. -1.
       -2   -1    0    0    0  501  0.00000000000E+00  0.00000000000E+00 -0.13970917271E+04  0.13970917271E+04  0.25500000920E-02 0.  1.
    10030    2    1    2    0    0  0.00000000000E+00  0.00000000000E+00  0.31462793982E+03  0.31088113940E+04  0.30928494214E+04 0.  0.
        1    1    3    3  502    0 -0.58973408561E+03 -0.47540312877E+02 -0.12788295627E+04  0.14090604754E+04  0.50400001928E-02 0.  1.
       -1    1    3    3    0  502  0.58973408561E+03  0.47540312877E+02  0.15934575025E+04  0.16997509186E+04  0.50400001928E-02 0. -1.
</event>
<event>
 5   0  0.2101998E-06  0.1988188E+04  0.7818609E-02  0.8612163E-01
        1   -1    0    0  501    0  0.00000000000E+00  0.00000000000E+00  0.13201253814E+04  0.13201253814E+04  0.50400001928E-02 0. -1.
       -1   -1    0    0    0  501  0.00000000000E+00  0.00000000000E+00 -0.74858242365E+03  0.74858242366E+03  0.50400001928E-02 0.  1.
    10030    2    1    2    0    0  0.00000000000E+00  0.00000000000E+00  0.57154295771E+03  0.20687078050E+04  0.19881877754E+04 0.  0.
        5    1    3    3  502    0 -0.68992905396E+03 -0.66191218486E+03  0.25898606758E+01  0.95611643503E+03  0.46999998093E+01 0.  1.
       -5    1    3    3    0  502  0.68992905396E+03  0.66191218486E+03  0.56895309703E+03  0.11125913700E+04  0.46999998093E+01 0. -1.
</event>
<event>
 5   0  0.2722449E-06  0.3367888E+04  0.7818609E-02  0.8145833E-01
        2   -1    0    0  501    0  0.00000000000E+00  0.00000000000E+00  0.87571744760E+03  0.87571744761E+03  0.25500000920E-02 0.  1.
       -2   -1    0    0    0  501  0.00000000000E+00  0.00000000000E+00 -0.32381067544E+04  0.32381067544E+04  0.25500000920E-02 0. -1.
    10030    2    1    2    0    0  0.00000000000E+00  0.00000000000E+00 -0.23623893068E+04  0.41138242020E+04  0.33678875172E+04 0.  0.
        2    1    3    3  502    0  0.81202335600E+03 -0.64124141318E+03  0.44163181487E+03  0.11249938402E+04  0.25500000920E-02 0.  1.
       -2    1    3    3    0  502 -0.81202335600E+03  0.64124141318E+03 -0.28040211217E+04  0.29888303618E+04  0.25500000920E-02 0. -1.
</event>
<event>
 5   0  0.4173467E-06  0.3363663E+04  0.7818609E-02  0.8146883E-01
        2   -1    0    0  501    0  0.00000000000E+00  0.00000000000E+00  0.18437945817E+04  0.18437945817E+04  0.25500000920E-02 0.  1.
       -2   -1    0    0    0  501  0.00000000000E+00  0.00000000000E+00 -0.15340954350E+04  0.15340954350E+04  0.25500000920E-02 0. -1.
    10030    2    1    2    0    0  0.00000000000E+00  0.00000000000E+00  0.30969914664E+03  0.33778900167E+04  0.33636627957E+04 0.  0.
        4    1    3    3  502    0  0.55629293402E+03 -0.71010969004E+03 -0.12706040123E+04  0.15582534355E+04  0.12699999809E+01 0. -1.
       -4    1    3    3    0  502 -0.55629293402E+03  0.71010969004E+03  0.15803031590E+04  0.18196365812E+04  0.12699999809E+01 0.  1.
</event>
<event>
 5   0  0.1550164E-06  0.3363865E+04  0.7818609E-02  0.8146832E-01
       -1   -1    0    0    0  501  0.00000000000E+00  0.00000000000E+00  0.26193183167E+04  0.26193183167E+04  0.50400001928E-02 0. -1.
        1   -1    0    0  501    0  0.00000000000E+00  0.00000000000E+00 -0.10800128625E+04  0.10800128625E+04  0.50400001928E-02 0.  1.
    10030    2    1    2    0    0  0.00000000000E+00  0.00000000000E+00  0.15393054542E+04  0.36993311792E+04  0.33638653202E+04 0.  0.
        4    1    3    3  502    0 -0.13422948544E+04 -0.53363167794E+03  0.17171916258E+04  0.22439400474E+04  0.12699999809E+01 0. -1.
       -4    1    3    3    0  502  0.13422948544E+04  0.53363167794E+03 -0.17788617157E+03  0.14553911318E+04  0.12699999809E+01 0.  1.
</event>
<event>
 5   0  0.2722449E-06  0.2085116E+04  0.7818609E-02  0.8567828E-01
        2   -1    0    0  501    0  0.00000000000E+00  0.00000000000E+00  0.20330368664E+04  0.20330368664E+04  0.25500000920E-02 0. -1.
       -2   -1    0    0    0  501  0.00000000000E+00  0.00000000000E+00 -0.53463227636E+03  0.53463227637E+03  0.25500000920E-02 0.  1.
    10030    2    1    2    0    0  0.00000000000E+00  0.00000000000E+00  0.14984045900E+04  0.25676691427E+04  0.20851159467E+04 0.  0.
        2    1    3    3  502    0  0.65656805358E+03 -0.74627124273E+03  0.11365146361E+04  0.15098569120E+04  0.25500000920E-02 0. -1.
       -2    1    3    3    0  502 -0.65656805358E+03  0.74627124273E+03  0.36188995391E+03  0.10578122307E+04  0.25500000920E-02 0.  1.
</event>
<event>
 5   0  0.1654257E-06  0.3382153E+04  0.7818609E-02  0.8142300E-01
       -1   -1    0    0    0  501  0.00000000000E+00  0.00000000000E+00  0.90692866747E+03  0.90692866749E+03  0.50400001928E-02 0.  1.
        1   -1    0    0  501    0  0.00000000000E+00  0.00000000000E+00 -0.31532134504E+04  0.31532134504E+04  0.50400001928E-02 0. -1.
    10030    2    1    2    0    0  0.00000000000E+00  0.00000000000E+00 -0.22462847829E+04  0.40601421179E+04  0.33821529669E+04 0.  0.
        3    1    3    3  502    0  0.94733129077E+03 -0.49716549441E+03 -0.26953013531E+04  0.28998723243E+04  0.10100000352E+00 0. -1.
       -3    1    3    3    0  502 -0.94733129077E+03  0.49716549441E+03  0.44901657018E+03  0.11602697935E+04  0.10100000352E+00 0.  1.
</event>
<event>
 5   0  0.1571391E-06  0.2571588E+04  0.7818609E-02  0.8377917E-01
        1   -1    0    0  501    0  0.00000000000E+00  0.00000000000E+00  0.17511754528E+04  0.17511754528E+04  0.50400001928E-02 0. -1.
       -1   -1    0    0    0  501  0.00000000000E+00  0.00000000000E+00 -0.94408949408E+03  0.94408949409E+03  0.50400001928E-02 0.  1.
    10030    2    1    2    0    0  0.00000000000E+00  0.00000000000E+00  0.80708595868E+03  0.26952649469E+04  0.25715881064E+04 0.  0.
        1    1    3    3  502    0  0.12883447973E+03 -0.10685623348E+04  0.11408248882E+04  0.15684084965E+04  0.50400001928E-02 0. -1.
       -1    1    3    3    0  502 -0.12883447973E+03  0.10685623348E+04 -0.33373892948E+03  0.11268564503E+04  0.50400001928E-02 0.  1.
</event>
<event>
 5   0  0.4400349E-06  0.3345353E+04  0.7818609E-02  0.8151450E-01
        2   -1    0    0  501    0  0.00000000000E+00  0.00000000000E+00  0.17058668000E+04  0.17058668000E+04  0.25500000920E-02 0.  1.
       -2   -1    0    0    0  501  0.00000000000E+00  0.00000000000E+00 -0.16401323863E+04  0.16401323863E+04  0.25500000920E-02 0. -1.
    10030    2    1    2    0    0  0.00000000000E+00  0.00000000000E+00  0.65734413640E+02  0.33459991863E+04  0.33453534255E+04 0.  0.
        5    1    3    3  502    0  0.80452648160E+03  0.14221600651E+04 -0.32500513794E+03  0.16659689493E+04  0.46999998093E+01 0. -1.
       -5    1    3    3    0  502 -0.80452648160E+03 -0.14221600651E+04  0.39073955158E+03  0.16800302371E+04  0.46999998093E+01 0.  1.
</event>
<event>
 5   0  0.2101998E-06  0.3423997E+04  0.7818609E-02  0.8132042E-01
       -1   -1    0    0    0  501  0.00000000000E+00  0.00000000000E+00  0.13814056908E+04  0.13814056908E+04  0.50400001928E-02 0.  1.
        1   -1    0    0  501    0  0.00000000000E+00  0.00000000000E+00 -0.21217072444E+04  0.21217072444E+04  0.50400001928E-02 0. -1.
    10030    2    1    2    0    0  0.00000000000E+00  0.00000000000E+00 -0.74030155360E+03  0.35031129352E+04  0.34239967650E+04 0.  0.
        5    1    3    3  502    0 -0.91347005758E+02 -0.15460394883E+04 -0.11166216977E+04  0.19093057588E+04  0.46999998093E+01 0. -1.
       -5    1    3    3    0  502  0.91347005758E+02  0.15460394883E+04  0.37632014410E+03  0.15938071764E+04  0.46999998093E+01 0.  1.
</event>
<event>
 5   0  0.4189587E-06  0.3384852E+04  0.7818609E-02  0.8141634E-01
        2   -1    0    0  501    0  0.00000000000E+00  0.00000000000E+00  0.16044752861E+04  0.16044752861E+04  0.25500000920E-02 0. -1.
       -2   -1    0    0    0  501  0.00000000000E+00  0.00000000000E+00 -0.17851981703E+04  0.17851981703E+04  0.25500000920E-02 0.  1.
    10030    2    1    2    0    0  0.00000000000E+00  0.00000000000E+00 -0.18072288428E+03  0.33896734564E+04  0.33848523424E+04 0.  0.
        1    1    3    3  502    0  0.94237431151E+03  0.12858405286E+04 -0.65937065018E+03  0.17251738644E+04  0.50400001928E-02 0.  1.
       -1    1    3    3    0  502 -0.94237431151E+03 -0.12858405286E+04  0.47864776590E+03  0.16644995920E+04  0.50400001928E-02 0. -1.
</event>
<event>
 5   0  0.1550164E-06  0.1715400E+04  0.7818609E-02  0.8752629E-01
        1   -1    0    0  501    0  0.00000000000E+00  0.00000000000E+00  0.66345014882E+03  0.66345014884E+03  0.50400001928E-02 0.  1.
       -1   -1    0    0    0  501  0.00000000000E+00  0.00000000000E+00 -0.11088243778E+04  0.11088243778E+04  0.50400001928E-02 0. -1.
    10030    2    1    2    0    0  0.00000000000E+00  0.00000000000E+00 -0.44537422895E+03  0.17722745266E+04  0.17154004762E+04 0.  0.
        4    1    3    3  502    0  0.20299887835E+02 -0.84935260086E+03 -0.10115998233E+03  0.85559738252E+03  0.12699999809E+01 0. -1.
       -4    1    3    3    0  502 -0.20299887835E+02  0.84935260086E+03 -0.34421424662E+03  0.91667714410E+03  0.12699999809E+01 0.  1.
</event>
<event>
 5   0  0.1654257E-06  0.3423912E+04  0.7818609E-02  0.8132062E-01
       -1   -1    0    0    0  501  0.00000000000E+00  0.00000000000E+00  0.18890565179E+04  0.18890565179E+04  0.50400001928E-02 0. -1.
        1   -1    0    0  501    0  0.00000000000E+00  0.00000000000E+00 -0.15514584452E+04  0.15514584452E+04  0.50400001928E-02 0.  1.
    10030    2    1    2    0    0  0.00000000000E+00  0.00000000000E+00  0.33759807269E+03  0.34405149630E+04  0.34239116157E+04 0.  0.
        3    1    3    3  502    0  0.17838733483E+03 -0.17021005541E+04  0.12587961700E+03  0.17160460442E+04  0.10100000352E+00 0.  1.
       -3    1    3    3    0  502 -0.17838733483E+03  0.17021005541E+04  0.21171845569E+03  0.17244689189E+04  0.10100000352E+00 0. -1.
</event>
<event>
 5   0  0.4344980E-06  0.1950676E+04  0.7818609E-02  0.8630035E-01
        2   -1    0    0  501    0  0.00000000000E+00  0.00000000000E+00  0.75513486157E+03  0.75513486157E+03  0.25500000920E-02 0. -1.
       -2   -1    0    0    0  501  0.00000000000E+00  0.00000000000E+00 -0.12597538062E+04  0.12597538062E+04  0.25500000920E-02 0.  1.
    10030    2    1    2    0    0  0.00000000000E+00  0.00000000000E+00 -0.50461894467E+03  0.20148886678E+04  0.19506757968E+04 0.  0.
        3    1    3    3  502    0 -0.46230859557E+03  0.85716434198E+03 -0.30720068888E+03  0.10211915688E+04  0.10100000352E+00 0.  1.
       -3    1    3    3    0  502  0.46230859557E+03 -0.85716434198E+03 -0.19741825579E+03  0.99369709903E+03  0.10100000352E+00 0. -1.
</event>
<event>
 5   0  0.4344980E-06  0.3407573E+04  0.7818609E-02  0.8136050E-01
        2   -1    0    0  501    0  0.00000000000E+00  0.00000000000E+00  0.22739268632E+04  0.22739268632E+04  0.25500000920E-02 0.  1.
       -2   -1    0    0    0  501  0.00000000000E+00  0.00000000000E+00 -0.12765970211E+04  0.12765970211E+04  0.25500000920E-02 0. -1.
    10030    2    1    2    0    0  0.00000000000E+00  0.00000000000E+00  0.99732984210E+03  0.35505238842E+04  0.34075728956E+04 0.  0.
        3    1    3    3  502    0  0.82602773242E+03  0.14884126642E+04  0.57375898461E+03  0.17963556041E+04  0.10100000352E+00 0.  1.
       -3    1    3    3    0  502 -0.82602773242E+03 -0.14884126642E+04  0.42357085749E+03  0.17541682802E+04  0.10100000352E+00 0. -1.
</event>
<event>
 5   0  0.4400349E-06  0.2043705E+04  0.7818609E-02  0.8586456E-01
        2   -1    0    0  501    0  0.00000000000E+00  0.00000000000E+00  0.13250147156E+04  0.13250147156E+04  0.25500000920E-02 0. -1.
       -2   -1    0    0    0  501  0.00000000000E+00  0.00000000000E+00 -0.78805316146E+03  0.78805316146E+03  0.25500000920E-02 0.  1.
    10030    2    1    2    0    0  0.00000000000E+00  0.00000000000E+00  0.53696155418E+03  0.21130678771E+04  0.20437045145E+04 0.  0.
        5    1    3    3  502    0  0.17476170686E+03  0.10010000710E+04  0.37992181010E+03  0.10848527403E+04  0.46999998093E+01 0. -1.
       -5    1    3    3    0  502 -0.17476170686E+03 -0.10010000710E+04  0.15703974409E+03  0.10282151368E+04  0.46999998093E+01 0.  1.
</event>
<event>
 5   0  0.1550164E-06  0.3009182E+04  0.7818609E-02  0.8241114E-01
        1   -1    0    0  501    0  0.00000000000E+00  0.00000000000E+00  0.94677464737E+03  0.94677464739E+03  0.50400001928E-02 0. -1.
       -1   -1    0    0    0  501  0.00000000000E+00  0.00000000000E+00 -0.23910589918E+04  0.23910589918E+04  0.50400001928E-02 0.  1.
    10030    2    1    2    0    0  0.00000000000E+00  0.00000000000E+00 -0.14442843445E+04  0.33378336392E+04  0.30091819711E+04 0.  0.
        4    1    3    3  502    0 -0.96045002726E+03  0.89919202554E+03 -0.15317803036E+04  0.20192481435E+04  0.12699999809E+01 0.  1.
       -4    1    3    3    0  502  0.96045002726E+03 -0.89919202554E+03  0.87495959190E+02  0.13185854957E+04  0.12699999809E+01 0. -1.
</event>
<event>
 5   0  0.2101998E-06  0.3479603E+04  0.7818609E-02  0.8118641E-01
        1   -1    0    0  501    0  0.00000000000E+00  0.00000000000E+00  0.24299941854E+04  0.24299941854E+04  0.50400001928E-02 0. -1.
       -1   -1    0    0    0  501  0.00000000000E+00  0.00000000000E+00 -0.12456445039E+04  0.12456445039E+04  0.50400001928E-02 0.  1.
    10030    2    1    2    0    0  0.00000000000E+00  0.00000000000E+00  0.11843496814E+04  0.36756386893E+04  0.34796027943E+04 0.  0.
        5    1    3    3  502    0  0.34753203120E+03  0.12887900413E+04 -0.58654402659E+03  0.14580172387E+04  0.46999998093E+01 0.  1.
       -5    1    3    3    0  502 -0.34753203120E+03 -0.12887900413E+04  0.17708937080E+04  0.22176214506E+04  0.46999998093E+01 0. -1.
</event>
<event>
 5   0  0.1562618E-06  0.3356575E+04  0.7818609E-02  0.8148647E-01
        1   -1    0    0  501    0  0.00000000000E+00  0.00000000000E+00  0.16876636007E+04  0.16876636007E+04  0.50400001928E-02 0.  1.
       -1   -1    0    0    0  501  0.00000000000E+00  0.00000000000E+00 -0.16689639042E+04  0.16689639042E+04  0.50400001928E-02 0. -1.
    10030    2    1    2    0    0  0.00000000000E+00  0.00000000000E+00  0.18699696509E+02  0.33566275049E+04  0.33565754167E+04 0.  0.
        2    1    3    3  502    0  0.37131517380E+03  0.12462817768E+04  0.10702887438E+04  0.16842242192E+04  0.25500000920E-02 0.  1.
       -2    1    3    3    0  502 -0.37131517380E+03 -0.12462817768E+04 -0.10515890473E+04  0.16724032857E+04  0.25500000920E-02 0. -1.
</event>
<event>
 5   0  0.1571391E-06  0.3312433E+04  0.7818609E-02  0.8159739E-01
        1   -1    0    0  501    0  0.00000000000E+00  0.00000000000E+00  0.87932345035E+03  0.87932345037E+03  0.50400001928E-02 0. -1.
       -1   -1    0    0    0  501  0.00000000000E+00  0.00000000000E+00 -0.31195032320E+04  0.31195032320E+04  0.50400001928E-02 0.  1.
    10030    2    1    2    0    0  0.00000000000E+00  0.00000000000E+00 -0.22401797817E+04  0.39988266824E+04  0.33124325475E+04 0.  0.
        1    1    3    3  502    0  0.11647430958E+04  0.11666202120E+04 -0.13125763539E+04  0.21072460424E+04  0.50400001928E-02 0. -1.
       -1    1    3    3    0  502 -0.11647430958E+04 -0.11666202120E+04 -0.92760342779E+03  0.18915806400E+04  0.50400001928E-02 0.  1.
</event>
<event>
 5   0  0.1550164E-06  0.2153327E+04  0.7818609E-02  0.8538109E-01
        1   -1    0    0  501    0  0.00000000000E+00  0.00000000000E+00  0.97873604563E+03  0.97873604565E+03  0.50400001928E-02 0.  1.
       -1   -1    0    0    0  501  0.00000000000E+00  0.00000000000E+00 -0.11843892113E+04  0.11843892113E+04  0.50400001928E-02 0. -1.
    10030    2    1    2    0    0  0.00000000000E+00  0.00000000000E+00 -0.20565316566E+03  0.21631252570E+04  0.21533271123E+04 0.  0.
        4    1    3    3  502    0 -0.33325495931E+03 -0.92091519180E+03  0.34648835827E+03  0.10388452501E+04  0.12699999809E+01 0.  1.
       -4    1    3    3    0  502  0.33325495931E+03  0.92091519180E+03 -0.55214152393E+03  0.11242800068E+04  0.12699999809E+01 0. -1.
</event>
<event>
 5   0  0.4344980E-06  0.3580461E+04  0.7818609E-02  0.8094982E-01
        2   -1    0    0  501    0  0.00000000000E+00  0.00000000000E+00  0.18925498995E+04  0.18925498995E+04  0.25500000920E-02 0.  1.
       -2   -1    0    0    0  501  0.00000000000E+00  0.00000000000E+00 -0.16934431889E+04  0.16934431889E+04  0.25500000920E-02 0. -1.
    10030    2    1    2    0    0  0.00000000000E+00  0.00000000000E+00  0.19910671056E+03  0.35859930884E+04  0.35804612758E+04 0.  0.
        3    1    3    3  502    0  0.35009681142E+03 -0.87318675658E+03 -0.14259225950E+04  0.17082968554E+04  0.10100000352E+00 0. -1.
       -3    1    3    3    0  502 -0.35009681142E+03  0.87318675658E+03  0.16250293055E+04  0.18776962329E+04  0.10100000352E+00 0.  1.
</event>
<event>
 5   0  0.4344980E-06  0.3112606E+04  0.7818609E-02  0.8212287E-01
       -2   -1    0    0    0  501  0.00000000000E+00  0.00000000000E+00  0.23277054201E+04  0.23277054201E+04  0.25500000920E-02 0. -1.
        2   -1    0    0  501    0  0.00000000000E+00  0.00000000000E+00 -0.10405434785E+04  0.10405434785E+04  0.25500000920E-02 0.  1.
    10030    2    1    2    0    0  0.00000000000E+00  0.00000000000E+00  0.12871619415E+04  0.33682488986E+04  0.31126057860E+04 0.  0.
        3    1    3    3  502    0  0.11497474832E+04  0.55431748961E+03 -0.31999718352E+03  0.13158971700E+04  0.10100000352E+00 0.  1.
       -3    1    3    3    0  502 -0.11497474832E+04 -0.55431748961E+03  0.16071591251E+04  0.20523517286E+04  0.10100000352E+00 0. -1.
</event>
<event>
 5   0  0.4400349E-06  0.1723349E+04  0.7818609E-02  0.8748159E-01
       -2   -1    0    0    0  501  0.00000000000E+00  0.00000000000E+00  0.79032209665E+03  0.79032209666E+03  0.25500000920E-02 0. -1.
        2   -1    0    0  501    0  0.00000000000E+00  0.00000000000E+00 -0.93946853316E+03  0.93946853317E+03  0.25500000920E-02 0.  1.
    10030    2    1    2    0    0  0.00000000000E+00  0.00000000000E+00 -0.14914643651E+03  0.17297906298E+04  0.17233487643E+04 0.  0.
        5    1    3    3  502    0  0.82552295129E+03  0.23562991577E+03 -0.46600736568E+00  0.85850562460E+03  0.46999998093E+01 0. -1.
       -5    1    3    3    0  502 -0.82552295129E+03 -0.23562991577E+03 -0.14868042914E+03  0.87128500522E+03  0.46999998093E+01 0.  1.
</event>
<event>
 5   0  0.1550164E-06  0.2472608E+04  0.7818609E-02  0.8412810E-01
       -1   -1    0    0    0  501  0.00000000000E+00  0.00000000000E+00  0.10148386111E+04  0.10148386111E+04  0.50400001928E-02 0.  1.
        1   -1    0    0  501    0  0.00000000000E+00  0.00000000000E+00 -0.15060992120E+04  0.15060992120E+04  0.50400001928E-02 0. -1.
    10030    2    1    2    0    0  0.00000000000E+00  0.00000000000E+00 -0.49126060089E+03  0.25209378231E+04  0.24726080422E+04 0.  0.
        4    1    3    3  502    0  0.12042018628E+04 -0.26618342709E+03 -0.33386832517E+03  0.12776640461E+04  0.12699999809E+01 0.  1.
       -4    1    3    3    0  502 -0.12042018628E+04  0.26618342709E+03 -0.15739227572E+03  0.12432737770E+04  0.12699999809E+01 0. -1.
</event>
<event>
 5   0  0.4173467E-06  0.3561458E+04  0.7818609E-02  0.8099378E-01
       -2   -1    0    0    0  501  0.00000000000E+00  0.00000000000E+00  0.12764799658E+04  0.12764799658E+04  0.25500000920E-02 0. -1.
        2   -1    0    0  501    0  0.00000000000E+00  0.00000000000E+00 -0.24841717864E+04  0.24841717864E+04  0.25500000920E-02 0.  1.
    10030    2    1    2    0    0  0.00000000000E+00  0.00000000000E+00 -0.12076918206E+04  0.37606517523E+04  0.35614578571E+04 0.  0.
        4    1    3    3  502    0  0.31914036756E+03 -0.74990025563E+02  0.12443400050E+04  0.12868013596E+04  0.12699999809E+01 0. -1.
       -4    1    3    3    0  502 -0.31914036756E+03  0.74990025563E+02 -0.24520318256E+04  0.24738503926E+04  0.12699999809E+01 0.  1.
</event>
<event>
 5   0  0.4173467E-06  0.3384837E+04  0.7818609E-02  0.8141638E-01
        2   -1    0    0  501    0  0.00000000000E+00  0.00000000000E+00  0.25762089797E+04  0.25762089797E+04  0.25500000920E-02 0.  1.
       -2   -1    0    0    0  501  0.00000000000E+00  0.00000000000E+00 -0.11118198635E+04  0.11118198635E+04  0.25500000920E-02 0. -1.
    10030    2    1    2    0    0  0.00000000000E+00  0.00000000000E+00  0.14643891161E+04  0.36880288432E+04  0.33848369628E+04 0.  0.
        4    1    3    3  502    0 -0.11637458427E+03 -0.13518322781E+04  0.18343805577E+04  0.22816544864E+04  0.12699999809E+01 0.  1.
       -4    1    3    3    0  502  0.11637458427E+03  0.13518322781E+04 -0.36999144155E+03  0.14063743568E+04  0.12699999809E+01 0. -1.
</event>
<event>
 5   0  0.1571391E-06  0.1884558E+04  0.7818609E-02  0.8662581E-01
        1   -1    0    0  501    0  0.00000000000E+00  0.00000000000E+00  0.11370999761E+04  0.11370999761E+04  0.50400001928E-02 0. -1.
       -1   -1    0    0    0  501  0.00000000000E+00  0.00000000000E+00 -0.78083727144E+03  0.78083727146E+03  0.50400001928E-02 0.  1.
    10030    2    1    2    0    0  0.00000000000E+00  0.00000000000E+00  0.35626270465E+03  0.19179372476E+04  0.18845583490E+04 0.  0.
        1    1    3    3  502    0  0.76604386530E+03 -0.44228612791E+03 -0.15235058420E+03  0.89758059417E+03  0.50400001928E-02 0.  1.
       -1    1    3    3    0  502 -0.76604386530E+03  0.44228612791E+03  0.50861328885E+03  0.10203566534E+04  0.50400001928E-02 0. -1.
</event>
<event>
 5   0  0.2722449E-06  0.3381200E+04  0.7818609E-02  0.8142536E-01
       -2   -1    0    0    0  501  0.00000000000E+00  0.00000000000E+00  0.15070423216E+04  0.15070423216E+04  0.25500000920E-02 0.  1.
        2   -1    0    0  501    0  0.00000000000E+00  0.00000000000E+00 -0.18965149253E+04  0.18965149253E+04  0.25500000920E-02 0. -1.
    10030    2    1    2    0    0  0.00000000000E+00  0.00000000000E+00 -0.38947260365E+03  0.34035572469E+04  0.33811999385E+04 0.  0.
        2    1    3    3  502    0  0.11620286370E+04 -0.92082433036E+02 -0.14273076210E+04  0.18428230444E+04  0.25500000920E-02 0. -1.
       -2    1    3    3    0  502 -0.11620286370E+04  0.92082433036E+02  0.10378350174E+04  0.15607342026E+04  0.25500000920E-02 0.  1.
</event>
<event>
 5   0  0.1562618E-06  0.2773934E+04  0.7818609E-02  0.8311407E-01
       -1   -1    0    0    0  501  0.00000000000E+00  0.00000000000E+00  0.75280597551E+03  0.75280597552E+03  0.50400001928E-02 0.  1.
        1   -1    0    0  501    0  0.00000000000E+00  0.00000000000E+00 -0.25553427416E+04  0.25553427416E+04  0.50400001928E-02 0. -1.
    10030    2    1    2    0    0  0.00000000000E+00  0.00000000000E+00 -0.18025367661E+04  0.33081487172E+04  0.27739338748E+04 0.  0.
        2    1    3    3  502    0 -0.11404930834E+04  0.27756416919E+03 -0.17824183338E+04  0.21341933975E+04  0.25500000920E-02 0. -1.
       -2    1    3    3    0  502  0.11404930834E+04 -0.27756416919E+03 -0.20118432291E+02  0.11739553196E+04  0.25500000920E-02 0.  1.
</event>
<event>
 5   0  0.2722449E-06  0.3302697E+04  0.7818609E-02  0.8162209E-01
       -2   -1    0    0    0  501  0.00000000000E+00  0.00000000000E+00  0.18845087243E+04  0.18845087244E+04  0.25500000920E-02 0.  1.
        2   -1    0    0  501    0  0.00000000000E+00  0.00000000000E+00 -0.14470362894E+04  0.14470362894E+04  0.25500000920E-02 0. -1.
    10030    2    1    2    0    0  0.00000000000E+00  0.00000000000E+00  0.43747243492E+03  0.33315450138E+04  0.33026973896E+04 0.  0.
        2    1    3    3  502    0 -0.63786384481E+03  0.16576998429E+02  0.17551311638E+04  0.18675198750E+04  0.25500000920E-02 0.  1.
       -2    1    3    3    0  502  0.63786384481E+03 -0.16576998429E+02 -0.13176587288E+04  0.14640251388E+04  0.25500000920E-02 0. -1.
</event>
<event>
 5   0  0.1571391E-06  0.3415166E+04  0.7818609E-02  0.8134194E-01
        1   -1    0    0  501    0  0.00000000000E+00  0.00000000000E+00  0.14780144476E+04  0.14780144476E+04  0.50400001928E-02 0.  1.
       -1   -1    0    0    0  501  0.00000000000E+00  0.00000000000E+00 -0.19728083976E+04  0.19728083976E+04  0.50400001928E-02 0. -1.
    10030    2    1    2    0    0  0.00000000000E+00  0.00000000000E+00 -0.49479395007E+03  0.34508228452E+04  0.34151657729E+04 0.  0.
        1    1    3    3  502    0 -0.57419009146E+03  0.60922632926E+03 -0.17512195384E+04  0.19410360257E+04  0.50400001928E-02 0. -1.
       -1    1    3    3    0  502  0.57419009146E+03 -0.60922632926E+03  0.12564255883E+04  0.15097868195E+04  0.50400001928E-02 0.  1.
</event>
<event>
 5   0  0.2722449E-06  0.3411893E+04  0.7818609E-02  0.8134994E-01
       -2   -1    0    0    0  501  0.00000000000E+00  0.00000000000E+00  0.27825360787E+04  0.27825360787E+04  0.25500000920E-02 0.  1.
        2   -1    0    0  501    0  0.00000000000E+00  0.00000000000E+00 -0.10458996583E+04  0.10458996583E+04  0.25500000920E-02 0. -1.
    10030    2    1    2    0    0  0.00000000000E+00  0.00000000000E+00  0.17366364204E+04  0.38284357369E+04  0.34118930427E+04 0.  0.
        2    1    3    3  502    0 -0.83162763481E+03 -0.52987158607E+03  0.24303503535E+04  0.26227793009E+04  0.25500000920E-02 0.  1.
       -2    1    3    3    0  502  0.83162763481E+03  0.52987158607E+03 -0.69371393309E+03  0.12056564360E+04  0.25500000920E-02 0. -1.
</event>
<event>
 5   0  0.4344980E-06  0.3390709E+04  0.7818609E-02  0.8140190E-01
        2   -1    0    0  501    0  0.00000000000E+00  0.00000000000E+00  0.23145863999E+04  0.23145863999E+04  0.25500000920E-02 0.  1.
       -2   -1    0    0    0  501  0.00000000000E+00  0.00000000000E+00 -0.12417884200E+04  0.12417884201E+04  0.25500000920E-02 0. -1.
    10030    2    1    2    0    0  0.00000000000E+00  0.00000000000E+00  0.10727979799E+04  0.35563748200E+04  0.33907088277E+04 0.  0.
        3    1    3    3  502    0 -0.32588823526E+03  0.12493930982E+04 -0.61593379714E+03  0.14305805494E+04  0.10100000352E+00 0. -1.
       -3    1    3    3    0  502  0.32588823526E+03 -0.12493930982E+04  0.16887317770E+04  0.21257942705E+04  0.10100000352E+00 0.  1.
</event>
<event>
 5   0  0.4344980E-06  0.3301365E+04  0.7818609E-02  0.8162548E-01
       -2   -1    0    0    0  501  0.00000000000E+00  0.00000000000E+00  0.10115455152E+04  0.10115455152E+04  0.25500000920E-02 0.  1.
        2   -1    0    0  501    0  0.00000000000E+00  0.00000000000E+00 -0.26936523777E+04  0.26936523777E+04  0.25500000920E-02 0. -1.
    10030    2    1    2    0    0  0.00000000000E+00  0.00000000000E+00 -0.16821068624E+04  0.37051978929E+04  0.33013645556E+04 0.  0.
        3    1    3    3  502    0  0.31145951293E+03  0.69159137259E+03  0.80438344311E+03  0.11055941338E+04  0.10100000352E+00 0.  1.
       -3    1    3    3    0  502 -0.31145951293E+03 -0.69159137259E+03 -0.24864903055E+04  0.25996037591E+04  0.10100000352E+00 0. -1.
</event>
<event>
 5   0  0.4400349E-06  0.1930686E+04  0.7818609E-02  0.8639731E-01
       -2   -1    0    0    0  501  0.00000000000E+00  0.00000000000E+00  0.87862366143E+03  0.87862366144E+03  0.25500000920E-02 0. -1.
        2   -1    0    0  501    0  0.00000000000E+00  0.00000000000E+00 -0.10606213666E+04  0.10606213666E+04  0.25500000920E-02 0.  1.
    10030    2    1    2    0    0  0.00000000000E+00  0.00000000000E+00 -0.18199770512E+03  0.19392450280E+04  0.19306859180E+04 0.  0.
        5    1    3    3  502    0 -0.28379342185E+03 -0.35557242438E+03  0.76418295797E+03  0.88936389545E+03  0.46999998093E+01 0. -1.
       -5    1    3    3    0  502  0.28379342185E+03  0.35557242438E+03 -0.94618066309E+03  0.10498811325E+04  0.46999998093E+01 0.  1.
</event>
<event>
 5   0  0.1571391E-06  0.1927944E+04  0.7818609E-02  0.8641070E-01
       -1   -1    0    0    0  501  0.00000000000E+00  0.00000000000E+00  0.62603195564E+03  0.62603195566E+03  0.50400001928E-02 0. -1.
        1   -1    0    0  501    0  0.00000000000E+00  0.00000000000E+00 -0.14843370327E+04  0.14843370327E+04  0.50400001928E-02 0.  1.
    10030    2    1    2    0    0  0.00000000000E+00  0.00000000000E+00 -0.85830507705E+03  0.21103689884E+04  0.19279444136E+04 0.  0.
        1    1    3    3  502    0  0.65562906622E+03  0.42484296621E+03  0.18899493569E+03  0.80377864127E+03  0.50400001928E-02 0. -1.
       -1    1    3    3    0  502 -0.65562906622E+03 -0.42484296621E+03 -0.10473000127E+04  0.13065903471E+04  0.50400001928E-02 0.  1.
</event>
<event>
 5   0  0.1571391E-06  0.3407930E+04  0.7818609E-02  0.8135963E-01
       -1   -1    0    0    0  501  0.00000000000E+00  0.00000000000E+00  0.16618211529E+04  0.16618211529E+04  0.50400001928E-02 0.  1.
        1   -1    0    0  501    0  0.00000000000E+00  0.00000000000E+00 -0.17471772014E+04  0.17471772014E+04  0.50400001928E-02 0. -1.
    10030    2    1    2    0    0  0.00000000000E+00  0.00000000000E+00 -0.85356048558E+02  0.34089983543E+04  0.34079295950E+04 0.  0.
        1    1    3    3  502    0  0.12748166126E+04  0.42996784464E+03 -0.10886953465E+04  0.17306898338E+04  0.50400001928E-02 0. -1.
       -1    1    3    3    0  502 -0.12748166126E+04 -0.42996784464E+03  0.10033392980E+04  0.16783085205E+04  0.50400001928E-02 0.  1.
</event>
<event>
 5   0  0.1654257E-06  0.2220304E+04  0.7818609E-02  0.8510024E-01
       -1   -1    0    0    0  501  0.00000000000E+00  0.00000000000E+00  0.79770695778E+03  0.79770695780E+03  0.50400001928E-02 0. -1.
        1   -1    0    0  501    0  0.00000000000E+00  0.00000000000E+00 -0.15449754291E+04  0.15449754291E+04  0.50400001928E-02 0.  1.
    10030    2    1    2    0    0  0.00000000000E+00  0.00000000000E+00 -0.74726847134E+03  0.23426823869E+04  0.22203041678E+04 0.  0.
        3    1    3    3  502    0  0.10855024365E+03  0.36602072566E+02  0.79145410424E+03  0.79970149207E+03  0.10100000352E+00 0. -1.
       -3    1    3    3    0  502 -0.10855024365E+03 -0.36602072566E+02 -0.15387225756E+04  0.15429808949E+04  0.10100000352E+00 0.  1.
</event>
<event>
 5   0  0.4189587E-06  0.3225928E+04  0.7818609E-02  0.8182003E-01
       -2   -1    0    0    0  501  0.00000000000E+00  0.00000000000E+00  0.18583163058E+04  0.18583163058E+04  0.25500000920E-02 0. -1.
        2   -1    0    0  501    0  0.00000000000E+00  0.00000000000E+00 -0.14000055924E+04  0.14000055925E+04  0.25500000920E-02 0.  1.
    10030    2    1    2    0    0  0.00000000000E+00  0.00000000000E+00  0.45831071337E+03  0.32583218983E+04  0.32259282203E+04 0.  0.
        1    1    3    3  502    0  0.13209133481E+04 -0.87247945049E+03 -0.83175846178E+02  0.15852289066E+04  0.50400001928E-02 0. -1.
       -1    1    3    3    0  502 -0.13209133481E+04  0.87247945049E+03  0.54148655955E+03  0.16730929917E+04  0.50400001928E-02 0.  1.
</event>
<event>
 5   0  0.1654257E-06  0.3413910E+04  0.7818609E-02  0.8134501E-01
        1   -1    0    0  501    0  0.00000000000E+00  0.00000000000E+00  0.14376048571E+04  0.14376048571E+04  0.50400001928E-02 0.  1.
       -1   -1    0    0    0  501  0.00000000000E+00  0.00000000000E+00 -0.20267712038E+04  0.20267712038E+04  0.50400001928E-02 0. -1.
    10030    2    1    2    0    0  0.00000000000E+00  0.00000000000E+00 -0.58916634679E+03  0.34643760609E+04  0.34139104422E+04 0.  0.
        3    1    3    3  502    0  0.14620409830E+04 -0.83167978542E+03 -0.58946609959E+03  0.17823370597E+04  0.10100000352E+00 0.  1.
       -3    1    3    3    0  502 -0.14620409830E+04  0.83167978542E+03  0.29975280649E+00  0.16820390012E+04  0.10100000352E+00 0. -1.
</event>
<event>
 5   0  0.4189587E-06  0.3435923E+04  0.7818609E-02  0.8129145E-01
        2   -1    0    0  501    0  0.00000000000E+00  0.00000000000E+00  0.20351604018E+04  0.20351604018E+04  0.25500000920E-02 0. -1.
       -2   -1    0    0    0  501  0.00000000000E+00  0.00000000000E+00 -0.14502011777E+04  0.14502011777E+04  0.25500000920E-02 0.  1.
    10030    2    1    2    0    0  0.00000000000E+00  0.00000000000E+00  0.58495922405E+03  0.34853615795E+04  0.34359231723E+04 0.  0.
        1    1    3    3  502    0  0.31905659748E+03 -0.54172424745E+03  0.19142741807E+04  0.20148716861E+04  0.50400001928E-02 0. -1.
       -1    1    3    3    0  502 -0.31905659748E+03  0.54172424745E+03 -0.13293149566E+04  0.14704898934E+04  0.50400001928E-02 0.  1.
</event>
<event>
 5   0  0.4189587E-06  0.2893498E+04  0.7818609E-02  0.8274814E-01
       -2   -1    0    0    0  501  0.00000000000E+00  0.00000000000E+00  0.16425850051E+04  0.16425850051E+04  0.25500000920E-02 0.  1.
        2   -1    0    0  501    0  0.00000000000E+00  0.00000000000E+00 -0.12742617959E+04  0.12742617959E+04  0.25500000920E-02 0. -1.
    10030    2    1    2    0    0  0.00000000000E+00  0.00000000000E+00  0.36832320916E+03  0.29168468010E+04  0.28934984489E+04 0.  0.
        1    1    3    3  502    0  0.16457983125E+03  0.13040219970E+04  0.79362548895E+03  0.15353831139E+04  0.50400001928E-02 0. -1.
       -1    1    3    3    0  502 -0.16457983125E+03 -0.13040219970E+04 -0.42530227980E+03  0.13814636871E+04  0.50400001928E-02 0.  1.
</event>
<event>
 5   0  0.2722449E-06  0.3622240E+04  0.7818609E-02  0.8085416E-01
       -2   -1    0    0    0  501  0.00000000000E+00  0.00000000000E+00  0.12414878261E+04  0.12414878261E+04  0.25500000920E-02 0.  1.
        2   -1    0    0  501    0  0.00000000000E+00  0.00000000000E+00 -0.26421163592E+04  0.26421163592E+04  0.25500000920E-02 0. -1.
    10030    2    1    2    0    0  0.00000000000E+00  0.00000000000E+00 -0.14006285331E+04  0.38836041854E+04  0.36222398017E+04 0.  0.
        2    1    3    3  502    0  0.88798080897E+03  0.36237129764E+02 -0.23922599172E+04  0.25520052034E+04  0.25500000920E-02 0. -1.
       -2    1    3    3    0  502 -0.88798080897E+03 -0.36237129764E+02  0.99163138411E+03  0.13315989819E+04  0.25500000920E-02 0.  1.
</event>
<event>
 5   0  0.1562618E-06  0.3066346E+04  0.7818609E-02  0.8225035E-01
        1   -1    0    0  501    0  0.00000000000E+00  0.00000000000E+00  0.16641167985E+04  0.16641167985E+04  0.50400001928E-02 0.  1.
       -1   -1    0    0    0  501  0.00000000000E+00  0.00000000000E+00 -0.14125327871E+04  0.14125327871E+04  0.50400001928E-02 0. -1.
    10030    2    1    2    0    0  0.00000000000E+00  0.00000000000E+00  0.25158401139E+03  0.30766495856E+04  0.30663460596E+04 0.  0.
        2    1    3    3  502    0 -0.30328173963E+03  0.46990008253E+03 -0.13065318721E+04  0.14212007015E+04  0.25500000920E-02 0. -1.
       -2    1    3    3    0  502  0.30328173963E+03 -0.46990008253E+03  0.15581158835E+04  0.16554488840E+04  0.25500000920E-02 0.  1.
</event>
<event>
 5   0  0.4400349E-06  0.3228587E+04  0.7818609E-02  0.8181308E-01
        2   -1    0    0  501    0  0.00000000000E+00  0.00000000000E+00  0.11602061946E+04  0.11602061946E+04  0.25500000920E-02 0. -1.
       -2   -1    0    0    0  501  0.00000000000E+00  0.00000000000E+00 -0.22461036966E+04  0.22461036966E+04  0.25500000920E-02 0.  1.
    10030    2    1    2    0    0  0.00000000000E+00  0.00000000000E+00 -0.10858975020E+04  0.34063098911E+04  0.32285869494E+04 0.  0.
        5    1    3    3  502    0  0.10713811180E+04 -0.20266533406E+03  0.71295151534E+03  0.13027865101E+04  0.46999998093E+01 0. -1.
       -5    1    3    3    0  502 -0.10713811180E+04  0.20266533406E+03 -0.17988490173E+04  0.21035233811E+04  0.46999998093E+01 0.  1.
</event>
<event>
 5   0  0.1401125E-06  0.3915952E+04  0.7818609E-02  0.8021720E-01
        3   -1    0    0  501    0  0.00000000000E+00  0.00000000000E+00  0.26348663202E+04  0.26348663221E+04  0.10100000352E+00 0. -1.
       -3   -1    0    0    0  501  0.00000000000E+00  0.00000000000E+00 -0.14549769069E+04  0.14549769104E+04  0.10100000352E+00 0.  1.
    10030    2    1    2    0    0  0.00000000000E+00  0.00000000000E+00  0.11798894133E+04  0.40898432325E+04  0.39159518178E+04 0.  0.
        4    1    3    3  502    0 -0.12754023210E+04  0.58772361289E+03 -0.83504676286E+03  0.16338221552E+04  0.12699999809E+01 0.  1.
       -4    1    3    3    0  502  0.12754023210E+04 -0.58772361289E+03  0.20149361761E+04  0.24560210774E+04  0.12699999809E+01 0. -1.
</event>
<event>
 5   0  0.4344980E-06  0.2786953E+04  0.7818609E-02  0.8307330E-01
       -2   -1    0    0    0  501  0.00000000000E+00  0.00000000000E+00  0.99919254729E+03  0.99919254729E+03  0.25500000920E-02 0. -1.
        2   -1    0    0  501    0  0.00000000000E+00  0.00000000000E+00 -0.19433457749E+04  0.19433457749E+04  0.25500000920E-02 0.  1.
    10030    2    1    2    0    0  0.00000000000E+00  0.00000000000E+00 -0.94415322763E+03  0.29425383222E+04  0.27869528989E+04 0.  0.
        3    1    3    3  502    0  0.12846920817E+04  0.22475858205E+03  0.46060356533E+02  0.13050179048E+04  0.10100000352E+00 0. -1.
       -3    1    3    3    0  502 -0.12846920817E+04 -0.22475858205E+03 -0.99021358417E+03  0.16375204175E+04  0.10100000352E+00 0.  1.
</event>
<event>
 5   0  0.4189587E-06  0.3384146E+04  0.7818609E-02  0.8141808E-01
        2   -1    0    0  501    0  0.00000000000E+00  0.00000000000E+00  0.23333163379E+04  0.23333163379E+04  0.25500000920E-02 0. -1.
       -2   -1    0    0    0  501  0.00000000000E+00  0.00000000000E+00 -0.12270567604E+04  0.12270567604E+04  0.25500000920E-02 0.  1.
    10030    2    1    2    0    0  0.00000000000E+00  0.00000000000E+00  0.11062595775E+04  0.35603730983E+04  0.33841463246E+04 0.  0.
        1    1    3    3  502    0  0.49085504349E+03  0.16191644198E+04  0.53009213734E+03  0.17730284166E+04  0.50400001928E-02 0. -1.
       -1    1    3    3    0  502 -0.49085504349E+03 -0.16191644198E+04  0.57616744021E+03  0.17873446817E+04  0.50400001928E-02 0.  1.
</event>
<event>
 5   0  0.2722449E-06  0.3432450E+04  0.7818609E-02  0.8129988E-01
       -2   -1    0    0    0  501  0.00000000000E+00  0.00000000000E+00  0.18284297662E+04  0.18284297662E+04  0.25500000920E-02 0. -1.
        2   -1    0    0  501    0  0.00000000000E+00  0.00000000000E+00 -0.16109060528E+04  0.16109060528E+04  0.25500000920E-02 0.  1.
    10030    2    1    2    0    0  0.00000000000E+00  0.00000000000E+00  0.21752371338E+03  0.34393358189E+04  0.34324501904E+04 0.  0.
        2    1    3    3  502    0 -0.12095006669E+04 -0.10764231495E+04  0.67898157902E+03  0.17557319398E+04  0.25500000920E-02 0. -1.
       -2    1    3    3    0  502  0.12095006669E+04  0.10764231495E+04 -0.46145786564E+03  0.16836038791E+04  0.25500000920E-02 0.  1.
</event>
<event>
 5   0  0.1562618E-06  0.3374048E+04  0.7818609E-02  0.8144305E-01
       -1   -1    0    0    0  501  0.00000000000E+00  0.00000000000E+00  0.12850294758E+04  0.12850294758E+04  0.50400001928E-02 0. -1.
        1   -1    0    0  501    0  0.00000000000E+00  0.00000000000E+00 -0.22147736653E+04  0.22147736653E+04  0.50400001928E-02 0.  1.
    10030    2    1    2    0    0  0.00000000000E+00  0.00000000000E+00 -0.92974418953E+03  0.34998031411E+04  0.33740476832E+04 0.  0.
        2    1    3    3  502    0 -0.21599496479E+03 -0.11962330037E+04 -0.16782678160E+04  0.20722475929E+04  0.25500000920E-02 0.  1.
       -2    1    3    3    0  502  0.21599496479E+03  0.11962330037E+04  0.74852362642E+03  0.14275555483E+04  0.25500000920E-02 0. -1.
</event>
<event>
 5   0  0.1562618E-06  0.2267016E+04  0.7818609E-02  0.8491041E-01
       -1   -1    0    0    0  501  0.00000000000E+00  0.00000000000E+00  0.10922473174E+04  0.10922473174E+04  0.50400001928E-02 0. -1.
        1   -1    0    0  501    0  0.00000000000E+00  0.00000000000E+00 -0.11763271355E+04  0.11763271355E+04  0.50400001928E-02 0.  1.
    10030    2    1    2    0    0  0.00000000000E+00  0.00000000000E+00 -0.84079818089E+02  0.22685744529E+04  0.22670157989E+04 0.  0.
        2    1    3    3  502    0 -0.44263652358E+03 -0.10285244089E+04 -0.21837288342E+03  0.11408226277E+04  0.25500000920E-02 0.  1.
       -2    1    3    3    0  502  0.44263652358E+03  0.10285244089E+04  0.13429306533E+03  0.11277518251E+04  0.25500000920E-02 0. -1.
</event>
<event>
 5   0  0.4400349E-06  0.3425230E+04  0.7818609E-02  0.8131742E-01
        2   -1    0    0  501    0  0.00000000000E+00  0.00000000000E+00  0.26574273044E+04  0.26574273044E+04  0.25500000920E-02 0.  1.
       -2   -1    0    0    0  501  0.00000000000E+00  0.00000000000E+00 -0.11037182075E+04  0.11037182075E+04  0.25500000920E-02 0. -1.
    10030    2    1    2    0    0  0.00000000000E+00  0.00000000000E+00  0.15537090969E+04  0.37611455120E+04  0.34252304454E+04 0.  0.
        5    1    3    3  502    0  0.64950634931E+03  0.87642885581E+03  0.22265753236E+04  0.24794446553E+04  0.46999998093E+01 0.  1.
       -5    1    3    3    0  502 -0.64950634931E+03 -0.87642885581E+03 -0.67286622664E+03  0.12817008567E+04  0.46999998093E+01 0. -1.
</event>
<event>
 5   0  0.4189587E-06  0.2605370E+04  0.7818609E-02  0.8366379E-01
       -2   -1    0    0    0  501  0.00000000000E+00  0.00000000000E+00  0.86526803621E+03  0.86526803621E+03  0.25500000920E-02 0.  1.
        2   -1    0    0  501    0  0.00000000000E+00  0.00000000000E+00 -0.19612289283E+04  0.19612289283E+04  0.25500000920E-02 0. -1.
    10030    2    1    2    0    0  0.00000000000E+00  0.00000000000E+00 -0.10959608921E+04  0.28264969645E+04  0.26053703793E+04 0.  0.
        1    1    3    3  502    0 -0.84080433946E+03 -0.48118461400E+03 -0.14928161804E+04  0.17796040904E+04  0.50400001928E-02 0. -1.
       -1    1    3    3    0  502  0.84080433946E+03  0.48118461400E+03  0.39685528832E+03  0.10468928741E+04  0.50400001928E-02 0.  1.
</event>
<event>
 5   0  0.4400349E-06  0.2027361E+04  0.7818609E-02  0.8593934E-01
       -2   -1    0    0    0  501  0.00000000000E+00  0.00000000000E+00  0.12942313703E+04  0.12942313703E+04  0.25500000920E-02 0.  1.
        2   -1    0    0  501    0  0.00000000000E+00  0.00000000000E+00 -0.79394490798E+03  0.79394490799E+03  0.25500000920E-02 0. -1.
    10030    2    1    2    0    0  0.00000000000E+00  0.00000000000E+00  0.50028646231E+03  0.20881762783E+04  0.20273612467E+04 0.  0.
        5    1    3    3  502    0 -0.61236477221E+03 -0.79748423095E+03  0.38266749697E+03  0.10758383782E+04  0.46999998093E+01 0.  1.
       -5    1    3    3    0  502  0.61236477221E+03  0.79748423095E+03  0.11761896535E+03  0.10123379000E+04  0.46999998093E+01 0. -1.
</event>
<event>
 5   0  0.2722449E-06  0.3029798E+04  0.7818609E-02  0.8235273E-01
        2   -1    0    0  501    0  0.00000000000E+00  0.00000000000E+00  0.27460855132E+04  0.27460855132E+04  0.25500000920E-02 0. -1.
       -2   -1    0    0    0  501  0.00000000000E+00  0.00000000000E+00 -0.83570538192E+03  0.83570538192E+03  0.25500000920E-02 0.  1.
    10030    2    1    2    0    0  0.00000000000E+00  0.00000000000E+00  0.19103801312E+04  0.35817908951E+04  0.30297976451E+04 0.  0.
        2    1    3    3  502    0 -0.11769779046E+03  0.88550674019E+03 -0.49121291068E+03  0.10194435151E+04  0.25500000920E-02 0.  1.
       -2    1    3    3    0  502  0.11769779046E+03 -0.88550674019E+03  0.24015930419E+04  0.25623473800E+04  0.25500000920E-02 0. -1.
</event>
<event>
 5   0  0.1562618E-06  0.2872059E+04  0.7818609E-02  0.8281239E-01
       -1   -1    0    0    0  501  0.00000000000E+00  0.00000000000E+00  0.17930164616E+04  0.17930164616E+04  0.50400001928E-02 0.  1.
        1   -1    0    0  501    0  0.00000000000E+00  0.00000000000E+00 -0.11501184892E+04  0.11501184893E+04  0.50400001928E-02 0. -1.
    10030    2    1    2    0    0  0.00000000000E+00  0.00000000000E+00  0.64289797239E+03  0.29431349509E+04  0.28720594590E+04 0.  0.
        2    1    3    3  502    0  0.99242714383E+03 -0.90820804850E+03  0.83630455803E+03  0.15840324520E+04  0.25500000920E-02 0.  1.
       -2    1    3    3    0  502 -0.99242714383E+03  0.90820804850E+03 -0.19340658564E+03  0.13591024989E+04  0.25500000920E-02 0. -1.
</event>
<event>
 5   0  0.1654257E-06  0.1914580E+04  0.7818609E-02  0.8647633E-01
       -1   -1    0    0    0  501  0.00000000000E+00  0.00000000000E+00  0.64585029048E+03  0.64585029050E+03  0.50400001928E-02 0.  1.
        1   -1    0    0  501    0  0.00000000000E+00  0.00000000000E+00 -0.14189117228E+04  0.14189117228E+04  0.50400001928E-02 0. -1.
    10030    2    1    2    0    0  0.00000000000E+00  0.00000000000E+00 -0.77306143232E+03  0.20647620133E+04  0.19145804223E+04 0.  0.
        3    1    3    3  502    0  0.83444939582E+02  0.81364031076E+03  0.14991203018E+03  0.83153306622E+03  0.10100000352E+00 0.  1.
       -3    1    3    3    0  502 -0.83444939582E+02 -0.81364031076E+03 -0.92297346250E+03  0.12332289471E+04  0.10100000352E+00 0. -1.
</event>
<event>
 5   0  0.4189587E-06  0.3314914E+04  0.7818609E-02  0.8159111E-01
        2   -1    0    0  501    0  0.00000000000E+00  0.00000000000E+00  0.19630136510E+04  0.19630136510E+04  0.25500000920E-02 0.  1.
       -2   -1    0    0    0  501  0.00000000000E+00  0.00000000000E+00 -0.13994624453E+04  0.13994624453E+04  0.25500000920E-02 0. -1.
    10030    2    1    2    0    0  0.00000000000E+00  0.00000000000E+00  0.56355120562E+03  0.33624760963E+04  0.33149141070E+04 0.  0.
        1    1    3    3  502    0  0.11489350720E+04 -0.11676194122E+04  0.53794010339E+03  0.17241712346E+04  0.50400001928E-02 0.  1.
       -1    1    3    3    0  502 -0.11489350720E+04  0.11676194122E+04  0.25611102231E+02  0.16383048617E+04  0.50400001928E-02 0. -1.
</event>
<event>
 5   0  0.1562618E-06  0.3169460E+04  0.7818609E-02  0.8196930E-01
        1   -1    0    0  501    0  0.00000000000E+00  0.00000000000E+00  0.16174967204E+04  0.16174967205E+04  0.50400001928E-02 0.  1.
       -1   -1    0    0    0  501  0.00000000000E+00  0.00000000000E+00 -0.15526272740E+04  0.15526272740E+04  0.50400001928E-02 0. -1.
    10030    2    1    2    0    0  0.00000000000E+00  0.00000000000E+00  0.64869446451E+02  0.31701239945E+04  0.31694602214E+04 0.  0.
        2    1    3    3  502    0  0.85970046147E+03 -0.12410166778E+04 -0.44949836186E+03  0.15752003223E+04  0.25500000920E-02 0.  1.
       -2    1    3    3    0  502 -0.85970046147E+03  0.12410166778E+04  0.51436780831E+03  0.15949236722E+04  0.25500000920E-02 0. -1.
</event>
<event>
 5   0  0.4189587E-06  0.3337323E+04  0.7818609E-02  0.8153463E-01
       -2   -1    0    0    0  501  0.00000000000E+00  0.00000000000E+00  0.15627376214E+04  0.15627376214E+04  0.25500000920E-02 0. -1.
        2   -1    0    0  501    0  0.00000000000E+00  0.00000000000E+00 -0.17817650880E+04  0.17817650880E+04  0.25500000920E-02 0.  1.
    10030    2    1    2    0    0  0.00000000000E+00  0.00000000000E+00 -0.21902746658E+03  0.33445027094E+04  0.33373230803E+04 0.  0.
        1    1    3    3  502    0  0.14016720063E+03  0.97793546916E+03  0.12381568740E+04  0.15839940248E+04  0.50400001928E-02 0. -1.
       -1    1    3    3    0  502 -0.14016720063E+03 -0.97793546916E+03 -0.14571843406E+04  0.17605086846E+04  0.50400001928E-02 0.  1.
</event>
<event>
 5   0  0.4189587E-06  0.3457473E+04  0.7818609E-02  0.8123943E-01
        2   -1    0    0  501    0  0.00000000000E+00  0.00000000000E+00  0.25993800709E+04  0.25993800709E+04  0.25500000920E-02 0.  1.
       -2   -1    0    0    0  501  0.00000000000E+00  0.00000000000E+00 -0.11497085927E+04  0.11497085927E+04  0.25500000920E-02 0. -1.
    10030    2    1    2    0    0  0.00000000000E+00  0.00000000000E+00  0.14496714782E+04  0.37490886636E+04  0.34574728361E+04 0.  0.
        1    1    3    3  502    0  0.58582264358E+03 -0.27279428847E+03  0.24634835328E+04  0.25468325446E+04  0.50400001928E-02 0.  1.
       -1    1    3    3    0  502 -0.58582264358E+03  0.27279428847E+03 -0.10138120546E+04  0.12022561190E+04  0.50400001928E-02 0. -1.
</event>
<event>
 5   0  0.1571391E-06  0.3461004E+04  0.7818609E-02  0.8123094E-01
        1   -1    0    0  501    0  0.00000000000E+00  0.00000000000E+00  0.20791245879E+04  0.20791245879E+04  0.50400001928E-02 0.  1.
       -1   -1    0    0    0  501  0.00000000000E+00  0.00000000000E+00 -0.14403357055E+04  0.14403357055E+04  0.50400001928E-02 0. -1.
    10030    2    1    2    0    0  0.00000000000E+00  0.00000000000E+00  0.63878888233E+03  0.35194602934E+04  0.34610041203E+04 0.  0.
        1    1    3    3  502    0  0.10157510476E+04  0.13882397895E+04  0.12731936403E+03  0.17248681470E+04  0.50400001928E-02 0. -1.
       -1    1    3    3    0  502 -0.10157510476E+04 -0.13882397895E+04  0.51146951830E+03  0.17945921464E+04  0.50400001928E-02 0.  1.
</event>
<event>
 5   0  0.1550164E-06  0.3392944E+04  0.7818609E-02  0.8139640E-01
        1   -1    0    0  501    0  0.00000000000E+00  0.00000000000E+00  0.12321116809E+04  0.12321116809E+04  0.50400001928E-02 0.  1.
       -1   -1    0    0    0  501  0.00000000000E+00  0.00000000000E+00 -0.23358411307E+04  0.23358411308E+04  0.50400001928E-02 0. -1.
    10030    2    1    2    0    0  0.00000000000E+00  0.00000000000E+00 -0.11037294498E+04  0.35679528117E+04  0.33929439382E+04 0.  0.
        4    1    3    3  502    0 -0.61861942973E+03 -0.13422112162E+04 -0.14277714684E+04  0.20549340443E+04  0.12699999809E+01 0. -1.
       -4    1    3    3    0  502  0.61861942973E+03  0.13422112162E+04  0.32404201854E+03  0.15130187673E+04  0.12699999809E+01 0.  1.
</event>
<event>
 5   0  0.4189587E-06  0.3308505E+04  0.7818609E-02  0.8160735E-01
       -2   -1    0    0    0  501  0.00000000000E+00  0.00000000000E+00  0.10774913839E+04  0.10774913839E+04  0.25500000920E-02 0.  1.
        2   -1    0    0  501    0  0.00000000000E+00  0.00000000000E+00 -0.25397432093E+04  0.25397432093E+04  0.25500000920E-02 0. -1.
    10030    2    1    2    0    0  0.00000000000E+00  0.00000000000E+00 -0.14622518253E+04  0.36172345932E+04  0.33085050554E+04 0.  0.
        1    1    3    3  502    0 -0.14969060645E+04 -0.65081712046E+03 -0.10250235268E+04  0.19274241673E+04  0.50400001928E-02 0.  1.
       -1    1    3    3    0  502  0.14969060645E+04  0.65081712046E+03 -0.43722829854E+03  0.16898104259E+04  0.50400001928E-02 0. -1.
</event>
<event>
 5   0  0.4400349E-06  0.3386548E+04  0.7818609E-02  0.8141216E-01
       -2   -1    0    0    0  501  0.00000000000E+00  0.00000000000E+00  0.17575491892E+04  0.17575491892E+04  0.25500000920E-02 0. -1.
        2   -1    0    0  501    0  0.00000000000E+00  0.00000000000E+00 -0.16313489913E+04  0.16313489913E+04  0.25500000920E-02 0.  1.
    10030    2    1    2    0    0  0.00000000000E+00  0.00000000000E+00  0.12620019789E+03  0.33888981805E+04  0.33865475618E+04 0.  0.
        5    1    3    3  502    0 -0.12795806441E+04  0.11078406502E+04  0.11329940967E+03  0.16963184775E+04  0.46999998093E+01 0.  1.
       -5    1    3    3    0  502  0.12795806441E+04 -0.11078406502E+04  0.12900788227E+02  0.16925797030E+04  0.46999998093E+01 0. -1.
</event>
<event>
 5   0  0.1571391E-06  0.2380539E+04  0.7818609E-02  0.8446826E-01
       -1   -1    0    0    0  501  0.00000000000E+00  0.00000000000E+00  0.20241418462E+04  0.20241418462E+04  0.50400001928E-02 0. -1.
        1   -1    0    0  501    0  0.00000000000E+00  0.00000000000E+00 -0.69992188452E+03  0.69992188454E+03  0.50400001928E-02 0.  1.
    10030    2    1    2    0    0  0.00000000000E+00  0.00000000000E+00  0.13242199616E+04  0.27240637307E+04  0.23805387420E+04 0.  0.
        1    1    3    3  502    0  0.27811938258E+03 -0.11211905913E+04  0.99043284959E+03  0.15216359494E+04  0.50400001928E-02 0. -1.
       -1    1    3    3    0  502 -0.27811938258E+03  0.11211905913E+04  0.33378711204E+03  0.12024277813E+04  0.50400001928E-02 0.  1.
</event>
<event>
 5   0  0.4189587E-06  0.3405966E+04  0.7818609E-02  0.8136444E-01
       -2   -1    0    0    0  501  0.00000000000E+00  0.00000000000E+00  0.16371999665E+04  0.16371999665E+04  0.25500000920E-02 0.  1.
        2   -1    0    0  501    0  0.00000000000E+00  0.00000000000E+00 -0.17714096585E+04  0.17714096585E+04  0.25500000920E-02 0. -1.
    10030    2    1    2    0    0  0.00000000000E+00  0.00000000000E+00 -0.13420969196E+03  0.34086096250E+04  0.34059664318E+04 0.  0.
        1    1    3    3  502    0 -0.94615522550E+02  0.11292427385E+04 -0.13393154224E+04  0.17543964946E+04  0.50400001928E-02 0. -1.
       -1    1    3    3    0  502  0.94615522550E+02 -0.11292427385E+04  0.12051057304E+04  0.16542131305E+04  0.50400001928E-02 0.  1.
</event>
<event>
 5   0  0.1550164E-06  0.3445594E+04  0.7818609E-02  0.8126806E-01
        1   -1    0    0  501    0  0.00000000000E+00  0.00000000000E+00  0.19978818871E+04  0.19978818871E+04  0.50400001928E-02 0. -1.
       -1   -1    0    0    0  501  0.00000000000E+00  0.00000000000E+00 -0.14855884752E+04  0.14855884752E+04  0.50400001928E-02 0.  1.
    10030    2    1    2    0    0  0.00000000000E+00  0.00000000000E+00  0.51229341191E+03  0.34834703623E+04  0.34455944661E+04 0.  0.
        4    1    3    3  502    0 -0.26790822508E+03 -0.16452927171E+04  0.69597582161E+03  0.18064182514E+04  0.12699999809E+01 0.  1.
       -4    1    3    3    0  502  0.26790822508E+03  0.16452927171E+04 -0.18368240970E+03  0.16770521109E+04  0.12699999809E+01 0. -1.
</event>
<event>
 5   0  0.1550164E-06  0.3340023E+04  0.7818609E-02  0.8152786E-01
       -1   -1    0    0    0  501  0.00000000000E+00  0.00000000000E+00  0.19300218257E+04  0.19300218257E+04  0.50400001928E-02 0. -1.
        1   -1    0    0  501    0  0.00000000000E+00  0.00000000000E+00 -0.14450294493E+04  0.14450294493E+04  0.50400001928E-02 0.  1.
    10030    2    1    2    0    0  0.00000000000E+00  0.00000000000E+00  0.48499237645E+03  0.33750512750E+04  0.33400229796E+04 0.  0.
        4    1    3    3  502    0 -0.10704873698E+04 -0.10627775309E+03 -0.10482798361E+04  0.15020420758E+04  0.12699999809E+01 0.  1.
       -4    1    3    3    0  502  0.10704873698E+04  0.10627775309E+03  0.15332722126E+04  0.18730091992E+04  0.12699999809E+01 0. -1.
</event>
<event>
 5   0  0.1550164E-06  0.2701012E+04  0.7818609E-02  0.8334677E-01
        1   -1    0    0  501    0  0.00000000000E+00  0.00000000000E+00  0.12831525689E+04  0.12831525689E+04  0.50400001928E-02 0. -1.
       -1   -1    0    0    0  501  0.00000000000E+00  0.00000000000E+00 -0.14213952301E+04  0.14213952301E+04  0.50400001928E-02 0.  1.
    10030    2    1    2    0    0  0.00000000000E+00  0.00000000000E+00 -0.13824266124E+03  0.27045477990E+04  0.27010123591E+04 0.  0.
        4    1    3    3  502    0  0.30701348137E+03 -0.12967981378E+04  0.15007761344E+03  0.13410695698E+04  0.12699999809E+01 0.  1.
       -4    1    3    3    0  502 -0.30701348137E+03  0.12967981378E+04 -0.28832027468E+03  0.13634782293E+04  0.12699999809E+01 0. -1.
</event>
<event>
 5   0  0.2722449E-06  0.3482539E+04  0.7818609E-02  0.8117941E-01
        2   -1    0    0  501    0  0.00000000000E+00  0.00000000000E+00  0.13262401628E+04  0.13262401628E+04  0.25500000920E-02 0. -1.
       -2   -1    0    0    0  501  0.00000000000E+00  0.00000000000E+00 -0.22861761500E+04  0.22861761500E+04  0.25500000920E-02 0.  1.
    10030    2    1    2    0    0  0.00000000000E+00  0.00000000000E+00 -0.95993598719E+03  0.36124163128E+04  0.34825385163E+04 0.  0.
        2    1    3    3  502    0  0.12772324317E+04 -0.82409631016E+03 -0.13610948883E+04  0.20403521039E+04  0.25500000920E-02 0. -1.
       -2    1    3    3    0  502 -0.12772324317E+04  0.82409631016E+03  0.40115890108E+03  0.15720642089E+04  0.25500000920E-02 0.  1.
</event>
<event>
 5   0  0.2722449E-06  0.2954115E+04  0.7818609E-02  0.8256956E-01
       -2   -1    0    0    0  501  0.00000000000E+00  0.00000000000E+00  0.73401061122E+03  0.73401061122E+03  0.25500000920E-02 0.  1.
        2   -1    0    0  501    0  0.00000000000E+00  0.00000000000E+00 -0.29722992341E+04  0.29722992341E+04  0.25500000920E-02 0. -1.
    10030    2    1    2    0    0  0.00000000000E+00  0.00000000000E+00 -0.22382886229E+04  0.37063098453E+04  0.29541152161E+04 0.  0.
        2    1    3    3  502    0  0.73471298108E+03 -0.24311873365E+03  0.45928757514E+03  0.89991941857E+03  0.25500000920E-02 0.  1.
       -2    1    3    3    0  502 -0.73471298108E+03  0.24311873365E+03 -0.26975761980E+04  0.28063904268E+04  0.25500000920E-02 0. -1.
</event>
<event>
 5   0  0.4344980E-06  0.3409647E+04  0.7818609E-02  0.8135543E-01
       -2   -1    0    0    0  501  0.00000000000E+00  0.00000000000E+00  0.17650192739E+04  0.17650192739E+04  0.25500000920E-02 0.  1.
        2   -1    0    0  501    0  0.00000000000E+00  0.00000000000E+00 -0.16466811430E+04  0.16466811430E+04  0.25500000920E-02 0. -1.
    10030    2    1    2    0    0  0.00000000000E+00  0.00000000000E+00  0.11833813088E+03  0.34117004170E+04  0.34096474630E+04 0.  0.
        3    1    3    3  502    0 -0.47647693711E+03 -0.83210517099E+03  0.14696257728E+04  0.17547732644E+04  0.10100000352E+00 0.  1.
       -3    1    3    3    0  502  0.47647693711E+03  0.83210517099E+03 -0.13512876420E+04  0.16569271525E+04  0.10100000352E+00 0. -1.
</event>
<event>
 5   0  0.1654257E-06  0.3390710E+04  0.7818609E-02  0.8140190E-01
       -1   -1    0    0    0  501  0.00000000000E+00  0.00000000000E+00  0.19940620733E+04  0.19940620733E+04  0.50400001928E-02 0. -1.
        1   -1    0    0  501    0  0.00000000000E+00  0.00000000000E+00 -0.14413934753E+04  0.14413934753E+04  0.50400001928E-02 0.  1.
    10030    2    1    2    0    0  0.00000000000E+00  0.00000000000E+00  0.55266859794E+03  0.34354555486E+04  0.33907096967E+04 0.  0.
        3    1    3    3  502    0  0.13760451793E+04 -0.83850639290E+03 -0.25752969748E+03  0.16318440066E+04  0.10100000352E+00 0.  1.
       -3    1    3    3    0  502 -0.13760451793E+04  0.83850639290E+03  0.81019829542E+03  0.18036115420E+04  0.10100000352E+00 0. -1.
</event>
<event>
 5   0  0.4344980E-06  0.2261582E+04  0.7818609E-02  0.8493225E-01
       -2   -1    0    0    0  501  0.00000000000E+00  0.00000000000E+00  0.11673194222E+04  0.11673194222E+04  0.25500000920E-02 0. -1.
        2   -1    0    0  501    0  0.00000000000E+00  0.00000000000E+00 -0.10954052562E+04  0.10954052562E+04  0.25500000920E-02 0.  1.
    10030    2    1    2    0    0  0.00000000000E+00  0.00000000000E+00  0.71914165983E+02  0.22627246784E+04  0.22615815977E+04 0.  0.
        3    1    3    3  502    0  0.22327807311E+03 -0.25619862213E+01 -0.10731284216E+04  0.10961132610E+04  0.10100000352E+00 0.  1.
       -3    1    3    3    0  502 -0.22327807311E+03  0.25619862213E+01  0.11450425875E+04  0.11666114174E+04  0.10100000352E+00 0. -1.
</event>
<event>
 5   0  0.2722449E-06  0.3376588E+04  0.7818609E-02  0.8143676E-01
        2   -1    0    0  501    0  0.00000000000E+00  0.00000000000E+00  0.16147213181E+04  0.16147213181E+04  0.25500000920E-02 0.  1.
       -2   -1    0    0    0  501  0.00000000000E+00  0.00000000000E+00 -0.17652185499E+04  0.17652185499E+04  0.25500000920E-02 0. -1.
    10030    2    1    2    0    0  0.00000000000E+00  0.00000000000E+00 -0.15049723179E+03  0.33799398680E+04  0.33765876405E+04 0.  0.
        2    1    3    3  502    0 -0.47463941705E+03 -0.16198521321E+04 -0.10893492147E+03  0.16914698706E+04  0.25500000920E-02 0. -1.
       -2    1    3    3    0  502  0.47463941705E+03  0.16198521321E+04 -0.41562310320E+02  0.16884699973E+04  0.25500000920E-02 0.  1.
</event>
<event>
 5   0  0.1654257E-06  0.1846677E+04  0.7818609E-02  0.8681864E-01
       -1   -1    0    0    0  501  0.00000000000E+00  0.00000000000E+00  0.51815717892E+03  0.51815717895E+03  0.50400001928E-02 0. -1.
        1   -1    0    0  501    0  0.00000000000E+00  0.00000000000E+00 -0.16453573403E+04  0.16453573403E+04  0.50400001928E-02 0.  1.
    10030    2    1    2    0    0  0.00000000000E+00  0.00000000000E+00 -0.11272001614E+04  0.21635145193E+04  0.18466767100E+04 0.  0.
        3    1    3    3  502    0  0.88352318913E+03  0.33089884372E+02 -0.25176483250E+03  0.91928978416E+03  0.10100000352E+00 0. -1.
       -3    1    3    3    0  502 -0.88352318913E+03 -0.33089884372E+02 -0.87543532888E+03  0.12442247351E+04  0.10100000352E+00 0.  1.
</event>
<event>
 5   0  0.4400349E-06  0.3032824E+04  0.7818609E-02  0.8234419E-01
        2   -1    0    0  501    0  0.00000000000E+00  0.00000000000E+00  0.14538379012E+04  0.14538379012E+04  0.25500000920E-02 0. -1.
       -2   -1    0    0    0  501  0.00000000000E+00  0.00000000000E+00 -0.15816795131E+04  0.15816795131E+04  0.25500000920E-02 0.  1.
    10030    2    1    2    0    0  0.00000000000E+00  0.00000000000E+00 -0.12784161182E+03  0.30355174143E+04  0.30328241780E+04 0.  0.
        5    1    3    3  502    0 -0.14276990635E+04  0.25442999881E+03 -0.50751218254E+03  0.15364406743E+04  0.46999998093E+01 0. -1.
       -5    1    3    3    0  502  0.14276990635E+04 -0.25442999881E+03  0.37967057073E+03  0.14990767400E+04  0.46999998093E+01 0.  1.
</event>
<event>
 5   0  0.2101998E-06  0.2185762E+04  0.7818609E-02  0.8524378E-01
        1   -1    0    0  501    0  0.00000000000E+00  0.00000000000E+00  0.94229554311E+03  0.94229554312E+03  0.50400001928E-02 0. -1.
       -1   -1    0    0    0  501  0.00000000000E+00  0.00000000000E+00 -0.12675309419E+04  0.12675309420E+04  0.50400001928E-02 0.  1.
    10030    2    1    2    0    0  0.00000000000E+00  0.00000000000E+00 -0.32523539884E+03  0.22098264851E+04  0.21857618876E+04 0.  0.
        5    1    3    3  502    0  0.89901927288E+03 -0.31480001547E+03  0.37903443279E+03  0.10251945640E+04  0.46999998093E+01 0.  1.
       -5    1    3    3    0  502 -0.89901927288E+03  0.31480001547E+03 -0.70426983163E+03  0.11846319211E+04  0.46999998093E+01 0. -1.
</event>
<event>
 5   0  0.4344980E-06  0.3053431E+04  0.7818609E-02  0.8228636E-01
        2   -1    0    0  501    0  0.00000000000E+00  0.00000000000E+00  0.25802054162E+04  0.25802054162E+04  0.25500000920E-02 0.  1.
       -2   -1    0    0    0  501  0.00000000000E+00  0.00000000000E+00 -0.90336248602E+03  0.90336248603E+03  0.25500000920E-02 0. -1.
    10030    2    1    2    0    0  0.00000000000E+00  0.00000000000E+00  0.16768429302E+04  0.34835679022E+04  0.30534313677E+04 0.  0.
        3    1    3    3  502    0 -0.85220036907E+03  0.12667338982E+04  0.83925288368E+03  0.17421841610E+04  0.10100000352E+00 0.  1.
       -3    1    3    3    0  502  0.85220036907E+03 -0.12667338982E+04  0.83759004650E+03  0.17413837412E+04  0.10100000352E+00 0. -1.
</event>
<event>
 5   0  0.4173467E-06  0.3366595E+04  0.7818609E-02  0.8146154E-01
        2   -1    0    0  501    0  0.00000000000E+00  0.00000000000E+00  0.22539471672E+04  0.22539471672E+04  0.25500000920E-02 0. -1.
       -2   -1    0    0    0  501  0.00000000000E+00  0.00000000000E+00 -0.12571239388E+04  0.12571239388E+04  0.25500000920E-02 0.  1.
    10030    2    1    2    0    0  0.00000000000E+00  0.00000000000E+00  0.99682322841E+03  0.35110711060E+04  0.33665952775E+04 0.  0.
        4    1    3    3  502    0  0.75991901132E+03  0.48192019154E+03  0.19820525007E+04  0.21767539373E+04  0.12699999809E+01 0. -1.
       -4    1    3    3    0  502 -0.75991901132E+03 -0.48192019154E+03 -0.98522927233E+03  0.13343171687E+04  0.12699999809E+01 0.  1.
</event>
<event>
 5   0  0.2722449E-06  0.3909139E+04  0.7818609E-02  0.8023131E-01
        2   -1    0    0  501    0  0.00000000000E+00  0.00000000000E+00  0.30076651787E+04  0.30076651787E+04  0.25500000920E-02 0. -1.
       -2   -1    0    0    0  501  0.00000000000E+00  0.00000000000E+00 -0.12702017123E+04  0.12702017123E+04  0.25500000920E-02 0.  1.
    10030    2    1    2    0    0  0.00000000000E+00  0.00000000000E+00  0.17374634664E+04  0.42778668910E+04  0.39091387594E+04 0.  0.
        2    1    3    3  502    0  0.85542698895E+03 -0.11108178337E+04  0.23590515920E+04  0.27442295835E+04  0.25500000920E-02 0. -1.
       -2    1    3    3    0  502 -0.85542698895E+03  0.11108178337E+04 -0.62158812565E+03  0.15336373075E+04  0.25500000920E-02 0.  1.
</event>
<event>
 5   0  0.1654257E-06  0.2575544E+04  0.7818609E-02  0.8376556E-01
        1   -1    0    0  501    0  0.00000000000E+00  0.00000000000E+00  0.19926596271E+04  0.19926596271E+04  0.50400001928E-02 0. -1.
       -1   -1    0    0    0  501  0.00000000000E+00  0.00000000000E+00 -0.83223259322E+03  0.83223259324E+03  0.50400001928E-02 0.  1.
    10030    2    1    2    0    0  0.00000000000E+00  0.00000000000E+00  0.11604270339E+04  0.28248922204E+04  0.25755436622E+04 0.  0.
        3    1    3    3  502    0  0.23784641089E+03 -0.54064405138E+03 -0.67490274077E+03  0.89686154180E+03  0.10100000352E+00 0.  1.
       -3    1    3    3    0  502 -0.23784641089E+03  0.54064405138E+03  0.18353297747E+04  0.19280306786E+04  0.10100000352E+00 0. -1.
</event>
<event>
 5   0  0.1550164E-06  0.1796902E+04  0.7818609E-02  0.8707949E-01
       -1   -1    0    0    0  501  0.00000000000E+00  0.00000000000E+00  0.11006500550E+04  0.11006500550E+04  0.50400001928E-02 0. -1.
        1   -1    0    0  501    0  0.00000000000E+00  0.00000000000E+00 -0.73339729410E+03  0.73339729412E+03  0.50400001928E-02 0.  1.
    10030    2    1    2    0    0  0.00000000000E+00  0.00000000000E+00  0.36725276089E+03  0.18340473491E+04  0.17969015244E+04 0.  0.
        4    1    3    3  502    0  0.79056186232E+02 -0.51553971251E+02  0.10955753691E+04  0.10996338913E+04  0.12699999809E+01 0. -1.
       -4    1    3    3    0  502 -0.79056186232E+02  0.51553971251E+02 -0.72832260822E+03  0.73441345785E+03  0.12699999809E+01 0.  1.
</event>
<event>
 5   0  0.4189587E-06  0.2612977E+04  0.7818609E-02  0.8363807E-01
        2   -1    0    0  501    0  0.00000000000E+00  0.00000000000E+00  0.24045316915E+04  0.24045316915E+04  0.25500000920E-02 0. -1.
       -2   -1    0    0    0  501  0.00000000000E+00  0.00000000000E+00 -0.70987289490E+03  0.70987289491E+03  0.25500000920E-02 0.  1.
    10030    2    1    2    0    0  0.00000000000E+00  0.00000000000E+00  0.16946587966E+04  0.31144045864E+04  0.26129767490E+04 0.  0.
        1    1    3    3  502    0 -0.59076164043E+02  0.22578762668E+03  0.23794839465E+04  0.23909023186E+04  0.50400001928E-02 0. -1.
       -1    1    3    3    0  502  0.59076164043E+02 -0.22578762668E+03 -0.68482514991E+03  0.72350226779E+03  0.50400001928E-02 0.  1.
</event>
<event>
 5   0  0.1550164E-06  0.2147287E+04  0.7818609E-02  0.8540694E-01
        1   -1    0    0  501    0  0.00000000000E+00  0.00000000000E+00  0.14811324698E+04  0.14811324698E+04  0.50400001928E-02 0.  1.
       -1   -1    0    0    0  501  0.00000000000E+00  0.00000000000E+00 -0.77826279413E+03  0.77826279415E+03  0.50400001928E-02 0. -1.
    10030    2    1    2    0    0  0.00000000000E+00  0.00000000000E+00  0.70286967563E+03  0.22593952639E+04  0.21472869342E+04 0.  0.
        4    1    3    3  502    0 -0.89649899759E+03  0.56377892660E+03  0.16572198212E+03  0.10719246797E+04  0.12699999809E+01 0. -1.
       -4    1    3    3    0  502  0.89649899759E+03 -0.56377892660E+03  0.53714769351E+03  0.11874705842E+04  0.12699999809E+01 0.  1.
</event>
<event>
 5   0  0.2722449E-06  0.3483397E+04  0.7818609E-02  0.8117736E-01
       -2   -1    0    0    0  501  0.00000000000E+00  0.00000000000E+00  0.32955291375E+04  0.32955291375E+04  0.25500000920E-02 0. -1.
        2   -1    0    0  501    0  0.00000000000E+00  0.00000000000E+00 -0.92049356969E+03  0.92049356969E+03  0.25500000920E-02 0.  1.
    10030    2    1    2    0    0  0.00000000000E+00  0.00000000000E+00  0.23750355678E+04  0.42160227072E+04  0.34833968363E+04 0.  0.
        2    1    3    3  502    0  0.15810074439E+04 -0.16986489967E+03  0.20476749669E+04  0.25925684932E+04  0.25500000920E-02 0. -1.
       -2    1    3    3    0  502 -0.15810074439E+04  0.16986489967E+03  0.32736060095E+03  0.16234542140E+04  0.25500000920E-02 0.  1.
</event>
<event>
 5   0  0.4344980E-06  0.3342609E+04  0.7818609E-02  0.8152137E-01
       -2   -1    0    0    0  501  0.00000000000E+00  0.00000000000E+00  0.29558663257E+04  0.29558663257E+04  0.25500000920E-02 0. -1.
        2   -1    0    0  501    0  0.00000000000E+00  0.00000000000E+00 -0.94498819928E+03  0.94498819928E+03  0.25500000920E-02 0.  1.
    10030    2    1    2    0    0  0.00000000000E+00  0.00000000000E+00  0.20108781264E+04  0.39008545250E+04  0.33426090387E+04 0.  0.
        3    1    3    3  502    0 -0.74055516689E+03 -0.93316098094E+03 -0.36252607839E+03  0.12452455739E+04  0.10100000352E+00 0.  1.
       -3    1    3    3    0  502  0.74055516689E+03  0.93316098094E+03  0.23734042048E+04  0.26556089511E+04  0.10100000352E+00 0. -1.
</event>
<event>
 5   0  0.4400349E-06  0.3101126E+04  0.7818609E-02  0.8215429E-01
       -2   -1    0    0    0  501  0.00000000000E+00  0.00000000000E+00  0.14653416518E+04  0.14653416518E+04  0.25500000920E-02 0. -1.
        2   -1    0    0  501    0  0.00000000000E+00  0.00000000000E+00 -0.16407410800E+04  0.16407410800E+04  0.25500000920E-02 0.  1.
    10030    2    1    2    0    0  0.00000000000E+00  0.00000000000E+00 -0.17539942819E+03  0.31060827318E+04  0.31011264046E+04 0.  0.
        5    1    3    3  502    0 -0.77678828371E+03 -0.37780666880E+03 -0.13774246826E+04  0.16258716932E+04  0.46999998093E+01 0.  1.
       -5    1    3    3    0  502  0.77678828371E+03  0.37780666880E+03  0.12020252544E+04  0.14802110386E+04  0.46999998093E+01 0. -1.
</event>
<event>
 5   0  0.1562618E-06  0.2356675E+04  0.7818609E-02  0.8455904E-01
       -1   -1    0    0    0  501  0.00000000000E+00  0.00000000000E+00  0.12448346971E+04  0.12448346972E+04  0.50400001928E-02 0.  1.
        1   -1    0    0  501    0  0.00000000000E+00  0.00000000000E+00 -0.11153923323E+04  0.11153923324E+04  0.50400001928E-02 0. -1.
    10030    2    1    2    0    0  0.00000000000E+00  0.00000000000E+00  0.12944236480E+03  0.23602270295E+04  0.23566748408E+04 0.  0.
        2    1    3    3  502    0  0.10310897850E+04  0.17620250604E+03 -0.47857746803E+03  0.11503172870E+04  0.25500000920E-02 0. -1.
       -2    1    3    3    0  502 -0.10310897850E+04 -0.17620250604E+03  0.60801983283E+03  0.12099097425E+04  0.25500000920E-02 0.  1.
</event>
<event>
 5   0  0.1562618E-06  0.3460988E+04  0.7818609E-02  0.8123098E-01
       -1   -1    0    0    0  501  0.00000000000E+00  0.00000000000E+00  0.19663249393E+04  0.19663249393E+04  0.50400001928E-02 0.  1.
        1   -1    0    0  501    0  0.00000000000E+00  0.00000000000E+00 -0.15229477379E+04  0.15229477379E+04  0.50400001928E-02 0. -1.
    10030    2    1    2    0    0  0.00000000000E+00  0.00000000000E+00  0.44337720146E+03  0.34892726772E+04  0.34609883665E+04 0.  0.
        2    1    3    3  502    0  0.53636705753E+03  0.26293342363E+03  0.18590878686E+04  0.19526984685E+04  0.25500000920E-02 0.  1.
       -2    1    3    3    0  502 -0.53636705753E+03 -0.26293342363E+03 -0.14157106672E+04  0.15365742087E+04  0.25500000920E-02 0. -1.
</event>
<event>
 5   0  0.1571391E-06  0.3285524E+04  0.7818609E-02  0.8166589E-01
        1   -1    0    0  501    0  0.00000000000E+00  0.00000000000E+00  0.15656839655E+04  0.15656839655E+04  0.50400001928E-02 0.  1.
       -1   -1    0    0    0  501  0.00000000000E+00  0.00000000000E+00 -0.17236344422E+04  0.17236344422E+04  0.50400001928E-02 0. -1.
    10030    2    1    2    0    0  0.00000000000E+00  0.00000000000E+00 -0.15795047669E+03  0.32893184077E+04  0.32855238903E+04 0.  0.
        1    1    3    3  502    0  0.32969640476E+02  0.42941898807E+03  0.15081566207E+04  0.15684463832E+04  0.50400001928E-02 0.  1.
       -1    1    3    3    0  502 -0.32969640476E+02 -0.42941898807E+03 -0.16661070974E+04  0.17208720244E+04  0.50400001928E-02 0. -1.
</event>
<event>
 5   0  0.4400349E-06  0.3393787E+04  0.7818609E-02  0.8139433E-01
       -2   -1    0    0    0  501  0.00000000000E+00  0.00000000000E+00  0.22188761597E+04  0.22188761597E+04  0.25500000920E-02 0. -1.
        2   -1    0    0  501    0  0.00000000000E+00  0.00000000000E+00 -0.12977056947E+04  0.12977056947E+04  0.25500000920E-02 0.  1.
    10030    2    1    2    0    0  0.00000000000E+00  0.00000000000E+00  0.92117046501E+03  0.35165818545E+04  0.33937873996E+04 0.  0.
        5    1    3    3  502    0  0.16278740204E+04 -0.17449028143E+03  0.92282636350E+03  0.18793752344E+04  0.46999998093E+01 0.  1.
       -5    1    3    3    0  502 -0.16278740204E+04  0.17449028143E+03 -0.16558984955E+01  0.16372066200E+04  0.46999998093E+01 0. -1.
</event>
<event>
 5   0  0.4173467E-06  0.3393681E+04  0.7818609E-02  0.8139459E-01
        2   -1    0    0  501    0  0.00000000000E+00  0.00000000000E+00  0.27669876321E+04  0.27669876321E+04  0.25500000920E-02 0.  1.
       -2   -1    0    0    0  501  0.00000000000E+00  0.00000000000E+00 -0.10405785673E+04  0.10405785673E+04  0.25500000920E-02 0. -1.
    10030    2    1    2    0    0  0.00000000000E+00  0.00000000000E+00  0.17264090648E+04  0.38075661993E+04  0.33936812024E+04 0.  0.
        4    1    3    3  502    0  0.69669151200E+03 -0.59817583272E+03  0.24641373039E+04  0.26296706363E+04  0.12699999809E+01 0.  1.
       -4    1    3    3    0  502 -0.69669151200E+03  0.59817583272E+03 -0.73772823915E+03  0.11778955631E+04  0.12699999809E+01 0. -1.
</event>
<event>
 5   0  0.4189587E-06  0.2229356E+04  0.7818609E-02  0.8506308E-01
        2   -1    0    0  501    0  0.00000000000E+00  0.00000000000E+00  0.19635275320E+04  0.19635275320E+04  0.25500000920E-02 0.  1.
       -2   -1    0    0    0  501  0.00000000000E+00  0.00000000000E+00 -0.63279327449E+03  0.63279327450E+03  0.25500000920E-02 0. -1.
    10030    2    1    2    0    0  0.00000000000E+00  0.00000000000E+00  0.13307342575E+04  0.25963208065E+04  0.22293559757E+04 0.  0.
        1    1    3    3  502    0 -0.37948174300E+03  0.76412259610E+03  0.15008183846E+04  0.17263677357E+04  0.50400001928E-02 0.  1.
       -1    1    3    3    0  502  0.37948174300E+03 -0.76412259610E+03 -0.17008412710E+03  0.86995307084E+03  0.50400001928E-02 0. -1.
</event>
<event>
 5   0  0.4189587E-06  0.2123428E+04  0.7818609E-02  0.8550993E-01
        2   -1    0    0  501    0  0.00000000000E+00  0.00000000000E+00  0.10526341682E+04  0.10526341682E+04  0.25500000920E-02 0.  1.
       -2   -1    0    0    0  501  0.00000000000E+00  0.00000000000E+00 -0.10708721805E+04  0.10708721805E+04  0.25500000920E-02 0. -1.
    10030    2    1    2    0    0  0.00000000000E+00  0.00000000000E+00 -0.18238012313E+02  0.21235063487E+04  0.21234280275E+04 0.  0.
        1    1    3    3  502    0  0.11182186782E+03 -0.39584425064E+03 -0.98795020749E+03  0.10701599943E+04  0.50400001928E-02 0. -1.
       -1    1    3    3    0  502 -0.11182186782E+03  0.39584425064E+03  0.96971219517E+03  0.10533463544E+04  0.50400001928E-02 0.  1.
</event>
<event>
 5   0  0.1562618E-06  0.2501451E+04  0.7818609E-02  0.8402469E-01
       -1   -1    0    0    0  501  0.00000000000E+00  0.00000000000E+00  0.93878658160E+03  0.93878658161E+03  0.50400001928E-02 0.  1.
        1   -1    0    0  501    0  0.00000000000E+00  0.00000000000E+00 -0.16663152900E+04  0.16663152900E+04  0.50400001928E-02 0. -1.
    10030    2    1    2    0    0  0.00000000000E+00  0.00000000000E+00 -0.72752870838E+03  0.26051018716E+04  0.25014511268E+04 0.  0.
        2    1    3    3  502    0  0.47721290977E+03 -0.10499526261E+04 -0.86773961521E+03  0.14432964762E+04  0.25500000920E-02 0. -1.
       -2    1    3    3    0  502 -0.47721290977E+03  0.10499526261E+04  0.14021090683E+03  0.11618053954E+04  0.25500000920E-02 0.  1.
</event>
<event>
 5   0  0.2101998E-06  0.3325238E+04  0.7818609E-02  0.8156503E-01
        1   -1    0    0  501    0  0.00000000000E+00  0.00000000000E+00  0.25158288035E+04  0.25158288035E+04  0.50400001928E-02 0.  1.
       -1   -1    0    0    0  501  0.00000000000E+00  0.00000000000E+00 -0.10987637200E+04  0.10987637200E+04  0.50400001928E-02 0. -1.
    10030    2    1    2    0    0  0.00000000000E+00  0.00000000000E+00  0.14170650835E+04  0.36145925235E+04  0.33252376848E+04 0.  0.
        5    1    3    3  502    0  0.14369316159E+04 -0.48327586378E+03  0.14505376826E+04  0.20981920045E+04  0.46999998093E+01 0.  1.
       -5    1    3    3    0  502 -0.14369316159E+04  0.48327586378E+03 -0.33472599134E+02  0.15164005190E+04  0.46999998093E+01 0. -1.
</event>
<event>
 5   0  0.4344980E-06  0.1922378E+04  0.7818609E-02  0.8643797E-01
       -2   -1    0    0    0  501  0.00000000000E+00  0.00000000000E+00  0.43798352637E+03  0.43798352638E+03  0.25500000920E-02 0.  1.
        2   -1    0    0  501    0  0.00000000000E+00  0.00000000000E+00 -0.21094043290E+04  0.21094043290E+04  0.25500000920E-02 0. -1.
    10030    2    1    2    0    0  0.00000000000E+00  0.00000000000E+00 -0.16714208026E+04  0.25473878554E+04  0.19223780550E+04 0.  0.
        3    1    3    3  502    0  0.73972866714E+03 -0.58581364866E+03 -0.59314332587E+03  0.11145380869E+04  0.10100000352E+00 0.  1.
       -3    1    3    3    0  502 -0.73972866714E+03  0.58581364866E+03 -0.10782774767E+04  0.14328497685E+04  0.10100000352E+00 0. -1.
</event>
<event>
 5   0  0.1562618E-06  0.3459637E+04  0.7818609E-02  0.8123423E-01
       -1   -1    0    0    0  501  0.00000000000E+00  0.00000000000E+00  0.13529949869E+04  0.13529949869E+04  0.50400001928E-02 0. -1.
        1   -1    0    0  501    0  0.00000000000E+00  0.00000000000E+00 -0.22115919242E+04  0.22115919242E+04  0.50400001928E-02 0.  1.
    10030    2    1    2    0    0  0.00000000000E+00  0.00000000000E+00 -0.85859693729E+03  0.35645869111E+04  0.34596374299E+04 0.  0.
        2    1    3    3  502    0  0.79552955141E+03  0.15104649900E+04 -0.14172406359E+03  0.17130258210E+04  0.25500000920E-02 0. -1.
       -2    1    3    3    0  502 -0.79552955141E+03 -0.15104649900E+04 -0.71687287370E+03  0.18515610901E+04  0.25500000920E-02 0.  1.
</event>
<event>
 5   0  0.2722449E-06  0.3410779E+04  0.7818609E-02  0.8135266E-01
        2   -1    0    0  501    0  0.00000000000E+00  0.00000000000E+00  0.27141624082E+04  0.27141624082E+04  0.25500000920E-02 0.  1.
       -2   -1    0    0    0  501  0.00000000000E+00  0.00000000000E+00 -0.10715472912E+04  0.10715472912E+04  0.25500000920E-02 0. -1.
    10030    2    1    2    0    0  0.00000000000E+00  0.00000000000E+00  0.16426151169E+04  0.37857096994E+04  0.34107790174E+04 0.  0.
        2    1    3    3  502    0  0.13550544471E+04  0.10348754439E+04  0.78264076247E+03  0.18760773710E+04  0.25500000920E-02 0.  1.
       -2    1    3    3    0  502 -0.13550544471E+04 -0.10348754439E+04  0.85997435446E+03  0.19096323283E+04  0.25500000920E-02 0. -1.
</event>
<event>
 5   0  0.1571391E-06  0.2039026E+04  0.7818609E-02  0.8588589E-01
       -1   -1    0    0    0  501  0.00000000000E+00  0.00000000000E+00  0.16812574762E+04  0.16812574762E+04  0.50400001928E-02 0. -1.
        1   -1    0    0  501    0  0.00000000000E+00  0.00000000000E+00 -0.61823162411E+03  0.61823162413E+03  0.50400001928E-02 0.  1.
    10030    2    1    2    0    0  0.00000000000E+00  0.00000000000E+00  0.10630258521E+04  0.22994891004E+04  0.20390257871E+04 0.  0.
        1    1    3    3  502    0  0.95268990883E+03  0.24752018987E+03  0.23203027723E+03  0.10112973630E+04  0.50400001928E-02 0.  1.
       -1    1    3    3    0  502 -0.95268990883E+03 -0.24752018987E+03  0.83099557489E+03  0.12881917374E+04  0.50400001928E-02 0. -1.
</event>
<event>
 5   0  0.4344980E-06  0.2815003E+04  0.7818609E-02  0.8298626E-01
       -2   -1    0    0    0  501  0.00000000000E+00  0.00000000000E+00  0.11030757164E+04  0.11030757164E+04  0.25500000920E-02 0.  1.
        2   -1    0    0  501    0  0.00000000000E+00  0.00000000000E+00 -0.17959428143E+04  0.17959428143E+04  0.25500000920E-02 0. -1.
    10030    2    1    2    0    0  0.00000000000E+00  0.00000000000E+00 -0.69286709790E+03  0.28990185307E+04  0.28150033083E+04 0.  0.
        3    1    3    3  502    0  0.39113164398E+03 -0.36441937777E+03  0.99445356841E+03  0.11290364723E+04  0.10100000352E+00 0.  1.
       -3    1    3    3    0  502 -0.39113164398E+03  0.36441937777E+03 -0.16873206663E+04  0.17699820584E+04  0.10100000352E+00 0. -1.
</event>
<event>
 5   0  0.4400349E-06  0.3419316E+04  0.7818609E-02  0.8133182E-01
       -2   -1    0    0    0  501  0.00000000000E+00  0.00000000000E+00  0.11559684508E+04  0.11559684508E+04  0.25500000920E-02 0. -1.
        2   -1    0    0  501    0  0.00000000000E+00  0.00000000000E+00 -0.25285556781E+04  0.25285556781E+04  0.25500000920E-02 0.  1.
    10030    2    1    2    0    0  0.00000000000E+00  0.00000000000E+00 -0.13725872273E+04  0.36845241289E+04  0.34193160661E+04 0.  0.
        5    1    3    3  502    0  0.28862204890E+03 -0.15520447654E+03  0.11218014671E+04  0.11686965980E+04  0.46999998093E+01 0. -1.
       -5    1    3    3    0  502 -0.28862204890E+03  0.15520447654E+03 -0.24943886944E+04  0.25158275309E+04  0.46999998093E+01 0.  1.
</event>
<event>
 5   0  0.1571391E-06  0.2091647E+04  0.7818609E-02  0.8564932E-01
       -1   -1    0    0    0  501  0.00000000000E+00  0.00000000000E+00  0.10044661995E+04  0.10044661995E+04  0.50400001928E-02 0.  1.
        1   -1    0    0  501    0  0.00000000000E+00  0.00000000000E+00 -0.10888838965E+04  0.10888838966E+04  0.50400001928E-02 0. -1.
    10030    2    1    2    0    0  0.00000000000E+00  0.00000000000E+00 -0.84417697015E+02  0.20933500961E+04  0.20916472641E+04 0.  0.
        1    1    3    3  502    0 -0.57106859962E+03 -0.40747902511E+03 -0.81846169764E+03  0.10779786881E+04  0.50400001928E-02 0. -1.
       -1    1    3    3    0  502  0.57106859962E+03  0.40747902511E+03  0.73404400063E+03  0.10153714080E+04  0.50400001928E-02 0.  1.
</event>
<event>
 5   0  0.1550164E-06  0.2627626E+04  0.7818609E-02  0.8358878E-01
        1   -1    0    0  501    0  0.00000000000E+00  0.00000000000E+00  0.17069597807E+04  0.17069597807E+04  0.50400001928E-02 0. -1.
       -1   -1    0    0    0  501  0.00000000000E+00  0.00000000000E+00 -0.10112153560E+04  0.10112153560E+04  0.50400001928E-02 0.  1.
    10030    2    1    2    0    0  0.00000000000E+00  0.00000000000E+00  0.69574442476E+03  0.27181751367E+04  0.26276255002E+04 0.  0.
        4    1    3    3  502    0 -0.10358635509E+04 -0.79950461137E+03  0.46975173716E+03  0.13902838657E+04  0.12699999809E+01 0. -1.
       -4    1    3    3    0  502  0.10358635509E+04  0.79950461137E+03  0.22599268760E+03  0.13278912710E+04  0.12699999809E+01 0.  1.
</event>
<event>
 5   0  0.2101998E-06  0.3408371E+04  0.7818609E-02  0.8135855E-01
       -1   -1    0    0    0  501  0.00000000000E+00  0.00000000000E+00  0.95823379735E+03  0.95823379736E+03  0.50400001928E-02 0. -1.
        1   -1    0    0  501    0  0.00000000000E+00  0.00000000000E+00 -0.30308352999E+04  0.30308352999E+04  0.50400001928E-02 0.  1.
    10030    2    1    2    0    0  0.00000000000E+00  0.00000000000E+00 -0.20726015025E+04  0.39890690973E+04  0.34083713522E+04 0.  0.
        5    1    3    3  502    0 -0.45532224508E+03  0.46426125024E+03 -0.28799164827E+04  0.29524223771E+04  0.46999998093E+01 0.  1.
       -5    1    3    3    0  502  0.45532224508E+03 -0.46426125024E+03  0.80731498014E+03  0.10366467202E+04  0.46999998093E+01 0. -1.
</event>
<event>
 5   0  0.2101998E-06  0.2426284E+04  0.7818609E-02  0.8429728E-01
        1   -1    0    0  501    0  0.00000000000E+00  0.00000000000E+00  0.13188232805E+04  0.13188232805E+04  0.50400001928E-02 0.  1.
       -1   -1    0    0    0  501  0.00000000000E+00  0.00000000000E+00 -0.11159292303E+04  0.11159292303E+04  0.50400001928E-02 0. -1.
    10030    2    1    2    0    0  0.00000000000E+00  0.00000000000E+00  0.20289405025E+03  0.24347525108E+04  0.24262839473E+04 0.  0.
        5    1    3    3  502    0  0.29833669006E+03 -0.11161022342E+04  0.47287726095E+03  0.12483284711E+04  0.46999998093E+01 0. -1.
       -5    1    3    3    0  502 -0.29833669006E+03  0.11161022342E+04 -0.26998321070E+03  0.11864240397E+04  0.46999998093E+01 0.  1.
</event>
<event>
 5   0  0.4400349E-06  0.3067477E+04  0.7818609E-02  0.8224721E-01
       -2   -1    0    0    0  501  0.00000000000E+00  0.00000000000E+00  0.10988546543E+04  0.10988546543E+04  0.25500000920E-02 0.  1.
        2   -1    0    0  501    0  0.00000000000E+00  0.00000000000E+00 -0.21407330471E+04  0.21407330471E+04  0.25500000920E-02 0. -1.
    10030    2    1    2    0    0  0.00000000000E+00  0.00000000000E+00 -0.10418783928E+04  0.32395877014E+04  0.30674774473E+04 0.  0.
        5    1    3    3  502    0  0.46664617048E+03  0.14115959766E+04 -0.91886991801E+03  0.17477716858E+04  0.46999998093E+01 0. -1.
       -5    1    3    3    0  502 -0.46664617048E+03 -0.14115959766E+04 -0.12300847481E+03  0.14918160156E+04  0.46999998093E+01 0.  1.
</event>
<event>
 5   0  0.4344980E-06  0.2863031E+04  0.7818609E-02  0.8283963E-01
        2   -1    0    0  501    0  0.00000000000E+00  0.00000000000E+00  0.18779534294E+04  0.18779534294E+04  0.25500000920E-02 0.  1.
       -2   -1    0    0    0  501  0.00000000000E+00  0.00000000000E+00 -0.10912072569E+04  0.10912072569E+04  0.25500000920E-02 0. -1.
    10030    2    1    2    0    0  0.00000000000E+00  0.00000000000E+00  0.78674617245E+03  0.29691606863E+04  0.28630308488E+04 0.  0.
        3    1    3    3  502    0  0.69309057729E+03 -0.79485374039E+03  0.13972802383E+04  0.17505882130E+04  0.10100000352E+00 0.  1.
       -3    1    3    3    0  502 -0.69309057729E+03  0.79485374039E+03 -0.61053406586E+03  0.12185724733E+04  0.10100000352E+00 0. -1.
</event>
<event>
 5   0  0.4344980E-06  0.3466911E+04  0.7818609E-02  0.8121677E-01
        2   -1    0    0  501    0  0.00000000000E+00  0.00000000000E+00  0.23934593333E+04  0.23934593333E+04  0.25500000920E-02 0.  1.
       -2   -1    0    0    0  501  0.00000000000E+00  0.00000000000E+00 -0.12554496243E+04  0.12554496243E+04  0.25500000920E-02 0. -1.
    10030    2    1    2    0    0  0.00000000000E+00  0.00000000000E+00  0.11380097090E+04  0.36489089576E+04  0.34669107983E+04 0.  0.
        3    1    3    3  502    0 -0.42484572354E+03  0.15010566052E+04 -0.22644996950E+03  0.15763706479E+04  0.10100000352E+00 0. -1.
       -3    1    3    3    0  502  0.42484572354E+03 -0.15010566052E+04  0.13644596785E+04  0.20725383097E+04  0.10100000352E+00 0.  1.
</event>
<event>
 5   0  0.4344980E-06  0.3421204E+04  0.7818609E-02  0.8132722E-01
        2   -1    0    0  501    0  0.00000000000E+00  0.00000000000E+00  0.14428564350E+04  0.14428564350E+04  0.25500000920E-02 0.  1.
       -2   -1    0    0    0  501  0.00000000000E+00  0.00000000000E+00 -0.20280321902E+04  0.20280321902E+04  0.25500000920E-02 0. -1.
    10030    2    1    2    0    0  0.00000000000E+00  0.00000000000E+00 -0.58517575521E+03  0.34708886252E+04  0.34212040547E+04 0.  0.
        3    1    3    3  502    0 -0.11543516653E+04 -0.79738867780E+03  0.70029896282E+03  0.15680481875E+04  0.10100000352E+00 0.  1.
       -3    1    3    3    0  502  0.11543516653E+04  0.79738867780E+03 -0.12854747180E+04  0.19028404377E+04  0.10100000352E+00 0. -1.
</event>
<event>
 5   0  0.1562618E-06  0.3298685E+04  0.7818609E-02  0.8163230E-01
        1   -1    0    0  501    0  0.00000000000E+00  0.00000000000E+00  0.19045803791E+04  0.19045803791E+04  0.50400001928E-02 0.  1.
       -1   -1    0    0    0  501  0.00000000000E+00  0.00000000000E+00 -0.14283101396E+04  0.14283101396E+04  0.50400001928E-02 0. -1.
    10030    2    1    2    0    0  0.00000000000E+00  0.00000000000E+00  0.47627023954E+03  0.33328905188E+04  0.32986854759E+04 0.  0.
        2    1    3    3  502    0  0.51698396638E+03  0.71990022210E+03  0.16435303776E+04  0.18672763195E+04  0.25500000920E-02 0.  1.
       -2    1    3    3    0  502 -0.51698396638E+03 -0.71990022210E+03 -0.11672601380E+04  0.14656141993E+04  0.25500000920E-02 0. -1.
</event>
<event>
 5   0  0.4344980E-06  0.3423283E+04  0.7818609E-02  0.8132215E-01
       -2   -1    0    0    0  501  0.00000000000E+00  0.00000000000E+00  0.18616158358E+04  0.18616158358E+04  0.25500000920E-02 0. -1.
        2   -1    0    0  501    0  0.00000000000E+00  0.00000000000E+00 -0.15737494289E+04  0.15737494289E+04  0.25500000920E-02 0.  1.
    10030    2    1    2    0    0  0.00000000000E+00  0.00000000000E+00  0.28786640688E+03  0.34353652648E+04  0.34232831367E+04 0.  0.
        3    1    3    3  502    0  0.98334808152E+03 -0.73900550592E+03  0.13383500059E+04  0.18177687795E+04  0.10100000352E+00 0. -1.
       -3    1    3    3    0  502 -0.98334808152E+03  0.73900550592E+03 -0.10504835990E+04  0.16175964853E+04  0.10100000352E+00 0.  1.
</event>
<event>
 5   0  0.2722449E-06  0.3315945E+04  0.7818609E-02  0.8158850E-01
        2   -1    0    0  501    0  0.00000000000E+00  0.00000000000E+00  0.18993341088E+04  0.18993341088E+04  0.25500000920E-02 0. -1.
       -2   -1    0    0    0  501  0.00000000000E+00  0.00000000000E+00 -0.14472823654E+04  0.14472823654E+04  0.25500000920E-02 0.  1.
    10030    2    1    2    0    0  0.00000000000E+00  0.00000000000E+00  0.45205174345E+03  0.33466164742E+04  0.33159449704E+04 0.  0.
        2    1    3    3  502    0 -0.12137968171E+04  0.73164787265E+03  0.10943686435E+04  0.17906015890E+04  0.25500000920E-02 0.  1.
       -2    1    3    3    0  502  0.12137968171E+04 -0.73164787265E+03 -0.64231690003E+03  0.15560148852E+04  0.25500000920E-02 0. -1.
</event>
<event>
 5   0  0.4344980E-06  0.3346526E+04  0.7818609E-02  0.8151157E-01
       -2   -1    0    0    0  501  0.00000000000E+00  0.00000000000E+00  0.18266685714E+04  0.18266685714E+04  0.25500000920E-02 0. -1.
        2   -1    0    0  501    0  0.00000000000E+00  0.00000000000E+00 -0.15327402443E+04  0.15327402443E+04  0.25500000920E-02 0.  1.
    10030    2    1    2    0    0  0.00000000000E+00  0.00000000000E+00  0.29392832707E+03  0.33594088157E+04  0.33465256206E+04 0.  0.
        3    1    3    3  502    0  0.75569063398E+03 -0.98576155287E+03  0.12724468113E+04  0.17781774577E+04  0.10100000352E+00 0. -1.
       -3    1    3    3    0  502 -0.75569063398E+03  0.98576155287E+03 -0.97851848420E+03  0.15812313580E+04  0.10100000352E+00 0.  1.
</event>
<event>
 5   0  0.4400349E-06  0.3339074E+04  0.7818609E-02  0.8153024E-01
       -2   -1    0    0    0  501  0.00000000000E+00  0.00000000000E+00  0.10815392169E+04  0.10815392169E+04  0.25500000920E-02 0. -1.
        2   -1    0    0  501    0  0.00000000000E+00  0.00000000000E+00 -0.25772101822E+04  0.25772101822E+04  0.25500000920E-02 0.  1.
    10030    2    1    2    0    0  0.00000000000E+00  0.00000000000E+00 -0.14956709653E+04  0.36587493991E+04  0.33390740526E+04 0.  0.
        5    1    3    3  502    0  0.13854515705E+04  0.72338159787E+02 -0.17655292438E+04  0.22454007358E+04  0.46999998093E+01 0.  1.
       -5    1    3    3    0  502 -0.13854515705E+04 -0.72338159787E+02  0.26985827847E+03  0.14133486633E+04  0.46999998093E+01 0. -1.
</event>
<event>
 5   0  0.2722449E-06  0.3394207E+04  0.7818609E-02  0.8139330E-01
       -2   -1    0    0    0  501  0.00000000000E+00  0.00000000000E+00  0.10613020677E+04  0.10613020677E+04  0.25500000920E-02 0.  1.
        2   -1    0    0  501    0  0.00000000000E+00  0.00000000000E+00 -0.27137991454E+04  0.27137991454E+04  0.25500000920E-02 0. -1.
    10030    2    1    2    0    0  0.00000000000E+00  0.00000000000E+00 -0.16524970777E+04  0.37751012130E+04  0.33942072089E+04 0.  0.
        2    1    3    3  502    0 -0.11355614940E+04 -0.37942368617E+03 -0.21640117529E+04  0.24731375026E+04  0.25500000920E-02 0. -1.
       -2    1    3    3    0  502  0.11355614940E+04  0.37942368617E+03  0.51151467520E+03  0.13019637104E+04  0.25500000920E-02 0.  1.
</event>
<event>
 5   0  0.1562618E-06  0.3400262E+04  0.7818609E-02  0.8137842E-01
       -1   -1    0    0    0  501  0.00000000000E+00  0.00000000000E+00  0.16999384170E+04  0.16999384170E+04  0.50400001928E-02 0.  1.
        1   -1    0    0  501    0  0.00000000000E+00  0.00000000000E+00 -0.17003237507E+04  0.17003237507E+04  0.50400001928E-02 0. -1.
    10030    2    1    2    0    0  0.00000000000E+00  0.00000000000E+00 -0.38533373087E+00  0.34002621677E+04  0.34002621459E+04 0.  0.
        2    1    3    3  502    0 -0.11492582642E+04 -0.73656875673E+03  0.10132754318E+04  0.17000162329E+04  0.25500000920E-02 0.  1.
       -2    1    3    3    0  502  0.11492582642E+04  0.73656875673E+03 -0.10136607656E+04  0.17002459348E+04  0.25500000920E-02 0. -1.
</event>
<event>
 5   0  0.1562618E-06  0.3387274E+04  0.7818609E-02  0.8141037E-01
        1   -1    0    0  501    0  0.00000000000E+00  0.00000000000E+00  0.21779855446E+04  0.21779855446E+04  0.50400001928E-02 0. -1.
       -1   -1    0    0    0  501  0.00000000000E+00  0.00000000000E+00 -0.13169995685E+04  0.13169995685E+04  0.50400001928E-02 0.  1.
    10030    2    1    2    0    0  0.00000000000E+00  0.00000000000E+00  0.86098597611E+03  0.34949851132E+04  0.33872738434E+04 0.  0.
        2    1    3    3  502    0 -0.93146160638E+03 -0.99417769244E+02 -0.10253679654E+04  0.13888427130E+04  0.25500000920E-02 0.  1.
       -2    1    3    3    0  502  0.93146160638E+03  0.99417769244E+02  0.18863539415E+04  0.21061424001E+04  0.25500000920E-02 0. -1.
</event>
<event>
 5   0  0.4173467E-06  0.3417692E+04  0.7818609E-02  0.8133578E-01
        2   -1    0    0  501    0  0.00000000000E+00  0.00000000000E+00  0.17200234283E+04  0.17200234283E+04  0.25500000920E-02 0. -1.
       -2   -1    0    0    0  501  0.00000000000E+00  0.00000000000E+00 -0.16977416016E+04  0.16977416016E+04  0.25500000920E-02 0.  1.
    10030    2    1    2    0    0  0.00000000000E+00  0.00000000000E+00  0.22281826670E+02  0.34177650299E+04  0.34176923969E+04 0.  0.
        4    1    3    3  502    0 -0.39620854030E+03  0.59627485192E+03  0.15628274622E+04  0.17189986026E+04  0.12699999809E+01 0. -1.
       -4    1    3    3    0  502  0.39620854030E+03 -0.59627485192E+03 -0.15405456355E+04  0.16987664273E+04  0.12699999809E+01 0.  1.
</event>
<event>
 5   0  0.1654257E-06  0.2795971E+04  0.7818609E-02  0.8304520E-01
        1   -1    0    0  501    0  0.00000000000E+00  0.00000000000E+00  0.16151814947E+04  0.16151814947E+04  0.50400001928E-02 0.  1.
       -1   -1    0    0    0  501  0.00000000000E+00  0.00000000000E+00 -0.12099958342E+04  0.12099958342E+04  0.50400001928E-02 0. -1.
    10030    2    1    2    0    0  0.00000000000E+00  0.00000000000E+00  0.40518566050E+03  0.28251773288E+04  0.27959705864E+04 0.  0.
        3    1    3    3  502    0  0.13355080845E+04 -0.35300389634E+03  0.41970773736E+03  0.14437271866E+04  0.10100000352E+00 0.  1.
       -3    1    3    3    0  502 -0.13355080845E+04  0.35300389634E+03 -0.14522076856E+02  0.13814501422E+04  0.10100000352E+00 0. -1.
</event>
<event>
 5   0  0.4400349E-06  0.3353436E+04  0.7818609E-02  0.8149430E-01
       -2   -1    0    0    0  501  0.00000000000E+00  0.00000000000E+00  0.15431437568E+04  0.15431437568E+04  0.25500000920E-02 0.  1.
        2   -1    0    0  501    0  0.00000000000E+00  0.00000000000E+00 -0.18218540574E+04  0.18218540574E+04  0.25500000920E-02 0. -1.
    10030    2    1    2    0    0  0.00000000000E+00  0.00000000000E+00 -0.27871030055E+03  0.33649978142E+04  0.33534356797E+04 0.  0.
        5    1    3    3  502    0 -0.11961648484E+04 -0.48400445150E+02  0.10386634234E+04  0.15849279936E+04  0.46999998093E+01 0.  1.
       -5    1    3    3    0  502  0.11961648484E+04  0.48400445150E+02 -0.13173737240E+04  0.17800698206E+04  0.46999998093E+01 0. -1.
</event>
<event>
 5   0  0.4189587E-06  0.3442420E+04  0.7818609E-02  0.8127573E-01
       -2   -1    0    0    0  501  0.00000000000E+00  0.00000000000E+00  0.14836286238E+04  0.14836286238E+04  0.25500000920E-02 0. -1.
        2   -1    0    0  501    0  0.00000000000E+00  0.00000000000E+00 -0.19968369194E+04  0.19968369194E+04  0.25500000920E-02 0.  1.
    10030    2    1    2    0    0  0.00000000000E+00  0.00000000000E+00 -0.51320829558E+03  0.34804655433E+04  0.34424203176E+04 0.  0.
        1    1    3    3  502    0 -0.31590856665E+03  0.70592965659E+03 -0.18112684539E+04  0.19694741213E+04  0.50400001928E-02 0.  1.
       -1    1    3    3    0  502  0.31590856665E+03 -0.70592965659E+03  0.12980601583E+04  0.15109914219E+04  0.50400001928E-02 0. -1.
</event>
<event>
 5   0  0.4189587E-06  0.3376393E+04  0.7818609E-02  0.8143725E-01
        2   -1    0    0  501    0  0.00000000000E+00  0.00000000000E+00  0.19135687445E+04  0.19135687445E+04  0.25500000920E-02 0. -1.
       -2   -1    0    0    0  501  0.00000000000E+00  0.00000000000E+00 -0.14893676856E+04  0.14893676856E+04  0.25500000920E-02 0.  1.
    10030    2    1    2    0    0  0.00000000000E+00  0.00000000000E+00  0.42420105893E+03  0.34029364301E+04  0.33763930175E+04 0.  0.
        1    1    3    3  502    0  0.97722054132E+03  0.75976304017E+03  0.13690831752E+04  0.18456946129E+04  0.50400001928E-02 0. -1.
       -1    1    3    3    0  502 -0.97722054132E+03 -0.75976304017E+03 -0.94488211623E+03  0.15572418172E+04  0.50400001928E-02 0.  1.
</event>
<event>
 5   0  0.2722449E-06  0.2025902E+04  0.7818609E-02  0.8594606E-01
        2   -1    0    0  501    0  0.00000000000E+00  0.00000000000E+00  0.25411951734E+04  0.25411951734E+04  0.25500000920E-02 0.  1.
       -2   -1    0    0    0  501  0.00000000000E+00  0.00000000000E+00 -0.40377444089E+03  0.40377444090E+03  0.25500000920E-02 0. -1.
    10030    2    1    2    0    0  0.00000000000E+00  0.00000000000E+00  0.21374207325E+04  0.29449696143E+04  0.20259019328E+04 0.  0.
        2    1    3    3  502    0  0.57215364564E+03  0.17405641094E+03 -0.11975147901E+03  0.60991462119E+03  0.25500000920E-02 0. -1.
       -2    1    3    3    0  502 -0.57215364564E+03 -0.17405641094E+03  0.22571722116E+04  0.23350549932E+04  0.25500000920E-02 0.  1.
</event>
<event>
 5   0  0.1550164E-06  0.3318942E+04  0.7818609E-02  0.8158092E-01
       -1   -1    0    0    0  501  0.00000000000E+00  0.00000000000E+00  0.18962183909E+04  0.18962183909E+04  0.50400001928E-02 0.  1.
        1   -1    0    0  501    0  0.00000000000E+00  0.00000000000E+00 -0.14522817467E+04  0.14522817467E+04  0.50400001928E-02 0. -1.
    10030    2    1    2    0    0  0.00000000000E+00  0.00000000000E+00  0.44393664422E+03  0.33485001377E+04  0.33189416126E+04 0.  0.
        4    1    3    3  502    0  0.48409859444E+03 -0.77946655069E+03  0.16170056094E+04  0.18592009861E+04  0.12699999809E+01 0.  1.
       -4    1    3    3    0  502 -0.48409859444E+03  0.77946655069E+03 -0.11730689652E+04  0.14892991516E+04  0.12699999809E+01 0. -1.
</event>
<event>
 5   0  0.4173467E-06  0.3366116E+04  0.7818609E-02  0.8146273E-01
       -2   -1    0    0    0  501  0.00000000000E+00  0.00000000000E+00  0.16981705702E+04  0.16981705702E+04  0.25500000920E-02 0. -1.
        2   -1    0    0  501    0  0.00000000000E+00  0.00000000000E+00 -0.16680794605E+04  0.16680794605E+04  0.25500000920E-02 0.  1.
    10030    2    1    2    0    0  0.00000000000E+00  0.00000000000E+00  0.30091109687E+02  0.33662500307E+04  0.33661155349E+04 0.  0.
        4    1    3    3  502    0  0.10611756414E+03  0.14304862060E+04 -0.86540436187E+03  0.16752546210E+04  0.12699999809E+01 0. -1.
       -4    1    3    3    0  502 -0.10611756414E+03 -0.14304862060E+04  0.89549547156E+03  0.16909954096E+04  0.12699999809E+01 0.  1.
</event>
<event>
 5   0  0.1571391E-06  0.3413739E+04  0.7818609E-02  0.8134543E-01
        1   -1    0    0  501    0  0.00000000000E+00  0.00000000000E+00  0.23301397108E+04  0.23301397108E+04  0.50400001928E-02 0.  1.
       -1   -1    0    0    0  501  0.00000000000E+00  0.00000000000E+00 -0.12503125414E+04  0.12503125414E+04  0.50400001928E-02 0. -1.
    10030    2    1    2    0    0  0.00000000000E+00  0.00000000000E+00  0.10798271695E+04  0.35804522522E+04  0.34137386564E+04 0.  0.
        1    1    3    3  502    0 -0.63705778230E+03  0.47936482435E+03 -0.10430193584E+04  0.13128300099E+04  0.50400001928E-02 0. -1.
       -1    1    3    3    0  502  0.63705778230E+03 -0.47936482435E+03  0.21228465279E+04  0.22676222423E+04  0.50400001928E-02 0.  1.
</event>
<event>
 5   0  0.4344980E-06  0.3447241E+04  0.7818609E-02  0.8126408E-01
       -2   -1    0    0    0  501  0.00000000000E+00  0.00000000000E+00  0.14454152789E+04  0.14454152789E+04  0.25500000920E-02 0. -1.
        2   -1    0    0  501    0  0.00000000000E+00  0.00000000000E+00 -0.20553735629E+04  0.20553735630E+04  0.25500000920E-02 0.  1.
    10030    2    1    2    0    0  0.00000000000E+00  0.00000000000E+00 -0.60995828408E+03  0.35007888418E+04  0.34472414198E+04 0.  0.
        3    1    3    3  502    0 -0.14865031156E+04  0.84706090244E+03 -0.92772369443E+02  0.17134206745E+04  0.10100000352E+00 0. -1.
       -3    1    3    3    0  502  0.14865031156E+04 -0.84706090244E+03 -0.51718591464E+03  0.17873681673E+04  0.10100000352E+00 0.  1.
</event>
<event>
 5   0  0.4344980E-06  0.3384994E+04  0.7818609E-02  0.8141599E-01
       -2   -1    0    0    0  501  0.00000000000E+00  0.00000000000E+00  0.12005244952E+04  0.12005244952E+04  0.25500000920E-02 0. -1.
        2   -1    0    0  501    0  0.00000000000E+00  0.00000000000E+00 -0.23860781986E+04  0.23860781986E+04  0.25500000920E-02 0.  1.
    10030    2    1    2    0    0  0.00000000000E+00  0.00000000000E+00 -0.11855537033E+04  0.35866026938E+04  0.33849935450E+04 0.  0.
        3    1    3    3  502    0 -0.69579119991E+03  0.11071222449E+04 -0.17313476906E+04  0.21696566307E+04  0.10100000352E+00 0. -1.
       -3    1    3    3    0  502  0.69579119991E+03 -0.11071222449E+04  0.54579398727E+03  0.14169460631E+04  0.10100000352E+00 0.  1.
</event>
<event>
 5   0  0.1550164E-06  0.3467369E+04  0.7818609E-02  0.8121567E-01
        1   -1    0    0  501    0  0.00000000000E+00  0.00000000000E+00  0.21338198272E+04  0.21338198272E+04  0.50400001928E-02 0.  1.
       -1   -1    0    0    0  501  0.00000000000E+00  0.00000000000E+00 -0.14085825368E+04  0.14085825368E+04  0.50400001928E-02 0. -1.
    10030    2    1    2    0    0  0.00000000000E+00  0.00000000000E+00  0.72523729040E+03  0.35424023640E+04  0.34673686538E+04 0.  0.
        4    1    3    3  502    0 -0.81995420093E+03 -0.13148653563E+04  0.11569159110E+04  0.19338179425E+04  0.12699999809E+01 0.  1.
       -4    1    3    3    0  502  0.81995420093E+03  0.13148653563E+04 -0.43167862062E+03  0.16085844215E+04  0.12699999809E+01 0. -1.
</event>
<event>
 5   0  0.1571391E-06  0.1923256E+04  0.7818609E-02  0.8643366E-01
       -1   -1    0    0    0  501  0.00000000000E+00  0.00000000000E+00  0.75311268564E+03  0.75311268566E+03  0.50400001928E-02 0. -1.
        1   -1    0    0  501    0  0.00000000000E+00  0.00000000000E+00 -0.12278749791E+04  0.12278749791E+04  0.50400001928E-02 0.  1.
    10030    2    1    2    0    0  0.00000000000E+00  0.00000000000E+00 -0.47476229349E+03  0.19809876648E+04  0.19232558053E+04 0.  0.
        1    1    3    3  502    0  0.35260623332E+03 -0.88379589619E+03 -0.38048276310E+03  0.10247894783E+04  0.50400001928E-02 0. -1.
       -1    1    3    3    0  502 -0.35260623332E+03  0.88379589619E+03 -0.94279530389E+02  0.95619818645E+03  0.50400001928E-02 0.  1.
</event>
<event>
 5   0  0.4189587E-06  0.3306571E+04  0.7818609E-02  0.8161226E-01
       -2   -1    0    0    0  501  0.00000000000E+00  0.00000000000E+00  0.14484121412E+04  0.14484121412E+04  0.25500000920E-02 0. -1.
        2   -1    0    0  501    0  0.00000000000E+00  0.00000000000E+00 -0.18871370716E+04  0.18871370716E+04  0.25500000920E-02 0.  1.
    10030    2    1    2    0    0  0.00000000000E+00  0.00000000000E+00 -0.43872493042E+03  0.33355492127E+04  0.33065705778E+04 0.  0.
        1    1    3    3  502    0 -0.74822575741E+03 -0.13464049312E+03  0.12616261559E+04  0.14729801098E+04  0.50400001928E-02 0. -1.
       -1    1    3    3    0  502  0.74822575741E+03  0.13464049312E+03 -0.17003510863E+04  0.18625691030E+04  0.50400001928E-02 0.  1.
</event>
<event>
 5   0  0.1562618E-06  0.3464988E+04  0.7818609E-02  0.8122138E-01
        1   -1    0    0  501    0  0.00000000000E+00  0.00000000000E+00  0.21817919846E+04  0.21817919846E+04  0.50400001928E-02 0.  1.
       -1   -1    0    0    0  501  0.00000000000E+00  0.00000000000E+00 -0.13757202749E+04  0.13757202749E+04  0.50400001928E-02 0. -1.
    10030    2    1    2    0    0  0.00000000000E+00  0.00000000000E+00  0.80607170973E+03  0.35575122595E+04  0.34649880051E+04 0.  0.
        2    1    3    3  502    0 -0.15225148853E+04 -0.67851805325E+03 -0.81908240332E+02  0.16688760542E+04  0.25500000920E-02 0. -1.
       -2    1    3    3    0  502  0.15225148853E+04  0.67851805325E+03  0.88797995007E+03  0.18886362053E+04  0.25500000920E-02 0.  1.
</event>
<event>
 5   0  0.4344980E-06  0.2089462E+04  0.7818609E-02  0.8565900E-01
        2   -1    0    0  501    0  0.00000000000E+00  0.00000000000E+00  0.12354194764E+04  0.12354194764E+04  0.25500000920E-02 0. -1.
       -2   -1    0    0    0  501  0.00000000000E+00  0.00000000000E+00 -0.88347586020E+03  0.88347586020E+03  0.25500000920E-02 0.  1.
    10030    2    1    2    0    0  0.00000000000E+00  0.00000000000E+00  0.35194361620E+03  0.21188953366E+04  0.20894624042E+04 0.  0.
        3    1    3    3  502    0  0.19890385262E+03  0.53882587851E+02 -0.86266117028E+03  0.88693313207E+03  0.10100000352E+00 0.  1.
       -3    1    3    3    0  502 -0.19890385262E+03 -0.53882587851E+02  0.12146047865E+04  0.12319622045E+04  0.10100000352E+00 0. -1.
</event>
<event>
 5   0  0.1401125E-06  0.3405183E+04  0.7818609E-02  0.8136635E-01
       -4   -1    0    0    0  501  0.00000000000E+00  0.00000000000E+00  0.12441077915E+04  0.12441084397E+04  0.12699999809E+01 0. -1.
        4   -1    0    0  501    0  0.00000000000E+00  0.00000000000E+00 -0.23300363177E+04  0.23300366638E+04  0.12699999809E+01 0.  1.
    10030    2    1    2    0    0  0.00000000000E+00  0.00000000000E+00 -0.10859285262E+04  0.35741451035E+04  0.34051831752E+04 0.  0.
        2    1    3    3  502    0 -0.74688119581E+03  0.15289315234E+04 -0.60376058836E+03  0.18055442315E+04  0.25500000920E-02 0. -1.
       -2    1    3    3    0  502  0.74688119581E+03 -0.15289315234E+04 -0.48216793786E+03  0.17686008720E+04  0.25500000920E-02 0.  1.
</event>
<event>
 5   0  0.2101998E-06  0.2476167E+04  0.7818609E-02  0.8411526E-01
       -1   -1    0    0    0  501  0.00000000000E+00  0.00000000000E+00  0.89095124385E+03  0.89095124386E+03  0.50400001928E-02 0.  1.
        1   -1    0    0  501    0  0.00000000000E+00  0.00000000000E+00 -0.17204654132E+04  0.17204654132E+04  0.50400001928E-02 0. -1.
    10030    2    1    2    0    0  0.00000000000E+00  0.00000000000E+00 -0.82951416935E+03  0.26114166571E+04  0.24761670379E+04 0.  0.
        5    1    3    3  502    0 -0.27148577713E+03 -0.41426654362E+03  0.78190381552E+03  0.92559006210E+03  0.46999998093E+01 0.  1.
       -5    1    3    3    0  502  0.27148577713E+03  0.41426654362E+03 -0.16114179849E+04  0.16858265950E+04  0.46999998093E+01 0. -1.
</event>
<event>
 5   0  0.1571391E-06  0.3306552E+04  0.7818609E-02  0.8161230E-01
        1   -1    0    0  501    0  0.00000000000E+00  0.00000000000E+00  0.20006156541E+04  0.20006156541E+04  0.50400001928E-02 0. -1.
       -1   -1    0    0    0  501  0.00000000000E+00  0.00000000000E+00 -0.13662405850E+04  0.13662405850E+04  0.50400001928E-02 0.  1.
    10030    2    1    2    0    0  0.00000000000E+00  0.00000000000E+00  0.63437506913E+03  0.33668562391E+04  0.33065524654E+04 0.  0.
        1    1    3    3  502    0 -0.15474779733E+04  0.58184468384E+03  0.30747482844E+03  0.16815980745E+04  0.50400001928E-02 0.  1.
       -1    1    3    3    0  502  0.15474779733E+04 -0.58184468384E+03  0.32690024070E+03  0.16852581646E+04  0.50400001928E-02 0. -1.
</event>
<event>
 5   0  0.4344980E-06  0.2728895E+04  0.7818609E-02  0.8325690E-01
        2   -1    0    0  501    0  0.00000000000E+00  0.00000000000E+00  0.21469882932E+04  0.21469882932E+04  0.25500000920E-02 0.  1.
       -2   -1    0    0    0  501  0.00000000000E+00  0.00000000000E+00 -0.86712978801E+03  0.86712978801E+03  0.25500000920E-02 0. -1.
    10030    2    1    2    0    0  0.00000000000E+00  0.00000000000E+00  0.12798585052E+04  0.30141180812E+04  0.27288953835E+04 0.  0.
        3    1    3    3  502    0  0.28069410949E+03  0.13227976317E+04  0.43887413536E+03  0.14216867709E+04  0.10100000352E+00 0.  1.
       -3    1    3    3    0  502 -0.28069410949E+03 -0.13227976317E+04  0.84098436985E+03  0.15924313103E+04  0.10100000352E+00 0. -1.
</event>
<event>
 5   0  0.1562618E-06  0.1924218E+04  0.7818609E-02  0.8642895E-01
        1   -1    0    0  501    0  0.00000000000E+00  0.00000000000E+00  0.12211556670E+04  0.12211556670E+04  0.50400001928E-02 0.  1.
       -1   -1    0    0    0  501  0.00000000000E+00  0.00000000000E+00 -0.75801448826E+03  0.75801448827E+03  0.50400001928E-02 0. -1.
    10030    2    1    2    0    0  0.00000000000E+00  0.00000000000E+00  0.46314117878E+03  0.19791701553E+04  0.19242179586E+04 0.  0.
        2    1    3    3  502    0 -0.47245544438E+03 -0.15487453448E+03  0.10787763259E+04  0.11878377961E+04  0.25500000920E-02 0.  1.
       -2    1    3    3    0  502  0.47245544438E+03  0.15487453448E+03 -0.61563514716E+03  0.79133235925E+03  0.25500000920E-02 0. -1.
</event>
<event>
 5   0  0.1571391E-06  0.2999306E+04  0.7818609E-02  0.8243929E-01
        1   -1    0    0  501    0  0.00000000000E+00  0.00000000000E+00  0.12214372325E+04  0.12214372325E+04  0.50400001928E-02 0.  1.
       -1   -1    0    0    0  501  0.00000000000E+00  0.00000000000E+00 -0.18412403691E+04  0.18412403691E+04  0.50400001928E-02 0. -1.
    10030    2    1    2    0    0  0.00000000000E+00  0.00000000000E+00 -0.61980313662E+03  0.30626776017E+04  0.29993062804E+04 0.  0.
        1    1    3    3  502    0 -0.12324356113E+04 -0.76402398368E+03 -0.70051412303E+03  0.16103882204E+04  0.50400001928E-02 0. -1.
       -1    1    3    3    0  502  0.12324356113E+04  0.76402398368E+03  0.80710986408E+02  0.14522893813E+04  0.50400001928E-02 0.  1.
</event>
<event>
 5   0  0.4344980E-06  0.1802590E+04  0.7818609E-02  0.8704923E-01
       -2   -1    0    0    0  501  0.00000000000E+00  0.00000000000E+00  0.74655964712E+03  0.74655964712E+03  0.25500000920E-02 0. -1.
        2   -1    0    0  501    0  0.00000000000E+00  0.00000000000E+00 -0.10881018871E+04  0.10881018871E+04  0.25500000920E-02 0.  1.
    10030    2    1    2    0    0  0.00000000000E+00  0.00000000000E+00 -0.34154224002E+03  0.18346615343E+04  0.18025903150E+04 0.  0.
        3    1    3    3  502    0  0.17857442753E+03 -0.16010895298E+03 -0.10550261286E+04  0.10819444742E+04  0.10100000352E+00 0.  1.
       -3    1    3    3    0  502 -0.17857442753E+03  0.16010895298E+03  0.71348388861E+03  0.75271706005E+03  0.10100000352E+00 0. -1.
</event>
<event>
 5   0  0.4400349E-06  0.1694497E+04  0.7818609E-02  0.8764509E-01
        2   -1    0    0  501    0  0.00000000000E+00  0.00000000000E+00  0.12770623148E+04  0.12770623148E+04  0.25500000920E-02 0.  1.
       -2   -1    0    0    0  501  0.00000000000E+00  0.00000000000E+00 -0.56209460136E+03  0.56209460136E+03  0.25500000920E-02 0. -1.
    10030    2    1    2    0    0  0.00000000000E+00  0.00000000000E+00  0.71496771340E+03  0.18391569161E+04  0.16944967781E+04 0.  0.
        5    1    3    3  502    0  0.31926884444E+03 -0.77804393017E+03  0.46882187778E+03  0.96286083905E+03  0.46999998093E+01 0.  1.
       -5    1    3    3    0  502 -0.31926884444E+03  0.77804393017E+03  0.24614583563E+03  0.87629607708E+03  0.46999998093E+01 0. -1.
</event>
<event>
 5   0  0.4173467E-06  0.1730164E+04  0.7818609E-02  0.8744345E-01
        2   -1    0    0  501    0  0.00000000000E+00  0.00000000000E+00  0.67731765799E+03  0.67731765800E+03  0.25500000920E-02 0. -1.
       -2   -1    0    0    0  501  0.00000000000E+00  0.00000000000E+00 -0.11048981986E+04  0.11048981986E+04  0.25500000920E-02 0.  1.
    10030    2    1    2    0    0  0.00000000000E+00  0.00000000000E+00 -0.42758054057E+03  0.17822158566E+04  0.17301642236E+04 0.  0.
        4    1    3    3  502    0  0.46668686388E+03 -0.16332337938E+03  0.51742069475E+03  0.71567935797E+03  0.12699999809E+01 0. -1.
       -4    1    3    3    0  502 -0.46668686388E+03  0.16332337938E+03 -0.94500123531E+03  0.10665364986E+04  0.12699999809E+01 0.  1.
</event>
<event>
 5   0  0.1562618E-06  0.3324883E+04  0.7818609E-02  0.8156593E-01
       -1   -1    0    0    0  501  0.00000000000E+00  0.00000000000E+00  0.12226001232E+04  0.12226001232E+04  0.50400001928E-02 0.  1.
        1   -1    0    0  501    0  0.00000000000E+00  0.00000000000E+00 -0.22605202901E+04  0.22605202901E+04  0.50400001928E-02 0. -1.
    10030    2    1    2    0    0  0.00000000000E+00  0.00000000000E+00 -0.10379201669E+04  0.34831204133E+04  0.33248833876E+04 0.  0.
        2    1    3    3  502    0  0.11206809400E+04 -0.70322642400E+03 -0.15734740860E+04  0.20557903279E+04  0.25500000920E-02 0. -1.
       -2    1    3    3    0  502 -0.11206809400E+04  0.70322642400E+03  0.53555391913E+03  0.14273300855E+04  0.25500000920E-02 0.  1.
</event>
<event>
 5   0  0.1654257E-06  0.2986548E+04  0.7818609E-02  0.8247583E-01
       -1   -1    0    0    0  501  0.00000000000E+00  0.00000000000E+00  0.14347228612E+04  0.14347228612E+04  0.50400001928E-02 0. -1.
        1   -1    0    0  501    0  0.00000000000E+00  0.00000000000E+00 -0.15542145133E+04  0.15542145133E+04  0.50400001928E-02 0.  1.
    10030    2    1    2    0    0  0.00000000000E+00  0.00000000000E+00 -0.11949165212E+03  0.29889373745E+04  0.29865479025E+04 0.  0.
        3    1    3    3  502    0 -0.10425111647E+04 -0.10583641058E+04  0.91712542229E+02  0.14884136890E+04  0.10100000352E+00 0.  1.
       -3    1    3    3    0  502  0.10425111647E+04  0.10583641058E+04 -0.21120419435E+03  0.15005236855E+04  0.10100000352E+00 0. -1.
</event>
<event>
 5   0  0.1571391E-06  0.3704673E+04  0.7818609E-02  0.8066927E-01
        1   -1    0    0  501    0  0.00000000000E+00  0.00000000000E+00  0.16397411160E+04  0.16397411160E+04  0.50400001928E-02 0. -1.
       -1   -1    0    0    0  501  0.00000000000E+00  0.00000000000E+00 -0.20924952266E+04  0.20924952266E+04  0.50400001928E-02 0.  1.
    10030    2    1    2    0    0  0.00000000000E+00  0.00000000000E+00 -0.45275411059E+03  0.37322363426E+04  0.37046729724E+04 0.  0.
        1    1    3    3  502    0  0.12757810792E+04  0.35764756646E+03  0.10777118454E+04  0.17079203628E+04  0.50400001928E-02 0. -1.
       -1    1    3    3    0  502 -0.12757810792E+04 -0.35764756646E+03 -0.15304659560E+04  0.20243159799E+04  0.50400001928E-02 0.  1.
</event>
<event>
 5   0  0.2722449E-06  0.2821250E+04  0.7818609E-02  0.8296701E-01
        2   -1    0    0  501    0  0.00000000000E+00  0.00000000000E+00  0.15754703054E+04  0.15754703054E+04  0.25500000920E-02 0.  1.
       -2   -1    0    0    0  501  0.00000000000E+00  0.00000000000E+00 -0.12630281855E+04  0.12630281855E+04  0.25500000920E-02 0. -1.
    10030    2    1    2    0    0  0.00000000000E+00  0.00000000000E+00  0.31244211991E+03  0.28384984909E+04  0.28212503619E+04 0.  0.
        2    1    3    3  502    0 -0.48799200542E+03  0.11416281115E+04  0.82995104308E+03  0.14934087438E+04  0.25500000920E-02 0.  1.
       -2    1    3    3    0  502  0.48799200542E+03 -0.11416281115E+04 -0.51750892317E+03  0.13450897471E+04  0.25500000920E-02 0. -1.
</event>
<event>
 5   0  0.1571391E-06  0.3446524E+04  0.7818609E-02  0.8126581E-01
        1   -1    0    0  501    0  0.00000000000E+00  0.00000000000E+00  0.16152452237E+04  0.16152452237E+04  0.50400001928E-02 0. -1.
       -1   -1    0    0    0  501  0.00000000000E+00  0.00000000000E+00 -0.18385023489E+04  0.18385023489E+04  0.50400001928E-02 0.  1.
    10030    2    1    2    0    0  0.00000000000E+00  0.00000000000E+00 -0.22325712523E+03  0.34537475726E+04  0.34465241261E+04 0.  0.
        1    1    3    3  502    0 -0.30586491988E+03  0.16557556648E+04  0.25595348732E+03  0.17031125501E+04  0.50400001928E-02 0. -1.
       -1    1    3    3    0  502  0.30586491988E+03 -0.16557556648E+04 -0.47921061255E+03  0.17506350225E+04  0.50400001928E-02 0.  1.
</event>
<event>
 5   0  0.4400349E-06  0.3241719E+04  0.7818609E-02  0.8177885E-01
       -2   -1    0    0    0  501  0.00000000000E+00  0.00000000000E+00  0.11382948671E+04  0.11382948671E+04  0.25500000920E-02 0. -1.
        2   -1    0    0  501    0  0.00000000000E+00  0.00000000000E+00 -0.23080007908E+04  0.23080007908E+04  0.25500000920E-02 0.  1.
    10030    2    1    2    0    0  0.00000000000E+00  0.00000000000E+00 -0.11697059237E+04  0.34462956578E+04  0.32417189596E+04 0.  0.
        5    1    3    3  502    0  0.15190929932E+03  0.15915339199E+04 -0.30136640812E+03  0.16269297635E+04  0.46999998093E+01 0. -1.
       -5    1    3    3    0  502 -0.15190929932E+03 -0.15915339199E+04 -0.86833951560E+03  0.18193658944E+04  0.46999998093E+01 0.  1.
</event>
<event>
 5   0  0.1550164E-06  0.3271012E+04  0.7818609E-02  0.8170311E-01
        1   -1    0    0  501    0  0.00000000000E+00  0.00000000000E+00  0.17877543257E+04  0.17877543257E+04  0.50400001928E-02 0. -1.
       -1   -1    0    0    0  501  0.00000000000E+00  0.00000000000E+00 -0.14962234824E+04  0.14962234824E+04  0.50400001928E-02 0.  1.
    10030    2    1    2    0    0  0.00000000000E+00  0.00000000000E+00  0.29153084329E+03  0.32839778081E+04  0.32710120776E+04 0.  0.
        4    1    3    3  502    0 -0.71729194222E+03 -0.59040795940E+03  0.14971279970E+04  0.17619543527E+04  0.12699999809E+01 0. -1.
       -4    1    3    3    0  502  0.71729194222E+03  0.59040795940E+03 -0.12055971537E+04  0.15220234554E+04  0.12699999809E+01 0.  1.
</event>
<event>
 5   0  0.4189587E-06  0.3414947E+04  0.7818609E-02  0.8134247E-01
        2   -1    0    0  501    0  0.00000000000E+00  0.00000000000E+00  0.17599354891E+04  0.17599354891E+04  0.25500000920E-02 0. -1.
       -2   -1    0    0    0  501  0.00000000000E+00  0.00000000000E+00 -0.16565756926E+04  0.16565756926E+04  0.25500000920E-02 0.  1.
    10030    2    1    2    0    0  0.00000000000E+00  0.00000000000E+00  0.10335979649E+03  0.34165111817E+04  0.34149473506E+04 0.  0.
        1    1    3    3  502    0  0.16484847323E+04  0.18149149893E+03 -0.35473916128E+03  0.16959601851E+04  0.50400001928E-02 0.  1.
       -1    1    3    3    0  502 -0.16484847323E+04 -0.18149149893E+03  0.45809895778E+03  0.17205509966E+04  0.50400001928E-02 0. -1.
</event>
<event>
 5   0  0.4189587E-06  0.2754069E+04  0.7818609E-02  0.8317672E-01
       -2   -1    0    0    0  501  0.00000000000E+00  0.00000000000E+00  0.20987708383E+04  0.20987708383E+04  0.25500000920E-02 0.  1.
        2   -1    0    0  501    0  0.00000000000E+00  0.00000000000E+00 -0.90349275244E+03  0.90349275245E+03  0.25500000920E-02 0. -1.
    10030    2    1    2    0    0  0.00000000000E+00  0.00000000000E+00  0.11952780858E+04  0.30022635907E+04  0.27540691650E+04 0.  0.
        1    1    3    3  502    0 -0.11300434750E+04 -0.73699030987E+03  0.89830503463E+03  0.16208346330E+04  0.50400001928E-02 0. -1.
       -1    1    3    3    0  502  0.11300434750E+04  0.73699030987E+03  0.29697305120E+03  0.13814289578E+04  0.50400001928E-02 0.  1.
</event>
<event>
 5   0  0.4400349E-06  0.1840723E+04  0.7818609E-02  0.8684938E-01
       -2   -1    0    0    0  501  0.00000000000E+00  0.00000000000E+00  0.91758019162E+03  0.91758019163E+03  0.25500000920E-02 0. -1.
        2   -1    0    0  501    0  0.00000000000E+00  0.00000000000E+00 -0.92315091400E+03  0.92315091400E+03  0.25500000920E-02 0.  1.
    10030    2    1    2    0    0  0.00000000000E+00  0.00000000000E+00 -0.55707223740E+01  0.18407311056E+04  0.18407226761E+04 0.  0.
        5    1    3    3  502    0 -0.40187163506E+03 -0.82319342558E+03  0.86067032677E+02  0.92009665313E+03  0.46999998093E+01 0. -1.
       -5    1    3    3    0  502  0.40187163506E+03  0.82319342558E+03 -0.91637755051E+02  0.92063445250E+03  0.46999998093E+01 0.  1.
</event>
<event>
 5   0  0.1401125E-06  0.3396876E+04  0.7818609E-02  0.8138674E-01
       -3   -1    0    0    0  501  0.00000000000E+00  0.00000000000E+00  0.18545914460E+04  0.18545914487E+04  0.10100000352E+00 0.  1.
        3   -1    0    0  501    0  0.00000000000E+00  0.00000000000E+00 -0.15554320196E+04  0.15554320229E+04  0.10100000352E+00 0. -1.
    10030    2    1    2    0    0  0.00000000000E+00  0.00000000000E+00  0.29915942634E+03  0.34100234717E+04  0.33968755813E+04 0.  0.
        3    1    3    3  502    0  0.49522327987E+03  0.50889457877E+03  0.16984290978E+04  0.18408914144E+04  0.10100000352E+00 0.  1.
       -3    1    3    3    0  502 -0.49522327987E+03 -0.50889457877E+03 -0.13992696715E+04  0.15691320572E+04  0.10100000352E+00 0. -1.
</event>
<event>
 5   0  0.2101998E-06  0.3406705E+04  0.7818609E-02  0.8136263E-01
       -1   -1    0    0    0  501  0.00000000000E+00  0.00000000000E+00  0.10799324398E+04  0.10799324399E+04  0.50400001928E-02 0.  1.
        1   -1    0    0  501    0  0.00000000000E+00  0.00000000000E+00 -0.26866591889E+04  0.26866591889E+04  0.50400001928E-02 0. -1.
    10030    2    1    2    0    0  0.00000000000E+00  0.00000000000E+00 -0.16067267490E+04  0.37665916287E+04  0.34067053955E+04 0.  0.
        5    1    3    3  502    0  0.94304652965E+03  0.12825206107E+04 -0.13338493132E+03  0.15975010184E+04  0.46999998093E+01 0.  1.
       -5    1    3    3    0  502 -0.94304652965E+03 -0.12825206107E+04 -0.14733418177E+04  0.21690906103E+04  0.46999998093E+01 0. -1.
</event>
<event>
 5   0  0.4400349E-06  0.3467424E+04  0.7818609E-02  0.8121554E-01
       -2   -1    0    0    0  501  0.00000000000E+00  0.00000000000E+00  0.16422465335E+04  0.16422465335E+04  0.25500000920E-02 0. -1.
        2   -1    0    0  501    0  0.00000000000E+00  0.00000000000E+00 -0.18302716192E+04  0.18302716192E+04  0.25500000920E-02 0.  1.
    10030    2    1    2    0    0  0.00000000000E+00  0.00000000000E+00 -0.18802508574E+03  0.34725181527E+04  0.34674239556E+04 0.  0.
        5    1    3    3  502    0 -0.16210784048E+04  0.36648493478E+03  0.40019876885E+03  0.17094992092E+04  0.46999998093E+01 0. -1.
       -5    1    3    3    0  502  0.16210784048E+04 -0.36648493478E+03 -0.58822385459E+03  0.17630189434E+04  0.46999998093E+01 0.  1.
</event>
<event>
 5   0  0.4189587E-06  0.3391963E+04  0.7818609E-02  0.8139882E-01
        2   -1    0    0  501    0  0.00000000000E+00  0.00000000000E+00  0.11802140994E+04  0.11802140994E+04  0.25500000920E-02 0. -1.
       -2   -1    0    0    0  501  0.00000000000E+00  0.00000000000E+00 -0.24371453169E+04  0.24371453169E+04  0.25500000920E-02 0.  1.
    10030    2    1    2    0    0  0.00000000000E+00  0.00000000000E+00 -0.12569312175E+04  0.36173594164E+04  0.33919630101E+04 0.  0.
        1    1    3    3  502    0 -0.88741506484E+03 -0.79805397244E+03  0.65657699176E+03  0.13621633479E+04  0.50400001928E-02 0. -1.
       -1    1    3    3    0  502  0.88741506484E+03  0.79805397244E+03 -0.19135082093E+04  0.22551960685E+04  0.50400001928E-02 0.  1.
</event>
<event>
 5   0  0.2101998E-06  0.3373569E+04  0.7818609E-02  0.8144424E-01
        1   -1    0    0  501    0  0.00000000000E+00  0.00000000000E+00  0.13022058822E+04  0.13022058822E+04  0.50400001928E-02 0. -1.
       -1   -1    0    0    0  501  0.00000000000E+00  0.00000000000E+00 -0.21849405128E+04  0.21849405128E+04  0.50400001928E-02 0.  1.
    10030    2    1    2    0    0  0.00000000000E+00  0.00000000000E+00 -0.88273463057E+03  0.34871463950E+04  0.33735692601E+04 0.  0.
        5    1    3    3  502    0 -0.51772680133E+02 -0.70799158800E+03 -0.20230084457E+04  0.21439491040E+04  0.46999998093E+01 0.  1.
       -5    1    3    3    0  502  0.51772680133E+02  0.70799158800E+03  0.11402738152E+04  0.13431972910E+04  0.46999998093E+01 0. -1.
</event>
<event>
 5   0  0.1562618E-06  0.2057295E+04  0.7818609E-02  0.8580292E-01
       -1   -1    0    0    0  501  0.00000000000E+00  0.00000000000E+00  0.81923610991E+03  0.81923610992E+03  0.50400001928E-02 0.  1.
        1   -1    0    0  501    0  0.00000000000E+00  0.00000000000E+00 -0.12915884662E+04  0.12915884662E+04  0.50400001928E-02 0. -1.
    10030    2    1    2    0    0  0.00000000000E+00  0.00000000000E+00 -0.47235235629E+03  0.21108245761E+04  0.20572952250E+04 0.  0.
        2    1    3    3  502    0  0.37519244093E+03  0.14906733678E+03  0.73455165431E+03  0.83818647775E+03  0.25500000920E-02 0.  1.
       -2    1    3    3    0  502 -0.37519244093E+03 -0.14906733678E+03 -0.12069040106E+04  0.12726380984E+04  0.25500000920E-02 0. -1.
</event>
<event>
 5   0  0.2722449E-06  0.2082725E+04  0.7818609E-02  0.8568892E-01
       -2   -1    0    0    0  501  0.00000000000E+00  0.00000000000E+00  0.71774647211E+03  0.71774647211E+03  0.25500000920E-02 0.  1.
        2   -1    0    0  501    0  0.00000000000E+00  0.00000000000E+00 -0.15108899246E+04  0.15108899246E+04  0.25500000920E-02 0. -1.
    10030    2    1    2    0    0  0.00000000000E+00  0.00000000000E+00 -0.79314345249E+03  0.22286363967E+04  0.20827250545E+04 0.  0.
        2    1    3    3  502    0  0.77709968032E+02  0.10310123442E+04 -0.26373525394E+03  0.10670433812E+04  0.25500000920E-02 0.  1.
       -2    1    3    3    0  502 -0.77709968032E+02 -0.10310123442E+04 -0.52940819855E+03  0.11615930156E+04  0.25500000920E-02 0. -1.
</event>
<event>
 5   0  0.4189587E-06  0.3387585E+04  0.7818609E-02  0.8140960E-01
       -2   -1    0    0    0  501  0.00000000000E+00  0.00000000000E+00  0.10780759014E+04  0.10780759014E+04  0.25500000920E-02 0.  1.
        2   -1    0    0  501    0  0.00000000000E+00  0.00000000000E+00 -0.26611609649E+04  0.26611609649E+04  0.25500000920E-02 0. -1.
    10030    2    1    2    0    0  0.00000000000E+00  0.00000000000E+00 -0.15830850635E+04  0.37392368663E+04  0.33875852792E+04 0.  0.
        1    1    3    3  502    0 -0.15853447364E+04 -0.43345663968E+03 -0.12436058798E+04  0.20610090189E+04  0.50400001928E-02 0. -1.
       -1    1    3    3    0  502  0.15853447364E+04  0.43345663968E+03 -0.33947918378E+03  0.16782278474E+04  0.50400001928E-02 0.  1.
</event>
<event>
 5   0  0.4344980E-06  0.2796530E+04  0.7818609E-02  0.8304347E-01
        2   -1    0    0  501    0  0.00000000000E+00  0.00000000000E+00  0.21405034581E+04  0.21405034581E+04  0.25500000920E-02 0. -1.
       -2   -1    0    0    0  501  0.00000000000E+00  0.00000000000E+00 -0.91340412278E+03  0.91340412279E+03  0.25500000920E-02 0.  1.
    10030    2    1    2    0    0  0.00000000000E+00  0.00000000000E+00  0.12270993354E+04  0.30539075809E+04  0.27965297663E+04 0.  0.
        3    1    3    3  502    0 -0.51804971119E+03  0.97092301564E+03 -0.32843878441E+03  0.11484507177E+04  0.10100000352E+00 0.  1.
       -3    1    3    3    0  502  0.51804971119E+03 -0.97092301564E+03  0.15555381198E+04  0.19054568633E+04  0.10100000352E+00 0. -1.
</event>
<event>
 5   0  0.4400349E-06  0.3452043E+04  0.7818609E-02  0.8125250E-01
        2   -1    0    0  501    0  0.00000000000E+00  0.00000000000E+00  0.26991223464E+04  0.26991223464E+04  0.25500000920E-02 0.  1.
       -2   -1    0    0    0  501  0.00000000000E+00  0.00000000000E+00 -0.11037474796E+04  0.11037474796E+04  0.25500000920E-02 0. -1.
    10030    2    1    2    0    0  0.00000000000E+00  0.00000000000E+00  0.15953748668E+04  0.38028698259E+04  0.34520425761E+04 0.  0.
        5    1    3    3  502    0 -0.16548246883E+04  0.40465409316E+03  0.11032533787E+04  0.20296255299E+04  0.46999998093E+01 0.  1.
       -5    1    3    3    0  502  0.16548246883E+04 -0.40465409316E+03  0.49212148808E+03  0.17732442960E+04  0.46999998093E+01 0. -1.
</event>
<event>
 5   0  0.4400349E-06  0.1848030E+04  0.7818609E-02  0.8681167E-01
        2   -1    0    0  501    0  0.00000000000E+00  0.00000000000E+00  0.11066945159E+04  0.11066945159E+04  0.25500000920E-02 0. -1.
       -2   -1    0    0    0  501  0.00000000000E+00  0.00000000000E+00 -0.77149001934E+03  0.77149001934E+03  0.25500000920E-02 0.  1.
    10030    2    1    2    0    0  0.00000000000E+00  0.00000000000E+00  0.33520449652E+03  0.18781845352E+04  0.18480300576E+04 0.  0.
        5    1    3    3  502    0 -0.96037054393E+02  0.53812975015E+03 -0.58951983920E+03  0.80396671238E+03  0.46999998093E+01 0.  1.
       -5    1    3    3    0  502  0.96037054393E+02 -0.53812975015E+03  0.92472433571E+03  0.10742178228E+04  0.46999998093E+01 0. -1.
</event>
<event>
 5   0  0.2101998E-06  0.2907593E+04  0.7818609E-02  0.8270622E-01
       -1   -1    0    0    0  501  0.00000000000E+00  0.00000000000E+00  0.92958719003E+03  0.92958719004E+03  0.50400001928E-02 0. -1.
        1   -1    0    0  501    0  0.00000000000E+00  0.00000000000E+00 -0.22736163348E+04  0.22736163348E+04  0.50400001928E-02 0.  1.
    10030    2    1    2    0    0  0.00000000000E+00  0.00000000000E+00 -0.13440291448E+04  0.32032035249E+04  0.29075932452E+04 0.  0.
        5    1    3    3  502    0  0.24675799330E+03  0.32376871379E+03 -0.22095374846E+04  0.22467295505E+04  0.46999998093E+01 0.  1.
       -5    1    3    3    0  502 -0.24675799330E+03 -0.32376871379E+03  0.86550833982E+03  0.95647397434E+03  0.46999998093E+01 0. -1.
</event>
<event>
 5   0  0.4173467E-06  0.2033898E+04  0.7818609E-02  0.8590934E-01
        2   -1    0    0  501    0  0.00000000000E+00  0.00000000000E+00  0.12402607087E+04  0.12402607087E+04  0.25500000920E-02 0.  1.
       -2   -1    0    0    0  501  0.00000000000E+00  0.00000000000E+00 -0.83384498087E+03  0.83384498087E+03  0.25500000920E-02 0. -1.
    10030    2    1    2    0    0  0.00000000000E+00  0.00000000000E+00  0.40641572782E+03  0.20741056896E+04  0.20338979000E+04 0.  0.
        4    1    3    3  502    0 -0.10014690278E+04  0.13613702508E+02  0.23491124469E+02  0.10018378074E+04  0.12699999809E+01 0. -1.
       -4    1    3    3    0  502  0.10014690278E+04 -0.13613702508E+02  0.38292460336E+03  0.10722678822E+04  0.12699999809E+01 0.  1.
</event>
<event>
 5   0  0.4400349E-06  0.2566517E+04  0.7818609E-02  0.8379664E-01
       -2   -1    0    0    0  501  0.00000000000E+00  0.00000000000E+00  0.87303984589E+03  0.87303984589E+03  0.25500000920E-02 0.  1.
        2   -1    0    0  501    0  0.00000000000E+00  0.00000000000E+00 -0.18862284567E+04  0.18862284567E+04  0.25500000920E-02 0. -1.
    10030    2    1    2    0    0  0.00000000000E+00  0.00000000000E+00 -0.10131886108E+04  0.27592683026E+04  0.25665171740E+04 0.  0.
        5    1    3    3  502    0 -0.70440083871E+03  0.99833197551E+03 -0.92833490662E+03  0.15344950517E+04  0.46999998093E+01 0. -1.
       -5    1    3    3    0  502  0.70440083871E+03 -0.99833197551E+03 -0.84853704164E+02  0.12247732509E+04  0.46999998093E+01 0.  1.
</event>
<event>
 5   0  0.1562618E-06  0.3406732E+04  0.7818609E-02  0.8136256E-01
        1   -1    0    0  501    0  0.00000000000E+00  0.00000000000E+00  0.14531435976E+04  0.14531435976E+04  0.50400001928E-02 0.  1.
       -1   -1    0    0    0  501  0.00000000000E+00  0.00000000000E+00 -0.19966747838E+04  0.19966747838E+04  0.50400001928E-02 0. -1.
    10030    2    1    2    0    0  0.00000000000E+00  0.00000000000E+00 -0.54353118622E+03  0.34498183814E+04  0.34067316762E+04 0.  0.
        2    1    3    3  502    0  0.12671035329E+03  0.45024027625E+03  0.13868395617E+04  0.14635900348E+04  0.25500000920E-02 0.  1.
       -2    1    3    3    0  502 -0.12671035329E+03 -0.45024027625E+03 -0.19303707480E+04  0.19862283465E+04  0.25500000920E-02 0. -1.
</event>
<event>
 5   0  0.1571391E-06  0.3482654E+04  0.7818609E-02  0.8117913E-01
        1   -1    0    0  501    0  0.00000000000E+00  0.00000000000E+00  0.19115425050E+04  0.19115425050E+04  0.50400001928E-02 0. -1.
       -1   -1    0    0    0  501  0.00000000000E+00  0.00000000000E+00 -0.15862681868E+04  0.15862681868E+04  0.50400001928E-02 0.  1.
    10030    2    1    2    0    0  0.00000000000E+00  0.00000000000E+00  0.32527431824E+03  0.34978106918E+04  0.34826536224E+04 0.  0.
        1    1    3    3  502    0 -0.14956258354E+04 -0.29161189203E+03  0.10090891252E+04  0.18276200364E+04  0.50400001928E-02 0. -1.
       -1    1    3    3    0  502  0.14956258354E+04  0.29161189203E+03 -0.68381480696E+03  0.16701906553E+04  0.50400001928E-02 0.  1.
</event>
<event>
 5   0  0.4189587E-06  0.3389214E+04  0.7818609E-02  0.8140559E-01
        2   -1    0    0  501    0  0.00000000000E+00  0.00000000000E+00  0.15532832534E+04  0.15532832534E+04  0.25500000920E-02 0. -1.
       -2   -1    0    0    0  501  0.00000000000E+00  0.00000000000E+00 -0.18487885965E+04  0.18487885965E+04  0.25500000920E-02 0.  1.
    10030    2    1    2    0    0  0.00000000000E+00  0.00000000000E+00 -0.29550534311E+03  0.34020718500E+04  0.33892136941E+04 0.  0.
        1    1    3    3  502    0 -0.13099733394E+04  0.49889864709E+03 -0.11036060292E+04  0.17840617360E+04  0.50400001928E-02 0.  1.
       -1    1    3    3    0  502  0.13099733394E+04 -0.49889864709E+03  0.80810068614E+03  0.16180101140E+04  0.50400001928E-02 0. -1.
</event>
<event>
 5   0  0.1562618E-06  0.1875118E+04  0.7818609E-02  0.8667342E-01
        1   -1    0    0  501    0  0.00000000000E+00  0.00000000000E+00  0.14409567025E+04  0.14409567026E+04  0.50400001928E-02 0. -1.
       -1   -1    0    0    0  501  0.00000000000E+00  0.00000000000E+00 -0.61002317040E+03  0.61002317043E+03  0.50400001928E-02 0.  1.
    10030    2    1    2    0    0  0.00000000000E+00  0.00000000000E+00  0.83093353214E+03  0.20509798730E+04  0.18751181042E+04 0.  0.
        2    1    3    3  502    0 -0.69213314040E+03  0.57587334272E+03  0.12953279004E+03  0.90964670868E+03  0.25500000920E-02 0.  1.
       -2    1    3    3    0  502  0.69213314040E+03 -0.57587334272E+03  0.70140074210E+03  0.11413331643E+04  0.25500000920E-02 0. -1.
</event>
<event>
 5   0  0.1562618E-06  0.3361753E+04  0.7818609E-02  0.8147358E-01
        1   -1    0    0  501    0  0.00000000000E+00  0.00000000000E+00  0.19372010377E+04  0.19372010377E+04  0.50400001928E-02 0. -1.
       -1   -1    0    0    0  501  0.00000000000E+00  0.00000000000E+00 -0.14584683216E+04  0.14584683216E+04  0.50400001928E-02 0.  1.
    10030    2    1    2    0    0  0.00000000000E+00  0.00000000000E+00  0.47873271613E+03  0.33956693594E+04  0.33617533200E+04 0.  0.
        2    1    3    3  502    0 -0.12969078836E+04 -0.22663576252E+03  0.12949031165E+04  0.18466477489E+04  0.25500000920E-02 0. -1.
       -2    1    3    3    0  502  0.12969078836E+04  0.22663576252E+03 -0.81617040032E+03  0.15490216105E+04  0.25500000920E-02 0.  1.
</event>
<event>
 5   0  0.1654257E-06  0.3501836E+04  0.7818609E-02  0.8113355E-01
       -1   -1    0    0    0  501  0.00000000000E+00  0.00000000000E+00  0.11792171779E+04  0.11792171779E+04  0.50400001928E-02 0.  1.
        1   -1    0    0  501    0  0.00000000000E+00  0.00000000000E+00 -0.25997870083E+04  0.25997870083E+04  0.50400001928E-02 0. -1.
    10030    2    1    2    0    0  0.00000000000E+00  0.00000000000E+00 -0.14205698304E+04  0.37790041862E+04  0.35018358037E+04 0.  0.
        3    1    3    3  502    0 -0.21660832665E+03 -0.52946915375E+03 -0.24960919784E+04  0.25608068898E+04  0.10100000352E+00 0. -1.
       -3    1    3    3    0  502  0.21660832665E+03  0.52946915375E+03  0.10755221480E+04  0.12181972964E+04  0.10100000352E+00 0.  1.
</event>
<event>
 5   0  0.2722449E-06  0.3024487E+04  0.7818609E-02  0.8236773E-01
        2   -1    0    0  501    0  0.00000000000E+00  0.00000000000E+00  0.13771701120E+04  0.13771701120E+04  0.25500000920E-02 0.  1.
       -2   -1    0    0    0  501  0.00000000000E+00  0.00000000000E+00 -0.16605648878E+04  0.16605648878E+04  0.25500000920E-02 0. -1.
    10030    2    1    2    0    0  0.00000000000E+00  0.00000000000E+00 -0.28339477583E+03  0.30377349999E+04  0.30244869532E+04 0.  0.
        2    1    3    3  502    0  0.13406278470E+03 -0.90196699708E+03  0.10699711750E+04  0.14058291537E+04  0.25500000920E-02 0.  1.
       -2    1    3    3    0  502 -0.13406278470E+03  0.90196699708E+03 -0.13533659508E+04  0.16319058462E+04  0.25500000920E-02 0. -1.
</event>
<event>
 5   0  0.2722449E-06  0.2374675E+04  0.7818609E-02  0.8449046E-01
       -2   -1    0    0    0  501  0.00000000000E+00  0.00000000000E+00  0.13061625208E+04  0.13061625208E+04  0.25500000920E-02 0. -1.
        2   -1    0    0  501    0  0.00000000000E+00  0.00000000000E+00 -0.10793222335E+04  0.10793222336E+04  0.25500000920E-02 0.  1.
    10030    2    1    2    0    0  0.00000000000E+00  0.00000000000E+00  0.22684028720E+03  0.23854847543E+04  0.23746749245E+04 0.  0.
        2    1    3    3  502    0 -0.16155173904E+03  0.45717086676E+03 -0.97533368121E+03  0.10892107030E+04  0.25500000920E-02 0.  1.
       -2    1    3    3    0  502  0.16155173904E+03 -0.45717086676E+03  0.12021739684E+04  0.12962740513E+04  0.25500000920E-02 0. -1.
</event>
<event>
 5   0  0.4400349E-06  0.3384957E+04  0.7818609E-02  0.8141608E-01
       -2   -1    0    0    0  501  0.00000000000E+00  0.00000000000E+00  0.14246203649E+04  0.14246203649E+04  0.25500000920E-02 0. -1.
        2   -1    0    0  501    0  0.00000000000E+00  0.00000000000E+00 -0.20106994797E+04  0.20106994797E+04  0.25500000920E-02 0.  1.
    10030    2    1    2    0    0  0.00000000000E+00  0.00000000000E+00 -0.58607911480E+03  0.34353198446E+04  0.33849569726E+04 0.  0.
        5    1    3    3  502    0 -0.16464937879E+04 -0.30035797012E+03 -0.37691961922E+02  0.16740966154E+04  0.46999998093E+01 0. -1.
       -5    1    3    3    0  502  0.16464937879E+04  0.30035797012E+03 -0.54838715288E+03  0.17612232292E+04  0.46999998093E+01 0.  1.
</event>
<event>
 5   0  0.4189587E-06  0.3023152E+04  0.7818609E-02  0.8237151E-01
        2   -1    0    0  501    0  0.00000000000E+00  0.00000000000E+00  0.17386252498E+04  0.17386252498E+04  0.25500000920E-02 0.  1.
       -2   -1    0    0    0  501  0.00000000000E+00  0.00000000000E+00 -0.13141771299E+04  0.13141771299E+04  0.25500000920E-02 0. -1.
    10030    2    1    2    0    0  0.00000000000E+00  0.00000000000E+00  0.42444811992E+03  0.30528023796E+04  0.30231516936E+04 0.  0.
        1    1    3    3  502    0 -0.14038835676E+04  0.53312784911E+03  0.38638932655E+03  0.15506163570E+04  0.50400001928E-02 0. -1.
       -1    1    3    3    0  502  0.14038835676E+04 -0.53312784911E+03  0.38058793372E+02  0.15021860227E+04  0.50400001928E-02 0.  1.
</event>
<event>
 5   0  0.4344980E-06  0.3418257E+04  0.7818609E-02  0.8133440E-01
       -2   -1    0    0    0  501  0.00000000000E+00  0.00000000000E+00  0.12378991696E+04  0.12378991696E+04  0.25500000920E-02 0.  1.
        2   -1    0    0  501    0  0.00000000000E+00  0.00000000000E+00 -0.23597394372E+04  0.23597394372E+04  0.25500000920E-02 0. -1.
    10030    2    1    2    0    0  0.00000000000E+00  0.00000000000E+00 -0.11218402675E+04  0.35976386068E+04  0.34182565672E+04 0.  0.
        3    1    3    3  502    0  0.60844898280E+03 -0.14689076314E+04 -0.12208997219E+04  0.20046186509E+04  0.10100000352E+00 0. -1.
       -3    1    3    3    0  502 -0.60844898280E+03  0.14689076314E+04  0.99059454394E+02  0.15930199559E+04  0.10100000352E+00 0.  1.
</event>
<event>
 5   0  0.2722449E-06  0.2812499E+04  0.7818609E-02  0.8299398E-01
        2   -1    0    0  501    0  0.00000000000E+00  0.00000000000E+00  0.14644088089E+04  0.14644088089E+04  0.25500000920E-02 0.  1.
       -2   -1    0    0    0  501  0.00000000000E+00  0.00000000000E+00 -0.13504004793E+04  0.13504004793E+04  0.25500000920E-02 0. -1.
    10030    2    1    2    0    0  0.00000000000E+00  0.00000000000E+00  0.11400832960E+03  0.28148092881E+04  0.28124994985E+04 0.  0.
        2    1    3    3  502    0  0.11944009016E+03  0.49562203535E+03  0.13686647984E+04  0.14605308855E+04  0.25500000920E-02 0.  1.
       -2    1    3    3    0  502 -0.11944009016E+03 -0.49562203535E+03 -0.12546564688E+04  0.13542784026E+04  0.25500000920E-02 0. -1.
</event>
<event>
 5   0  0.1550164E-06  0.3355724E+04  0.7818609E-02  0.8148859E-01
        1   -1    0    0  501    0  0.00000000000E+00  0.00000000000E+00  0.22161394634E+04  0.22161394634E+04  0.50400001928E-02 0.  1.
       -1   -1    0    0    0  501  0.00000000000E+00  0.00000000000E+00 -0.12703269110E+04  0.12703269110E+04  0.50400001928E-02 0. -1.
    10030    2    1    2    0    0  0.00000000000E+00  0.00000000000E+00  0.94581255236E+03  0.34864663744E+04  0.33557244219E+04 0.  0.
        4    1    3    3  502    0  0.25786749934E+03  0.12721658238E+04 -0.63167989493E+03  0.14435797979E+04  0.12699999809E+01 0. -1.
       -4    1    3    3    0  502 -0.25786749934E+03 -0.12721658238E+04  0.15774924473E+04  0.20428865765E+04  0.12699999809E+01 0.  1.
</event>
<event>
 5   0  0.1562618E-06  0.3479111E+04  0.7818609E-02  0.8118758E-01
        1   -1    0    0  501    0  0.00000000000E+00  0.00000000000E+00  0.15268367641E+04  0.15268367641E+04  0.50400001928E-02 0. -1.
       -1   -1    0    0    0  501  0.00000000000E+00  0.00000000000E+00 -0.19819103973E+04  0.19819103973E+04  0.50400001928E-02 0.  1.
    10030    2    1    2    0    0  0.00000000000E+00  0.00000000000E+00 -0.45507363328E+03  0.35087471614E+04  0.34791111840E+04 0.  0.
        2    1    3    3  502    0 -0.15575024629E+04 -0.68620877176E+03  0.13518958345E+03  0.17073290907E+04  0.25500000920E-02 0.  1.
       -2    1    3    3    0  502  0.15575024629E+04  0.68620877176E+03 -0.59026321673E+03  0.18014180707E+04  0.25500000920E-02 0. -1.
</event>
<event>
 5   0  0.4173467E-06  0.1906185E+04  0.7818609E-02  0.8651784E-01
        2   -1    0    0  501    0  0.00000000000E+00  0.00000000000E+00  0.15712702270E+04  0.15712702270E+04  0.25500000920E-02 0. -1.
       -2   -1    0    0    0  501  0.00000000000E+00  0.00000000000E+00 -0.57812187074E+03  0.57812187074E+03  0.25500000920E-02 0.  1.
    10030    2    1    2    0    0  0.00000000000E+00  0.00000000000E+00  0.99314835631E+03  0.21493920978E+04  0.19061853877E+04 0.  0.
        4    1    3    3  502    0 -0.71495471670E+03  0.11374963812E+03 -0.20242576356E+03  0.75171605660E+03  0.12699999809E+01 0.  1.
       -4    1    3    3    0  502  0.71495471670E+03 -0.11374963812E+03  0.11955741199E+04  0.13976760412E+04  0.12699999809E+01 0. -1.
</event>
<event>
 5   0  0.4173467E-06  0.3365083E+04  0.7818609E-02  0.8146530E-01
       -2   -1    0    0    0  501  0.00000000000E+00  0.00000000000E+00  0.13443135526E+04  0.13443135526E+04  0.25500000920E-02 0. -1.
        2   -1    0    0  501    0  0.00000000000E+00  0.00000000000E+00 -0.21058670994E+04  0.21058670994E+04  0.25500000920E-02 0.  1.
    10030    2    1    2    0    0  0.00000000000E+00  0.00000000000E+00 -0.76155354679E+03  0.34501806521E+04  0.33650828708E+04 0.  0.
        4    1    3    3  502    0  0.11784775639E+04  0.12005419414E+04 -0.35117189529E+03  0.17185556827E+04  0.12699999809E+01 0. -1.
       -4    1    3    3    0  502 -0.11784775639E+04 -0.12005419414E+04 -0.41038165150E+03  0.17316249693E+04  0.12699999809E+01 0.  1.
</event>
<event>
 5   0  0.4400349E-06  0.3316726E+04  0.7818609E-02  0.8158653E-01
       -2   -1    0    0    0  501  0.00000000000E+00  0.00000000000E+00  0.10743497903E+04  0.10743497903E+04  0.25500000920E-02 0.  1.
        2   -1    0    0  501    0  0.00000000000E+00  0.00000000000E+00 -0.25598436369E+04  0.25598436369E+04  0.25500000920E-02 0. -1.
    10030    2    1    2    0    0  0.00000000000E+00  0.00000000000E+00 -0.14854938465E+04  0.36341934272E+04  0.33167257798E+04 0.  0.
        5    1    3    3  502    0  0.10013321632E+04 -0.85583252526E+03 -0.18466676954E+04  0.22683295791E+04  0.46999998093E+01 0. -1.
       -5    1    3    3    0  502 -0.10013321632E+04  0.85583252526E+03  0.36117384890E+03  0.13658638481E+04  0.46999998093E+01 0.  1.
</event>
<event>
 5   0  0.4400349E-06  0.3202210E+04  0.7818609E-02  0.8188234E-01
        2   -1    0    0  501    0  0.00000000000E+00  0.00000000000E+00  0.29192646266E+04  0.29192646266E+04  0.25500000920E-02 0.  1.
       -2   -1    0    0    0  501  0.00000000000E+00  0.00000000000E+00 -0.87814481156E+03  0.87814481156E+03  0.25500000920E-02 0. -1.
    10030    2    1    2    0    0  0.00000000000E+00  0.00000000000E+00  0.20411198151E+04  0.37974094382E+04  0.32022099153E+04 0.  0.
        5    1    3    3  502    0 -0.74185965473E+03  0.11153842388E+04 -0.19414397752E+02  0.13397151773E+04  0.46999998093E+01 0. -1.
       -5    1    3    3    0  502  0.74185965473E+03 -0.11153842388E+04  0.20605342128E+04  0.24576942608E+04  0.46999998093E+01 0.  1.
</event>
<event>
 5   0  0.2722449E-06  0.2268184E+04  0.7818609E-02  0.8490572E-01
       -2   -1    0    0    0  501  0.00000000000E+00  0.00000000000E+00  0.68503439222E+03  0.68503439222E+03  0.25500000920E-02 0.  1.
        2   -1    0    0  501    0  0.00000000000E+00  0.00000000000E+00 -0.18775188530E+04  0.18775188530E+04  0.25500000920E-02 0. -1.
    10030    2    1    2    0    0  0.00000000000E+00  0.00000000000E+00 -0.11924844608E+04  0.25625532452E+04  0.22681842838E+04 0.  0.
        2    1    3    3  502    0  0.62854103308E+03  0.25495007489E+02 -0.16623463297E+04  0.17773882934E+04  0.25500000920E-02 0. -1.
       -2    1    3    3    0  502 -0.62854103308E+03 -0.25495007489E+02  0.46986186892E+03  0.78516495181E+03  0.25500000920E-02 0.  1.
</event>
<event>
 5   0  0.4189587E-06  0.2821413E+04  0.7818609E-02  0.8296651E-01
       -2   -1    0    0    0  501  0.00000000000E+00  0.00000000000E+00  0.10273771088E+04  0.10273771088E+04  0.25500000920E-02 0.  1.
        2   -1    0    0  501    0  0.00000000000E+00  0.00000000000E+00 -0.19370620249E+04  0.19370620249E+04  0.25500000920E-02 0. -1.
    10030    2    1    2    0    0  0.00000000000E+00  0.00000000000E+00 -0.90968491608E+03  0.29644391336E+04  0.28214132506E+04 0.  0.
        1    1    3    3  502    0 -0.11612705062E+04  0.39504666594E+03  0.27724414346E+03  0.12575672435E+04  0.50400001928E-02 0.  1.
       -1    1    3    3    0  502  0.11612705062E+04 -0.39504666594E+03 -0.11869290595E+04  0.17068718901E+04  0.50400001928E-02 0. -1.
</event>
<event>
 5   0  0.2722449E-06  0.2453367E+04  0.7818609E-02  0.8419790E-01
       -2   -1    0    0    0  501  0.00000000000E+00  0.00000000000E+00  0.57151772672E+03  0.57151772672E+03  0.25500000920E-02 0.  1.
        2   -1    0    0  501    0  0.00000000000E+00  0.00000000000E+00 -0.26329064474E+04  0.26329064474E+04  0.25500000920E-02 0. -1.
    10030    2    1    2    0    0  0.00000000000E+00  0.00000000000E+00 -0.20613887206E+04  0.32044241741E+04  0.24533672432E+04 0.  0.
        2    1    3    3  502    0 -0.95019555340E+03 -0.63746926775E+03 -0.45316186720E+03  0.12306885613E+04  0.25500000920E-02 0.  1.
       -2    1    3    3    0  502  0.95019555340E+03  0.63746926775E+03 -0.16082268534E+04  0.19737356128E+04  0.25500000920E-02 0. -1.
</event>
<event>
 5   0  0.4173467E-06  0.3388402E+04  0.7818609E-02  0.8140759E-01
        2   -1    0    0  501    0  0.00000000000E+00  0.00000000000E+00  0.19596054501E+04  0.19596054501E+04  0.25500000920E-02 0.  1.
       -2   -1    0    0    0  501  0.00000000000E+00  0.00000000000E+00 -0.14647423614E+04  0.14647423614E+04  0.25500000920E-02 0. -1.
    10030    2    1    2    0    0  0.00000000000E+00  0.00000000000E+00  0.49486308868E+03  0.34243478114E+04  0.33884020507E+04 0.  0.
        4    1    3    3  502    0  0.46417128267E+03  0.24192547815E+03 -0.13809759620E+04  0.14768477027E+04  0.12699999809E+01 0. -1.
       -4    1    3    3    0  502 -0.46417128267E+03 -0.24192547815E+03  0.18758390506E+04  0.19475001087E+04  0.12699999809E+01 0.  1.
</event>
<event>
 5   0  0.1654257E-06  0.2935118E+04  0.7818609E-02  0.8262505E-01
        1   -1    0    0  501    0  0.00000000000E+00  0.00000000000E+00  0.15642318810E+04  0.15642318810E+04  0.50400001928E-02 0. -1.
       -1   -1    0    0    0  501  0.00000000000E+00  0.00000000000E+00 -0.13768606990E+04  0.13768606990E+04  0.50400001928E-02 0.  1.
    10030    2    1    2    0    0  0.00000000000E+00  0.00000000000E+00  0.18737118202E+03  0.29410925800E+04  0.29351179882E+04 0.  0.
        3    1    3    3  502    0 -0.47635361739E+03  0.11894421147E+04 -0.62334354824E+03  0.14248657840E+04  0.10100000352E+00 0. -1.
       -3    1    3    3    0  502  0.47635361739E+03 -0.11894421147E+04  0.81071473026E+03  0.15162267960E+04  0.10100000352E+00 0.  1.
</event>
<event>
 5   0  0.4400349E-06  0.3086507E+04  0.7818609E-02  0.8219451E-01
        2   -1    0    0  501    0  0.00000000000E+00  0.00000000000E+00  0.21869722480E+04  0.21869722480E+04  0.25500000920E-02 0.  1.
       -2   -1    0    0    0  501  0.00000000000E+00  0.00000000000E+00 -0.10890087586E+04  0.10890087586E+04  0.25500000920E-02 0. -1.
    10030    2    1    2    0    0  0.00000000000E+00  0.00000000000E+00  0.10979634894E+04  0.32759810066E+04  0.30865073678E+04 0.  0.
        5    1    3    3  502    0  0.74361880466E+01  0.46980691503E+03  0.21091985856E+04  0.21609059669E+04  0.46999998093E+01 0.  1.
       -5    1    3    3    0  502 -0.74361880466E+01 -0.46980691503E+03 -0.10112350962E+04  0.11150750397E+04  0.46999998093E+01 0. -1.
</event>
<event>
 5   0  0.2722449E-06  0.3358724E+04  0.7818609E-02  0.8148112E-01
       -2   -1    0    0    0  501  0.00000000000E+00  0.00000000000E+00  0.14515625965E+04  0.14515625966E+04  0.25500000920E-02 0. -1.
        2   -1    0    0  501    0  0.00000000000E+00  0.00000000000E+00 -0.19429111183E+04  0.19429111183E+04  0.25500000920E-02 0.  1.
    10030    2    1    2    0    0  0.00000000000E+00  0.00000000000E+00 -0.49134852179E+03  0.33944737149E+04  0.33587242267E+04 0.  0.
        2    1    3    3  502    0  0.71621170438E+03 -0.12163990074E+04  0.67377351419E+03  0.15641472114E+04  0.25500000920E-02 0. -1.
       -2    1    3    3    0  502 -0.71621170438E+03  0.12163990074E+04 -0.11651220360E+04  0.18303265035E+04  0.25500000920E-02 0.  1.
</event>
<event>
 5   0  0.2722449E-06  0.2711376E+04  0.7818609E-02  0.8331323E-01
        2   -1    0    0  501    0  0.00000000000E+00  0.00000000000E+00  0.13806393597E+04  0.13806393597E+04  0.25500000920E-02 0.  1.
       -2   -1    0    0    0  501  0.00000000000E+00  0.00000000000E+00 -0.13311873358E+04  0.13311873358E+04  0.25500000920E-02 0. -1.
    10030    2    1    2    0    0  0.00000000000E+00  0.00000000000E+00  0.49452023917E+02  0.27118266954E+04  0.27113757621E+04 0.  0.
        2    1    3    3  502    0  0.92670910519E+03 -0.35801792587E+03  0.94733432012E+03  0.13727377444E+04  0.25500000920E-02 0.  1.
       -2    1    3    3    0  502 -0.92670910519E+03  0.35801792587E+03 -0.89788229620E+03  0.13390889510E+04  0.25500000920E-02 0. -1.
</event>
<event>
 5   0  0.1654257E-06  0.3445288E+04  0.7818609E-02  0.8126880E-01
       -1   -1    0    0    0  501  0.00000000000E+00  0.00000000000E+00  0.16891847596E+04  0.16891847596E+04  0.50400001928E-02 0. -1.
        1   -1    0    0  501    0  0.00000000000E+00  0.00000000000E+00 -0.17567663273E+04  0.17567663273E+04  0.50400001928E-02 0.  1.
    10030    2    1    2    0    0  0.00000000000E+00  0.00000000000E+00 -0.67581567630E+02  0.34459510869E+04  0.34452883225E+04 0.  0.
        3    1    3    3  502    0 -0.46529461037E+02  0.15121679073E+04  0.79019178042E+03  0.17068156991E+04  0.10100000352E+00 0. -1.
       -3    1    3    3    0  502  0.46529461037E+02 -0.15121679073E+04 -0.85777334805E+03  0.17391353879E+04  0.10100000352E+00 0.  1.
</event>
<event>
 5   0  0.2101998E-06  0.3352469E+04  0.7818609E-02  0.8149672E-01
        1   -1    0    0  501    0  0.00000000000E+00  0.00000000000E+00  0.27464423802E+04  0.27464423802E+04  0.50400001928E-02 0.  1.
       -1   -1    0    0    0  501  0.00000000000E+00  0.00000000000E+00 -0.10230549845E+04  0.10230549845E+04  0.50400001928E-02 0. -1.
    10030    2    1    2    0    0  0.00000000000E+00  0.00000000000E+00  0.17233873957E+04  0.37694973647E+04  0.33524686825E+04 0.  0.
        5    1    3    3  502    0 -0.36108624459E+03 -0.13488013154E+04  0.19044695601E+04  0.23614983929E+04  0.46999998093E+01 0.  1.
       -5    1    3    3    0  502  0.36108624459E+03  0.13488013154E+04 -0.18108216437E+03  0.14079989718E+04  0.46999998093E+01 0. -1.
</event>
<event>
 5   0  0.4173467E-06  0.3459103E+04  0.7818609E-02  0.8123551E-01
        2   -1    0    0  501    0  0.00000000000E+00  0.00000000000E+00  0.13868388642E+04  0.13868388642E+04  0.25500000920E-02 0.  1.
       -2   -1    0    0    0  501  0.00000000000E+00  0.00000000000E+00 -0.21569548553E+04  0.21569548553E+04  0.25500000920E-02 0. -1.
    10030    2    1    2    0    0  0.00000000000E+00  0.00000000000E+00 -0.77011599113E+03  0.35437937194E+04  0.34591032488E+04 0.  0.
        4    1    3    3  502    0  0.66734658178E+03  0.15630836958E+04 -0.71347659986E+03  0.18432668206E+04  0.12699999809E+01 0. -1.
       -4    1    3    3    0  502 -0.66734658178E+03 -0.15630836958E+04 -0.56639391268E+02  0.17005268989E+04  0.12699999809E+01 0.  1.
</event>
<event>
 5   0  0.4400349E-06  0.3482085E+04  0.7818609E-02  0.8118049E-01
       -2   -1    0    0    0  501  0.00000000000E+00  0.00000000000E+00  0.18918651893E+04  0.18918651893E+04  0.25500000920E-02 0. -1.
        2   -1    0    0  501    0  0.00000000000E+00  0.00000000000E+00 -0.16022434188E+04  0.16022434188E+04  0.25500000920E-02 0.  1.
    10030    2    1    2    0    0  0.00000000000E+00  0.00000000000E+00  0.28962177054E+03  0.34941086081E+04  0.34820847484E+04 0.  0.
        5    1    3    3  502    0 -0.18252605344E+03  0.11451476965E+04 -0.11583372007E+04  0.16390381837E+04  0.46999998093E+01 0.  1.
       -5    1    3    3    0  502  0.18252605344E+03 -0.11451476965E+04  0.14479589712E+04  0.18550704244E+04  0.46999998093E+01 0. -1.
</event>
<event>
 5   0  0.4344980E-06  0.2088560E+04  0.7818609E-02  0.8566299E-01
       -2   -1    0    0    0  501  0.00000000000E+00  0.00000000000E+00  0.10518067393E+04  0.10518067393E+04  0.25500000920E-02 0. -1.
        2   -1    0    0  501    0  0.00000000000E+00  0.00000000000E+00 -0.10368075261E+04  0.10368075261E+04  0.25500000920E-02 0.  1.
    10030    2    1    2    0    0  0.00000000000E+00  0.00000000000E+00  0.14999213202E+02  0.20886142654E+04  0.20885604069E+04 0.  0.
        3    1    3    3  502    0  0.50819570839E+03  0.20052319814E+03  0.89749373714E+03  0.10506985531E+04  0.10100000352E+00 0. -1.
       -3    1    3    3    0  502 -0.50819570839E+03 -0.20052319814E+03 -0.88249452394E+03  0.10379157124E+04  0.10100000352E+00 0.  1.
</event>
<event>
 5   0  0.1562618E-06  0.1825662E+04  0.7818609E-02  0.8692771E-01
        1   -1    0    0  501    0  0.00000000000E+00  0.00000000000E+00  0.18986748084E+04  0.18986748084E+04  0.50400001928E-02 0.  1.
       -1   -1    0    0    0  501  0.00000000000E+00  0.00000000000E+00 -0.43886398237E+03  0.43886398240E+03  0.50400001928E-02 0. -1.
    10030    2    1    2    0    0  0.00000000000E+00  0.00000000000E+00  0.14598108260E+04  0.23375387908E+04  0.18256615104E+04 0.  0.
        2    1    3    3  502    0  0.69414254503E+03  0.38622816998E+03  0.15408502738E+03  0.80916516718E+03  0.25500000920E-02 0. -1.
       -2    1    3    3    0  502 -0.69414254503E+03 -0.38622816998E+03  0.13057257987E+04  0.15283736236E+04  0.25500000920E-02 0.  1.
</event>
<event>
 5   0  0.1562618E-06  0.3389645E+04  0.7818609E-02  0.8140452E-01
       -1   -1    0    0    0  501  0.00000000000E+00  0.00000000000E+00  0.33289492883E+04  0.33289492883E+04  0.50400001928E-02 0.  1.
        1   -1    0    0  501    0  0.00000000000E+00  0.00000000000E+00 -0.86286174352E+03  0.86286174354E+03  0.50400001928E-02 0. -1.
    10030    2    1    2    0    0  0.00000000000E+00  0.00000000000E+00  0.24660875448E+04  0.41918110319E+04  0.33896448115E+04 0.  0.
        2    1    3    3  502    0 -0.25407220806E+03  0.15798166858E+04  0.19238548239E+04  0.25023170925E+04  0.25500000920E-02 0.  1.
       -2    1    3    3    0  502  0.25407220806E+03 -0.15798166858E+04  0.54223272093E+03  0.16894939394E+04  0.25500000920E-02 0. -1.
</event>
<event>
 5   0  0.1562618E-06  0.2669462E+04  0.7818609E-02  0.8344982E-01
       -1   -1    0    0    0  501  0.00000000000E+00  0.00000000000E+00  0.88365157763E+03  0.88365157764E+03  0.50400001928E-02 0.  1.
        1   -1    0    0  501    0  0.00000000000E+00  0.00000000000E+00 -0.20160732050E+04  0.20160732050E+04  0.50400001928E-02 0. -1.
    10030    2    1    2    0    0  0.00000000000E+00  0.00000000000E+00 -0.11324216274E+04  0.28997247827E+04  0.26694615699E+04 0.  0.
        2    1    3    3  502    0  0.24587431269E+03 -0.17324591530E+03 -0.19787801792E+04  0.20015092612E+04  0.25500000920E-02 0. -1.
       -2    1    3    3    0  502 -0.24587431269E+03  0.17324591530E+03  0.84635855183E+03  0.89821552151E+03  0.25500000920E-02 0.  1.
</event>
<event>
 5   0  0.4173467E-06  0.1836162E+04  0.7818609E-02  0.8687302E-01
        2   -1    0    0  501    0  0.00000000000E+00  0.00000000000E+00  0.98994711561E+03  0.98994711561E+03  0.25500000920E-02 0.  1.
       -2   -1    0    0    0  501  0.00000000000E+00  0.00000000000E+00 -0.85143231419E+03  0.85143231419E+03  0.25500000920E-02 0. -1.
    10030    2    1    2    0    0  0.00000000000E+00  0.00000000000E+00  0.13851480142E+03  0.18413794298E+04  0.18361622625E+04 0.  0.
        4    1    3    3  502    0  0.60847198373E+03 -0.55677658289E+03  0.47368111162E+03  0.95111183709E+03  0.12699999809E+01 0.  1.
       -4    1    3    3    0  502 -0.60847198373E+03  0.55677658289E+03 -0.33516631021E+03  0.89026759272E+03  0.12699999809E+01 0. -1.
</event>
<event>
 5   0  0.4400349E-06  0.2870261E+04  0.7818609E-02  0.8281781E-01
       -2   -1    0    0    0  501  0.00000000000E+00  0.00000000000E+00  0.91548677499E+03  0.91548677500E+03  0.25500000920E-02 0. -1.
        2   -1    0    0  501    0  0.00000000000E+00  0.00000000000E+00 -0.22497313579E+04  0.22497313579E+04  0.25500000920E-02 0.  1.
    10030    2    1    2    0    0  0.00000000000E+00  0.00000000000E+00 -0.13342445829E+04  0.31652181329E+04  0.28702608282E+04 0.  0.
        5    1    3    3  502    0 -0.10397574299E+04 -0.88948812835E+03 -0.11443685779E+04  0.17837842290E+04  0.46999998093E+01 0.  1.
       -5    1    3    3    0  502  0.10397574299E+04  0.88948812835E+03 -0.18987600505E+03  0.13814339039E+04  0.46999998093E+01 0. -1.
</event>
<event>
 5   0  0.4189587E-06  0.3544634E+04  0.7818609E-02  0.8103293E-01
        2   -1    0    0  501    0  0.00000000000E+00  0.00000000000E+00  0.15602400780E+04  0.15602400780E+04  0.25500000920E-02 0.  1.
       -2   -1    0    0    0  501  0.00000000000E+00  0.00000000000E+00 -0.20132200870E+04  0.20132200870E+04  0.25500000920E-02 0. -1.
    10030    2    1    2    0    0  0.00000000000E+00  0.00000000000E+00 -0.45298000897E+03  0.35734601650E+04  0.35446335019E+04 0.  0.
        1    1    3    3  502    0  0.46018089222E+03  0.10898361500E+04  0.11039383387E+04  0.16180819334E+04  0.50400001928E-02 0.  1.
       -1    1    3    3    0  502 -0.46018089222E+03 -0.10898361500E+04 -0.15569183477E+04  0.19553782317E+04  0.50400001928E-02 0. -1.
</event>
<event>
 5   0  0.1550164E-06  0.2479204E+04  0.7818609E-02  0.8410432E-01
        1   -1    0    0  501    0  0.00000000000E+00  0.00000000000E+00  0.11062031126E+04  0.11062031126E+04  0.50400001928E-02 0. -1.
       -1   -1    0    0    0  501  0.00000000000E+00  0.00000000000E+00 -0.13890876647E+04  0.13890876648E+04  0.50400001928E-02 0.  1.
    10030    2    1    2    0    0  0.00000000000E+00  0.00000000000E+00 -0.28288455219E+03  0.24952907773E+04  0.24792039838E+04 0.  0.
        4    1    3    3  502    0  0.41591978005E+03 -0.47065089182E+03  0.93418760831E+03  0.11257040578E+04  0.12699999809E+01 0. -1.
       -4    1    3    3    0  502 -0.41591978005E+03  0.47065089182E+03 -0.12170721605E+04  0.13695867195E+04  0.12699999809E+01 0.  1.
</event>
<event>
 5   0  0.4173467E-06  0.3117452E+04  0.7818609E-02  0.8210965E-01
       -2   -1    0    0    0  501  0.00000000000E+00  0.00000000000E+00  0.10703656113E+04  0.10703656113E+04  0.25500000920E-02 0. -1.
        2   -1    0    0  501    0  0.00000000000E+00  0.00000000000E+00 -0.22699034881E+04  0.22699034881E+04  0.25500000920E-02 0.  1.
    10030    2    1    2    0    0  0.00000000000E+00  0.00000000000E+00 -0.11995378769E+04  0.33402690994E+04  0.31174519304E+04 0.  0.
        4    1    3    3  502    0  0.59970750046E+03 -0.13341692373E+04 -0.22793915870E+02  0.14629346586E+04  0.12699999809E+01 0. -1.
       -4    1    3    3    0  502 -0.59970750046E+03  0.13341692373E+04 -0.11767439610E+04  0.18773344408E+04  0.12699999809E+01 0.  1.
</event>
<event>
 5   0  0.1550164E-06  0.3349234E+04  0.7818609E-02  0.8150480E-01
        1   -1    0    0  501    0  0.00000000000E+00  0.00000000000E+00  0.18588208522E+04  0.18588208522E+04  0.50400001928E-02 0. -1.
       -1   -1    0    0    0  501  0.00000000000E+00  0.00000000000E+00 -0.15086668993E+04  0.15086668993E+04  0.50400001928E-02 0.  1.
    10030    2    1    2    0    0  0.00000000000E+00  0.00000000000E+00  0.35015395286E+03  0.33674877515E+04  0.33492336386E+04 0.  0.
        4    1    3    3  502    0 -0.72939286008E+03 -0.47837038548E+03  0.16123742282E+04  0.18331951437E+04  0.12699999809E+01 0. -1.
       -4    1    3    3    0  502  0.72939286008E+03  0.47837038548E+03 -0.12622202754E+04  0.15342926078E+04  0.12699999809E+01 0.  1.
</event>
<event>
 5   0  0.4189587E-06  0.1910399E+04  0.7818609E-02  0.8649698E-01
       -2   -1    0    0    0  501  0.00000000000E+00  0.00000000000E+00  0.65393361000E+03  0.65393361000E+03  0.25500000920E-02 0. -1.
        2   -1    0    0  501    0  0.00000000000E+00  0.00000000000E+00 -0.13952573525E+04  0.13952573525E+04  0.25500000920E-02 0.  1.
    10030    2    1    2    0    0  0.00000000000E+00  0.00000000000E+00 -0.74132374255E+03  0.20491909626E+04  0.19103985735E+04 0.  0.
        1    1    3    3  502    0 -0.42085778532E+03 -0.28810708116E+03 -0.12369753053E+04  0.13379965888E+04  0.50400001928E-02 0.  1.
       -1    1    3    3    0  502  0.42085778532E+03  0.28810708116E+03  0.49565156271E+03  0.71119437380E+03  0.50400001928E-02 0. -1.
</event>
<event>
 5   0  0.2722449E-06  0.3271661E+04  0.7818609E-02  0.8170144E-01
       -2   -1    0    0    0  501  0.00000000000E+00  0.00000000000E+00  0.95112288990E+03  0.95112288990E+03  0.25500000920E-02 0.  1.
        2   -1    0    0  501    0  0.00000000000E+00  0.00000000000E+00 -0.28134558041E+04  0.28134558041E+04  0.25500000920E-02 0. -1.
    10030    2    1    2    0    0  0.00000000000E+00  0.00000000000E+00 -0.18623329142E+04  0.37645786940E+04  0.32716614831E+04 0.  0.
        2    1    3    3  502    0 -0.13222729740E+04  0.15112128171E+03  0.16329384931E+03  0.13408610445E+04  0.25500000920E-02 0.  1.
       -2    1    3    3    0  502  0.13222729740E+04 -0.15112128171E+03 -0.20256267635E+04  0.24237176495E+04  0.25500000920E-02 0. -1.
</event>
<event>
 5   0  0.1571391E-06  0.2615003E+04  0.7818609E-02  0.8363123E-01
        1   -1    0    0  501    0  0.00000000000E+00  0.00000000000E+00  0.10618992270E+04  0.10618992271E+04  0.50400001928E-02 0. -1.
       -1   -1    0    0    0  501  0.00000000000E+00  0.00000000000E+00 -0.16099085457E+04  0.16099085457E+04  0.50400001928E-02 0.  1.
    10030    2    1    2    0    0  0.00000000000E+00  0.00000000000E+00 -0.54800931867E+03  0.26718077728E+04  0.26150033578E+04 0.  0.
        1    1    3    3  502    0 -0.10120371275E+04  0.51525112225E+03  0.38803507760E+03  0.12001141979E+04  0.50400001928E-02 0. -1.
       -1    1    3    3    0  502  0.10120371275E+04 -0.51525112225E+03 -0.93604439627E+03  0.14716935749E+04  0.50400001928E-02 0.  1.
</event>
<event>
 5   0  0.4189587E-06  0.1781978E+04  0.7818609E-02  0.8715942E-01
       -2   -1    0    0    0  501  0.00000000000E+00  0.00000000000E+00  0.84246320418E+03  0.84246320418E+03  0.25500000920E-02 0. -1.
        2   -1    0    0  501    0  0.00000000000E+00  0.00000000000E+00 -0.94230985195E+03  0.94230985195E+03  0.25500000920E-02 0.  1.
    10030    2    1    2    0    0  0.00000000000E+00  0.00000000000E+00 -0.99846647769E+02  0.17847730561E+04  0.17819779765E+04 0.  0.
        1    1    3    3  502    0 -0.16649564049E+03  0.42758472048E+03 -0.81486985865E+03  0.93518039867E+03  0.50400001928E-02 0.  1.
       -1    1    3    3    0  502  0.16649564049E+03 -0.42758472048E+03  0.71502321088E+03  0.84959265747E+03  0.50400001928E-02 0. -1.
</event>
<event>
 5   0  0.1654257E-06  0.2943249E+04  0.7818609E-02  0.8260125E-01
        1   -1    0    0  501    0  0.00000000000E+00  0.00000000000E+00  0.25914079624E+04  0.25914079624E+04  0.50400001928E-02 0.  1.
       -1   -1    0    0    0  501  0.00000000000E+00  0.00000000000E+00 -0.83571478225E+03  0.83571478226E+03  0.50400001928E-02 0. -1.
    10030    2    1    2    0    0  0.00000000000E+00  0.00000000000E+00  0.17556931801E+04  0.34271227446E+04  0.29432485053E+04 0.  0.
        3    1    3    3  502    0 -0.99082397134E+02  0.18377099238E+03  0.25740756800E+04  0.25825287444E+04  0.10100000352E+00 0.  1.
       -3    1    3    3    0  502  0.99082397134E+02 -0.18377099238E+03 -0.81838249984E+03  0.84459400028E+03  0.10100000352E+00 0. -1.
</event>
<event>
 5   0  0.2101998E-06  0.2213784E+04  0.7818609E-02  0.8512713E-01
       -1   -1    0    0    0  501  0.00000000000E+00  0.00000000000E+00  0.11024805516E+04  0.11024805516E+04  0.50400001928E-02 0.  1.
        1   -1    0    0  501    0  0.00000000000E+00  0.00000000000E+00 -0.11113206020E+04  0.11113206020E+04  0.50400001928E-02 0. -1.
    10030    2    1    2    0    0  0.00000000000E+00  0.00000000000E+00 -0.88400503711E+01  0.22138011536E+04  0.22137835037E+04 0.  0.
        5    1    3    3  502    0 -0.21510106733E+03  0.29476984348E+02 -0.10898087496E+04  0.11112347018E+04  0.46999998093E+01 0. -1.
       -5    1    3    3    0  502  0.21510106733E+03 -0.29476984348E+02  0.10809686993E+04  0.11025664518E+04  0.46999998093E+01 0.  1.
</event>
<event>
 5   0  0.1550164E-06  0.2846329E+04  0.7818609E-02  0.8289028E-01
       -1   -1    0    0    0  501  0.00000000000E+00  0.00000000000E+00  0.13684837640E+04  0.13684837640E+04  0.50400001928E-02 0.  1.
        1   -1    0    0  501    0  0.00000000000E+00  0.00000000000E+00 -0.14800296964E+04  0.14800296964E+04  0.50400001928E-02 0. -1.
    10030    2    1    2    0    0  0.00000000000E+00  0.00000000000E+00 -0.11154593243E+03  0.28485134605E+04  0.28463285895E+04 0.  0.
        4    1    3    3  502    0 -0.65864654280E+03 -0.37992288701E+03 -0.12597086004E+04  0.14714020658E+04  0.12699999809E+01 0. -1.
       -4    1    3    3    0  502  0.65864654280E+03  0.37992288701E+03  0.11481626679E+04  0.13771113947E+04  0.12699999809E+01 0.  1.
</event>
<event>
 5   0  0.1571391E-06  0.3356433E+04  0.7818609E-02  0.8148683E-01
       -1   -1    0    0    0  501  0.00000000000E+00  0.00000000000E+00  0.13118251725E+04  0.13118251725E+04  0.50400001928E-02 0. -1.
        1   -1    0    0  501    0  0.00000000000E+00  0.00000000000E+00 -0.21469407470E+04  0.21469407470E+04  0.50400001928E-02 0.  1.
    10030    2    1    2    0    0  0.00000000000E+00  0.00000000000E+00 -0.83511557456E+03  0.34587659195E+04  0.33564331757E+04 0.  0.
        1    1    3    3  502    0 -0.33479971375E+03  0.88107053152E+03 -0.18484291722E+04  0.20748654256E+04  0.50400001928E-02 0.  1.
       -1    1    3    3    0  502  0.33479971375E+03 -0.88107053152E+03  0.10133135976E+04  0.13839004939E+04  0.50400001928E-02 0. -1.
</event>
<event>
 5   0  0.1654257E-06  0.3390927E+04  0.7818609E-02  0.8140137E-01
       -1   -1    0    0    0  501  0.00000000000E+00  0.00000000000E+00  0.16485128384E+04  0.16485128385E+04  0.50400001928E-02 0. -1.
        1   -1    0    0  501    0  0.00000000000E+00  0.00000000000E+00 -0.17437508988E+04  0.17437508988E+04  0.50400001928E-02 0.  1.
    10030    2    1    2    0    0  0.00000000000E+00  0.00000000000E+00 -0.95238060374E+02  0.33922637373E+04  0.33909265659E+04 0.  0.
        3    1    3    3  502    0 -0.47141796285E+03 -0.49273760242E+03  0.15052722211E+04  0.16525343296E+04  0.10100000352E+00 0. -1.
       -3    1    3    3    0  502  0.47141796285E+03  0.49273760242E+03 -0.16005102815E+04  0.17397294077E+04  0.10100000352E+00 0.  1.
</event>
<event>
 5   0  0.1550164E-06  0.2561021E+04  0.7818609E-02  0.8381563E-01
       -1   -1    0    0    0  501  0.00000000000E+00  0.00000000000E+00  0.15737706172E+04  0.15737706172E+04  0.50400001928E-02 0. -1.
        1   -1    0    0  501    0  0.00000000000E+00  0.00000000000E+00 -0.10418973644E+04  0.10418973644E+04  0.50400001928E-02 0.  1.
    10030    2    1    2    0    0  0.00000000000E+00  0.00000000000E+00  0.53187325278E+03  0.26156679817E+04  0.25610212481E+04 0.  0.
        4    1    3    3  502    0 -0.73649412296E+03  0.53439413972E+03  0.11861077213E+04  0.14949427511E+04  0.12699999809E+01 0. -1.
       -4    1    3    3    0  502  0.73649412296E+03 -0.53439413972E+03 -0.65423446851E+03  0.11207252306E+04  0.12699999809E+01 0.  1.
</event>
<event>
 5   0  0.1571391E-06  0.2583726E+04  0.7818609E-02  0.8373750E-01
       -1   -1    0    0    0  501  0.00000000000E+00  0.00000000000E+00  0.17689388821E+04  0.17689388821E+04  0.50400001928E-02 0. -1.
        1   -1    0    0  501    0  0.00000000000E+00  0.00000000000E+00 -0.94345258209E+03  0.94345258210E+03  0.50400001928E-02 0.  1.
    10030    2    1    2    0    0  0.00000000000E+00  0.00000000000E+00  0.82548629999E+03  0.27123914642E+04  0.25837259575E+04 0.  0.
        1    1    3    3  502    0 -0.10336676709E+04 -0.69631341182E+03  0.55829074741E+02  0.12475728864E+04  0.50400001928E-02 0. -1.
       -1    1    3    3    0  502  0.10336676709E+04  0.69631341182E+03  0.76965722525E+03  0.14648185778E+04  0.50400001928E-02 0.  1.
</event>
<event>
 5   0  0.1571391E-06  0.3349860E+04  0.7818609E-02  0.8150323E-01
       -1   -1    0    0    0  501  0.00000000000E+00  0.00000000000E+00  0.17043447631E+04  0.17043447631E+04  0.50400001928E-02 0. -1.
        1   -1    0    0  501    0  0.00000000000E+00  0.00000000000E+00 -0.16460230371E+04  0.16460230371E+04  0.50400001928E-02 0.  1.
    10030    2    1    2    0    0  0.00000000000E+00  0.00000000000E+00  0.58321726035E+02  0.33503678003E+04  0.33498601423E+04 0.  0.
        1    1    3    3  502    0 -0.29928467090E+03 -0.83871525878E+03 -0.13896365591E+04  0.16504860999E+04  0.50400001928E-02 0.  1.
       -1    1    3    3    0  502  0.29928467090E+03  0.83871525878E+03  0.14479582852E+04  0.16998817003E+04  0.50400001928E-02 0. -1.
</event>
<event>
 5   0  0.1654257E-06  0.3387466E+04  0.7818609E-02  0.8140989E-01
       -1   -1    0    0    0  501  0.00000000000E+00  0.00000000000E+00  0.12933736127E+04  0.12933736127E+04  0.50400001928E-02 0.  1.
        1   -1    0    0  501    0  0.00000000000E+00  0.00000000000E+00 -0.22180219751E+04  0.22180219751E+04  0.50400001928E-02 0. -1.
    10030    2    1    2    0    0  0.00000000000E+00  0.00000000000E+00 -0.92464836244E+03  0.35113955878E+04  0.33874657755E+04 0.  0.
        3    1    3    3  502    0 -0.28504779001E+03 -0.16131966081E+04 -0.16381169637E+02  0.16382685652E+04  0.10100000352E+00 0.  1.
       -3    1    3    3    0  502  0.28504779001E+03  0.16131966081E+04 -0.90826719280E+03  0.18731270226E+04  0.10100000352E+00 0. -1.
</event>
<event>
 5   0  0.4189587E-06  0.3483304E+04  0.7818609E-02  0.8117758E-01
        2   -1    0    0  501    0  0.00000000000E+00  0.00000000000E+00  0.22414488321E+04  0.22414488321E+04  0.25500000920E-02 0.  1.
       -2   -1    0    0    0  501  0.00000000000E+00  0.00000000000E+00 -0.13532994771E+04  0.13532994771E+04  0.25500000920E-02 0. -1.
    10030    2    1    2    0    0  0.00000000000E+00  0.00000000000E+00  0.88814935501E+03  0.35947483092E+04  0.34833039101E+04 0.  0.
        1    1    3    3  502    0  0.92127706698E+03  0.98354846070E+03  0.15826555793E+04  0.20786817196E+04  0.50400001928E-02 0.  1.
       -1    1    3    3    0  502 -0.92127706698E+03 -0.98354846070E+03 -0.69450622426E+03  0.15160665896E+04  0.50400001928E-02 0. -1.
</event>
<event>
 5   0  0.2722449E-06  0.3354005E+04  0.7818609E-02  0.8149288E-01
        2   -1    0    0  501    0  0.00000000000E+00  0.00000000000E+00  0.18183471865E+04  0.18183471865E+04  0.25500000920E-02 0. -1.
       -2   -1    0    0    0  501  0.00000000000E+00  0.00000000000E+00 -0.15466450778E+04  0.15466450778E+04  0.25500000920E-02 0.  1.
    10030    2    1    2    0    0  0.00000000000E+00  0.00000000000E+00  0.27170210870E+03  0.33649922643E+04  0.33540052032E+04 0.  0.
        2    1    3    3  502    0  0.13815820529E+03 -0.23346777488E+03 -0.15244848721E+04  0.15484343760E+04  0.25500000920E-02 0.  1.
       -2    1    3    3    0  502 -0.13815820529E+03  0.23346777488E+03  0.17961869808E+04  0.18165578883E+04  0.25500000920E-02 0. -1.
</event>
<event>
 5   0  0.2101998E-06  0.3416249E+04  0.7818609E-02  0.8133930E-01
        1   -1    0    0  501    0  0.00000000000E+00  0.00000000000E+00  0.22998932218E+04  0.22998932218E+04  0.50400001928E-02 0. -1.
       -1   -1    0    0    0  501  0.00000000000E+00  0.00000000000E+00 -0.12686196644E+04  0.12686196644E+04  0.50400001928E-02 0.  1.
    10030    2    1    2    0    0  0.00000000000E+00  0.00000000000E+00  0.10312735574E+04  0.35685128862E+04  0.34162492691E+04 0.  0.
        5    1    3    3  502    0  0.29532695874E+03  0.74189047395E+03 -0.10616466138E+04  0.13284333293E+04  0.46999998093E+01 0.  1.
       -5    1    3    3    0  502 -0.29532695874E+03 -0.74189047395E+03  0.20929201712E+04  0.22400795569E+04  0.46999998093E+01 0. -1.
</event>
<event>
 5   0  0.4189587E-06  0.3506347E+04  0.7818609E-02  0.8112287E-01
        2   -1    0    0  501    0  0.00000000000E+00  0.00000000000E+00  0.14734614220E+04  0.14734614220E+04  0.25500000920E-02 0. -1.
       -2   -1    0    0    0  501  0.00000000000E+00  0.00000000000E+00 -0.20859844596E+04  0.20859844596E+04  0.25500000920E-02 0.  1.
    10030    2    1    2    0    0  0.00000000000E+00  0.00000000000E+00 -0.61252303756E+03  0.35594458816E+04  0.35063471751E+04 0.  0.
        1    1    3    3  502    0 -0.15360214953E+04 -0.55385280296E+03  0.34176489308E+03  0.16682080816E+04  0.50400001928E-02 0. -1.
       -1    1    3    3    0  502  0.15360214953E+04  0.55385280296E+03 -0.95428793064E+03  0.18912378000E+04  0.50400001928E-02 0.  1.
</event>
<event>
 5   0  0.4189587E-06  0.3402535E+04  0.7818609E-02  0.8137284E-01
       -2   -1    0    0    0  501  0.00000000000E+00  0.00000000000E+00  0.18209642396E+04  0.18209642396E+04  0.25500000920E-02 0.  1.
        2   -1    0    0  501    0  0.00000000000E+00  0.00000000000E+00 -0.15894389297E+04  0.15894389297E+04  0.25500000920E-02 0. -1.
    10030    2    1    2    0    0  0.00000000000E+00  0.00000000000E+00  0.23152530987E+03  0.34104031693E+04  0.34025352030E+04 0.  0.
        1    1    3    3  502    0 -0.16405782849E+04  0.41255973034E+03  0.29675932430E+03  0.17174890791E+04  0.50400001928E-02 0.  1.
       -1    1    3    3    0  502  0.16405782849E+04 -0.41255973034E+03 -0.65234014433E+02  0.16929140902E+04  0.50400001928E-02 0. -1.
</event>
<event>
 5   0  0.2722449E-06  0.3340092E+04  0.7818609E-02  0.8152768E-01
        2   -1    0    0  501    0  0.00000000000E+00  0.00000000000E+00  0.16157306666E+04  0.16157306666E+04  0.25500000920E-02 0.  1.
       -2   -1    0    0    0  501  0.00000000000E+00  0.00000000000E+00 -0.17261873941E+04  0.17261873941E+04  0.25500000920E-02 0. -1.
    10030    2    1    2    0    0  0.00000000000E+00  0.00000000000E+00 -0.11045672746E+03  0.33419180607E+04  0.33400921597E+04 0.  0.
        2    1    3    3  502    0 -0.30928352661E+02  0.11873069045E+04 -0.12299228386E+04  0.17097849097E+04  0.25500000920E-02 0. -1.
       -2    1    3    3    0  502  0.30928352661E+02 -0.11873069045E+04  0.11194661112E+04  0.16321331510E+04  0.25500000920E-02 0.  1.
</event>
<event>
 5   0  0.2722449E-06  0.3387400E+04  0.7818609E-02  0.8141006E-01
       -2   -1    0    0    0  501  0.00000000000E+00  0.00000000000E+00  0.13575618665E+04  0.13575618665E+04  0.25500000920E-02 0.  1.
        2   -1    0    0  501    0  0.00000000000E+00  0.00000000000E+00 -0.21130678966E+04  0.21130678966E+04  0.25500000920E-02 0. -1.
    10030    2    1    2    0    0  0.00000000000E+00  0.00000000000E+00 -0.75550603012E+03  0.34706297631E+04  0.33874004179E+04 0.  0.
        2    1    3    3  502    0  0.46205164946E+03  0.64252914587E+03 -0.19119712943E+04  0.20692920674E+04  0.25500000920E-02 0. -1.
       -2    1    3    3    0  502 -0.46205164946E+03 -0.64252914587E+03  0.11564652642E+04  0.14013376957E+04  0.25500000920E-02 0.  1.
</event>
<event>
 5   0  0.1654257E-06  0.3351667E+04  0.7818609E-02  0.8149872E-01
       -1   -1    0    0    0  501  0.00000000000E+00  0.00000000000E+00  0.12777400681E+04  0.12777400681E+04  0.50400001928E-02 0.  1.
        1   -1    0    0  501    0  0.00000000000E+00  0.00000000000E+00 -0.21979571266E+04  0.21979571266E+04  0.50400001928E-02 0. -1.
    10030    2    1    2    0    0  0.00000000000E+00  0.00000000000E+00 -0.92021705848E+03  0.34756971947E+04  0.33516669815E+04 0.  0.
        3    1    3    3  502    0 -0.57917030151E+02 -0.15787200654E+04  0.11978664246E+03  0.15843169750E+04  0.10100000352E+00 0.  1.
       -3    1    3    3    0  502  0.57917030151E+02  0.15787200654E+04 -0.10400037009E+04  0.18913802197E+04  0.10100000352E+00 0. -1.
</event>
<event>
 5   0  0.2722449E-06  0.3403758E+04  0.7818609E-02  0.8136985E-01
       -2   -1    0    0    0  501  0.00000000000E+00  0.00000000000E+00  0.12780549950E+04  0.12780549950E+04  0.25500000920E-02 0.  1.
        2   -1    0    0  501    0  0.00000000000E+00  0.00000000000E+00 -0.22662501798E+04  0.22662501798E+04  0.25500000920E-02 0. -1.
    10030    2    1    2    0    0  0.00000000000E+00  0.00000000000E+00 -0.98819518488E+03  0.35443051748E+04  0.34037581361E+04 0.  0.
        2    1    3    3  502    0  0.12435428263E+04  0.10278632079E+04 -0.10582152352E+04  0.19294354146E+04  0.25500000920E-02 0. -1.
       -2    1    3    3    0  502 -0.12435428263E+04 -0.10278632079E+04  0.70020050321E+02  0.16148697602E+04  0.25500000920E-02 0.  1.
</event>
<event>
 5   0  0.2101998E-06  0.1938308E+04  0.7818609E-02  0.8636020E-01
       -1   -1    0    0    0  501  0.00000000000E+00  0.00000000000E+00  0.20169443625E+04  0.20169443625E+04  0.50400001928E-02 0. -1.
        1   -1    0    0  501    0  0.00000000000E+00  0.00000000000E+00 -0.46568422855E+03  0.46568422858E+03  0.50400001928E-02 0.  1.
    10030    2    1    2    0    0  0.00000000000E+00  0.00000000000E+00  0.15512601339E+04  0.24826285911E+04  0.19383076944E+04 0.  0.
        5    1    3    3  502    0  0.49745080710E+03  0.64456204566E+02 -0.28646873565E+03  0.57766628281E+03  0.46999998093E+01 0.  1.
       -5    1    3    3    0  502 -0.49745080710E+03 -0.64456204566E+02  0.18377288696E+04  0.19049623083E+04  0.46999998093E+01 0. -1.
</event>
<event>
 5   0  0.1562618E-06  0.2985526E+04  0.7818609E-02  0.8247876E-01
        1   -1    0    0  501    0  0.00000000000E+00  0.00000000000E+00  0.24930511128E+04  0.24930511128E+04  0.50400001928E-02 0. -1.
       -1   -1    0    0    0  501  0.00000000000E+00  0.00000000000E+00 -0.89382085795E+03  0.89382085796E+03  0.50400001928E-02 0.  1.
    10030    2    1    2    0    0  0.00000000000E+00  0.00000000000E+00  0.15992302548E+04  0.33868719708E+04  0.29855258060E+04 0.  0.
        2    1    3    3  502    0  0.63604860708E+03  0.80292081358E+03 -0.43222268738E+03  0.11117806056E+04  0.25500000920E-02 0.  1.
       -2    1    3    3    0  502 -0.63604860708E+03 -0.80292081358E+03  0.20314529422E+04  0.22750913652E+04  0.25500000920E-02 0. -1.
</event>
<event>
 5   0  0.4400349E-06  0.3320294E+04  0.7818609E-02  0.8157751E-01
       -2   -1    0    0    0  501  0.00000000000E+00  0.00000000000E+00  0.15905244850E+04  0.15905244850E+04  0.25500000920E-02 0. -1.
        2   -1    0    0  501    0  0.00000000000E+00  0.00000000000E+00 -0.17328174034E+04  0.17328174034E+04  0.25500000920E-02 0.  1.
    10030    2    1    2    0    0  0.00000000000E+00  0.00000000000E+00 -0.14229291845E+03  0.33233418884E+04  0.33202942690E+04 0.  0.
        5    1    3    3  502    0  0.69413900487E+03  0.90550660092E+03  0.11359020930E+04  0.16099896947E+04  0.46999998093E+01 0. -1.
       -5    1    3    3    0  502 -0.69413900487E+03 -0.90550660092E+03 -0.12781950114E+04  0.17133521937E+04  0.46999998093E+01 0.  1.
</event>
<event>
 5   0  0.1562618E-06  0.2209832E+04  0.7818609E-02  0.8514347E-01
       -1   -1    0    0    0  501  0.00000000000E+00  0.00000000000E+00  0.10205711424E+04  0.10205711424E+04  0.50400001928E-02 0.  1.
        1   -1    0    0  501    0  0.00000000000E+00  0.00000000000E+00 -0.11962314926E+04  0.11962314926E+04  0.50400001928E-02 0. -1.
    10030    2    1    2    0    0  0.00000000000E+00  0.00000000000E+00 -0.17566035015E+03  0.22168026350E+04  0.22098319764E+04 0.  0.
        2    1    3    3  502    0 -0.98802641801E+03 -0.13712582909E+03 -0.56455510872E+03  0.11461771968E+04  0.25500000920E-02 0. -1.
       -2    1    3    3    0  502  0.98802641801E+03  0.13712582909E+03  0.38889475858E+03  0.10706254382E+04  0.25500000920E-02 0.  1.
</event>
<event>
 5   0  0.4189587E-06  0.1817890E+04  0.7818609E-02  0.8696843E-01
       -2   -1    0    0    0  501  0.00000000000E+00  0.00000000000E+00  0.62728671670E+03  0.62728671670E+03  0.25500000920E-02 0.  1.
        2   -1    0    0  501    0  0.00000000000E+00  0.00000000000E+00 -0.13170714371E+04  0.13170714371E+04  0.25500000920E-02 0. -1.
    10030    2    1    2    0    0  0.00000000000E+00  0.00000000000E+00 -0.68978472040E+03  0.19443581538E+04  0.18178904449E+04 0.  0.
        1    1    3    3  502    0  0.39613459837E+03 -0.75736175104E+03 -0.14082663418E+02  0.85482031059E+03  0.50400001928E-02 0.  1.
       -1    1    3    3    0  502 -0.39613459837E+03  0.75736175104E+03 -0.67570205698E+03  0.10895378432E+04  0.50400001928E-02 0. -1.
</event>
<event>
 5   0  0.2722449E-06  0.2229647E+04  0.7818609E-02  0.8506189E-01
        2   -1    0    0  501    0  0.00000000000E+00  0.00000000000E+00  0.98989961481E+03  0.98989961482E+03  0.25500000920E-02 0. -1.
       -2   -1    0    0    0  501  0.00000000000E+00  0.00000000000E+00 -0.12555121267E+04  0.12555121267E+04  0.25500000920E-02 0.  1.
    10030    2    1    2    0    0  0.00000000000E+00  0.00000000000E+00 -0.26561251187E+03  0.22454117415E+04  0.22296465824E+04 0.  0.
        2    1    3    3  502    0 -0.10927188579E+04 -0.12635326674E+03 -0.31528157576E+03  0.11442911004E+04  0.25500000920E-02 0. -1.
       -2    1    3    3    0  502  0.10927188579E+04  0.12635326674E+03  0.49669063887E+02  0.11011206411E+04  0.25500000920E-02 0.  1.
</event>
<event>
 5   0  0.1654257E-06  0.3210250E+04  0.7818609E-02  0.8186115E-01
        1   -1    0    0  501    0  0.00000000000E+00  0.00000000000E+00  0.11509947890E+04  0.11509947890E+04  0.50400001928E-02 0.  1.
       -1   -1    0    0    0  501  0.00000000000E+00  0.00000000000E+00 -0.22384347936E+04  0.22384347936E+04  0.50400001928E-02 0. -1.
    10030    2    1    2    0    0  0.00000000000E+00  0.00000000000E+00 -0.10874400047E+04  0.33894295826E+04  0.32102503223E+04 0.  0.
        3    1    3    3  502    0  0.73631012726E+03  0.73189689019E+03  0.74878056544E+03  0.12800382833E+04  0.10100000352E+00 0.  1.
       -3    1    3    3    0  502 -0.73631012726E+03 -0.73189689019E+03 -0.18362205701E+04  0.21093912993E+04  0.10100000352E+00 0. -1.
</event>
<event>
 5   0  0.4344980E-06  0.3469353E+04  0.7818609E-02  0.8121091E-01
       -2   -1    0    0    0  501  0.00000000000E+00  0.00000000000E+00  0.20628404111E+04  0.20628404111E+04  0.25500000920E-02 0.  1.
        2   -1    0    0  501    0  0.00000000000E+00  0.00000000000E+00 -0.14587181356E+04  0.14587181356E+04  0.25500000920E-02 0. -1.
    10030    2    1    2    0    0  0.00000000000E+00  0.00000000000E+00  0.60412227543E+03  0.35215585467E+04  0.34693530916E+04 0.  0.
        3    1    3    3  502    0  0.16273092308E+04 -0.59180623602E+03  0.19690321198E+03  0.17427394638E+04  0.10100000352E+00 0.  1.
       -3    1    3    3    0  502 -0.16273092308E+04  0.59180623602E+03  0.40721906345E+03  0.17788190829E+04  0.10100000352E+00 0. -1.
</event>
<event>
 5   0  0.1654257E-06  0.3353892E+04  0.7818609E-02  0.8149316E-01
        1   -1    0    0  501    0  0.00000000000E+00  0.00000000000E+00  0.90347270937E+03  0.90347270939E+03  0.50400001928E-02 0.  1.
       -1   -1    0    0    0  501  0.00000000000E+00  0.00000000000E+00 -0.31125990604E+04  0.31125990604E+04  0.50400001928E-02 0. -1.
    10030    2    1    2    0    0  0.00000000000E+00  0.00000000000E+00 -0.22091263511E+04  0.40160717698E+04  0.33538922501E+04 0.  0.
        3    1    3    3  502    0  0.72406743903E+03  0.11404776735E+04  0.85175837110E+02  0.13535944420E+04  0.10100000352E+00 0.  1.
       -3    1    3    3    0  502 -0.72406743903E+03 -0.11404776735E+04 -0.22943021882E+04  0.26624773278E+04  0.10100000352E+00 0. -1.
</event>
<event>
 5   0  0.1562618E-06  0.3514148E+04  0.7818609E-02  0.8110445E-01
        1   -1    0    0  501    0  0.00000000000E+00  0.00000000000E+00  0.16213497145E+04  0.16213497145E+04  0.50400001928E-02 0.  1.
       -1   -1    0    0    0  501  0.00000000000E+00  0.00000000000E+00 -0.19041597970E+04  0.19041597970E+04  0.50400001928E-02 0. -1.
    10030    2    1    2    0    0  0.00000000000E+00  0.00000000000E+00 -0.28281008245E+03  0.35255095115E+04  0.35141479441E+04 0.  0.
        2    1    3    3  502    0 -0.35378116278E+03 -0.17145585450E+04 -0.29167860210E+03  0.17748094327E+04  0.25500000920E-02 0. -1.
       -2    1    3    3    0  502  0.35378116278E+03  0.17145585450E+04  0.88685196508E+01  0.17507000788E+04  0.25500000920E-02 0.  1.
</event>
<event>
 5   0  0.2722449E-06  0.3391436E+04  0.7818609E-02  0.8140011E-01
        2   -1    0    0  501    0  0.00000000000E+00  0.00000000000E+00  0.13796377293E+04  0.13796377293E+04  0.25500000920E-02 0. -1.
       -2   -1    0    0    0  501  0.00000000000E+00  0.00000000000E+00 -0.20842136937E+04  0.20842136937E+04  0.25500000920E-02 0.  1.
    10030    2    1    2    0    0  0.00000000000E+00  0.00000000000E+00 -0.70457596439E+03  0.34638514230E+04  0.33914361842E+04 0.  0.
        2    1    3    3  502    0  0.10496277124E+04  0.13103729761E+04 -0.10916282649E+03  0.16824720485E+04  0.25500000920E-02 0.  1.
       -2    1    3    3    0  502 -0.10496277124E+04 -0.13103729761E+04 -0.59541313790E+03  0.17813793745E+04  0.25500000920E-02 0. -1.
</event>
<event>
 5   0  0.2101998E-06  0.3384710E+04  0.7818609E-02  0.8141669E-01
       -1   -1    0    0    0  501  0.00000000000E+00  0.00000000000E+00  0.12663546626E+04  0.12663546626E+04  0.50400001928E-02 0. -1.
        1   -1    0    0  501    0  0.00000000000E+00  0.00000000000E+00 -0.22616607836E+04  0.22616607836E+04  0.50400001928E-02 0.  1.
    10030    2    1    2    0    0  0.00000000000E+00  0.00000000000E+00 -0.99530612098E+03  0.35280154462E+04  0.33847095465E+04 0.  0.
        5    1    3    3  502    0  0.12865637117E+04 -0.56953646104E+03  0.48260288328E+03  0.14874628055E+04  0.46999998093E+01 0. -1.
       -5    1    3    3    0  502 -0.12865637117E+04  0.56953646104E+03 -0.14779090043E+04  0.20405526407E+04  0.46999998093E+01 0.  1.
</event>
<event>
 5   0  0.1550164E-06  0.2984058E+04  0.7818609E-02  0.8248298E-01
       -1   -1    0    0    0  501  0.00000000000E+00  0.00000000000E+00  0.10043860050E+04  0.10043860051E+04  0.50400001928E-02 0. -1.
        1   -1    0    0  501    0  0.00000000000E+00  0.00000000000E+00 -0.22164290711E+04  0.22164290711E+04  0.50400001928E-02 0.  1.
    10030    2    1    2    0    0  0.00000000000E+00  0.00000000000E+00 -0.12120430660E+04  0.32208150761E+04  0.29840578682E+04 0.  0.
        4    1    3    3  502    0  0.11859900276E+04 -0.89208320245E+03 -0.77240791842E+03  0.16730213361E+04  0.12699999809E+01 0.  1.
       -4    1    3    3    0  502 -0.11859900276E+04  0.89208320245E+03 -0.43963514762E+03  0.15477937400E+04  0.12699999809E+01 0. -1.
</event>
<event>
 5   0  0.4173467E-06  0.3409377E+04  0.7818609E-02  0.8135609E-01
        2   -1    0    0  501    0  0.00000000000E+00  0.00000000000E+00  0.24594037044E+04  0.24594037044E+04  0.25500000920E-02 0.  1.
       -2   -1    0    0    0  501  0.00000000000E+00  0.00000000000E+00 -0.11815722869E+04  0.11815722869E+04  0.25500000920E-02 0. -1.
    10030    2    1    2    0    0  0.00000000000E+00  0.00000000000E+00  0.12778314175E+04  0.36409759913E+04  0.34093772214E+04 0.  0.
        4    1    3    3  502    0  0.18196915830E+03  0.48311450642E+02 -0.11704346084E+04  0.11854811497E+04  0.12699999809E+01 0. -1.
       -4    1    3    3    0  502 -0.18196915830E+03 -0.48311450642E+02  0.24482660259E+04  0.24554948416E+04  0.12699999809E+01 0.  1.
</event>
<event>
 5   0  0.1550164E-06  0.3327310E+04  0.7818609E-02  0.8155981E-01
       -1   -1    0    0    0  501  0.00000000000E+00  0.00000000000E+00  0.18267614636E+04  0.18267614636E+04  0.50400001928E-02 0.  1.
        1   -1    0    0  501    0  0.00000000000E+00  0.00000000000E+00 -0.15151114422E+04  0.15151114422E+04  0.50400001928E-02 0. -1.
    10030    2    1    2    0    0  0.00000000000E+00  0.00000000000E+00  0.31165002132E+03  0.33418729058E+04  0.33273095412E+04 0.  0.
        4    1    3    3  502    0  0.67810449334E+03  0.33979748608E+03 -0.13313508255E+04  0.15322482400E+04  0.12699999809E+01 0. -1.
       -4    1    3    3    0  502 -0.67810449334E+03 -0.33979748608E+03  0.16430008469E+04  0.18096246658E+04  0.12699999809E+01 0.  1.
</event>
<event>
 5   0  0.4173467E-06  0.3453971E+04  0.7818609E-02  0.8124786E-01
        2   -1    0    0  501    0  0.00000000000E+00  0.00000000000E+00  0.26084710729E+04  0.26084710729E+04  0.25500000920E-02 0. -1.
       -2   -1    0    0    0  501  0.00000000000E+00  0.00000000000E+00 -0.11433816951E+04  0.11433816951E+04  0.25500000920E-02 0.  1.
    10030    2    1    2    0    0  0.00000000000E+00  0.00000000000E+00  0.14650893778E+04  0.37518527680E+04  0.34539705134E+04 0.  0.
        4    1    3    3  502    0  0.58627197508E+03 -0.61976215533E+03  0.23635949913E+04  0.25128475588E+04  0.12699999809E+01 0. -1.
       -4    1    3    3    0  502 -0.58627197508E+03  0.61976215533E+03 -0.89850561350E+03  0.12390052092E+04  0.12699999809E+01 0.  1.
</event>
<event>
 5   0  0.4344980E-06  0.3498742E+04  0.7818609E-02  0.8114088E-01
        2   -1    0    0  501    0  0.00000000000E+00  0.00000000000E+00  0.16944931259E+04  0.16944931259E+04  0.25500000920E-02 0.  1.
       -2   -1    0    0    0  501  0.00000000000E+00  0.00000000000E+00 -0.18060262403E+04  0.18060262403E+04  0.25500000920E-02 0. -1.
    10030    2    1    2    0    0  0.00000000000E+00  0.00000000000E+00 -0.11153311438E+03  0.35005193662E+04  0.34987420879E+04 0.  0.
        3    1    3    3  502    0  0.99660957140E+03  0.82259932187E+03  0.11239841348E+04  0.17126706127E+04  0.10100000352E+00 0.  1.
       -3    1    3    3    0  502 -0.99660957140E+03 -0.82259932187E+03 -0.12355172492E+04  0.17878487535E+04  0.10100000352E+00 0. -1.
</event>
<event>
 5   0  0.1550164E-06  0.3382877E+04  0.7818609E-02  0.8142122E-01
       -1   -1    0    0    0  501  0.00000000000E+00  0.00000000000E+00  0.24305549552E+04  0.24305549552E+04  0.50400001928E-02 0. -1.
        1   -1    0    0  501    0  0.00000000000E+00  0.00000000000E+00 -0.11770828749E+04  0.11770828749E+04  0.50400001928E-02 0.  1.
    10030    2    1    2    0    0  0.00000000000E+00  0.00000000000E+00  0.12534720803E+04  0.36076378300E+04  0.33828772453E+04 0.  0.
        4    1    3    3  502    0 -0.61181372352E+03 -0.60552599887E+03  0.21794916663E+04  0.23433231326E+04  0.12699999809E+01 0. -1.
       -4    1    3    3    0  502  0.61181372352E+03  0.60552599887E+03 -0.92601958597E+03  0.12643146974E+04  0.12699999809E+01 0.  1.
</event>
<event>
 5   0  0.4400349E-06  0.3386130E+04  0.7818609E-02  0.8141319E-01
       -2   -1    0    0    0  501  0.00000000000E+00  0.00000000000E+00  0.20075567192E+04  0.20075567192E+04  0.25500000920E-02 0.  1.
        2   -1    0    0  501    0  0.00000000000E+00  0.00000000000E+00 -0.14278392951E+04  0.14278392951E+04  0.25500000920E-02 0. -1.
    10030    2    1    2    0    0  0.00000000000E+00  0.00000000000E+00  0.57971742410E+03  0.34353960143E+04  0.33861295728E+04 0.  0.
        5    1    3    3  502    0 -0.96606977288E+03 -0.46034891342E+02  0.16996942366E+04  0.19556054319E+04  0.46999998093E+01 0.  1.
       -5    1    3    3    0  502  0.96606977288E+03  0.46034891342E+02 -0.11199768125E+04  0.14797905824E+04  0.46999998093E+01 0. -1.
</event>
<event>
 5   0  0.4400349E-06  0.3235418E+04  0.7818609E-02  0.8179526E-01
        2   -1    0    0  501    0  0.00000000000E+00  0.00000000000E+00  0.23773792168E+04  0.23773792168E+04  0.25500000920E-02 0. -1.
       -2   -1    0    0    0  501  0.00000000000E+00  0.00000000000E+00 -0.11007845267E+04  0.11007845267E+04  0.25500000920E-02 0.  1.
    10030    2    1    2    0    0  0.00000000000E+00  0.00000000000E+00  0.12765946901E+04  0.34781637436E+04  0.32354179057E+04 0.  0.
        5    1    3    3  502    0  0.10768711952E+04 -0.82784310464E+03 -0.30625036213E+03  0.13924033723E+04  0.46999998093E+01 0.  1.
       -5    1    3    3    0  502 -0.10768711952E+04  0.82784310464E+03  0.15828450522E+04  0.20857603712E+04  0.46999998093E+01 0. -1.
</event>
<event>
 5   0  0.2722449E-06  0.3331417E+04  0.7818609E-02  0.8154947E-01
       -2   -1    0    0    0  501  0.00000000000E+00  0.00000000000E+00  0.86886556337E+03  0.86886556338E+03  0.25500000920E-02 0. -1.
        2   -1    0    0  501    0  0.00000000000E+00  0.00000000000E+00 -0.31933421604E+04  0.31933421604E+04  0.25500000920E-02 0.  1.
    10030    2    1    2    0    0  0.00000000000E+00  0.00000000000E+00 -0.23244765970E+04  0.40622077237E+04  0.33314171370E+04 0.  0.
        2    1    3    3  502    0  0.78857780796E+02  0.40331133989E+03 -0.31305589814E+04  0.31574163683E+04  0.25500000920E-02 0.  1.
       -2    1    3    3    0  502 -0.78857780796E+02 -0.40331133989E+03  0.80608238442E+03  0.90479135548E+03  0.25500000920E-02 0. -1.
</event>
<event>
 5   0  0.1654257E-06  0.3219044E+04  0.7818609E-02  0.8183806E-01
       -1   -1    0    0    0  501  0.00000000000E+00  0.00000000000E+00  0.15016462467E+04  0.15016462467E+04  0.50400001928E-02 0.  1.
        1   -1    0    0  501    0  0.00000000000E+00  0.00000000000E+00 -0.17251471045E+04  0.17251471045E+04  0.50400001928E-02 0. -1.
    10030    2    1    2    0    0  0.00000000000E+00  0.00000000000E+00 -0.22350085778E+03  0.32267933512E+04  0.32190437552E+04 0.  0.
        3    1    3    3  502    0 -0.31182359904E+03  0.37118735522E+03 -0.16502243140E+04  0.17199576467E+04  0.10100000352E+00 0. -1.
       -3    1    3    3    0  502  0.31182359904E+03 -0.37118735522E+03  0.14267234562E+04  0.15068357045E+04  0.10100000352E+00 0.  1.
</event>
</LesHouchesEvents>
