<LesHouchesEvents version="3.0">
<header>
<!--
#*********************************************************************
#                                                                    *
#                        MadGraph5_aMC@NLO                           *
#                                                                    *
#                           Going Beyond                             *
#                                                                    *
#                   http://madgraph.hep.uiuc.edu                     *
#                   http://madgraph.phys.ucl.ac.be                   *
#                   http://amcatnlo.cern.ch                          *
#                                                                    *
#                     The MadGraph5_aMC@NLO team                     *
#                                                                    *
#....................................................................*
#                                                                    *
# This file contains all the information necessary to reproduce      *
# the events generated:                                              *
#                                                                    *
# 1. software version                                                *
# 2. proc_card          : code generation info including model       *
# 3. param_card         : model primary parameters in the LH format  *
# 4. run_card           : running parameters (collider and cuts)     *
# 5. pythia_card        : present only if pythia has been run        *
# 6. pgs_card           : present only if pgs has been run           *
# 7. delphes_cards      : present only if delphes has been run       *
#                                                                    *
#                                                                    *
#*********************************************************************
-->
<MGVersion>
#5.2.2.3
</MGVersion>
<MG5ProcCard>
#************************************************************
#*                     MadGraph5_aMC@NLO                    *
#*                                                          *
#*                *                       *                 *
#*                  *        * *        *                   *
#*                    * * * * 5 * * * *                     *
#*                  *        * *        *                   *
#*                *                       *                 *
#*                                                          *
#*                                                          *
#*         VERSION 2.2.3                 2015-02-10         *
#*                                                          *
#*    The MadGraph5_aMC@NLO Development Team - Find us at   *
#*    https://server06.fynu.ucl.ac.be/projects/madgraph     *
#*                                                          *
#************************************************************
#*                                                          *
#*               Command File for MadGraph5_aMC@NLO         *
#*                                                          *
#*     run as ./bin/mg5_aMC  filename                       *
#*                                                          *
#************************************************************
set group_subprocesses Auto
set ignore_six_quark_processes False
set loop_optimized_output True
set gauge unitary
set complex_mass_scheme False
import model sm
define p = g u c d s u~ c~ d~ s~
define j = g u c d s u~ c~ d~ s~
define l+ = e+ mu+
define l- = e- mu-
define vl = ve vm vt
define vl~ = ve~ vm~ vt~
import model Zprime_UFO
generate p p > zph, zph > j j
add process p p > zph, zph > b b~
output Dijet_signal
</MG5ProcCard>
<MGProcCard>
#*********************************************************************
#                        MadGraph/MadEvent                           *
#                   http://madgraph.hep.uiuc.edu                     *
#                                                                    *
#                          proc_card.dat                             *
#*********************************************************************
#                                                                    *
#            This Files is generated by MADGRAPH 5                   *
#                                                                    *
# WARNING: This Files is generated for MADEVENT (compatibility issue)*
#          This files is NOT a valid MG4 proc_card.dat               *
#          Running this in MG4 will NEVER reproduce the result of MG5*
#                                                                    *
#*********************************************************************
#*********************************************************************
# Process(es) requested : mg2 input                                  *
#*********************************************************************
# Begin PROCESS # This is TAG. Do not modify this line
p p > zph , zph > j j           #Process
# Be carefull the coupling are here in MG5 convention
          
end_coup           # End the couplings input

done               # this tells MG there are no more procs
# End PROCESS  # This is TAG. Do not modify this line
#*********************************************************************
# Model information                                                  *
#*********************************************************************
# Begin MODEL  # This is TAG. Do not modify this line
Zprime_UFO
# End   MODEL  # This is TAG. Do not modify this line
#*********************************************************************
# Start multiparticle definitions                                    *
#*********************************************************************
# Begin MULTIPARTICLES # This is TAG. Do not modify this line

# End  MULTIPARTICLES # This is TAG. Do not modify this line
</MGProcCard>
<MGRunCard>
#*********************************************************************
#                       MadGraph5_aMC@NLO                            *
#                                                                    *
#                     run_card.dat MadEvent                          *
#                                                                    *
#  This file is used to set the parameters of the run.               *
#                                                                    *
#  Some notation/conventions:                                        *
#                                                                    *
#   Lines starting with a '# ' are info or comments                  *
#                                                                    *
#   mind the format:   value    = variable     ! comment             *
#*********************************************************************
#
#*******************                                                 
# Running parameters
#*******************                                                 
#                                                                    
#*********************************************************************
# Tag name for the run (one word)                                    *
#*********************************************************************
  tag_1     = run_tag ! name of the run 
#*********************************************************************
# Run to generate the grid pack                                      *
#*********************************************************************
  .false.     = gridpack  !True = setting up the grid pack
#*********************************************************************
# Number of events and rnd seed                                      *
# Warning: Do not generate more than 1M events in a single run       *
# If you want to run Pythia, avoid more than 50k events in a run.    *
#*********************************************************************
  2000 = nevents ! Number of unweighted events requested 
 1929 = iseed   ! rnd seed (0=assigned automatically=default))
#*********************************************************************
# Collider type and energy                                           *
# lpp: 0=No PDF, 1=proton, -1=antiproton, 2=photon from proton,      *
#                                         3=photon from electron     *
#*********************************************************************
        1     = lpp1    ! beam 1 type 
        1     = lpp2    ! beam 2 type
     4000     = ebeam1  ! beam 1 total energy in GeV
     4000     = ebeam2  ! beam 2 total energy in GeV
#*********************************************************************
# Beam polarization from -100 (left-handed) to 100 (right-handed)    *
#*********************************************************************
        0     = polbeam1 ! beam polarization for beam 1
        0     = polbeam2 ! beam polarization for beam 2
#*********************************************************************
# PDF CHOICE: this automatically fixes also alpha_s and its evol.    *
#*********************************************************************
 'nn23lo1'    = pdlabel     ! PDF set                                     
 230000    = lhaid     ! if pdlabel=lhapdf, this is the lhapdf number
#*********************************************************************
# Renormalization and factorization scales                           *
#*********************************************************************
 F        = fixed_ren_scale  ! if .true. use fixed ren scale
 F        = fixed_fac_scale  ! if .true. use fixed fac scale
 91.1880  = scale            ! fixed ren scale
 91.1880  = dsqrt_q2fact1    ! fixed fact scale for pdf1
 91.1880  = dsqrt_q2fact2    ! fixed fact scale for pdf2
 1        = scalefact        ! scale factor for event-by-event scales
#*********************************************************************
# Matching - Warning! ickkw > 1 is still beta
#*********************************************************************
 0        = ickkw            ! 0 no matching, 1 MLM, 2 CKKW matching
 1        = highestmult      ! for ickkw=2, highest mult group
 1        = ktscheme         ! for ickkw=1, 1 Durham kT, 2 Pythia pTE
 1        = alpsfact         ! scale factor for QCD emission vx
 F        = chcluster        ! cluster only according to channel diag
 T        = pdfwgt           ! for ickkw=1, perform pdf reweighting
 5        = asrwgtflavor     ! highest quark flavor for a_s reweight
 T        = clusinfo         ! include clustering tag in output
 3.0      = lhe_version       ! Change the way clustering information pass to shower.        
#*********************************************************************
#**********************************************************
#
#**********************************************************
# Automatic ptj and mjj cuts if xqcut > 0
# (turn off for VBF and single top processes)
#**********************************************************
   T  = auto_ptj_mjj  ! Automatic setting of ptj and mjj
#**********************************************************
#                                                                    
#**********************************
# BW cutoff (M+/-bwcutoff*Gamma)
#**********************************
  15  = bwcutoff      ! (M+/-bwcutoff*Gamma)
#**********************************************************
# Apply pt/E/eta/dr/mij cuts on decay products or not
# (note that etmiss/ptll/ptheavy/ht/sorted cuts always apply)
#**********************************************************
   T  = cut_decays    ! Cut decay products 
#*************************************************************
# Number of helicities to sum per event (0 = all helicities)
# 0 gives more stable result, but longer run time (needed for
# long decay chains e.g.).
# Use >=2 if most helicities contribute, e.g. pure QCD.
#*************************************************************
   0  = nhel          ! Number of helicities used per event
#*******************                                                 
# Standard Cuts
#*******************                                                 
#                                                                    
#*********************************************************************
# Minimum and maximum pt's (for max, -1 means no cut)                *
#*********************************************************************
 20  = ptj       ! minimum pt for the jets 
  0  = ptb       ! minimum pt for the b 
 10  = pta       ! minimum pt for the photons 
 10  = ptl       ! minimum pt for the charged leptons 
  0  = misset    ! minimum missing Et (sum of neutrino's momenta)
  0  = ptheavy   ! minimum pt for one heavy final state
 1.0 = ptonium   ! minimum pt for the quarkonium states
 -1  = ptjmax    ! maximum pt for the jets
 -1  = ptbmax    ! maximum pt for the b
 -1  = ptamax    ! maximum pt for the photons
 -1  = ptlmax    ! maximum pt for the charged leptons
 -1  = missetmax ! maximum missing Et (sum of neutrino's momenta)
#*********************************************************************
# Minimum and maximum E's (in the center of mass frame)              *
#*********************************************************************
  0  = ej     ! minimum E for the jets 
  0  = eb     ! minimum E for the b 
  0  = ea     ! minimum E for the photons 
  0  = el     ! minimum E for the charged leptons 
 -1   = ejmax ! maximum E for the jets
 -1   = ebmax ! maximum E for the b
 -1   = eamax ! maximum E for the photons
 -1   = elmax ! maximum E for the charged leptons
#*********************************************************************
# Maximum and minimum absolute rapidity (for max, -1 means no cut)   *
#*********************************************************************
   5  = etaj    ! max rap for the jets 
  -1  = etab    ! max rap for the b
 2.5  = etaa    ! max rap for the photons 
 2.5  = etal    ! max rap for the charged leptons 
 0.6  = etaonium ! max rap for the quarkonium states
   0  = etajmin ! min rap for the jets
   0  = etabmin ! min rap for the b
   0  = etaamin ! min rap for the photons
   0  = etalmin ! main rap for the charged leptons
#*********************************************************************
# Minimum and maximum DeltaR distance                                *
#*********************************************************************
 0.4 = drjj    ! min distance between jets 
 0   = drbb    ! min distance between b's 
 0.4 = drll    ! min distance between leptons 
 0.4 = draa    ! min distance between gammas 
 0   = drbj    ! min distance between b and jet 
 0.4 = draj    ! min distance between gamma and jet 
 0.4 = drjl    ! min distance between jet and lepton 
 0   = drab    ! min distance between gamma and b 
 0   = drbl    ! min distance between b and lepton 
 0.4 = dral    ! min distance between gamma and lepton 
 -1  = drjjmax ! max distance between jets
 -1  = drbbmax ! max distance between b's
 -1  = drllmax ! max distance between leptons
 -1  = draamax ! max distance between gammas
 -1  = drbjmax ! max distance between b and jet
 -1  = drajmax ! max distance between gamma and jet
 -1  = drjlmax ! max distance between jet and lepton
 -1  = drabmax ! max distance between gamma and b
 -1  = drblmax ! max distance between b and lepton
 -1  = dralmax ! maxdistance between gamma and lepton
#*********************************************************************
# Minimum and maximum invariant mass for pairs                       *
# WARNING: for four lepton final state mmll cut require to have      *
#          different lepton masses for each flavor!                  *           
#*********************************************************************
 0   = mmjj    ! min invariant mass of a jet pair 
 0   = mmbb    ! min invariant mass of a b pair 
 0   = mmaa    ! min invariant mass of gamma gamma pair
 0   = mmll    ! min invariant mass of l+l- (same flavour) lepton pair
 -1  = mmjjmax ! max invariant mass of a jet pair
 -1  = mmbbmax ! max invariant mass of a b pair
 -1  = mmaamax ! max invariant mass of gamma gamma pair
 -1  = mmllmax ! max invariant mass of l+l- (same flavour) lepton pair
#*********************************************************************
# Minimum and maximum invariant mass for all letpons                 *
#*********************************************************************
 0   = mmnl    ! min invariant mass for all letpons (l+- and vl) 
 -1  = mmnlmax ! max invariant mass for all letpons (l+- and vl) 
#*********************************************************************
# Minimum and maximum pt for 4-momenta sum of leptons                *
#*********************************************************************
 0   = ptllmin  ! Minimum pt for 4-momenta sum of leptons(l and vl)
 -1  = ptllmax  ! Maximum pt for 4-momenta sum of leptons(l and vl)
#*********************************************************************
# Inclusive cuts                                                     *
#*********************************************************************
 0  = xptj ! minimum pt for at least one jet  
 0  = xptb ! minimum pt for at least one b 
 0  = xpta ! minimum pt for at least one photon 
 0  = xptl ! minimum pt for at least one charged lepton 
#*********************************************************************
# Control the pt's of the jets sorted by pt                          *
#*********************************************************************
 0   = ptj1min ! minimum pt for the leading jet in pt
 0   = ptj2min ! minimum pt for the second jet in pt
 0   = ptj3min ! minimum pt for the third jet in pt
 0   = ptj4min ! minimum pt for the fourth jet in pt
 -1  = ptj1max ! maximum pt for the leading jet in pt 
 -1  = ptj2max ! maximum pt for the second jet in pt
 -1  = ptj3max ! maximum pt for the third jet in pt
 -1  = ptj4max ! maximum pt for the fourth jet in pt
 0   = cutuse  ! reject event if fails any (0) / all (1) jet pt cuts
#*********************************************************************
# Control the pt's of leptons sorted by pt                           *
#*********************************************************************
 0   = ptl1min ! minimum pt for the leading lepton in pt
 0   = ptl2min ! minimum pt for the second lepton in pt
 0   = ptl3min ! minimum pt for the third lepton in pt
 0   = ptl4min ! minimum pt for the fourth lepton in pt
 -1  = ptl1max ! maximum pt for the leading lepton in pt 
 -1  = ptl2max ! maximum pt for the second lepton in pt
 -1  = ptl3max ! maximum pt for the third lepton in pt
 -1  = ptl4max ! maximum pt for the fourth lepton in pt
#*********************************************************************
# Control the Ht(k)=Sum of k leading jets                            *
#*********************************************************************
 0   = htjmin ! minimum jet HT=Sum(jet pt)
 -1  = htjmax ! maximum jet HT=Sum(jet pt)
 0   = ihtmin  !inclusive Ht for all partons (including b)
 -1  = ihtmax  !inclusive Ht for all partons (including b)
 0   = ht2min ! minimum Ht for the two leading jets
 0   = ht3min ! minimum Ht for the three leading jets
 0   = ht4min ! minimum Ht for the four leading jets
 -1  = ht2max ! maximum Ht for the two leading jets
 -1  = ht3max ! maximum Ht for the three leading jets
 -1  = ht4max ! maximum Ht for the four leading jets
#***********************************************************************
# Photon-isolation cuts, according to hep-ph/9801442                   *
# When ptgmin=0, all the other parameters are ignored                  *
# When ptgmin>0, pta and draj are not going to be used                 *
#***********************************************************************
   0 = ptgmin ! Min photon transverse momentum
 0.4 = R0gamma ! Radius of isolation code
 1.0 = xn ! n parameter of eq.(3.4) in hep-ph/9801442
 1.0 = epsgamma ! epsilon_gamma parameter of eq.(3.4) in hep-ph/9801442
 .true. = isoEM ! isolate photons from EM energy (photons and leptons)
#*********************************************************************
# WBF cuts                                                           *
#*********************************************************************
 0   = xetamin ! minimum rapidity for two jets in the WBF case  
 0   = deltaeta ! minimum rapidity for two jets in the WBF case 
#*********************************************************************
# KT DURHAM CUT                                                      *
#*********************************************************************
 -1    =  ktdurham        
 0.4  =  dparameter 
#*********************************************************************
# maximal pdg code for quark to be considered as a light jet         *
# (otherwise b cuts are applied)                                     *
#*********************************************************************
 4 = maxjetflavor    ! Maximum jet pdg code
#*********************************************************************
# Jet measure cuts                                                   *
#*********************************************************************
 0   = xqcut   ! minimum kt jet measure between partons
#*********************************************************************
#
#*********************************************************************
# Store info for systematics studies                                 *
# WARNING: If use_syst is T, matched Pythia output is                *
#          meaningful ONLY if plotted taking matchscale              *
#          reweighting into account!                                 *
#*********************************************************************
   F  = use_syst      ! Enable systematics studies
#
#**************************************
# Parameter of the systematics study
#  will be used by SysCalc (if installed)
#**************************************                                  
#
0.5 1 2 = sys_scalefact  # factorization/renormalization scale factor
0.5 1 2 = sys_alpsfact  # \alpha_s emission scale factors
30 50 = sys_matchscale # variation of merging scale
# PDF sets and number of members (0 or none for all members).
CT10nlo.LHgrid = sys_pdf # matching scales
# MSTW2008nlo68cl.LHgrid 1  = sys_pdf
</MGRunCard>
<slha>
######################################################################
## PARAM_CARD AUTOMATICALY GENERATED BY MG5 FOLLOWING UFO MODEL   ####
######################################################################
##                                                                  ##
##  Width set on Auto will be computed following the information    ##
##        present in the decay.py files of the model.               ##
##        See  arXiv:1402.1178 for more details.                    ##
##                                                                  ##
######################################################################

###################################
## INFORMATION FOR CKMBLOCK
###################################
Block ckmblock 
    1 2.277360e-01 # cabi 

###################################
## INFORMATION FOR FRBLOCK
###################################
Block frblock 
    1 1.000000e+00 # gz 

###################################
## INFORMATION FOR MASS
###################################
Block mass 
    1 5.040000e-03 # MD 
    2 2.550000e-03 # MU 
    3 1.010000e-01 # MS 
    4 1.270000e+00 # MC 
    5 4.700000e+00 # MB 
    6 1.720000e+02 # MT 
   11 5.110000e-04 # Me 
   13 1.056600e-01 # MM 
   15 1.777000e+00 # MTA 
   23 9.118760e+01 # MZ 
   25 1.200000e+02 # MH 
  10030 2.000000e+03 # MZph 
  10031 3.000000e+02 # MZpl 
## Dependent parameters, given by model restrictions.
## Those values should be edited following the 
## analytical expression. MG5 ignores those values 
## but they are important for interfacing the output of MG5
## to external program such as Pythia.
  12 0.000000 # ve : 0.0 
  14 0.000000 # vm : 0.0 
  16 0.000000 # vt : 0.0 
  21 0.000000 # g : 0.0 
  22 0.000000 # a : 0.0 
  24 79.824360 # w+ : cmath.sqrt(MZ__exp__2/2. + cmath.sqrt(MZ__exp__4/4. - (aEW*cmath.pi*MZ__exp__2)/(Gf*sqrt__2))) 

###################################
## INFORMATION FOR SMINPUTS
###################################
Block sminputs 
    1 1.279000e+02 # aEWM1 
    2 1.166370e-05 # Gf 
    3 1.184000e-01 # aS 

###################################
## INFORMATION FOR YUKAWA
###################################
Block yukawa 
    1 5.040000e-03 # ymdo 
    2 2.550000e-03 # ymup 
    3 1.010000e-01 # yms 
    4 1.270000e+00 # ymc 
    5 4.700000e+00 # ymb 
    6 1.720000e+02 # ymt 
   11 5.110000e-04 # yme 
   13 1.056600e-01 # ymm 
   15 1.777000e+00 # ymtau 

###################################
## INFORMATION FOR DECAY
###################################
DECAY   6 1.508336e+00 # WT 
DECAY  23 2.495200e+00 # WZ 
DECAY  24 2.085000e+00 # WW 
DECAY  25 5.753088e-03 # WH 
## Dependent parameters, given by model restrictions.
## Those values should be edited following the 
## analytical expression. MG5 ignores those values 
## but they are important for interfacing the output of MG5
## to external program such as Pythia.
DECAY  1 0.000000 # d : 0.0 
DECAY  2 0.000000 # u : 0.0 
DECAY  3 0.000000 # s : 0.0 
DECAY  4 0.000000 # c : 0.0 
DECAY  5 0.000000 # b : 0.0 
DECAY  11 0.000000 # e- : 0.0 
DECAY  12 0.000000 # ve : 0.0 
DECAY  13 0.000000 # mu- : 0.0 
DECAY  14 0.000000 # vm : 0.0 
DECAY  15 0.000000 # ta- : 0.0 
DECAY  16 0.000000 # vt : 0.0 
DECAY  21 0.000000 # g : 0.0 
DECAY  22 0.000000 # a : 0.0 
DECAY  10030 0.308725 # zph : (gz__exp__2*MZph*(5 + cmath.sqrt(1 - (4*MT__exp__2)/MZph__exp__2)))/(144.*cmath.pi) 
DECAY  10031 0.132629 # zpl : (5*gz__exp__2*MZpl)/(144.*cmath.pi) 
#===========================================================
# QUANTUM NUMBERS OF NEW STATE(S) (NON SM PDG CODE)
#===========================================================

Block QNUMBERS 10030  # zph 
        1 0  # 3 times electric charge
        2 3  # number of spin states (2S+1)
        3 1  # colour rep (1: singlet, 3: triplet, 8: octet)
        4 0  # Particle/Antiparticle distinction (0=own anti)
Block QNUMBERS 10031  # zpl 
        1 0  # 3 times electric charge
        2 3  # number of spin states (2S+1)
        3 1  # colour rep (1: singlet, 3: triplet, 8: octet)
        4 0  # Particle/Antiparticle distinction (0=own anti)
</slha>
## END BANNER##
<MGGenerationInfo>
#  Number of Events        :         3911
#  Integrated weight (pb)  :  0.35832E-01
#  Max wgt                 :  0.12818E-04
#  Average wgt             :  0.91619E-05
</MGGenerationInfo>
</header>
<init>
     2212     2212  0.40000000000E+04  0.40000000000E+04 0 0  247000  247000 2   1
  0.35863197669E-01  0.80739235677E-04  0.12817890000E-04   0
</init>
<event>
 5   0  0.1274868E-04  0.2009393E+04  0.7818609E-02  0.8602242E-01
       -2   -1    0    0    0  501  0.00000000000E+00  0.00000000000E+00  0.82674489270E+03  0.82674489270E+03  0.25500000920E-02 0. -1.
        2   -1    0    0  501    0  0.00000000000E+00  0.00000000000E+00 -0.12209509341E+04  0.12209509341E+04  0.25500000920E-02 0.  1.
    10030    2    1    2    0    0  0.00000000000E+00  0.00000000000E+00 -0.39420604137E+03  0.20476958268E+04  0.20093928924E+04 0.  0.
        1    1    3    3  502    0 -0.32589287252E+03 -0.20763240822E+03  0.74798975451E+03  0.84190620272E+03  0.50400001928E-02 0. -1.
       -1    1    3    3    0  502  0.32589287252E+03  0.20763240822E+03 -0.11421957959E+04  0.12057896240E+04  0.50400001928E-02 0.  1.
</event>
<event>
 5   0  0.1274868E-04  0.2017621E+04  0.7818609E-02  0.8598426E-01
        2   -1    0    0  501    0  0.00000000000E+00  0.00000000000E+00  0.13644876849E+04  0.13644876849E+04  0.25500000920E-02 0. -1.
       -2   -1    0    0    0  501  0.00000000000E+00  0.00000000000E+00 -0.74584682112E+03  0.74584682112E+03  0.25500000920E-02 0.  1.
    10030    2    1    2    0    0  0.00000000000E+00  0.00000000000E+00  0.61864086376E+03  0.21103345060E+04  0.20176211758E+04 0.  0.
        1    1    3    3  502    0 -0.97216436455E+03  0.90495540493E+02  0.57476521113E+03  0.11329819251E+04  0.50400001928E-02 0. -1.
       -1    1    3    3    0  502  0.97216436455E+03 -0.90495540493E+02  0.43875652633E+02  0.97735258094E+03  0.50400001928E-02 0.  1.
</event>
<event>
 5   0  0.1159914E-04  0.1725936E+04  0.7818609E-02  0.8746709E-01
       -2   -1    0    0    0  501  0.00000000000E+00  0.00000000000E+00  0.74598252326E+03  0.74598252326E+03  0.25500000920E-02 0.  1.
        2   -1    0    0  501    0  0.00000000000E+00  0.00000000000E+00 -0.99829954873E+03  0.99829954874E+03  0.25500000920E-02 0. -1.
    10030    2    1    2    0    0  0.00000000000E+00  0.00000000000E+00 -0.25231702548E+03  0.17442820720E+04  0.17259362866E+04 0.  0.
        3    1    3    3  502    0  0.38128226191E+03  0.28429440279E+03  0.60157508410E+03  0.76687160771E+03  0.10100000352E+00 0.  1.
       -3    1    3    3    0  502 -0.38128226191E+03 -0.28429440279E+03 -0.85389210958E+03  0.97741046429E+03  0.10100000352E+00 0. -1.
</event>
<event>
 5   0  0.1274868E-04  0.1997281E+04  0.7818609E-02  0.8607893E-01
        2   -1    0    0  501    0  0.00000000000E+00  0.00000000000E+00  0.19812596165E+04  0.19812596165E+04  0.25500000920E-02 0.  1.
       -2   -1    0    0    0  501  0.00000000000E+00  0.00000000000E+00 -0.50335793632E+03  0.50335793632E+03  0.25500000920E-02 0. -1.
    10030    2    1    2    0    0  0.00000000000E+00  0.00000000000E+00  0.14779016802E+04  0.24846175529E+04  0.19972809035E+04 0.  0.
        1    1    3    3  502    0  0.26579645565E+03  0.91425310670E+03  0.11137568322E+04  0.14652510980E+04  0.50400001928E-02 0.  1.
       -1    1    3    3    0  502 -0.26579645565E+03 -0.91425310670E+03  0.36414484806E+03  0.10193664549E+04  0.50400001928E-02 0. -1.
</event>
<event>
 5   0  0.1159914E-04  0.2003696E+04  0.7818609E-02  0.8604895E-01
        2   -1    0    0  501    0  0.00000000000E+00  0.00000000000E+00  0.28489750642E+04  0.28489750642E+04  0.25500000920E-02 0. -1.
       -2   -1    0    0    0  501  0.00000000000E+00  0.00000000000E+00 -0.35230200261E+03  0.35230200262E+03  0.25500000920E-02 0.  1.
    10030    2    1    2    0    0  0.00000000000E+00  0.00000000000E+00  0.24966730616E+04  0.32012770668E+04  0.20036962050E+04 0.  0.
        3    1    3    3  502    0  0.54369123438E+03  0.15970291570E+03  0.25683329652E+04  0.26301025474E+04  0.10100000352E+00 0. -1.
       -3    1    3    3    0  502 -0.54369123438E+03 -0.15970291570E+03 -0.71659903601E+02  0.57117451940E+03  0.10100000352E+00 0.  1.
</event>
<event>
 5   0  0.6256535E-05  0.1819528E+04  0.7818609E-02  0.8695983E-01
        1   -1    0    0  501    0  0.00000000000E+00  0.00000000000E+00  0.19125928151E+04  0.19125928151E+04  0.50400001928E-02 0.  1.
       -1   -1    0    0    0  501  0.00000000000E+00  0.00000000000E+00 -0.43274780846E+03  0.43274780849E+03  0.50400001928E-02 0. -1.
    10030    2    1    2    0    0  0.00000000000E+00  0.00000000000E+00  0.14798450066E+04  0.23453406236E+04  0.18195277951E+04 0.  0.
        1    1    3    3  502    0 -0.12553988243E+03 -0.62066650884E+03 -0.10205403348E+03  0.64140642580E+03  0.50400001928E-02 0. -1.
       -1    1    3    3    0  502  0.12553988243E+03  0.62066650884E+03  0.15818990401E+04  0.17039341978E+04  0.50400001928E-02 0.  1.
</event>
<event>
 5   0  0.6214547E-05  0.1988036E+04  0.7818609E-02  0.8612235E-01
        1   -1    0    0  501    0  0.00000000000E+00  0.00000000000E+00  0.10936986643E+04  0.10936986644E+04  0.50400001928E-02 0. -1.
       -1   -1    0    0    0  501  0.00000000000E+00  0.00000000000E+00 -0.90342216606E+03  0.90342216607E+03  0.50400001928E-02 0.  1.
    10030    2    1    2    0    0  0.00000000000E+00  0.00000000000E+00  0.19027649829E+03  0.19971208304E+04  0.19880358311E+04 0.  0.
        3    1    3    3  502    0  0.44266417589E+03  0.38883158178E+03  0.89937783456E+03  0.10751846684E+04  0.10100000352E+00 0. -1.
       -3    1    3    3    0  502 -0.44266417589E+03 -0.38883158178E+03 -0.70910133627E+03  0.92193616206E+03  0.10100000352E+00 0.  1.
</event>
<event>
 5   0  0.1274868E-04  0.2004214E+04  0.7818609E-02  0.8604653E-01
       -2   -1    0    0    0  501  0.00000000000E+00  0.00000000000E+00  0.84376349787E+03  0.84376349788E+03  0.25500000920E-02 0.  1.
        2   -1    0    0  501    0  0.00000000000E+00  0.00000000000E+00 -0.11901658011E+04  0.11901658011E+04  0.25500000920E-02 0. -1.
    10030    2    1    2    0    0  0.00000000000E+00  0.00000000000E+00 -0.34640230320E+03  0.20339292989E+04  0.20042140199E+04 0.  0.
        1    1    3    3  502    0  0.15070206606E+03 -0.85292718782E+03 -0.68468026056E+03  0.11040756132E+04  0.50400001928E-02 0.  1.
       -1    1    3    3    0  502 -0.15070206606E+03  0.85292718782E+03  0.33827795736E+03  0.92985368575E+03  0.50400001928E-02 0. -1.
</event>
<event>
 5   0  0.6222733E-05  0.2013689E+04  0.7818609E-02  0.8600247E-01
       -1   -1    0    0    0  501  0.00000000000E+00  0.00000000000E+00  0.88500949861E+03  0.88500949862E+03  0.50400001928E-02 0. -1.
        1   -1    0    0  501    0  0.00000000000E+00  0.00000000000E+00 -0.11454522575E+04  0.11454522575E+04  0.50400001928E-02 0.  1.
    10030    2    1    2    0    0  0.00000000000E+00  0.00000000000E+00 -0.26044275891E+03  0.20304617562E+04  0.20136892790E+04 0.  0.
        2    1    3    3  502    0  0.18286334084E+03  0.94753160833E+03 -0.41980850945E+03  0.10523755674E+04  0.25500000920E-02 0.  1.
       -2    1    3    3    0  502 -0.18286334084E+03 -0.94753160833E+03  0.15936575053E+03  0.97808618877E+03  0.25500000920E-02 0. -1.
</event>
<event>
 5   0  0.1274868E-04  0.2001304E+04  0.7818609E-02  0.8606011E-01
        2   -1    0    0  501    0  0.00000000000E+00  0.00000000000E+00  0.14240132809E+04  0.14240132809E+04  0.25500000920E-02 0. -1.
       -2   -1    0    0    0  501  0.00000000000E+00  0.00000000000E+00 -0.70315652410E+03  0.70315652410E+03  0.25500000920E-02 0.  1.
    10030    2    1    2    0    0  0.00000000000E+00  0.00000000000E+00  0.72085675683E+03  0.21271698050E+04  0.20013038039E+04 0.  0.
        1    1    3    3  502    0  0.11260601853E+03  0.92848339330E+03 -0.17672503355E+02  0.93545381738E+03  0.50400001928E-02 0.  1.
       -1    1    3    3    0  502 -0.11260601853E+03 -0.92848339330E+03  0.73852926018E+03  0.11917159877E+04  0.50400001928E-02 0. -1.
</event>
<event>
 5   0  0.4479000E-05  0.1998046E+04  0.7818609E-02  0.8607535E-01
       -4   -1    0    0    0  501  0.00000000000E+00  0.00000000000E+00  0.14164549575E+04  0.14164555268E+04  0.12699999809E+01 0.  1.
        4   -1    0    0  501    0  0.00000000000E+00  0.00000000000E+00 -0.70460796248E+03  0.70460910701E+03  0.12699999809E+01 0. -1.
    10030    2    1    2    0    0  0.00000000000E+00  0.00000000000E+00  0.71184699500E+03  0.21210646338E+04  0.19980463049E+04 0.  0.
        2    1    3    3  502    0  0.15578362584E+03  0.24848261144E+03  0.13697278076E+04  0.14007735053E+04  0.25500000920E-02 0.  1.
       -2    1    3    3    0  502 -0.15578362584E+03 -0.24848261144E+03 -0.65788081258E+03  0.72029112853E+03  0.25500000920E-02 0. -1.
</event>
<event>
 5   0  0.1244229E-04  0.1974684E+04  0.7818609E-02  0.8618549E-01
        2   -1    0    0  501    0  0.00000000000E+00  0.00000000000E+00  0.19973172760E+04  0.19973172760E+04  0.25500000920E-02 0.  1.
       -2   -1    0    0    0  501  0.00000000000E+00  0.00000000000E+00 -0.48807702075E+03  0.48807702075E+03  0.25500000920E-02 0. -1.
    10030    2    1    2    0    0  0.00000000000E+00  0.00000000000E+00  0.15092402553E+04  0.24853942968E+04  0.19746844463E+04 0.  0.
        5    1    3    3  502    0 -0.83777621048E+03 -0.28890182210E+03  0.13025058419E+04  0.15753973466E+04  0.46999998093E+01 0.  1.
       -5    1    3    3    0  502  0.83777621048E+03  0.28890182210E+03  0.20673441345E+03  0.90999695019E+03  0.46999998093E+01 0. -1.
</event>
<event>
 5   0  0.6168338E-05  0.2026914E+04  0.7818609E-02  0.8594140E-01
        1   -1    0    0  501    0  0.00000000000E+00  0.00000000000E+00  0.16919111818E+04  0.16919111819E+04  0.50400001928E-02 0. -1.
       -1   -1    0    0    0  501  0.00000000000E+00  0.00000000000E+00 -0.60706179506E+03  0.60706179508E+03  0.50400001928E-02 0.  1.
    10030    2    1    2    0    0  0.00000000000E+00  0.00000000000E+00  0.10848493868E+04  0.22989729769E+04  0.20269135543E+04 0.  0.
        5    1    3    3  502    0  0.49741113446E+03 -0.50151444329E+03  0.13667000915E+04  0.15384491553E+04  0.46999998093E+01 0. -1.
       -5    1    3    3    0  502 -0.49741113446E+03  0.50151444329E+03 -0.28185070467E+03  0.76052382161E+03  0.46999998093E+01 0.  1.
</event>
<event>
 5   0  0.6256535E-05  0.1958095E+04  0.7818609E-02  0.8626467E-01
       -1   -1    0    0    0  501  0.00000000000E+00  0.00000000000E+00  0.16314829371E+04  0.16314829371E+04  0.50400001928E-02 0. -1.
        1   -1    0    0  501    0  0.00000000000E+00  0.00000000000E+00 -0.58752312006E+03  0.58752312008E+03  0.50400001928E-02 0.  1.
    10030    2    1    2    0    0  0.00000000000E+00  0.00000000000E+00  0.10439598171E+04  0.22190060572E+04  0.19580949370E+04 0.  0.
        1    1    3    3  502    0 -0.20068889102E+03  0.80678643957E+03 -0.63979760867E+02  0.83383079811E+03  0.50400001928E-02 0.  1.
       -1    1    3    3    0  502  0.20068889102E+03 -0.80678643957E+03  0.11079395779E+04  0.13851752591E+04  0.50400001928E-02 0. -1.
</event>
<event>
 5   0  0.6214547E-05  0.1998595E+04  0.7818609E-02  0.8607278E-01
       -1   -1    0    0    0  501  0.00000000000E+00  0.00000000000E+00  0.74861077443E+03  0.74861077445E+03  0.50400001928E-02 0.  1.
        1   -1    0    0  501    0  0.00000000000E+00  0.00000000000E+00 -0.13339311758E+04  0.13339311758E+04  0.50400001928E-02 0. -1.
    10030    2    1    2    0    0  0.00000000000E+00  0.00000000000E+00 -0.58532040136E+03  0.20825419503E+04  0.19985947569E+04 0.  0.
        3    1    3    3  502    0 -0.42670043727E+03 -0.24555876761E+03 -0.11987973132E+04  0.12959503770E+04  0.10100000352E+00 0. -1.
       -3    1    3    3    0  502  0.42670043727E+03  0.24555876761E+03  0.61347691181E+03  0.78659157320E+03  0.10100000352E+00 0.  1.
</event>
<event>
 5   0  0.6214547E-05  0.2016189E+04  0.7818609E-02  0.8599089E-01
        1   -1    0    0  501    0  0.00000000000E+00  0.00000000000E+00  0.10916621842E+04  0.10916621842E+04  0.50400001928E-02 0.  1.
       -1   -1    0    0    0  501  0.00000000000E+00  0.00000000000E+00 -0.93092354576E+03  0.93092354577E+03  0.50400001928E-02 0. -1.
    10030    2    1    2    0    0  0.00000000000E+00  0.00000000000E+00  0.16073863842E+03  0.20225857300E+04  0.20161885143E+04 0.  0.
        3    1    3    3  502    0 -0.56908705019E+03  0.20407683643E+03  0.88961754278E+03  0.10756053219E+04  0.10100000352E+00 0.  1.
       -3    1    3    3    0  502  0.56908705019E+03 -0.20407683643E+03 -0.72887890436E+03  0.94698040807E+03  0.10100000352E+00 0. -1.
</event>
<event>
 5   0  0.1274868E-04  0.1988058E+04  0.7818609E-02  0.8612224E-01
       -2   -1    0    0    0  501  0.00000000000E+00  0.00000000000E+00  0.64212386631E+03  0.64212386632E+03  0.25500000920E-02 0. -1.
        2   -1    0    0  501    0  0.00000000000E+00  0.00000000000E+00 -0.15387904081E+04  0.15387904081E+04  0.25500000920E-02 0.  1.
    10030    2    1    2    0    0  0.00000000000E+00  0.00000000000E+00 -0.89666654182E+03  0.21809142744E+04  0.19880583958E+04 0.  0.
        1    1    3    3  502    0 -0.98891347931E+03  0.86012842227E+02 -0.39084792205E+03  0.10668224673E+04  0.50400001928E-02 0. -1.
       -1    1    3    3    0  502  0.98891347931E+03 -0.86012842227E+02 -0.50581861977E+03  0.11140918071E+04  0.50400001928E-02 0.  1.
</event>
<event>
 5   0  0.6028501E-05  0.1977617E+04  0.7818609E-02  0.8617158E-01
       -1   -1    0    0    0  501  0.00000000000E+00  0.00000000000E+00  0.68011622077E+03  0.68011622079E+03  0.50400001928E-02 0. -1.
        1   -1    0    0  501    0  0.00000000000E+00  0.00000000000E+00 -0.14376098610E+04  0.14376098610E+04  0.50400001928E-02 0.  1.
    10030    2    1    2    0    0  0.00000000000E+00  0.00000000000E+00 -0.75749364027E+03  0.21177260818E+04  0.19776165307E+04 0.  0.
        4    1    3    3  502    0 -0.20962306583E+03  0.19601611373E+03 -0.13920290647E+04  0.14213059756E+04  0.12699999809E+01 0.  1.
       -4    1    3    3    0  502  0.20962306583E+03 -0.19601611373E+03  0.63453542442E+03  0.69642010619E+03  0.12699999809E+01 0. -1.
</event>
<event>
 5   0  0.6256535E-05  0.1992657E+04  0.7818609E-02  0.8610061E-01
        1   -1    0    0  501    0  0.00000000000E+00  0.00000000000E+00  0.13373017923E+04  0.13373017923E+04  0.50400001928E-02 0. -1.
       -1   -1    0    0    0  501  0.00000000000E+00  0.00000000000E+00 -0.74229371394E+03  0.74229371396E+03  0.50400001928E-02 0.  1.
    10030    2    1    2    0    0  0.00000000000E+00  0.00000000000E+00  0.59500807840E+03  0.20795955063E+04  0.19926572351E+04 0.  0.
        1    1    3    3  502    0  0.21926123438E+03  0.69774048030E+03  0.10035973249E+04  0.12418231989E+04  0.50400001928E-02 0. -1.
       -1    1    3    3    0  502 -0.21926123438E+03 -0.69774048030E+03 -0.40858924646E+03  0.83777230743E+03  0.50400001928E-02 0.  1.
</event>
<event>
 5   0  0.1281789E-04  0.2017221E+04  0.7818609E-02  0.8598611E-01
        2   -1    0    0  501    0  0.00000000000E+00  0.00000000000E+00  0.83720051399E+03  0.83720051400E+03  0.25500000920E-02 0.  1.
       -2   -1    0    0    0  501  0.00000000000E+00  0.00000000000E+00 -0.12151153144E+04  0.12151153144E+04  0.25500000920E-02 0. -1.
    10030    2    1    2    0    0  0.00000000000E+00  0.00000000000E+00 -0.37791480042E+03  0.20523158284E+04  0.20172210249E+04 0.  0.
        2    1    3    3  502    0 -0.14637183348E+03 -0.97798059664E+03 -0.39096759204E+03  0.10633562052E+04  0.25500000920E-02 0. -1.
       -2    1    3    3    0  502  0.14637183348E+03  0.97798059664E+03  0.13052791617E+02  0.98895962325E+03  0.25500000920E-02 0.  1.
</event>
<event>
 5   0  0.6214547E-05  0.1986216E+04  0.7818609E-02  0.8613092E-01
        1   -1    0    0  501    0  0.00000000000E+00  0.00000000000E+00  0.70620763113E+03  0.70620763114E+03  0.50400001928E-02 0. -1.
       -1   -1    0    0    0  501  0.00000000000E+00  0.00000000000E+00 -0.13965631406E+04  0.13965631406E+04  0.50400001928E-02 0.  1.
    10030    2    1    2    0    0  0.00000000000E+00  0.00000000000E+00 -0.69035550942E+03  0.21027707717E+04  0.19862160479E+04 0.  0.
        3    1    3    3  502    0 -0.79308502984E+03 -0.24643409569E+03  0.23134219854E+03  0.86210953545E+03  0.10100000352E+00 0. -1.
       -3    1    3    3    0  502  0.79308502984E+03  0.24643409569E+03 -0.92169770797E+03  0.12406612363E+04  0.10100000352E+00 0.  1.
</event>
<event>
 5   0  0.1159914E-04  0.2013354E+04  0.7818609E-02  0.8600403E-01
       -2   -1    0    0    0  501  0.00000000000E+00  0.00000000000E+00  0.96046868124E+03  0.96046868124E+03  0.25500000920E-02 0. -1.
        2   -1    0    0  501    0  0.00000000000E+00  0.00000000000E+00 -0.10551084049E+04  0.10551084049E+04  0.25500000920E-02 0.  1.
    10030    2    1    2    0    0  0.00000000000E+00  0.00000000000E+00 -0.94639723701E+02  0.20155770862E+04  0.20133539960E+04 0.  0.
        3    1    3    3  502    0  0.60206811510E+03 -0.62248365888E+01  0.76033845190E+03  0.96986562752E+03  0.10100000352E+00 0. -1.
       -3    1    3    3    0  502 -0.60206811510E+03  0.62248365888E+01 -0.85497817560E+03  0.10457114587E+04  0.10100000352E+00 0.  1.
</event>
<event>
 5   0  0.6256535E-05  0.2016090E+04  0.7818609E-02  0.8599135E-01
       -1   -1    0    0    0  501  0.00000000000E+00  0.00000000000E+00  0.80101089914E+03  0.80101089916E+03  0.50400001928E-02 0.  1.
        1   -1    0    0  501    0  0.00000000000E+00  0.00000000000E+00 -0.12685904414E+04  0.12685904414E+04  0.50400001928E-02 0. -1.
    10030    2    1    2    0    0  0.00000000000E+00  0.00000000000E+00 -0.46757954222E+03  0.20696013405E+04  0.20160900477E+04 0.  0.
        1    1    3    3  502    0 -0.16858195706E+03  0.23044596446E+03 -0.12262120964E+04  0.12590160143E+04  0.50400001928E-02 0. -1.
       -1    1    3    3    0  502  0.16858195706E+03 -0.23044596446E+03  0.75863255421E+03  0.81058532624E+03  0.50400001928E-02 0.  1.
</event>
<event>
 5   0  0.1281789E-04  0.1977447E+04  0.7818609E-02  0.8617238E-01
       -2   -1    0    0    0  501  0.00000000000E+00  0.00000000000E+00  0.65619182182E+03  0.65619182182E+03  0.25500000920E-02 0.  1.
        2   -1    0    0  501    0  0.00000000000E+00  0.00000000000E+00 -0.14897692135E+04  0.14897692135E+04  0.25500000920E-02 0. -1.
    10030    2    1    2    0    0  0.00000000000E+00  0.00000000000E+00 -0.83357739171E+03  0.21459610354E+04  0.19774472173E+04 0.  0.
        2    1    3    3  502    0 -0.33854133835E+03 -0.26370031402E+03  0.54986345802E+03  0.69749402568E+03  0.25500000920E-02 0.  1.
       -2    1    3    3    0  502  0.33854133835E+03  0.26370031402E+03 -0.13834408497E+04  0.14484670097E+04  0.25500000920E-02 0. -1.
</event>
<event>
 5   0  0.6222733E-05  0.1998705E+04  0.7818609E-02  0.8607226E-01
        1   -1    0    0  501    0  0.00000000000E+00  0.00000000000E+00  0.11851783492E+04  0.11851783492E+04  0.50400001928E-02 0. -1.
       -1   -1    0    0    0  501  0.00000000000E+00  0.00000000000E+00 -0.84266252490E+03  0.84266252492E+03  0.50400001928E-02 0.  1.
    10030    2    1    2    0    0  0.00000000000E+00  0.00000000000E+00  0.34251582433E+03  0.20278408742E+04  0.19987049610E+04 0.  0.
        2    1    3    3  502    0  0.21100925331E+03 -0.32397130105E+03 -0.76370863976E+03  0.85599836176E+03  0.25500000920E-02 0.  1.
       -2    1    3    3    0  502 -0.21100925331E+03  0.32397130105E+03  0.11062244641E+04  0.11718425124E+04  0.25500000920E-02 0. -1.
</event>
<event>
 5   0  0.1159914E-04  0.1654808E+04  0.7818609E-02  0.8787567E-01
       -2   -1    0    0    0  501  0.00000000000E+00  0.00000000000E+00  0.76663408661E+03  0.76663408661E+03  0.25500000920E-02 0. -1.
        2   -1    0    0  501    0  0.00000000000E+00  0.00000000000E+00 -0.89299093253E+03  0.89299093253E+03  0.25500000920E-02 0.  1.
    10030    2    1    2    0    0  0.00000000000E+00  0.00000000000E+00 -0.12635684592E+03  0.16596250191E+04  0.16548078897E+04 0.  0.
        3    1    3    3  502    0 -0.61290275541E+03  0.48683224442E+03  0.20582215253E+03  0.80933194084E+03  0.10100000352E+00 0. -1.
       -3    1    3    3    0  502  0.61290275541E+03 -0.48683224442E+03 -0.33217899845E+03  0.85029307830E+03  0.10100000352E+00 0.  1.
</event>
<event>
 5   0  0.1244229E-04  0.2009333E+04  0.7818609E-02  0.8602269E-01
        2   -1    0    0  501    0  0.00000000000E+00  0.00000000000E+00  0.78502956118E+03  0.78502956119E+03  0.25500000920E-02 0. -1.
       -2   -1    0    0    0  501  0.00000000000E+00  0.00000000000E+00 -0.12857542921E+04  0.12857542921E+04  0.25500000920E-02 0.  1.
    10030    2    1    2    0    0  0.00000000000E+00  0.00000000000E+00 -0.50072473092E+03  0.20707838533E+04  0.20093333499E+04 0.  0.
        5    1    3    3  502    0  0.22134112243E+03 -0.19974022332E+03 -0.12391014367E+04  0.12744734245E+04  0.46999998093E+01 0.  1.
       -5    1    3    3    0  502 -0.22134112243E+03  0.19974022332E+03  0.73837670581E+03  0.79631042878E+03  0.46999998093E+01 0. -1.
</event>
<event>
 5   0  0.6222733E-05  0.1991485E+04  0.7818609E-02  0.8610612E-01
       -1   -1    0    0    0  501  0.00000000000E+00  0.00000000000E+00  0.12877486462E+04  0.12877486462E+04  0.50400001928E-02 0.  1.
        1   -1    0    0  501    0  0.00000000000E+00  0.00000000000E+00 -0.76995079204E+03  0.76995079206E+03  0.50400001928E-02 0. -1.
    10030    2    1    2    0    0  0.00000000000E+00  0.00000000000E+00  0.51779785417E+03  0.20576994383E+04  0.19914849637E+04 0.  0.
        2    1    3    3  502    0  0.39991033087E+02  0.33621060489E+03 -0.70864698272E+03  0.78537723400E+03  0.25500000920E-02 0. -1.
       -2    1    3    3    0  502 -0.39991033087E+02 -0.33621060489E+03  0.12264448369E+04  0.12723222043E+04  0.25500000920E-02 0.  1.
</event>
<event>
 5   0  0.1159914E-04  0.1984943E+04  0.7818609E-02  0.8613693E-01
       -2   -1    0    0    0  501  0.00000000000E+00  0.00000000000E+00  0.71777772883E+03  0.71777772883E+03  0.25500000920E-02 0.  1.
        2   -1    0    0  501    0  0.00000000000E+00  0.00000000000E+00 -0.13722907395E+04  0.13722907395E+04  0.25500000920E-02 0. -1.
    10030    2    1    2    0    0  0.00000000000E+00  0.00000000000E+00 -0.65451301070E+03  0.20900684684E+04  0.19849430524E+04 0.  0.
        3    1    3    3  502    0  0.67445182786E+03 -0.28957742321E+03 -0.10306626129E+04  0.12653085726E+04  0.10100000352E+00 0. -1.
       -3    1    3    3    0  502 -0.67445182786E+03  0.28957742321E+03  0.37614960222E+03  0.82475989572E+03  0.10100000352E+00 0.  1.
</event>
<event>
 5   0  0.1274868E-04  0.1998205E+04  0.7818609E-02  0.8607460E-01
        2   -1    0    0  501    0  0.00000000000E+00  0.00000000000E+00  0.13181792577E+04  0.13181792577E+04  0.25500000920E-02 0.  1.
       -2   -1    0    0    0  501  0.00000000000E+00  0.00000000000E+00 -0.75726086756E+03  0.75726086756E+03  0.25500000920E-02 0. -1.
    10030    2    1    2    0    0  0.00000000000E+00  0.00000000000E+00  0.56091839013E+03  0.20754401253E+04  0.19982047626E+04 0.  0.
        1    1    3    3  502    0 -0.87054750938E+03 -0.40524152174E+03  0.56704428080E+03  0.11151739207E+04  0.50400001928E-02 0.  1.
       -1    1    3    3    0  502  0.87054750938E+03  0.40524152174E+03 -0.61258906674E+01  0.96026620454E+03  0.50400001928E-02 0. -1.
</event>
<event>
 5   0  0.6168338E-05  0.2029957E+04  0.7818609E-02  0.8592741E-01
       -1   -1    0    0    0  501  0.00000000000E+00  0.00000000000E+00  0.88566864219E+03  0.88566864220E+03  0.50400001928E-02 0. -1.
        1   -1    0    0  501    0  0.00000000000E+00  0.00000000000E+00 -0.11631681886E+04  0.11631681887E+04  0.50400001928E-02 0.  1.
    10030    2    1    2    0    0  0.00000000000E+00  0.00000000000E+00 -0.27749954646E+03  0.20488368309E+04  0.20299572314E+04 0.  0.
        5    1    3    3  502    0 -0.49916416417E+03 -0.42676885437E+03 -0.91980945305E+03  0.11302070774E+04  0.46999998093E+01 0.  1.
       -5    1    3    3    0  502  0.49916416417E+03  0.42676885437E+03  0.64230990659E+03  0.91862975347E+03  0.46999998093E+01 0. -1.
</event>
<event>
 5   0  0.1159914E-04  0.2032150E+04  0.7818609E-02  0.8591735E-01
        2   -1    0    0  501    0  0.00000000000E+00  0.00000000000E+00  0.15910965199E+04  0.15910965199E+04  0.25500000920E-02 0. -1.
       -2   -1    0    0    0  501  0.00000000000E+00  0.00000000000E+00 -0.64886581495E+03  0.64886581496E+03  0.25500000920E-02 0.  1.
    10030    2    1    2    0    0  0.00000000000E+00  0.00000000000E+00  0.94223070494E+03  0.22399623348E+04  0.20321497386E+04 0.  0.
        3    1    3    3  502    0  0.92840121137E+03 -0.12538085756E+03  0.37491750306E+02  0.93757922879E+03  0.10100000352E+00 0. -1.
       -3    1    3    3    0  502 -0.92840121137E+03  0.12538085756E+03  0.90473895463E+03  0.13023831061E+04  0.10100000352E+00 0.  1.
</event>
<event>
 5   0  0.6028501E-05  0.1992235E+04  0.7818609E-02  0.8610260E-01
       -1   -1    0    0    0  501  0.00000000000E+00  0.00000000000E+00  0.86063861108E+03  0.86063861109E+03  0.50400001928E-02 0. -1.
        1   -1    0    0  501    0  0.00000000000E+00  0.00000000000E+00 -0.11529229670E+04  0.11529229670E+04  0.50400001928E-02 0.  1.
    10030    2    1    2    0    0  0.00000000000E+00  0.00000000000E+00 -0.29228435592E+03  0.20135615781E+04  0.19922349470E+04 0.  0.
        4    1    3    3  502    0  0.56470531918E+03  0.72877401107E+03  0.23504868911E+03  0.95144792599E+03  0.12699999809E+01 0. -1.
       -4    1    3    3    0  502 -0.56470531918E+03 -0.72877401107E+03 -0.52733304503E+03  0.10621136521E+04  0.12699999809E+01 0.  1.
</event>
<event>
 5   0  0.6256535E-05  0.2004216E+04  0.7818609E-02  0.8604652E-01
        1   -1    0    0  501    0  0.00000000000E+00  0.00000000000E+00  0.10913490157E+04  0.10913490158E+04  0.50400001928E-02 0.  1.
       -1   -1    0    0    0  501  0.00000000000E+00  0.00000000000E+00 -0.92016397629E+03  0.92016397631E+03  0.50400001928E-02 0. -1.
    10030    2    1    2    0    0  0.00000000000E+00  0.00000000000E+00  0.17118503945E+03  0.20115129921E+04  0.20042156070E+04 0.  0.
        1    1    3    3  502    0 -0.76018809223E+03  0.47495076676E+03  0.53528180847E+03  0.10440262357E+04  0.50400001928E-02 0.  1.
       -1    1    3    3    0  502  0.76018809223E+03 -0.47495076676E+03 -0.36409676902E+03  0.96748675632E+03  0.50400001928E-02 0. -1.
</event>
<event>
 5   0  0.6214547E-05  0.1983737E+04  0.7818609E-02  0.8614262E-01
        1   -1    0    0  501    0  0.00000000000E+00  0.00000000000E+00  0.24638021210E+04  0.24638021210E+04  0.50400001928E-02 0. -1.
       -1   -1    0    0    0  501  0.00000000000E+00  0.00000000000E+00 -0.39930295416E+03  0.39930295419E+03  0.50400001928E-02 0.  1.
    10030    2    1    2    0    0  0.00000000000E+00  0.00000000000E+00  0.20644991669E+04  0.28631050752E+04  0.19837373470E+04 0.  0.
        3    1    3    3  502    0 -0.95703326362E+03  0.93915043322E+02  0.13830332536E+04  0.16844921175E+04  0.10100000352E+00 0.  1.
       -3    1    3    3    0  502  0.95703326362E+03 -0.93915043322E+02  0.68146591327E+03  0.11786129578E+04  0.10100000352E+00 0. -1.
</event>
<event>
 5   0  0.1242761E-04  0.2009222E+04  0.7818609E-02  0.8602321E-01
       -2   -1    0    0    0  501  0.00000000000E+00  0.00000000000E+00  0.13894111092E+04  0.13894111092E+04  0.25500000920E-02 0.  1.
        2   -1    0    0  501    0  0.00000000000E+00  0.00000000000E+00 -0.72638226830E+03  0.72638226830E+03  0.25500000920E-02 0. -1.
    10030    2    1    2    0    0  0.00000000000E+00  0.00000000000E+00  0.66302884092E+03  0.21157933775E+04  0.20092223303E+04 0.  0.
        4    1    3    3  502    0  0.15904507010E+03 -0.94955477820E+03  0.63359655394E+03  0.11525605482E+04  0.12699999809E+01 0.  1.
       -4    1    3    3    0  502 -0.15904507010E+03  0.94955477820E+03  0.29432286975E+02  0.96323282935E+03  0.12699999809E+01 0. -1.
</event>
<event>
 5   0  0.1242761E-04  0.1995739E+04  0.7818609E-02  0.8608615E-01
       -2   -1    0    0    0  501  0.00000000000E+00  0.00000000000E+00  0.56847247021E+03  0.56847247022E+03  0.25500000920E-02 0.  1.
        2   -1    0    0  501    0  0.00000000000E+00  0.00000000000E+00 -0.17516134479E+04  0.17516134479E+04  0.25500000920E-02 0. -1.
    10030    2    1    2    0    0  0.00000000000E+00  0.00000000000E+00 -0.11831409777E+04  0.23200859181E+04  0.19957394856E+04 0.  0.
        4    1    3    3  502    0 -0.11739849885E+03  0.68646057466E+03  0.23922992280E+03  0.73637157533E+03  0.12699999809E+01 0.  1.
       -4    1    3    3    0  502  0.11739849885E+03 -0.68646057466E+03 -0.14223709005E+04  0.15837143428E+04  0.12699999809E+01 0. -1.
</event>
<event>
 5   0  0.4479000E-05  0.2009536E+04  0.7818609E-02  0.8602175E-01
        4   -1    0    0  501    0  0.00000000000E+00  0.00000000000E+00  0.10939977427E+04  0.10939984799E+04  0.12699999809E+01 0. -1.
       -4   -1    0    0    0  501  0.00000000000E+00  0.00000000000E+00 -0.92281416718E+03  0.92281504108E+03  0.12699999809E+01 0.  1.
    10030    2    1    2    0    0  0.00000000000E+00  0.00000000000E+00  0.17118357556E+03  0.20168135210E+04  0.20095355090E+04 0.  0.
        5    1    3    3  502    0 -0.24654075078E+03  0.18564757196E+03 -0.87405575695E+03  0.92695356897E+03  0.46999998093E+01 0.  1.
       -5    1    3    3    0  502  0.24654075078E+03 -0.18564757196E+03  0.10452393325E+04  0.10898599520E+04  0.46999998093E+01 0. -1.
</event>
<event>
 5   0  0.6168338E-05  0.2004437E+04  0.7818609E-02  0.8604549E-01
       -1   -1    0    0    0  501  0.00000000000E+00  0.00000000000E+00  0.14994144455E+04  0.14994144455E+04  0.50400001928E-02 0.  1.
        1   -1    0    0  501    0  0.00000000000E+00  0.00000000000E+00 -0.66988971748E+03  0.66988971750E+03  0.50400001928E-02 0. -1.
    10030    2    1    2    0    0  0.00000000000E+00  0.00000000000E+00  0.82952472801E+03  0.21693041630E+04  0.20044373967E+04 0.  0.
        5    1    3    3  502    0 -0.26459318021E+03  0.30972220767E+03 -0.57624079855E+03  0.70570032227E+03  0.46999998093E+01 0. -1.
       -5    1    3    3    0  502  0.26459318021E+03 -0.30972220767E+03  0.14057655266E+04  0.14636038407E+04  0.46999998093E+01 0.  1.
</event>
<event>
 5   0  0.6168338E-05  0.2016481E+04  0.7818609E-02  0.8598954E-01
       -1   -1    0    0    0  501  0.00000000000E+00  0.00000000000E+00  0.46362192118E+03  0.46362192121E+03  0.50400001928E-02 0.  1.
        1   -1    0    0  501    0  0.00000000000E+00  0.00000000000E+00 -0.21926238058E+04  0.21926238058E+04  0.50400001928E-02 0. -1.
    10030    2    1    2    0    0  0.00000000000E+00  0.00000000000E+00 -0.17290018846E+04  0.26562457270E+04  0.20164805591E+04 0.  0.
        5    1    3    3  502    0 -0.54955677730E+02 -0.66286365649E+03 -0.18626026479E+04  0.19778066305E+04  0.46999998093E+01 0. -1.
       -5    1    3    3    0  502  0.54955677730E+02  0.66286365649E+03  0.13360076338E+03  0.67843909645E+03  0.46999998093E+01 0.  1.
</event>
<event>
 5   0  0.1281789E-04  0.1929425E+04  0.7818609E-02  0.8640347E-01
        2   -1    0    0  501    0  0.00000000000E+00  0.00000000000E+00  0.14018677836E+04  0.14018677836E+04  0.25500000920E-02 0.  1.
       -2   -1    0    0    0  501  0.00000000000E+00  0.00000000000E+00 -0.66387853274E+03  0.66387853274E+03  0.25500000920E-02 0. -1.
    10030    2    1    2    0    0  0.00000000000E+00  0.00000000000E+00  0.73798925084E+03  0.20657463163E+04  0.19294247094E+04 0.  0.
        2    1    3    3  502    0 -0.79862021283E+02  0.69847202521E+03  0.10762982104E+04  0.12855578362E+04  0.25500000920E-02 0.  1.
       -2    1    3    3    0  502  0.79862021283E+02 -0.69847202521E+03 -0.33830895955E+03  0.78018848015E+03  0.25500000920E-02 0. -1.
</event>
<event>
 5   0  0.1159914E-04  0.2014967E+04  0.7818609E-02  0.8599655E-01
        2   -1    0    0  501    0  0.00000000000E+00  0.00000000000E+00  0.11079028961E+04  0.11079028961E+04  0.25500000920E-02 0.  1.
       -2   -1    0    0    0  501  0.00000000000E+00  0.00000000000E+00 -0.91616594720E+03  0.91616594721E+03  0.25500000920E-02 0. -1.
    10030    2    1    2    0    0  0.00000000000E+00  0.00000000000E+00  0.19173694891E+03  0.20240688433E+04  0.20149669042E+04 0.  0.
        3    1    3    3  502    0  0.78498553575E+02  0.97243697695E+03 -0.15671755956E+03  0.98810733259E+03  0.10100000352E+00 0. -1.
       -3    1    3    3    0  502 -0.78498553575E+02 -0.97243697695E+03  0.34845450846E+03  0.10359615107E+04  0.10100000352E+00 0.  1.
</event>
<event>
 5   0  0.1274868E-04  0.2011018E+04  0.7818609E-02  0.8601487E-01
        2   -1    0    0  501    0  0.00000000000E+00  0.00000000000E+00  0.58921816595E+03  0.58921816596E+03  0.25500000920E-02 0.  1.
       -2   -1    0    0    0  501  0.00000000000E+00  0.00000000000E+00 -0.17159147964E+04  0.17159147965E+04  0.25500000920E-02 0. -1.
    10030    2    1    2    0    0  0.00000000000E+00  0.00000000000E+00 -0.11266966305E+04  0.23051329624E+04  0.20110178212E+04 0.  0.
        1    1    3    3  502    0  0.15629899013E+03  0.63042248168E+03 -0.14431937356E+04  0.15826149368E+04  0.50400001928E-02 0. -1.
       -1    1    3    3    0  502 -0.15629899013E+03 -0.63042248168E+03  0.31649710511E+03  0.72251802559E+03  0.50400001928E-02 0.  1.
</event>
<event>
 5   0  0.1281789E-04  0.2089783E+04  0.7818609E-02  0.8565757E-01
        2   -1    0    0  501    0  0.00000000000E+00  0.00000000000E+00  0.17748615043E+04  0.17748615043E+04  0.25500000920E-02 0. -1.
       -2   -1    0    0    0  501  0.00000000000E+00  0.00000000000E+00 -0.61514555694E+03  0.61514555694E+03  0.25500000920E-02 0.  1.
    10030    2    1    2    0    0  0.00000000000E+00  0.00000000000E+00  0.11597159473E+04  0.23900070612E+04  0.20897829251E+04 0.  0.
        2    1    3    3  502    0  0.10456952988E+03  0.72026336330E+03 -0.27757196981E+03  0.77894819951E+03  0.25500000920E-02 0.  1.
       -2    1    3    3    0  502 -0.10456952988E+03 -0.72026336330E+03  0.14372879171E+04  0.16110588617E+04  0.25500000920E-02 0. -1.
</event>
<event>
 5   0  0.1159914E-04  0.1988892E+04  0.7818609E-02  0.8611832E-01
       -2   -1    0    0    0  501  0.00000000000E+00  0.00000000000E+00  0.39800310785E+03  0.39800310786E+03  0.25500000920E-02 0.  1.
        2   -1    0    0  501    0  0.00000000000E+00  0.00000000000E+00 -0.24847107272E+04  0.24847107272E+04  0.25500000920E-02 0. -1.
    10030    2    1    2    0    0  0.00000000000E+00  0.00000000000E+00 -0.20867076193E+04  0.28827138350E+04  0.19888917432E+04 0.  0.
        3    1    3    3  502    0 -0.85835476226E+03  0.24662915577E+03 -0.40937488349E+03  0.98243912982E+03  0.10100000352E+00 0.  1.
       -3    1    3    3    0  502  0.85835476226E+03 -0.24662915577E+03 -0.16773327358E+04  0.19002747052E+04  0.10100000352E+00 0. -1.
</event>
<event>
 5   0  0.6214547E-05  0.2004253E+04  0.7818609E-02  0.8604635E-01
       -1   -1    0    0    0  501  0.00000000000E+00  0.00000000000E+00  0.99592623362E+03  0.99592623363E+03  0.50400001928E-02 0.  1.
        1   -1    0    0  501    0  0.00000000000E+00  0.00000000000E+00 -0.10083651612E+04  0.10083651612E+04  0.50400001928E-02 0. -1.
    10030    2    1    2    0    0  0.00000000000E+00  0.00000000000E+00 -0.12438927590E+02  0.20042913948E+04  0.20042527956E+04 0.  0.
        3    1    3    3  502    0  0.64400197947E+03 -0.76084388159E+03 -0.10934926005E+03  0.10027857361E+04  0.10100000352E+00 0. -1.
       -3    1    3    3    0  502 -0.64400197947E+03  0.76084388159E+03  0.96910332464E+02  0.10015056587E+04  0.10100000352E+00 0.  1.
</event>
<event>
 5   0  0.1244229E-04  0.2007086E+04  0.7818609E-02  0.8603315E-01
        2   -1    0    0  501    0  0.00000000000E+00  0.00000000000E+00  0.14162323772E+04  0.14162323772E+04  0.25500000920E-02 0. -1.
       -2   -1    0    0    0  501  0.00000000000E+00  0.00000000000E+00 -0.71111131651E+03  0.71111131651E+03  0.25500000920E-02 0.  1.
    10030    2    1    2    0    0  0.00000000000E+00  0.00000000000E+00  0.70512106068E+03  0.21273436937E+04  0.20070863163E+04 0.  0.
        5    1    3    3  502    0 -0.58247460316E+03  0.34289660699E+02 -0.51283010693E+03  0.77683283449E+03  0.46999998093E+01 0.  1.
       -5    1    3    3    0  502  0.58247460316E+03 -0.34289660699E+02  0.12179511676E+04  0.13505108592E+04  0.46999998093E+01 0. -1.
</event>
<event>
 5   0  0.6168338E-05  0.1988894E+04  0.7818609E-02  0.8611831E-01
        1   -1    0    0  501    0  0.00000000000E+00  0.00000000000E+00  0.51395963780E+03  0.51395963782E+03  0.50400001928E-02 0.  1.
       -1   -1    0    0    0  501  0.00000000000E+00  0.00000000000E+00 -0.19241295345E+04  0.19241295345E+04  0.50400001928E-02 0. -1.
    10030    2    1    2    0    0  0.00000000000E+00  0.00000000000E+00 -0.14101698967E+04  0.24380891723E+04  0.19888940833E+04 0.  0.
        5    1    3    3  502    0 -0.46999619971E+03 -0.56376142153E+03 -0.15275752167E+04  0.16947659133E+04  0.46999998093E+01 0. -1.
       -5    1    3    3    0  502  0.46999619971E+03  0.56376142153E+03  0.11740532008E+03  0.74332325897E+03  0.46999998093E+01 0.  1.
</event>
<event>
 5   0  0.6214547E-05  0.1972783E+04  0.7818609E-02  0.8619452E-01
        1   -1    0    0  501    0  0.00000000000E+00  0.00000000000E+00  0.15522378015E+04  0.15522378015E+04  0.50400001928E-02 0.  1.
       -1   -1    0    0    0  501  0.00000000000E+00  0.00000000000E+00 -0.62681642601E+03  0.62681642603E+03  0.50400001928E-02 0. -1.
    10030    2    1    2    0    0  0.00000000000E+00  0.00000000000E+00  0.92542137546E+03  0.21790542275E+04  0.19727829592E+04 0.  0.
        3    1    3    3  502    0 -0.21070969640E+03 -0.71780351749E+03 -0.24741622628E+03  0.78794369412E+03  0.10100000352E+00 0. -1.
       -3    1    3    3    0  502  0.21070969640E+03  0.71780351749E+03  0.11728376017E+04  0.13911105334E+04  0.10100000352E+00 0.  1.
</event>
<event>
 5   0  0.1159914E-04  0.2007545E+04  0.7818609E-02  0.8603101E-01
       -2   -1    0    0    0  501  0.00000000000E+00  0.00000000000E+00  0.11921241213E+04  0.11921241213E+04  0.25500000920E-02 0.  1.
        2   -1    0    0  501    0  0.00000000000E+00  0.00000000000E+00 -0.84517945993E+03  0.84517945993E+03  0.25500000920E-02 0. -1.
    10030    2    1    2    0    0  0.00000000000E+00  0.00000000000E+00  0.34694466137E+03  0.20373035812E+04  0.20075445908E+04 0.  0.
        3    1    3    3  502    0 -0.46267245706E+03 -0.57825295292E+03 -0.51415323175E+03  0.90155190422E+03  0.10100000352E+00 0. -1.
       -3    1    3    3    0  502  0.46267245706E+03  0.57825295292E+03  0.86109789312E+03  0.11357516770E+04  0.10100000352E+00 0.  1.
</event>
<event>
 5   0  0.6256535E-05  0.2138809E+04  0.7818609E-02  0.8544338E-01
        1   -1    0    0  501    0  0.00000000000E+00  0.00000000000E+00  0.16774246749E+04  0.16774246749E+04  0.50400001928E-02 0.  1.
       -1   -1    0    0    0  501  0.00000000000E+00  0.00000000000E+00 -0.68177516011E+03  0.68177516013E+03  0.50400001928E-02 0. -1.
    10030    2    1    2    0    0  0.00000000000E+00  0.00000000000E+00  0.99564951474E+03  0.23591998350E+04  0.21388094598E+04 0.  0.
        1    1    3    3  502    0  0.61715000161E+03 -0.74279364275E+03 -0.88673115026E+01  0.96576143505E+03  0.50400001928E-02 0.  1.
       -1    1    3    3    0  502 -0.61715000161E+03  0.74279364275E+03  0.10045168262E+04  0.13934383999E+04  0.50400001928E-02 0. -1.
</event>
<event>
 5   0  0.6214547E-05  0.2014014E+04  0.7818609E-02  0.8600097E-01
       -1   -1    0    0    0  501  0.00000000000E+00  0.00000000000E+00  0.98001245901E+03  0.98001245903E+03  0.50400001928E-02 0. -1.
        1   -1    0    0  501    0  0.00000000000E+00  0.00000000000E+00 -0.10347446033E+04  0.10347446033E+04  0.50400001928E-02 0.  1.
    10030    2    1    2    0    0  0.00000000000E+00  0.00000000000E+00 -0.54732144242E+02  0.20147570623E+04  0.20140135085E+04 0.  0.
        3    1    3    3  502    0 -0.27853759272E+03 -0.68729425508E+02  0.93826521637E+03  0.98114654916E+03  0.10100000352E+00 0. -1.
       -3    1    3    3    0  502  0.27853759272E+03  0.68729425508E+02 -0.99299736061E+03  0.10336105131E+04  0.10100000352E+00 0.  1.
</event>
<event>
 5   0  0.6222733E-05  0.1991567E+04  0.7818609E-02  0.8610573E-01
       -1   -1    0    0    0  501  0.00000000000E+00  0.00000000000E+00  0.57827175743E+03  0.57827175745E+03  0.50400001928E-02 0. -1.
        1   -1    0    0  501    0  0.00000000000E+00  0.00000000000E+00 -0.17147387969E+04  0.17147387969E+04  0.50400001928E-02 0.  1.
    10030    2    1    2    0    0  0.00000000000E+00  0.00000000000E+00 -0.11364670394E+04  0.22930105543E+04  0.19915672398E+04 0.  0.
        2    1    3    3  502    0  0.68050169626E+03  0.56237950829E+03 -0.37817960529E+02  0.88361952678E+03  0.25500000920E-02 0. -1.
       -2    1    3    3    0  502 -0.68050169626E+03 -0.56237950829E+03 -0.10986490789E+04  0.14093910276E+04  0.25500000920E-02 0.  1.
</event>
<event>
 5   0  0.6168338E-05  0.1988924E+04  0.7818609E-02  0.8611817E-01
       -1   -1    0    0    0  501  0.00000000000E+00  0.00000000000E+00  0.71381522059E+03  0.71381522061E+03  0.50400001928E-02 0.  1.
        1   -1    0    0  501    0  0.00000000000E+00  0.00000000000E+00 -0.13854493567E+04  0.13854493567E+04  0.50400001928E-02 0. -1.
    10030    2    1    2    0    0  0.00000000000E+00  0.00000000000E+00 -0.67163413611E+03  0.20992645773E+04  0.19889241697E+04 0.  0.
        5    1    3    3  502    0  0.72621266903E+03  0.50570471942E+03 -0.81464873953E+03  0.12028286506E+04  0.46999998093E+01 0. -1.
       -5    1    3    3    0  502 -0.72621266903E+03 -0.50570471942E+03  0.14301460342E+03  0.89643592671E+03  0.46999998093E+01 0.  1.
</event>
<event>
 5   0  0.1242761E-04  0.1964000E+04  0.7818609E-02  0.8623639E-01
       -2   -1    0    0    0  501  0.00000000000E+00  0.00000000000E+00  0.73806514762E+03  0.73806514763E+03  0.25500000920E-02 0. -1.
        2   -1    0    0  501    0  0.00000000000E+00  0.00000000000E+00 -0.13065561052E+04  0.13065561052E+04  0.25500000920E-02 0.  1.
    10030    2    1    2    0    0  0.00000000000E+00  0.00000000000E+00 -0.56849095754E+03  0.20446212528E+04  0.19639995159E+04 0.  0.
        4    1    3    3  502    0 -0.89992124473E+03  0.34709565439E+03 -0.47617246123E+03  0.10756744237E+04  0.12699999809E+01 0.  1.
       -4    1    3    3    0  502  0.89992124473E+03 -0.34709565439E+03 -0.92318496317E+02  0.96894682912E+03  0.12699999809E+01 0. -1.
</event>
<event>
 5   0  0.1274868E-04  0.1979702E+04  0.7818609E-02  0.8616170E-01
       -2   -1    0    0    0  501  0.00000000000E+00  0.00000000000E+00  0.13604362384E+04  0.13604362384E+04  0.25500000920E-02 0.  1.
        2   -1    0    0  501    0  0.00000000000E+00  0.00000000000E+00 -0.72021386074E+03  0.72021386075E+03  0.25500000920E-02 0. -1.
    10030    2    1    2    0    0  0.00000000000E+00  0.00000000000E+00  0.64022237765E+03  0.20806500991E+04  0.19797020337E+04 0.  0.
        1    1    3    3  502    0 -0.53983880078E+03 -0.44554643715E+03 -0.41548339991E+03  0.81398035241E+03  0.50400001928E-02 0. -1.
       -1    1    3    3    0  502  0.53983880078E+03  0.44554643715E+03  0.10557057776E+04  0.12666697467E+04  0.50400001928E-02 0.  1.
</event>
<event>
 5   0  0.6028501E-05  0.1990275E+04  0.7818609E-02  0.8611181E-01
        1   -1    0    0  501    0  0.00000000000E+00  0.00000000000E+00  0.17279387033E+04  0.17279387033E+04  0.50400001928E-02 0.  1.
       -1   -1    0    0    0  501  0.00000000000E+00  0.00000000000E+00 -0.57310960266E+03  0.57310960269E+03  0.50400001928E-02 0. -1.
    10030    2    1    2    0    0  0.00000000000E+00  0.00000000000E+00  0.11548291007E+04  0.23010483060E+04  0.19902746180E+04 0.  0.
        4    1    3    3  502    0 -0.24267479414E+03 -0.45955734387E+03  0.15585819319E+04  0.16429434742E+04  0.12699999809E+01 0.  1.
       -4    1    3    3    0  502  0.24267479414E+03  0.45955734387E+03 -0.40375283125E+03  0.65810483182E+03  0.12699999809E+01 0. -1.
</event>
<event>
 5   0  0.1281789E-04  0.2318273E+04  0.7818609E-02  0.8470751E-01
        2   -1    0    0  501    0  0.00000000000E+00  0.00000000000E+00  0.13111798862E+04  0.13111798863E+04  0.25500000920E-02 0.  1.
       -2   -1    0    0    0  501  0.00000000000E+00  0.00000000000E+00 -0.10247236657E+04  0.10247236657E+04  0.25500000920E-02 0. -1.
    10030    2    1    2    0    0  0.00000000000E+00  0.00000000000E+00  0.28645622057E+03  0.23359035519E+04  0.23182726841E+04 0.  0.
        2    1    3    3  502    0 -0.18065785253E+02 -0.46638783949E+02 -0.10236358955E+04  0.10248570610E+04  0.25500000920E-02 0. -1.
       -2    1    3    3    0  502  0.18065785253E+02  0.46638783949E+02  0.13100921161E+04  0.13110464910E+04  0.25500000920E-02 0.  1.
</event>
<event>
 5   0  0.6168338E-05  0.2001734E+04  0.7818609E-02  0.8605810E-01
       -1   -1    0    0    0  501  0.00000000000E+00  0.00000000000E+00  0.16768858992E+04  0.16768858993E+04  0.50400001928E-02 0.  1.
        1   -1    0    0  501    0  0.00000000000E+00  0.00000000000E+00 -0.59737809616E+03  0.59737809619E+03  0.50400001928E-02 0. -1.
    10030    2    1    2    0    0  0.00000000000E+00  0.00000000000E+00  0.10795078031E+04  0.22742639954E+04  0.20017341542E+04 0.  0.
        5    1    3    3  502    0  0.55154165523E+03 -0.16862880725E+03  0.14690907514E+04  0.15782533377E+04  0.46999998093E+01 0.  1.
       -5    1    3    3    0  502 -0.55154165523E+03  0.16862880725E+03 -0.38958294832E+03  0.69601065775E+03  0.46999998093E+01 0. -1.
</event>
<event>
 5   0  0.1281789E-04  0.1984169E+04  0.7818609E-02  0.8614058E-01
        2   -1    0    0  501    0  0.00000000000E+00  0.00000000000E+00  0.17066522239E+04  0.17066522239E+04  0.25500000920E-02 0.  1.
       -2   -1    0    0    0  501  0.00000000000E+00  0.00000000000E+00 -0.57670314759E+03  0.57670314759E+03  0.25500000920E-02 0. -1.
    10030    2    1    2    0    0  0.00000000000E+00  0.00000000000E+00  0.11299490763E+04  0.22833553715E+04  0.19841690546E+04 0.  0.
        2    1    3    3  502    0  0.54590929043E+03 -0.63003106640E+03 -0.53968591324E+02  0.83538536429E+03  0.25500000920E-02 0. -1.
       -2    1    3    3    0  502 -0.54590929043E+03  0.63003106640E+03  0.11839176676E+04  0.14479700072E+04  0.25500000920E-02 0.  1.
</event>
<event>
 5   0  0.6028501E-05  0.1985503E+04  0.7818609E-02  0.8613429E-01
        1   -1    0    0  501    0  0.00000000000E+00  0.00000000000E+00  0.83992572897E+03  0.83992572898E+03  0.50400001928E-02 0.  1.
       -1   -1    0    0    0  501  0.00000000000E+00  0.00000000000E+00 -0.11733835747E+04  0.11733835748E+04  0.50400001928E-02 0. -1.
    10030    2    1    2    0    0  0.00000000000E+00  0.00000000000E+00 -0.33345784578E+03  0.20133093037E+04  0.19855025101E+04 0.  0.
        4    1    3    3  502    0 -0.57294468298E+03 -0.17026234963E+03 -0.97048282357E+03  0.11397777859E+04  0.12699999809E+01 0. -1.
       -4    1    3    3    0  502  0.57294468298E+03  0.17026234963E+03  0.63702497779E+03  0.87353151785E+03  0.12699999809E+01 0.  1.
</event>
<event>
 5   0  0.6028501E-05  0.2013478E+04  0.7818609E-02  0.8600345E-01
        1   -1    0    0  501    0  0.00000000000E+00  0.00000000000E+00  0.20678487491E+04  0.20678487491E+04  0.50400001928E-02 0.  1.
       -1   -1    0    0    0  501  0.00000000000E+00  0.00000000000E+00 -0.49013431001E+03  0.49013431004E+03  0.50400001928E-02 0. -1.
    10030    2    1    2    0    0  0.00000000000E+00  0.00000000000E+00  0.15777144390E+04  0.25579830591E+04  0.20134782044E+04 0.  0.
        4    1    3    3  502    0 -0.25175360278E+02 -0.99668748588E+03  0.61144103164E+03  0.11695646589E+04  0.12699999809E+01 0.  1.
       -4    1    3    3    0  502  0.25175360278E+02  0.99668748588E+03  0.96627340740E+03  0.13884184002E+04  0.12699999809E+01 0. -1.
</event>
<event>
 5   0  0.6222733E-05  0.1998009E+04  0.7818609E-02  0.8607552E-01
        1   -1    0    0  501    0  0.00000000000E+00  0.00000000000E+00  0.90734507496E+03  0.90734507497E+03  0.50400001928E-02 0.  1.
       -1   -1    0    0    0  501  0.00000000000E+00  0.00000000000E+00 -0.10999231644E+04  0.10999231644E+04  0.50400001928E-02 0. -1.
    10030    2    1    2    0    0  0.00000000000E+00  0.00000000000E+00 -0.19257808945E+03  0.20072682394E+04  0.19980088749E+04 0.  0.
        2    1    3    3  502    0  0.91712924949E+03  0.14419505166E+03 -0.46690460446E+03  0.10391911195E+04  0.25500000920E-02 0. -1.
       -2    1    3    3    0  502 -0.91712924949E+03 -0.14419505166E+03  0.27432651501E+03  0.96807711988E+03  0.25500000920E-02 0.  1.
</event>
<event>
 5   0  0.1242761E-04  0.1996396E+04  0.7818609E-02  0.8608308E-01
        2   -1    0    0  501    0  0.00000000000E+00  0.00000000000E+00  0.70305138760E+03  0.70305138760E+03  0.25500000920E-02 0.  1.
       -2   -1    0    0    0  501  0.00000000000E+00  0.00000000000E+00 -0.14172492023E+04  0.14172492023E+04  0.25500000920E-02 0. -1.
    10030    2    1    2    0    0  0.00000000000E+00  0.00000000000E+00 -0.71419781468E+03  0.21203005899E+04  0.19963957706E+04 0.  0.
        4    1    3    3  502    0 -0.21394211358E+03  0.59726856976E+03 -0.11755752885E+04  0.13358442440E+04  0.12699999809E+01 0. -1.
       -4    1    3    3    0  502  0.21394211358E+03 -0.59726856976E+03  0.46137747380E+03  0.78445634590E+03  0.12699999809E+01 0.  1.
</event>
<event>
 5   0  0.4479000E-05  0.1931340E+04  0.7818609E-02  0.8639412E-01
        3   -1    0    0  501    0  0.00000000000E+00  0.00000000000E+00  0.11281407820E+04  0.11281407865E+04  0.10100000352E+00 0.  1.
       -3   -1    0    0    0  501  0.00000000000E+00  0.00000000000E+00 -0.82659791482E+03  0.82659792099E+03  0.10100000352E+00 0. -1.
    10030    2    1    2    0    0  0.00000000000E+00  0.00000000000E+00  0.30154286714E+03  0.19547387075E+04  0.19313402895E+04 0.  0.
        1    1    3    3  502    0  0.46423707950E+03 -0.15518573248E+03 -0.69173166764E+03  0.84740272457E+03  0.50400001928E-02 0. -1.
       -1    1    3    3    0  502 -0.46423707950E+03  0.15518573248E+03  0.99327453479E+03  0.11073359829E+04  0.50400001928E-02 0.  1.
</event>
<event>
 5   0  0.1244229E-04  0.2004960E+04  0.7818609E-02  0.8604305E-01
       -2   -1    0    0    0  501  0.00000000000E+00  0.00000000000E+00  0.75148833847E+03  0.75148833847E+03  0.25500000920E-02 0.  1.
        2   -1    0    0  501    0  0.00000000000E+00  0.00000000000E+00 -0.13373009549E+04  0.13373009549E+04  0.25500000920E-02 0. -1.
    10030    2    1    2    0    0  0.00000000000E+00  0.00000000000E+00 -0.58581261641E+03  0.20887892934E+04  0.20049599224E+04 0.  0.
        5    1    3    3  502    0  0.93426374585E+03  0.36168015261E+03 -0.33021860612E+03  0.10548590889E+04  0.46999998093E+01 0. -1.
       -5    1    3    3    0  502 -0.93426374585E+03 -0.36168015261E+03 -0.25559401029E+03  0.10339302045E+04  0.46999998093E+01 0.  1.
</event>
<event>
 5   0  0.1244229E-04  0.1994389E+04  0.7818609E-02  0.8609248E-01
       -2   -1    0    0    0  501  0.00000000000E+00  0.00000000000E+00  0.24152210259E+04  0.24152210259E+04  0.25500000920E-02 0.  1.
        2   -1    0    0  501    0  0.00000000000E+00  0.00000000000E+00 -0.41172098332E+03  0.41172098333E+03  0.25500000920E-02 0. -1.
    10030    2    1    2    0    0  0.00000000000E+00  0.00000000000E+00  0.20035000426E+04  0.28269420093E+04  0.19943893058E+04 0.  0.
        5    1    3    3  502    0  0.63086317772E+03 -0.50869705699E+03  0.17814836195E+03  0.82977103689E+03  0.46999998093E+01 0. -1.
       -5    1    3    3    0  502 -0.63086317772E+03  0.50869705699E+03  0.18253516807E+04  0.19971709724E+04  0.46999998093E+01 0.  1.
</event>
<event>
 5   0  0.1242761E-04  0.2050677E+04  0.7818609E-02  0.8583287E-01
        2   -1    0    0  501    0  0.00000000000E+00  0.00000000000E+00  0.67200154831E+03  0.67200154832E+03  0.25500000920E-02 0.  1.
       -2   -1    0    0    0  501  0.00000000000E+00  0.00000000000E+00 -0.15644596310E+04  0.15644596310E+04  0.25500000920E-02 0. -1.
    10030    2    1    2    0    0  0.00000000000E+00  0.00000000000E+00 -0.89245808269E+03  0.22364611793E+04  0.20506772484E+04 0.  0.
        4    1    3    3  502    0 -0.82347681839E+03  0.12580690020E+03  0.20573986736E+03  0.85806290707E+03  0.12699999809E+01 0.  1.
       -4    1    3    3    0  502  0.82347681839E+03 -0.12580690020E+03 -0.10981979500E+04  0.13783982722E+04  0.12699999809E+01 0. -1.
</event>
<event>
 5   0  0.6028501E-05  0.1937838E+04  0.7818609E-02  0.8636248E-01
       -1   -1    0    0    0  501  0.00000000000E+00  0.00000000000E+00  0.78578779236E+03  0.78578779238E+03  0.50400001928E-02 0. -1.
        1   -1    0    0  501    0  0.00000000000E+00  0.00000000000E+00 -0.11947300079E+04  0.11947300079E+04  0.50400001928E-02 0.  1.
    10030    2    1    2    0    0  0.00000000000E+00  0.00000000000E+00 -0.40894221551E+03  0.19805178003E+04  0.19378382341E+04 0.  0.
        4    1    3    3  502    0 -0.15321601512E+03 -0.48512976783E+03 -0.10472394523E+04  0.11642757931E+04  0.12699999809E+01 0.  1.
       -4    1    3    3    0  502  0.15321601512E+03  0.48512976783E+03  0.63829723680E+03  0.81624200721E+03  0.12699999809E+01 0. -1.
</event>
<event>
 5   0  0.6222733E-05  0.1984085E+04  0.7818609E-02  0.8614098E-01
        1   -1    0    0  501    0  0.00000000000E+00  0.00000000000E+00  0.21946120246E+04  0.21946120246E+04  0.50400001928E-02 0.  1.
       -1   -1    0    0    0  501  0.00000000000E+00  0.00000000000E+00 -0.44843842496E+03  0.44843842499E+03  0.50400001928E-02 0. -1.
    10030    2    1    2    0    0  0.00000000000E+00  0.00000000000E+00  0.17461735997E+04  0.26430504496E+04  0.19840850383E+04 0.  0.
        2    1    3    3  502    0  0.39822291444E+03 -0.61894543521E+02 -0.33448040676E+03  0.52372661438E+03  0.25500000920E-02 0. -1.
       -2    1    3    3    0  502 -0.39822291444E+03  0.61894543521E+02  0.20806540064E+04  0.21193238352E+04  0.25500000920E-02 0.  1.
</event>
<event>
 5   0  0.1281789E-04  0.2043415E+04  0.7818609E-02  0.8586587E-01
       -2   -1    0    0    0  501  0.00000000000E+00  0.00000000000E+00  0.11959137365E+04  0.11959137365E+04  0.25500000920E-02 0. -1.
        2   -1    0    0  501    0  0.00000000000E+00  0.00000000000E+00 -0.87287769430E+03  0.87287769430E+03  0.25500000920E-02 0.  1.
    10030    2    1    2    0    0  0.00000000000E+00  0.00000000000E+00  0.32303604220E+03  0.20687914308E+04  0.20434152049E+04 0.  0.
        2    1    3    3  502    0  0.68161500746E+03 -0.25026088171E+03 -0.56619677283E+03  0.92076506932E+03  0.25500000920E-02 0.  1.
       -2    1    3    3    0  502 -0.68161500746E+03  0.25026088171E+03  0.88923281504E+03  0.11480263615E+04  0.25500000920E-02 0. -1.
</event>
<event>
 5   0  0.6222733E-05  0.2004047E+04  0.7818609E-02  0.8604731E-01
       -1   -1    0    0    0  501  0.00000000000E+00  0.00000000000E+00  0.85741084041E+03  0.85741084043E+03  0.50400001928E-02 0. -1.
        1   -1    0    0  501    0  0.00000000000E+00  0.00000000000E+00 -0.11710272647E+04  0.11710272647E+04  0.50400001928E-02 0.  1.
    10030    2    1    2    0    0  0.00000000000E+00  0.00000000000E+00 -0.31361642426E+03  0.20284381051E+04  0.20040473759E+04 0.  0.
        2    1    3    3  502    0  0.28153542007E+03  0.94342243831E+03  0.31856126577E+02  0.98504969553E+03  0.25500000920E-02 0. -1.
       -2    1    3    3    0  502 -0.28153542007E+03 -0.94342243831E+03 -0.34547255084E+03  0.10433884096E+04  0.25500000920E-02 0.  1.
</event>
<event>
 5   0  0.1159914E-04  0.2003058E+04  0.7818609E-02  0.8605192E-01
       -2   -1    0    0    0  501  0.00000000000E+00  0.00000000000E+00  0.87545312267E+03  0.87545312267E+03  0.25500000920E-02 0. -1.
        2   -1    0    0  501    0  0.00000000000E+00  0.00000000000E+00 -0.11457617571E+04  0.11457617571E+04  0.25500000920E-02 0.  1.
    10030    2    1    2    0    0  0.00000000000E+00  0.00000000000E+00 -0.27030863445E+03  0.20212148798E+04  0.20030583697E+04 0.  0.
        3    1    3    3  502    0  0.68301936396E+03 -0.22751930391E+03  0.56741847007E+03  0.91664835983E+03  0.10100000352E+00 0. -1.
       -3    1    3    3    0  502 -0.68301936396E+03  0.22751930391E+03 -0.83772710453E+03  0.11045665200E+04  0.10100000352E+00 0.  1.
</event>
<event>
 5   0  0.1244229E-04  0.2014480E+04  0.7818609E-02  0.8599881E-01
       -2   -1    0    0    0  501  0.00000000000E+00  0.00000000000E+00  0.99952636493E+03  0.99952636494E+03  0.25500000920E-02 0.  1.
        2   -1    0    0  501    0  0.00000000000E+00  0.00000000000E+00 -0.10150132902E+04  0.10150132902E+04  0.25500000920E-02 0. -1.
    10030    2    1    2    0    0  0.00000000000E+00  0.00000000000E+00 -0.15486925276E+02  0.20145396552E+04  0.20144801258E+04 0.  0.
        5    1    3    3  502    0 -0.20248646312E+03 -0.17927715995E+03 -0.97801405562E+03  0.10147288558E+04  0.46999998093E+01 0. -1.
       -5    1    3    3    0  502  0.20248646312E+03  0.17927715995E+03  0.96252713035E+03  0.99981079934E+03  0.46999998093E+01 0.  1.
</event>
<event>
 5   0  0.6168338E-05  0.2020053E+04  0.7818609E-02  0.8597302E-01
       -1   -1    0    0    0  501  0.00000000000E+00  0.00000000000E+00  0.92025370626E+03  0.92025370628E+03  0.50400001928E-02 0. -1.
        1   -1    0    0  501    0  0.00000000000E+00  0.00000000000E+00 -0.11085573517E+04  0.11085573517E+04  0.50400001928E-02 0.  1.
    10030    2    1    2    0    0  0.00000000000E+00  0.00000000000E+00 -0.18830364547E+03  0.20288110580E+04  0.20200534761E+04 0.  0.
        5    1    3    3  502    0  0.10406080993E+02  0.85955817242E+03 -0.62671797735E+03  0.10638355378E+04  0.46999998093E+01 0.  1.
       -5    1    3    3    0  502 -0.10406080993E+02 -0.85955817242E+03  0.43841433188E+03  0.96497552025E+03  0.46999998093E+01 0. -1.
</event>
<event>
 5   0  0.6214547E-05  0.2006334E+04  0.7818609E-02  0.8603665E-01
       -1   -1    0    0    0  501  0.00000000000E+00  0.00000000000E+00  0.12096498000E+04  0.12096498000E+04  0.50400001928E-02 0.  1.
        1   -1    0    0  501    0  0.00000000000E+00  0.00000000000E+00 -0.83193038429E+03  0.83193038430E+03  0.50400001928E-02 0. -1.
    10030    2    1    2    0    0  0.00000000000E+00  0.00000000000E+00  0.37771941575E+03  0.20415801844E+04  0.20063343919E+04 0.  0.
        3    1    3    3  502    0  0.50632620967E+03  0.77332395933E+03 -0.20779348598E+03  0.94740398969E+03  0.10100000352E+00 0. -1.
       -3    1    3    3    0  502 -0.50632620967E+03 -0.77332395933E+03  0.58551290172E+03  0.10941761947E+04  0.10100000352E+00 0.  1.
</event>
<event>
 5   0  0.1159914E-04  0.1886877E+04  0.7818609E-02  0.8661416E-01
       -2   -1    0    0    0  501  0.00000000000E+00  0.00000000000E+00  0.71518389333E+03  0.71518389333E+03  0.25500000920E-02 0. -1.
        2   -1    0    0  501    0  0.00000000000E+00  0.00000000000E+00 -0.12445417671E+04  0.12445417671E+04  0.25500000920E-02 0.  1.
    10030    2    1    2    0    0  0.00000000000E+00  0.00000000000E+00 -0.52935787378E+03  0.19597256605E+04  0.18868770245E+04 0.  0.
        3    1    3    3  502    0 -0.49220938269E+03  0.25244963712E+03  0.52907539949E+03  0.76545521374E+03  0.10100000352E+00 0. -1.
       -3    1    3    3    0  502  0.49220938269E+03 -0.25244963712E+03 -0.10584332733E+04  0.11942704467E+04  0.10100000352E+00 0.  1.
</event>
<event>
 5   0  0.1274868E-04  0.2094339E+04  0.7818609E-02  0.8563741E-01
       -2   -1    0    0    0  501  0.00000000000E+00  0.00000000000E+00  0.46339778497E+03  0.46339778498E+03  0.25500000920E-02 0. -1.
        2   -1    0    0  501    0  0.00000000000E+00  0.00000000000E+00 -0.23663561393E+04  0.23663561393E+04  0.25500000920E-02 0.  1.
    10030    2    1    2    0    0  0.00000000000E+00  0.00000000000E+00 -0.19029583543E+04  0.28297539243E+04  0.20943392212E+04 0.  0.
        1    1    3    3  502    0  0.37658373008E+03 -0.54582208805E+03  0.14355377484E+03  0.67848709926E+03  0.50400001928E-02 0. -1.
       -1    1    3    3    0  502 -0.37658373008E+03  0.54582208805E+03 -0.20465121292E+04  0.21512668250E+04  0.50400001928E-02 0.  1.
</event>
<event>
 5   0  0.1274868E-04  0.1998407E+04  0.7818609E-02  0.8607366E-01
        2   -1    0    0  501    0  0.00000000000E+00  0.00000000000E+00  0.14301959137E+04  0.14301959137E+04  0.25500000920E-02 0.  1.
       -2   -1    0    0    0  501  0.00000000000E+00  0.00000000000E+00 -0.69809175550E+03  0.69809175551E+03  0.25500000920E-02 0. -1.
    10030    2    1    2    0    0  0.00000000000E+00  0.00000000000E+00  0.73210415820E+03  0.21282876692E+04  0.19984073420E+04 0.  0.
        1    1    3    3  502    0  0.86631389777E+03  0.85475289050E+02 -0.15633940994E+03  0.88444774048E+03  0.50400001928E-02 0. -1.
       -1    1    3    3    0  502 -0.86631389777E+03 -0.85475289050E+02  0.88844356814E+03  0.12438399287E+04  0.50400001928E-02 0.  1.
</event>
<event>
 5   0  0.1281789E-04  0.1981348E+04  0.7818609E-02  0.8615391E-01
       -2   -1    0    0    0  501  0.00000000000E+00  0.00000000000E+00  0.63369383997E+03  0.63369383998E+03  0.25500000920E-02 0.  1.
        2   -1    0    0  501    0  0.00000000000E+00  0.00000000000E+00 -0.15487533547E+04  0.15487533547E+04  0.25500000920E-02 0. -1.
    10030    2    1    2    0    0  0.00000000000E+00  0.00000000000E+00 -0.91505951475E+03  0.21824471947E+04  0.19813484908E+04 0.  0.
        2    1    3    3  502    0 -0.76739646508E+03 -0.46187671332E+03  0.87661525462E+01  0.89571439552E+03  0.25500000920E-02 0.  1.
       -2    1    3    3    0  502  0.76739646508E+03  0.46187671332E+03 -0.92382566729E+03  0.12867327992E+04  0.25500000920E-02 0. -1.
</event>
<event>
 5   0  0.6256535E-05  0.2013279E+04  0.7818609E-02  0.8600438E-01
        1   -1    0    0  501    0  0.00000000000E+00  0.00000000000E+00  0.13874762250E+04  0.13874762250E+04  0.50400001928E-02 0. -1.
       -1   -1    0    0    0  501  0.00000000000E+00  0.00000000000E+00 -0.73033512985E+03  0.73033512986E+03  0.50400001928E-02 0.  1.
    10030    2    1    2    0    0  0.00000000000E+00  0.00000000000E+00  0.65714109516E+03  0.21178113549E+04  0.20132785490E+04 0.  0.
        1    1    3    3  502    0  0.99494472986E+03  0.15234034239E+03  0.31369288026E+03  0.10542892480E+04  0.50400001928E-02 0. -1.
       -1    1    3    3    0  502 -0.99494472986E+03 -0.15234034239E+03  0.34344821490E+03  0.10635221068E+04  0.50400001928E-02 0.  1.
</event>
<event>
 5   0  0.1274868E-04  0.2057058E+04  0.7818609E-02  0.8580399E-01
       -2   -1    0    0    0  501  0.00000000000E+00  0.00000000000E+00  0.47131681002E+03  0.47131681003E+03  0.25500000920E-02 0. -1.
        2   -1    0    0  501    0  0.00000000000E+00  0.00000000000E+00 -0.22445038443E+04  0.22445038443E+04  0.25500000920E-02 0.  1.
    10030    2    1    2    0    0  0.00000000000E+00  0.00000000000E+00 -0.17731870343E+04  0.27158206543E+04  0.20570584746E+04 0.  0.
        1    1    3    3  502    0 -0.14696103167E+03 -0.21059180445E+03  0.42831056384E+03  0.49939602727E+03  0.50400001928E-02 0. -1.
       -1    1    3    3    0  502  0.14696103167E+03  0.21059180445E+03 -0.22014975981E+04  0.22164246271E+04  0.50400001928E-02 0.  1.
</event>
<event>
 5   0  0.1242761E-04  0.1993756E+04  0.7818609E-02  0.8609546E-01
       -2   -1    0    0    0  501  0.00000000000E+00  0.00000000000E+00  0.78483310534E+03  0.78483310534E+03  0.25500000920E-02 0. -1.
        2   -1    0    0  501    0  0.00000000000E+00  0.00000000000E+00 -0.12662124915E+04  0.12662124915E+04  0.25500000920E-02 0.  1.
    10030    2    1    2    0    0  0.00000000000E+00  0.00000000000E+00 -0.48137938619E+03  0.20510455969E+04  0.19937557340E+04 0.  0.
        4    1    3    3  502    0  0.59372155689E+03 -0.76516590591E+03 -0.48365346638E+03  0.10825462757E+04  0.12699999809E+01 0.  1.
       -4    1    3    3    0  502 -0.59372155689E+03  0.76516590591E+03  0.22740801920E+01  0.96849932113E+03  0.12699999809E+01 0. -1.
</event>
<event>
 5   0  0.1159914E-04  0.1923289E+04  0.7818609E-02  0.8643350E-01
       -2   -1    0    0    0  501  0.00000000000E+00  0.00000000000E+00  0.15322208112E+04  0.15322208112E+04  0.25500000920E-02 0.  1.
        2   -1    0    0  501    0  0.00000000000E+00  0.00000000000E+00 -0.60354226768E+03  0.60354226769E+03  0.25500000920E-02 0. -1.
    10030    2    1    2    0    0  0.00000000000E+00  0.00000000000E+00  0.92867854347E+03  0.21357630788E+04  0.19232888737E+04 0.  0.
        3    1    3    3  502    0  0.32677259723E+03 -0.29711577255E+03 -0.48425673900E+03  0.65541033870E+03  0.10100000352E+00 0. -1.
       -3    1    3    3    0  502 -0.32677259723E+03  0.29711577255E+03  0.14129352825E+04  0.14803527401E+04  0.10100000352E+00 0.  1.
</event>
<event>
 5   0  0.6168338E-05  0.2031475E+04  0.7818609E-02  0.8592045E-01
        1   -1    0    0  501    0  0.00000000000E+00  0.00000000000E+00  0.20603663499E+04  0.20603663499E+04  0.50400001928E-02 0.  1.
       -1   -1    0    0    0  501  0.00000000000E+00  0.00000000000E+00 -0.50074732296E+03  0.50074732299E+03  0.50400001928E-02 0. -1.
    10030    2    1    2    0    0  0.00000000000E+00  0.00000000000E+00  0.15596190270E+04  0.25611136729E+04  0.20314752611E+04 0.  0.
        5    1    3    3  502    0  0.85677375561E+03 -0.32575249669E+03  0.22807528976E+03  0.94457206458E+03  0.46999998093E+01 0. -1.
       -5    1    3    3    0  502 -0.85677375561E+03  0.32575249669E+03  0.13315437372E+04  0.16165416083E+04  0.46999998093E+01 0.  1.
</event>
<event>
 5   0  0.6222733E-05  0.2007154E+04  0.7818609E-02  0.8603283E-01
       -1   -1    0    0    0  501  0.00000000000E+00  0.00000000000E+00  0.98575051684E+03  0.98575051685E+03  0.50400001928E-02 0. -1.
        1   -1    0    0  501    0  0.00000000000E+00  0.00000000000E+00 -0.10217261662E+04  0.10217261662E+04  0.50400001928E-02 0.  1.
    10030    2    1    2    0    0  0.00000000000E+00  0.00000000000E+00 -0.35975649337E+02  0.20074766830E+04  0.20071543004E+04 0.  0.
        2    1    3    3  502    0 -0.38095049124E+03 -0.73512410386E+02 -0.94368483161E+03  0.10203276007E+04  0.25500000920E-02 0.  1.
       -2    1    3    3    0  502  0.38095049124E+03  0.73512410386E+02  0.90770918227E+03  0.98714908238E+03  0.25500000920E-02 0. -1.
</event>
<event>
 5   0  0.1274868E-04  0.2088669E+04  0.7818609E-02  0.8566251E-01
        2   -1    0    0  501    0  0.00000000000E+00  0.00000000000E+00  0.16272077818E+04  0.16272077818E+04  0.25500000920E-02 0. -1.
       -2   -1    0    0    0  501  0.00000000000E+00  0.00000000000E+00 -0.67024919090E+03  0.67024919090E+03  0.25500000920E-02 0.  1.
    10030    2    1    2    0    0  0.00000000000E+00  0.00000000000E+00  0.95695859089E+03  0.22974569727E+04  0.20886691449E+04 0.  0.
        1    1    3    3  502    0 -0.99466167221E+03  0.11190771037E+02  0.82832540175E+03  0.12944497081E+04  0.50400001928E-02 0. -1.
       -1    1    3    3    0  502  0.99466167221E+03 -0.11190771037E+02  0.12863318915E+03  0.10030072646E+04  0.50400001928E-02 0.  1.
</event>
<event>
 5   0  0.1242761E-04  0.1941721E+04  0.7818609E-02  0.8634363E-01
        2   -1    0    0  501    0  0.00000000000E+00  0.00000000000E+00  0.20199606916E+04  0.20199606916E+04  0.25500000920E-02 0.  1.
       -2   -1    0    0    0  501  0.00000000000E+00  0.00000000000E+00 -0.46662813258E+03  0.46662813259E+03  0.25500000920E-02 0. -1.
    10030    2    1    2    0    0  0.00000000000E+00  0.00000000000E+00  0.15533325590E+04  0.24865888242E+04  0.19417213862E+04 0.  0.
        4    1    3    3  502    0 -0.27511472058E+03 -0.61081232683E+03  0.16765529052E+04  0.18054392997E+04  0.12699999809E+01 0.  1.
       -4    1    3    3    0  502  0.27511472058E+03  0.61081232683E+03 -0.12322034619E+03  0.68114952448E+03  0.12699999809E+01 0. -1.
</event>
<event>
 5   0  0.1159914E-04  0.1997589E+04  0.7818609E-02  0.8607749E-01
        2   -1    0    0  501    0  0.00000000000E+00  0.00000000000E+00  0.17693929126E+04  0.17693929126E+04  0.25500000920E-02 0. -1.
       -2   -1    0    0    0  501  0.00000000000E+00  0.00000000000E+00 -0.56380367858E+03  0.56380367859E+03  0.25500000920E-02 0.  1.
    10030    2    1    2    0    0  0.00000000000E+00  0.00000000000E+00  0.12055892340E+04  0.23331965912E+04  0.19975887795E+04 0.  0.
        3    1    3    3  502    0  0.84132153693E+02  0.22771734480E+03 -0.52882029559E+03  0.58187999075E+03  0.10100000352E+00 0.  1.
       -3    1    3    3    0  502 -0.84132153693E+02 -0.22771734480E+03  0.17344095296E+04  0.17513166005E+04  0.10100000352E+00 0. -1.
</event>
<event>
 5   0  0.6256535E-05  0.1990032E+04  0.7818609E-02  0.8611295E-01
       -1   -1    0    0    0  501  0.00000000000E+00  0.00000000000E+00  0.69719732940E+03  0.69719732942E+03  0.50400001928E-02 0. -1.
        1   -1    0    0  501    0  0.00000000000E+00  0.00000000000E+00 -0.14200523532E+04  0.14200523532E+04  0.50400001928E-02 0.  1.
    10030    2    1    2    0    0  0.00000000000E+00  0.00000000000E+00 -0.72285502381E+03  0.21172496826E+04  0.19900318674E+04 0.  0.
        1    1    3    3  502    0 -0.55091984683E+03 -0.47661753933E+03 -0.10825316201E+04  0.13048186330E+04  0.50400001928E-02 0.  1.
       -1    1    3    3    0  502  0.55091984683E+03  0.47661753933E+03  0.35967659634E+03  0.81243104963E+03  0.50400001928E-02 0. -1.
</event>
<event>
 5   0  0.1281789E-04  0.2009687E+04  0.7818609E-02  0.8602105E-01
        2   -1    0    0  501    0  0.00000000000E+00  0.00000000000E+00  0.19974528402E+04  0.19974528402E+04  0.25500000920E-02 0.  1.
       -2   -1    0    0    0  501  0.00000000000E+00  0.00000000000E+00 -0.50549889854E+03  0.50549889855E+03  0.25500000920E-02 0. -1.
    10030    2    1    2    0    0  0.00000000000E+00  0.00000000000E+00  0.14919539417E+04  0.25029517388E+04  0.20096867523E+04 0.  0.
        2    1    3    3  502    0  0.49025188102E+03 -0.53564969259E+03  0.16110384640E+04  0.17671198127E+04  0.25500000920E-02 0.  1.
       -2    1    3    3    0  502 -0.49025188102E+03  0.53564969259E+03 -0.11908452227E+03  0.73583192609E+03  0.25500000920E-02 0. -1.
</event>
<event>
 5   0  0.6256535E-05  0.1997254E+04  0.7818609E-02  0.8607906E-01
        1   -1    0    0  501    0  0.00000000000E+00  0.00000000000E+00  0.65809801827E+03  0.65809801829E+03  0.50400001928E-02 0.  1.
       -1   -1    0    0    0  501  0.00000000000E+00  0.00000000000E+00 -0.15153603391E+04  0.15153603391E+04  0.50400001928E-02 0. -1.
    10030    2    1    2    0    0  0.00000000000E+00  0.00000000000E+00 -0.85726232080E+03  0.21734583574E+04  0.19972537507E+04 0.  0.
        1    1    3    3  502    0  0.40092223082E+03  0.42681492293E+03  0.45165081980E+03  0.73952557539E+03  0.50400001928E-02 0.  1.
       -1    1    3    3    0  502 -0.40092223082E+03 -0.42681492293E+03 -0.13089131406E+04  0.14339327820E+04  0.50400001928E-02 0. -1.
</event>
<event>
 5   0  0.6222733E-05  0.1994828E+04  0.7818609E-02  0.8609042E-01
       -1   -1    0    0    0  501  0.00000000000E+00  0.00000000000E+00  0.72524140987E+03  0.72524140989E+03  0.50400001928E-02 0. -1.
        1   -1    0    0  501    0  0.00000000000E+00  0.00000000000E+00 -0.13717293949E+04  0.13717293949E+04  0.50400001928E-02 0.  1.
    10030    2    1    2    0    0  0.00000000000E+00  0.00000000000E+00 -0.64648798504E+03  0.20969708048E+04  0.19948282737E+04 0.  0.
        2    1    3    3  502    0 -0.10156972273E+03  0.15204395312E+03  0.70747243106E+03  0.73071951730E+03  0.25500000920E-02 0. -1.
       -2    1    3    3    0  502  0.10156972273E+03 -0.15204395312E+03 -0.13539604161E+04  0.13662512875E+04  0.25500000920E-02 0.  1.
</event>
<event>
 5   0  0.1244229E-04  0.2003614E+04  0.7818609E-02  0.8604933E-01
       -2   -1    0    0    0  501  0.00000000000E+00  0.00000000000E+00  0.50235392962E+03  0.50235392963E+03  0.25500000920E-02 0. -1.
        2   -1    0    0  501    0  0.00000000000E+00  0.00000000000E+00 -0.19978281252E+04  0.19978281252E+04  0.25500000920E-02 0.  1.
    10030    2    1    2    0    0  0.00000000000E+00  0.00000000000E+00 -0.14954741955E+04  0.25001820548E+04  0.20036135450E+04 0.  0.
        5    1    3    3  502    0  0.47798767426E+03 -0.18079431255E+02 -0.18461136620E+04  0.19070807077E+04  0.46999998093E+01 0.  1.
       -5    1    3    3    0  502 -0.47798767426E+03  0.18079431255E+02  0.35063946643E+03  0.59310134715E+03  0.46999998093E+01 0. -1.
</event>
<event>
 5   0  0.6256535E-05  0.2000238E+04  0.7818609E-02  0.8606510E-01
       -1   -1    0    0    0  501  0.00000000000E+00  0.00000000000E+00  0.75750130552E+03  0.75750130554E+03  0.50400001928E-02 0.  1.
        1   -1    0    0  501    0  0.00000000000E+00  0.00000000000E+00 -0.13204435966E+04  0.13204435966E+04  0.50400001928E-02 0. -1.
    10030    2    1    2    0    0  0.00000000000E+00  0.00000000000E+00 -0.56294229107E+03  0.20779449021E+04  0.20002377342E+04 0.  0.
        1    1    3    3  502    0 -0.38651553157E+03 -0.60707605014E+03 -0.10029307445E+04  0.12344252367E+04  0.50400001928E-02 0. -1.
       -1    1    3    3    0  502  0.38651553157E+03  0.60707605014E+03  0.43998845341E+03  0.84351966542E+03  0.50400001928E-02 0.  1.
</event>
<event>
 5   0  0.1242761E-04  0.2019658E+04  0.7818609E-02  0.8597485E-01
       -2   -1    0    0    0  501  0.00000000000E+00  0.00000000000E+00  0.46594630903E+03  0.46594630904E+03  0.25500000920E-02 0.  1.
        2   -1    0    0  501    0  0.00000000000E+00  0.00000000000E+00 -0.21885659576E+04  0.21885659576E+04  0.25500000920E-02 0. -1.
    10030    2    1    2    0    0  0.00000000000E+00  0.00000000000E+00 -0.17226196486E+04  0.26545122667E+04  0.20196576245E+04 0.  0.
        4    1    3    3  502    0  0.54045004730E+03  0.64096944350E+03 -0.16011133333E+04  0.18073443502E+04  0.12699999809E+01 0. -1.
       -4    1    3    3    0  502 -0.54045004730E+03 -0.64096944350E+03 -0.12150631526E+03  0.84716791646E+03  0.12699999809E+01 0.  1.
</event>
<event>
 5   0  0.4479000E-05  0.2002226E+04  0.7818609E-02  0.8605581E-01
        3   -1    0    0  501    0  0.00000000000E+00  0.00000000000E+00  0.67134115023E+03  0.67134115783E+03  0.10100000352E+00 0.  1.
       -3   -1    0    0    0  501  0.00000000000E+00  0.00000000000E+00 -0.14928736139E+04  0.14928736173E+04  0.10100000352E+00 0. -1.
    10030    2    1    2    0    0  0.00000000000E+00  0.00000000000E+00 -0.82153246366E+03  0.21642147751E+04  0.20022262620E+04 0.  0.
        1    1    3    3  502    0 -0.80330093474E+03 -0.57724403222E+03 -0.24427738041E+03  0.10189084861E+04  0.50400001928E-02 0. -1.
       -1    1    3    3    0  502  0.80330093474E+03  0.57724403222E+03 -0.57725508325E+03  0.11453062890E+04  0.50400001928E-02 0.  1.
</event>
<event>
 5   0  0.1159914E-04  0.2001301E+04  0.7818609E-02  0.8606013E-01
        2   -1    0    0  501    0  0.00000000000E+00  0.00000000000E+00  0.12116793768E+04  0.12116793768E+04  0.25500000920E-02 0. -1.
       -2   -1    0    0    0  501  0.00000000000E+00  0.00000000000E+00 -0.82637454403E+03  0.82637454403E+03  0.25500000920E-02 0.  1.
    10030    2    1    2    0    0  0.00000000000E+00  0.00000000000E+00  0.38530483277E+03  0.20380539208E+04  0.20013005696E+04 0.  0.
        3    1    3    3  502    0 -0.20574458885E+03  0.68013971000E+03  0.91013364212E+03  0.11546705667E+04  0.10100000352E+00 0. -1.
       -3    1    3    3    0  502  0.20574458885E+03 -0.68013971000E+03 -0.52482880935E+03  0.88338335409E+03  0.10100000352E+00 0.  1.
</event>
<event>
 5   0  0.1159914E-04  0.1789530E+04  0.7818609E-02  0.8711887E-01
       -2   -1    0    0    0  501  0.00000000000E+00  0.00000000000E+00  0.61544849465E+03  0.61544849465E+03  0.25500000920E-02 0.  1.
        2   -1    0    0  501    0  0.00000000000E+00  0.00000000000E+00 -0.13008473891E+04  0.13008473891E+04  0.25500000920E-02 0. -1.
    10030    2    1    2    0    0  0.00000000000E+00  0.00000000000E+00 -0.68539889443E+03  0.19162958837E+04  0.17895301812E+04 0.  0.
        3    1    3    3  502    0 -0.37792114748E+03 -0.17872938097E+02 -0.12109767438E+04  0.12687034799E+04  0.10100000352E+00 0. -1.
       -3    1    3    3    0  502  0.37792114748E+03  0.17872938097E+02  0.52557784935E+03  0.64759240388E+03  0.10100000352E+00 0.  1.
</event>
<event>
 5   0  0.6214547E-05  0.1925944E+04  0.7818609E-02  0.8642049E-01
       -1   -1    0    0    0  501  0.00000000000E+00  0.00000000000E+00  0.10096296293E+04  0.10096296293E+04  0.50400001928E-02 0.  1.
        1   -1    0    0  501    0  0.00000000000E+00  0.00000000000E+00 -0.91847087840E+03  0.91847087841E+03  0.50400001928E-02 0. -1.
    10030    2    1    2    0    0  0.00000000000E+00  0.00000000000E+00  0.91158750917E+02  0.19281005077E+04  0.19259443528E+04 0.  0.
        3    1    3    3  502    0  0.50889301413E+03 -0.77250454899E+03 -0.22226458313E+03  0.95138684726E+03  0.10100000352E+00 0. -1.
       -3    1    3    3    0  502 -0.50889301413E+03  0.77250454899E+03  0.31342333404E+03  0.97671366047E+03  0.10100000352E+00 0.  1.
</event>
<event>
 5   0  0.1281789E-04  0.1991878E+04  0.7818609E-02  0.8610427E-01
        2   -1    0    0  501    0  0.00000000000E+00  0.00000000000E+00  0.14474566993E+04  0.14474566993E+04  0.25500000920E-02 0. -1.
       -2   -1    0    0    0  501  0.00000000000E+00  0.00000000000E+00 -0.68526699125E+03  0.68526699126E+03  0.25500000920E-02 0.  1.
    10030    2    1    2    0    0  0.00000000000E+00  0.00000000000E+00  0.76218970803E+03  0.21327236905E+04  0.19918778048E+04 0.  0.
        2    1    3    3  502    0  0.56345316858E+03 -0.80175879667E+03  0.19076832188E+03  0.99834322448E+03  0.25500000920E-02 0.  1.
       -2    1    3    3    0  502 -0.56345316858E+03  0.80175879667E+03  0.57142138615E+03  0.11343804661E+04  0.25500000920E-02 0. -1.
</event>
<event>
 5   0  0.1242761E-04  0.2010119E+04  0.7818609E-02  0.8601904E-01
       -2   -1    0    0    0  501  0.00000000000E+00  0.00000000000E+00  0.53571027272E+03  0.53571027272E+03  0.25500000920E-02 0. -1.
        2   -1    0    0  501    0  0.00000000000E+00  0.00000000000E+00 -0.18856166028E+04  0.18856166028E+04  0.25500000920E-02 0.  1.
    10030    2    1    2    0    0  0.00000000000E+00  0.00000000000E+00 -0.13499063301E+04  0.24213268756E+04  0.20101185881E+04 0.  0.
        4    1    3    3  502    0 -0.42688911368E+03  0.15043817511E+03  0.40599354922E+03  0.60802823522E+03  0.12699999809E+01 0. -1.
       -4    1    3    3    0  502  0.42688911368E+03 -0.15043817511E+03 -0.17558998793E+04  0.18132986403E+04  0.12699999809E+01 0.  1.
</event>
<event>
 5   0  0.1242761E-04  0.2000516E+04  0.7818609E-02  0.8606379E-01
        2   -1    0    0  501    0  0.00000000000E+00  0.00000000000E+00  0.12845771169E+04  0.12845771169E+04  0.25500000920E-02 0.  1.
       -2   -1    0    0    0  501  0.00000000000E+00  0.00000000000E+00 -0.77886808882E+03  0.77886808882E+03  0.25500000920E-02 0. -1.
    10030    2    1    2    0    0  0.00000000000E+00  0.00000000000E+00  0.50570902811E+03  0.20634452058E+04  0.20005160574E+04 0.  0.
        4    1    3    3  502    0 -0.88214688325E+03 -0.29892263761E+03  0.62898504203E+03  0.11239046503E+04  0.12699999809E+01 0.  1.
       -4    1    3    3    0  502  0.88214688325E+03  0.29892263761E+03 -0.12327601391E+03  0.93954055549E+03  0.12699999809E+01 0. -1.
</event>
<event>
 5   0  0.6028501E-05  0.1974961E+04  0.7818609E-02  0.8618417E-01
       -1   -1    0    0    0  501  0.00000000000E+00  0.00000000000E+00  0.44415594130E+03  0.44415594133E+03  0.50400001928E-02 0. -1.
        1   -1    0    0  501    0  0.00000000000E+00  0.00000000000E+00 -0.21954406507E+04  0.21954406508E+04  0.50400001928E-02 0.  1.
    10030    2    1    2    0    0  0.00000000000E+00  0.00000000000E+00 -0.17512847095E+04  0.26395965921E+04  0.19749612744E+04 0.  0.
        4    1    3    3  502    0  0.41237715882E+02 -0.62167373239E+03  0.14829867808E+03  0.64044741359E+03  0.12699999809E+01 0. -1.
       -4    1    3    3    0  502 -0.41237715882E+02  0.62167373239E+03 -0.18995833875E+04  0.19991491785E+04  0.12699999809E+01 0.  1.
</event>
<event>
 5   0  0.6168338E-05  0.2022603E+04  0.7818609E-02  0.8596125E-01
       -1   -1    0    0    0  501  0.00000000000E+00  0.00000000000E+00  0.89588536982E+03  0.89588536983E+03  0.50400001928E-02 0.  1.
        1   -1    0    0  501    0  0.00000000000E+00  0.00000000000E+00 -0.11415870679E+04  0.11415870679E+04  0.50400001928E-02 0. -1.
    10030    2    1    2    0    0  0.00000000000E+00  0.00000000000E+00 -0.24570169808E+03  0.20374724377E+04  0.20226034238E+04 0.  0.
        5    1    3    3  502    0  0.36881377581E+02 -0.99206993385E+03  0.71299178986E+02  0.99532339096E+03  0.46999998093E+01 0. -1.
       -5    1    3    3    0  502 -0.36881377581E+02  0.99206993385E+03 -0.31700087707E+03  0.10421490468E+04  0.46999998093E+01 0.  1.
</event>
<event>
 5   0  0.6256535E-05  0.2000171E+04  0.7818609E-02  0.8606541E-01
       -1   -1    0    0    0  501  0.00000000000E+00  0.00000000000E+00  0.88167922068E+03  0.88167922070E+03  0.50400001928E-02 0.  1.
        1   -1    0    0  501    0  0.00000000000E+00  0.00000000000E+00 -0.11343935758E+04  0.11343935758E+04  0.50400001928E-02 0. -1.
    10030    2    1    2    0    0  0.00000000000E+00  0.00000000000E+00 -0.25271435510E+03  0.20160727965E+04  0.20001712365E+04 0.  0.
        1    1    3    3  502    0  0.92883985506E+03  0.30415232607E+03  0.87269113434E+02  0.98125838187E+03  0.50400001928E-02 0.  1.
       -1    1    3    3    0  502 -0.92883985506E+03 -0.30415232607E+03 -0.33998346853E+03  0.10348144146E+04  0.50400001928E-02 0. -1.
</event>
<event>
 5   0  0.6028501E-05  0.2018437E+04  0.7818609E-02  0.8598049E-01
       -1   -1    0    0    0  501  0.00000000000E+00  0.00000000000E+00  0.66320966632E+03  0.66320966634E+03  0.50400001928E-02 0.  1.
        1   -1    0    0  501    0  0.00000000000E+00  0.00000000000E+00 -0.15357472781E+04  0.15357472781E+04  0.50400001928E-02 0. -1.
    10030    2    1    2    0    0  0.00000000000E+00  0.00000000000E+00 -0.87253761179E+03  0.21989569445E+04  0.20184374550E+04 0.  0.
        4    1    3    3  502    0 -0.23605220782E+03 -0.98098967426E+03 -0.41291721931E+03  0.10902126530E+04  0.12699999809E+01 0. -1.
       -4    1    3    3    0  502  0.23605220782E+03  0.98098967426E+03 -0.45962039247E+03  0.11087442915E+04  0.12699999809E+01 0.  1.
</event>
<event>
 5   0  0.6256535E-05  0.1895491E+04  0.7818609E-02  0.8657104E-01
       -1   -1    0    0    0  501  0.00000000000E+00  0.00000000000E+00  0.16623123638E+04  0.16623123638E+04  0.50400001928E-02 0. -1.
        1   -1    0    0  501    0  0.00000000000E+00  0.00000000000E+00 -0.54034460618E+03  0.54034460620E+03  0.50400001928E-02 0.  1.
    10030    2    1    2    0    0  0.00000000000E+00  0.00000000000E+00  0.11219677576E+04  0.22026569700E+04  0.18954909861E+04 0.  0.
        1    1    3    3  502    0  0.79938023779E+03 -0.12644301960E+02 -0.30467915728E+02  0.80006058324E+03  0.50400001928E-02 0.  1.
       -1    1    3    3    0  502 -0.79938023779E+03  0.12644301960E+02  0.11524356734E+04  0.14025963868E+04  0.50400001928E-02 0. -1.
</event>
<event>
 5   0  0.1281789E-04  0.2004700E+04  0.7818609E-02  0.8604426E-01
       -2   -1    0    0    0  501  0.00000000000E+00  0.00000000000E+00  0.36988156491E+03  0.36988156492E+03  0.25500000920E-02 0.  1.
        2   -1    0    0  501    0  0.00000000000E+00  0.00000000000E+00 -0.27162898286E+04  0.27162898286E+04  0.25500000920E-02 0. -1.
    10030    2    1    2    0    0  0.00000000000E+00  0.00000000000E+00 -0.23464082637E+04  0.30861713935E+04  0.20047000100E+04 0.  0.
        2    1    3    3  502    0  0.40032043367E+03 -0.70764055047E+03 -0.27068465587E+03  0.85690243389E+03  0.25500000920E-02 0.  1.
       -2    1    3    3    0  502 -0.40032043367E+03  0.70764055047E+03 -0.20757236078E+04  0.22292689596E+04  0.25500000920E-02 0. -1.
</event>
<event>
 5   0  0.6028501E-05  0.2012884E+04  0.7818609E-02  0.8600620E-01
        1   -1    0    0  501    0  0.00000000000E+00  0.00000000000E+00  0.11577777015E+04  0.11577777015E+04  0.50400001928E-02 0.  1.
       -1   -1    0    0    0  501  0.00000000000E+00  0.00000000000E+00 -0.87488810568E+03  0.87488810569E+03  0.50400001928E-02 0. -1.
    10030    2    1    2    0    0  0.00000000000E+00  0.00000000000E+00  0.28288959577E+03  0.20326658072E+04  0.20128844379E+04 0.  0.
        4    1    3    3  502    0  0.50383571251E+03  0.87124839123E+03  0.14182630338E+03  0.10163859984E+04  0.12699999809E+01 0. -1.
       -4    1    3    3    0  502 -0.50383571251E+03 -0.87124839123E+03  0.14106329239E+03  0.10162798088E+04  0.12699999809E+01 0.  1.
</event>
<event>
 5   0  0.1242761E-04  0.2019841E+04  0.7818609E-02  0.8597400E-01
       -2   -1    0    0    0  501  0.00000000000E+00  0.00000000000E+00  0.54441697247E+03  0.54441697248E+03  0.25500000920E-02 0. -1.
        2   -1    0    0  501    0  0.00000000000E+00  0.00000000000E+00 -0.18734533851E+04  0.18734533851E+04  0.25500000920E-02 0.  1.
    10030    2    1    2    0    0  0.00000000000E+00  0.00000000000E+00 -0.13290364127E+04  0.24178703576E+04  0.20198413997E+04 0.  0.
        4    1    3    3  502    0  0.31791465429E+03 -0.41891326976E+03 -0.16966168854E+04  0.17762512558E+04  0.12699999809E+01 0.  1.
       -4    1    3    3    0  502 -0.31791465429E+03  0.41891326976E+03  0.36758047273E+03  0.64161910183E+03  0.12699999809E+01 0. -1.
</event>
<event>
 5   0  0.6256535E-05  0.1993686E+04  0.7818609E-02  0.8609578E-01
        1   -1    0    0  501    0  0.00000000000E+00  0.00000000000E+00  0.14173746403E+04  0.14173746403E+04  0.50400001928E-02 0. -1.
       -1   -1    0    0    0  501  0.00000000000E+00  0.00000000000E+00 -0.70108223089E+03  0.70108223091E+03  0.50400001928E-02 0.  1.
    10030    2    1    2    0    0  0.00000000000E+00  0.00000000000E+00  0.71629240942E+03  0.21184568712E+04  0.19936862089E+04 0.  0.
        1    1    3    3  502    0  0.13678782117E+03 -0.46526797442E+03  0.12835765960E+04  0.13721348600E+04  0.50400001928E-02 0. -1.
       -1    1    3    3    0  502 -0.13678782117E+03  0.46526797442E+03 -0.56728418662E+03  0.74632201124E+03  0.50400001928E-02 0.  1.
</event>
<event>
 5   0  0.6214547E-05  0.1978887E+04  0.7818609E-02  0.8616556E-01
       -1   -1    0    0    0  501  0.00000000000E+00  0.00000000000E+00  0.10469338838E+04  0.10469338838E+04  0.50400001928E-02 0. -1.
        1   -1    0    0  501    0  0.00000000000E+00  0.00000000000E+00 -0.93510970785E+03  0.93510970786E+03  0.50400001928E-02 0.  1.
    10030    2    1    2    0    0  0.00000000000E+00  0.00000000000E+00  0.11182417597E+03  0.19820435917E+04  0.19788865943E+04 0.  0.
        3    1    3    3  502    0  0.29139268475E+03 -0.77089128780E+03  0.60433923037E+03  0.10219633016E+04  0.10100000352E+00 0. -1.
       -3    1    3    3    0  502 -0.29139268475E+03  0.77089128780E+03 -0.49251505439E+03  0.96008029005E+03  0.10100000352E+00 0.  1.
</event>
<event>
 5   0  0.1281789E-04  0.1971384E+04  0.7818609E-02  0.8620118E-01
        2   -1    0    0  501    0  0.00000000000E+00  0.00000000000E+00  0.16629085001E+04  0.16629085001E+04  0.25500000920E-02 0.  1.
       -2   -1    0    0    0  501  0.00000000000E+00  0.00000000000E+00 -0.58427065138E+03  0.58427065139E+03  0.25500000920E-02 0. -1.
    10030    2    1    2    0    0  0.00000000000E+00  0.00000000000E+00  0.10786378488E+04  0.22471791515E+04  0.19713839125E+04 0.  0.
        2    1    3    3  502    0 -0.15455888611E+02  0.26141553043E+03  0.16225301945E+04  0.16435270598E+04  0.25500000920E-02 0.  1.
       -2    1    3    3    0  502  0.15455888611E+02 -0.26141553043E+03 -0.54389234579E+03  0.60365209174E+03  0.25500000920E-02 0. -1.
</event>
<event>
 5   0  0.1159914E-04  0.1990994E+04  0.7818609E-02  0.8610843E-01
       -2   -1    0    0    0  501  0.00000000000E+00  0.00000000000E+00  0.41636925239E+03  0.41636925239E+03  0.25500000920E-02 0. -1.
        2   -1    0    0  501    0  0.00000000000E+00  0.00000000000E+00 -0.23801320029E+04  0.23801320029E+04  0.25500000920E-02 0.  1.
    10030    2    1    2    0    0  0.00000000000E+00  0.00000000000E+00 -0.19637627505E+04  0.27965012553E+04  0.19909935034E+04 0.  0.
        3    1    3    3  502    0 -0.30276022600E+02  0.69294333081E+03  0.21114255891E+02  0.69392573037E+03  0.10100000352E+00 0. -1.
       -3    1    3    3    0  502  0.30276022600E+02 -0.69294333081E+03 -0.19848770064E+04  0.21025755249E+04  0.10100000352E+00 0.  1.
</event>
<event>
 5   0  0.1244229E-04  0.1989920E+04  0.7818609E-02  0.8611348E-01
       -2   -1    0    0    0  501  0.00000000000E+00  0.00000000000E+00  0.83102439205E+03  0.83102439205E+03  0.25500000920E-02 0.  1.
        2   -1    0    0  501    0  0.00000000000E+00  0.00000000000E+00 -0.11912353290E+04  0.11912353290E+04  0.25500000920E-02 0. -1.
    10030    2    1    2    0    0  0.00000000000E+00  0.00000000000E+00 -0.36021093693E+03  0.20222597210E+04  0.19899202145E+04 0.  0.
        5    1    3    3  502    0  0.16849820187E+03 -0.90252893095E+03 -0.56970699779E+03  0.10805268477E+04  0.46999998093E+01 0. -1.
       -5    1    3    3    0  502 -0.16849820187E+03  0.90252893095E+03  0.20949606086E+03  0.94173287335E+03  0.46999998093E+01 0.  1.
</event>
<event>
 5   0  0.6028501E-05  0.2100081E+04  0.7818609E-02  0.8561208E-01
        1   -1    0    0  501    0  0.00000000000E+00  0.00000000000E+00  0.15622115869E+04  0.15622115870E+04  0.50400001928E-02 0.  1.
       -1   -1    0    0    0  501  0.00000000000E+00  0.00000000000E+00 -0.70578466922E+03  0.70578466924E+03  0.50400001928E-02 0. -1.
    10030    2    1    2    0    0  0.00000000000E+00  0.00000000000E+00  0.85642691773E+03  0.22679962562E+04  0.21000809396E+04 0.  0.
        4    1    3    3  502    0 -0.60060115416E+03  0.63046650771E+03 -0.20554129882E+03  0.89468352066E+03  0.12699999809E+01 0. -1.
       -4    1    3    3    0  502  0.60060115416E+03 -0.63046650771E+03  0.10619682165E+04  0.13733127355E+04  0.12699999809E+01 0.  1.
</event>
<event>
 5   0  0.6256535E-05  0.2247137E+04  0.7818609E-02  0.8499061E-01
       -1   -1    0    0    0  501  0.00000000000E+00  0.00000000000E+00  0.73871042690E+03  0.73871042692E+03  0.50400001928E-02 0. -1.
        1   -1    0    0  501    0  0.00000000000E+00  0.00000000000E+00 -0.17089318509E+04  0.17089318509E+04  0.50400001928E-02 0.  1.
    10030    2    1    2    0    0  0.00000000000E+00  0.00000000000E+00 -0.97022142398E+03  0.24476422778E+04  0.22471366466E+04 0.  0.
        1    1    3    3  502    0 -0.33026524488E+03 -0.46568722596E+03  0.56894722567E+03  0.80600289703E+03  0.50400001928E-02 0. -1.
       -1    1    3    3    0  502  0.33026524488E+03  0.46568722596E+03 -0.15391686497E+04  0.16416393808E+04  0.50400001928E-02 0.  1.
</event>
<event>
 5   0  0.6168338E-05  0.1983070E+04  0.7818609E-02  0.8614577E-01
        1   -1    0    0  501    0  0.00000000000E+00  0.00000000000E+00  0.68281794914E+03  0.68281794916E+03  0.50400001928E-02 0.  1.
       -1   -1    0    0    0  501  0.00000000000E+00  0.00000000000E+00 -0.14398295381E+04  0.14398295381E+04  0.50400001928E-02 0. -1.
    10030    2    1    2    0    0  0.00000000000E+00  0.00000000000E+00 -0.75701158894E+03  0.21226474873E+04  0.19830697944E+04 0.  0.
        5    1    3    3  502    0 -0.91574855888E+03 -0.34353396611E+03 -0.20423233509E+03  0.99917162973E+03  0.46999998093E+01 0.  1.
       -5    1    3    3    0  502  0.91574855888E+03  0.34353396611E+03 -0.55277925385E+03  0.11234758575E+04  0.46999998093E+01 0. -1.
</event>
<event>
 5   0  0.1159914E-04  0.2001935E+04  0.7818609E-02  0.8605716E-01
       -2   -1    0    0    0  501  0.00000000000E+00  0.00000000000E+00  0.49614459077E+03  0.49614459078E+03  0.25500000920E-02 0. -1.
        2   -1    0    0  501    0  0.00000000000E+00  0.00000000000E+00 -0.20194439397E+04  0.20194439397E+04  0.25500000920E-02 0.  1.
    10030    2    1    2    0    0  0.00000000000E+00  0.00000000000E+00 -0.15232993489E+04  0.25155885305E+04  0.20019352508E+04 0.  0.
        3    1    3    3  502    0  0.50251288084E+03 -0.50753813237E+03 -0.16428883847E+04  0.17914230115E+04  0.10100000352E+00 0.  1.
       -3    1    3    3    0  502 -0.50251288084E+03  0.50753813237E+03  0.11958903579E+03  0.72416551900E+03  0.10100000352E+00 0. -1.
</event>
<event>
 5   0  0.1281789E-04  0.2004735E+04  0.7818609E-02  0.8604410E-01
       -2   -1    0    0    0  501  0.00000000000E+00  0.00000000000E+00  0.14309213266E+04  0.14309213266E+04  0.25500000920E-02 0. -1.
        2   -1    0    0  501    0  0.00000000000E+00  0.00000000000E+00 -0.70216355471E+03  0.70216355472E+03  0.25500000920E-02 0.  1.
    10030    2    1    2    0    0  0.00000000000E+00  0.00000000000E+00  0.72875777184E+03  0.21330848813E+04  0.20047351996E+04 0.  0.
        2    1    3    3  502    0 -0.50023032446E+03  0.81799929983E+03  0.53459030674E+02  0.96031822850E+03  0.25500000920E-02 0.  1.
       -2    1    3    3    0  502  0.50023032446E+03 -0.81799929983E+03  0.67529874116E+03  0.11727666528E+04  0.25500000920E-02 0. -1.
</event>
<event>
 5   0  0.4479000E-05  0.1986891E+04  0.7818609E-02  0.8612774E-01
       -4   -1    0    0    0  501  0.00000000000E+00  0.00000000000E+00  0.13775448660E+04  0.13775454514E+04  0.12699999809E+01 0.  1.
        4   -1    0    0  501    0  0.00000000000E+00  0.00000000000E+00 -0.71644261163E+03  0.71644373726E+03  0.12699999809E+01 0. -1.
    10030    2    1    2    0    0  0.00000000000E+00  0.00000000000E+00  0.66110225437E+03  0.20939891887E+04  0.19868906693E+04 0.  0.
        5    1    3    3  502    0  0.20502437785E+03  0.95877081435E+03  0.16181124419E+03  0.99372100647E+03  0.46999998093E+01 0.  1.
       -5    1    3    3    0  502 -0.20502437785E+03 -0.95877081435E+03  0.49929101018E+03  0.11002681822E+04  0.46999998093E+01 0. -1.
</event>
<event>
 5   0  0.6222733E-05  0.2012101E+04  0.7818609E-02  0.8600984E-01
        1   -1    0    0  501    0  0.00000000000E+00  0.00000000000E+00  0.62141584412E+03  0.62141584414E+03  0.50400001928E-02 0. -1.
       -1   -1    0    0    0  501  0.00000000000E+00  0.00000000000E+00 -0.16287611251E+04  0.16287611251E+04  0.50400001928E-02 0.  1.
    10030    2    1    2    0    0  0.00000000000E+00  0.00000000000E+00 -0.10073452810E+04  0.22501769692E+04  0.20121013587E+04 0.  0.
        2    1    3    3  502    0 -0.47523754158E+03 -0.15995442307E+03 -0.14790531022E+04  0.15617407652E+04  0.25500000920E-02 0.  1.
       -2    1    3    3    0  502  0.47523754158E+03  0.15995442307E+03  0.47170782127E+03  0.68843620405E+03  0.25500000920E-02 0. -1.
</event>
<event>
 5   0  0.1274868E-04  0.2003266E+04  0.7818609E-02  0.8605095E-01
       -2   -1    0    0    0  501  0.00000000000E+00  0.00000000000E+00  0.13524073216E+04  0.13524073216E+04  0.25500000920E-02 0.  1.
        2   -1    0    0  501    0  0.00000000000E+00  0.00000000000E+00 -0.74183884786E+03  0.74183884786E+03  0.25500000920E-02 0. -1.
    10030    2    1    2    0    0  0.00000000000E+00  0.00000000000E+00  0.61056847373E+03  0.20942461695E+04  0.20032656232E+04 0.  0.
        1    1    3    3  502    0  0.64596495387E+03 -0.38790073050E+03  0.99520390126E+03  0.12482661990E+04  0.50400001928E-02 0.  1.
       -1    1    3    3    0  502 -0.64596495387E+03  0.38790073050E+03 -0.38463542753E+03  0.84597997050E+03  0.50400001928E-02 0. -1.
</event>
<event>
 5   0  0.6214547E-05  0.1969844E+04  0.7818609E-02  0.8620851E-01
       -1   -1    0    0    0  501  0.00000000000E+00  0.00000000000E+00  0.72322169758E+03  0.72322169760E+03  0.50400001928E-02 0.  1.
        1   -1    0    0  501    0  0.00000000000E+00  0.00000000000E+00 -0.13413189582E+04  0.13413189582E+04  0.50400001928E-02 0. -1.
    10030    2    1    2    0    0  0.00000000000E+00  0.00000000000E+00 -0.61809726065E+03  0.20645406558E+04  0.19698436222E+04 0.  0.
        3    1    3    3  502    0 -0.48414998945E+02 -0.60310048909E+03  0.50548494438E+03  0.78840931709E+03  0.10100000352E+00 0.  1.
       -3    1    3    3    0  502  0.48414998945E+02  0.60310048909E+03 -0.11235822050E+04  0.12761313387E+04  0.10100000352E+00 0. -1.
</event>
<event>
 5   0  0.1274868E-04  0.1996276E+04  0.7818609E-02  0.8608364E-01
        2   -1    0    0  501    0  0.00000000000E+00  0.00000000000E+00  0.14425657471E+04  0.14425657471E+04  0.25500000920E-02 0.  1.
       -2   -1    0    0    0  501  0.00000000000E+00  0.00000000000E+00 -0.69063030040E+03  0.69063030041E+03  0.25500000920E-02 0. -1.
    10030    2    1    2    0    0  0.00000000000E+00  0.00000000000E+00  0.75193544667E+03  0.21331960475E+04  0.19962761485E+04 0.  0.
        1    1    3    3  502    0 -0.92259044230E+03 -0.33725660636E+03  0.18672066121E+03  0.99988986799E+03  0.50400001928E-02 0. -1.
       -1    1    3    3    0  502  0.92259044230E+03  0.33725660636E+03  0.56521478547E+03  0.11333061795E+04  0.50400001928E-02 0.  1.
</event>
<event>
 5   0  0.6222733E-05  0.2000763E+04  0.7818609E-02  0.8606264E-01
        1   -1    0    0  501    0  0.00000000000E+00  0.00000000000E+00  0.13809354744E+04  0.13809354744E+04  0.50400001928E-02 0. -1.
       -1   -1    0    0    0  501  0.00000000000E+00  0.00000000000E+00 -0.72469968147E+03  0.72469968149E+03  0.50400001928E-02 0.  1.
    10030    2    1    2    0    0  0.00000000000E+00  0.00000000000E+00  0.65623579289E+03  0.21056351559E+04  0.20007633527E+04 0.  0.
        2    1    3    3  502    0  0.18429395590E+03 -0.72354735094E+03  0.10288075694E+04  0.12711923718E+04  0.25500000920E-02 0. -1.
       -2    1    3    3    0  502 -0.18429395590E+03  0.72354735094E+03 -0.37257177650E+03  0.83444278407E+03  0.25500000920E-02 0.  1.
</event>
<event>
 5   0  0.6028501E-05  0.1992174E+04  0.7818609E-02  0.8610288E-01
        1   -1    0    0  501    0  0.00000000000E+00  0.00000000000E+00  0.77475298562E+03  0.77475298564E+03  0.50400001928E-02 0.  1.
       -1   -1    0    0    0  501  0.00000000000E+00  0.00000000000E+00 -0.12806524940E+04  0.12806524940E+04  0.50400001928E-02 0. -1.
    10030    2    1    2    0    0  0.00000000000E+00  0.00000000000E+00 -0.50589950835E+03  0.20554054796E+04  0.19921740318E+04 0.  0.
        4    1    3    3  502    0  0.56856259955E+03 -0.70264698637E+03  0.17891877301E+03  0.92140640181E+03  0.12699999809E+01 0. -1.
       -4    1    3    3    0  502 -0.56856259955E+03  0.70264698637E+03 -0.68481828136E+03  0.11339990778E+04  0.12699999809E+01 0.  1.
</event>
<event>
 5   0  0.1242761E-04  0.1928152E+04  0.7818609E-02  0.8640969E-01
       -2   -1    0    0    0  501  0.00000000000E+00  0.00000000000E+00  0.14193850925E+04  0.14193850925E+04  0.25500000920E-02 0.  1.
        2   -1    0    0  501    0  0.00000000000E+00  0.00000000000E+00 -0.65482074770E+03  0.65482074770E+03  0.25500000920E-02 0. -1.
    10030    2    1    2    0    0  0.00000000000E+00  0.00000000000E+00  0.76456434481E+03  0.20742058402E+04  0.19281522840E+04 0.  0.
        4    1    3    3  502    0  0.14011181263E+03 -0.50392989243E+03  0.12534816302E+04  0.13582321107E+04  0.12699999809E+01 0.  1.
       -4    1    3    3    0  502 -0.14011181263E+03  0.50392989243E+03 -0.48891728534E+03  0.71597372950E+03  0.12699999809E+01 0. -1.
</event>
<event>
 5   0  0.1281789E-04  0.2039321E+04  0.7818609E-02  0.8588454E-01
        2   -1    0    0  501    0  0.00000000000E+00  0.00000000000E+00  0.21833222476E+04  0.21833222476E+04  0.25500000920E-02 0. -1.
       -2   -1    0    0    0  501  0.00000000000E+00  0.00000000000E+00 -0.47620456072E+03  0.47620456073E+03  0.25500000920E-02 0.  1.
    10030    2    1    2    0    0  0.00000000000E+00  0.00000000000E+00  0.17071176869E+04  0.26595268083E+04  0.20393214674E+04 0.  0.
        2    1    3    3  502    0 -0.10123197401E+04  0.41008643322E+02  0.10035899881E+04  0.14260665585E+04  0.25500000920E-02 0.  1.
       -2    1    3    3    0  502  0.10123197401E+04 -0.41008643322E+02  0.70352769877E+03  0.12334602498E+04  0.25500000920E-02 0. -1.
</event>
<event>
 5   0  0.6168338E-05  0.1993966E+04  0.7818609E-02  0.8609447E-01
        1   -1    0    0  501    0  0.00000000000E+00  0.00000000000E+00  0.17677700868E+04  0.17677700868E+04  0.50400001928E-02 0.  1.
       -1   -1    0    0    0  501  0.00000000000E+00  0.00000000000E+00 -0.56227594997E+03  0.56227594999E+03  0.50400001928E-02 0. -1.
    10030    2    1    2    0    0  0.00000000000E+00  0.00000000000E+00  0.12054941368E+04  0.23300460368E+04  0.19939655011E+04 0.  0.
        5    1    3    3  502    0 -0.65668436339E+03  0.57785837126E+03  0.43797216806E+02  0.87583956097E+03  0.46999998093E+01 0. -1.
       -5    1    3    3    0  502  0.65668436339E+03 -0.57785837126E+03  0.11616969200E+04  0.14542064758E+04  0.46999998093E+01 0.  1.
</event>
<event>
 5   0  0.1244229E-04  0.1969909E+04  0.7818609E-02  0.8620820E-01
        2   -1    0    0  501    0  0.00000000000E+00  0.00000000000E+00  0.76393225959E+03  0.76393225959E+03  0.25500000920E-02 0.  1.
       -2   -1    0    0    0  501  0.00000000000E+00  0.00000000000E+00 -0.12699226983E+04  0.12699226983E+04  0.25500000920E-02 0. -1.
    10030    2    1    2    0    0  0.00000000000E+00  0.00000000000E+00 -0.50599043871E+03  0.20338549579E+04  0.19699085425E+04 0.  0.
        5    1    3    3  502    0 -0.88950490222E+03 -0.40605984926E+03 -0.13079234472E+03  0.98652536698E+03  0.46999998093E+01 0.  1.
       -5    1    3    3    0  502  0.88950490222E+03  0.40605984926E+03 -0.37519809398E+03  0.10473295909E+04  0.46999998093E+01 0. -1.
</event>
<event>
 5   0  0.1281789E-04  0.2037739E+04  0.7818609E-02  0.8589177E-01
        2   -1    0    0  501    0  0.00000000000E+00  0.00000000000E+00  0.13489131478E+04  0.13489131478E+04  0.25500000920E-02 0.  1.
       -2   -1    0    0    0  501  0.00000000000E+00  0.00000000000E+00 -0.76957884288E+03  0.76957884288E+03  0.25500000920E-02 0. -1.
    10030    2    1    2    0    0  0.00000000000E+00  0.00000000000E+00  0.57933430491E+03  0.21184919907E+04  0.20377389621E+04 0.  0.
        2    1    3    3  502    0  0.59137126707E+03  0.64528587242E+03 -0.25251811094E+03  0.91097707382E+03  0.25500000920E-02 0. -1.
       -2    1    3    3    0  502 -0.59137126707E+03 -0.64528587242E+03  0.83185241584E+03  0.12075149168E+04  0.25500000920E-02 0.  1.
</event>
<event>
 5   0  0.1244229E-04  0.1838895E+04  0.7818609E-02  0.8685884E-01
        2   -1    0    0  501    0  0.00000000000E+00  0.00000000000E+00  0.76571188785E+03  0.76571188786E+03  0.25500000920E-02 0. -1.
       -2   -1    0    0    0  501  0.00000000000E+00  0.00000000000E+00 -0.11040499205E+04  0.11040499205E+04  0.25500000920E-02 0.  1.
    10030    2    1    2    0    0  0.00000000000E+00  0.00000000000E+00 -0.33833803269E+03  0.18697618084E+04  0.18388954826E+04 0.  0.
        5    1    3    3  502    0 -0.66051517634E+03  0.22619206889E+03 -0.77747425990E+03  0.10449552455E+04  0.46999998093E+01 0.  1.
       -5    1    3    3    0  502  0.66051517634E+03 -0.22619206889E+03  0.43913622722E+03  0.82480656293E+03  0.46999998093E+01 0. -1.
</event>
<event>
 5   0  0.6214547E-05  0.2000450E+04  0.7818609E-02  0.8606410E-01
        1   -1    0    0  501    0  0.00000000000E+00  0.00000000000E+00  0.20423169012E+04  0.20423169012E+04  0.50400001928E-02 0.  1.
       -1   -1    0    0    0  501  0.00000000000E+00  0.00000000000E+00 -0.48986053052E+03  0.48986053054E+03  0.50400001928E-02 0. -1.
    10030    2    1    2    0    0  0.00000000000E+00  0.00000000000E+00  0.15524563706E+04  0.25321774317E+04  0.20004503900E+04 0.  0.
        3    1    3    3  502    0  0.77370638675E+03  0.63219522616E+03  0.83503091235E+03  0.13021401659E+04  0.10100000352E+00 0.  1.
       -3    1    3    3    0  502 -0.77370638675E+03 -0.63219522616E+03  0.71742545830E+03  0.12300372658E+04  0.10100000352E+00 0. -1.
</event>
<event>
 5   0  0.1274868E-04  0.2000388E+04  0.7818609E-02  0.8606439E-01
       -2   -1    0    0    0  501  0.00000000000E+00  0.00000000000E+00  0.53280757968E+03  0.53280757968E+03  0.25500000920E-02 0. -1.
        2   -1    0    0  501    0  0.00000000000E+00  0.00000000000E+00 -0.18775789151E+04  0.18775789151E+04  0.25500000920E-02 0.  1.
    10030    2    1    2    0    0  0.00000000000E+00  0.00000000000E+00 -0.13447713355E+04  0.24103864948E+04  0.20003882398E+04 0.  0.
        1    1    3    3  502    0  0.56962975611E+03  0.41175660376E+03  0.18505675941E+03  0.72682017309E+03  0.50400001928E-02 0. -1.
       -1    1    3    3    0  502 -0.56962975611E+03 -0.41175660376E+03 -0.15298280949E+04  0.16835663217E+04  0.50400001928E-02 0.  1.
</event>
<event>
 5   0  0.6214547E-05  0.2008630E+04  0.7818609E-02  0.8602596E-01
        1   -1    0    0  501    0  0.00000000000E+00  0.00000000000E+00  0.13531916318E+04  0.13531916318E+04  0.50400001928E-02 0. -1.
       -1   -1    0    0    0  501  0.00000000000E+00  0.00000000000E+00 -0.74538501266E+03  0.74538501268E+03  0.50400001928E-02 0.  1.
    10030    2    1    2    0    0  0.00000000000E+00  0.00000000000E+00  0.60780661915E+03  0.20985766445E+04  0.20086301418E+04 0.  0.
        3    1    3    3  502    0  0.18065525173E+03 -0.79622706130E+03 -0.30712322400E+03  0.87231791111E+03  0.10100000352E+00 0.  1.
       -3    1    3    3    0  502 -0.18065525173E+03  0.79622706130E+03  0.91492984315E+03  0.12262587334E+04  0.10100000352E+00 0. -1.
</event>
<event>
 5   0  0.1281789E-04  0.2000134E+04  0.7818609E-02  0.8606558E-01
       -2   -1    0    0    0  501  0.00000000000E+00  0.00000000000E+00  0.51046770744E+03  0.51046770744E+03  0.25500000920E-02 0. -1.
        2   -1    0    0  501    0  0.00000000000E+00  0.00000000000E+00 -0.19592512555E+04  0.19592512555E+04  0.25500000920E-02 0.  1.
    10030    2    1    2    0    0  0.00000000000E+00  0.00000000000E+00 -0.14487835481E+04  0.24697189630E+04  0.20001344922E+04 0.  0.
        2    1    3    3  502    0 -0.69772423004E+03  0.36324958076E+03  0.38141557010E+02  0.78754310199E+03  0.25500000920E-02 0. -1.
       -2    1    3    3    0  502  0.69772423004E+03 -0.36324958076E+03 -0.14869251051E+04  0.16821758610E+04  0.25500000920E-02 0.  1.
</event>
<event>
 5   0  0.1159914E-04  0.1987652E+04  0.7818609E-02  0.8612416E-01
       -2   -1    0    0    0  501  0.00000000000E+00  0.00000000000E+00  0.80344898680E+03  0.80344898681E+03  0.25500000920E-02 0.  1.
        2   -1    0    0  501    0  0.00000000000E+00  0.00000000000E+00 -0.12293121943E+04  0.12293121943E+04  0.25500000920E-02 0. -1.
    10030    2    1    2    0    0  0.00000000000E+00  0.00000000000E+00 -0.42586320753E+03  0.20327611811E+04  0.19876515157E+04 0.  0.
        3    1    3    3  502    0  0.55046063626E+03  0.73861056667E+03 -0.59440798929E+03  0.10962998446E+04  0.10100000352E+00 0. -1.
       -3    1    3    3    0  502 -0.55046063626E+03 -0.73861056667E+03  0.16854478175E+03  0.93646133658E+03  0.10100000352E+00 0.  1.
</event>
<event>
 5   0  0.1274868E-04  0.2004066E+04  0.7818609E-02  0.8604722E-01
        2   -1    0    0  501    0  0.00000000000E+00  0.00000000000E+00  0.86952716609E+03  0.86952716610E+03  0.25500000920E-02 0. -1.
       -2   -1    0    0    0  501  0.00000000000E+00  0.00000000000E+00 -0.11547316683E+04  0.11547316683E+04  0.25500000920E-02 0.  1.
    10030    2    1    2    0    0  0.00000000000E+00  0.00000000000E+00 -0.28520450224E+03  0.20242588344E+04  0.20040664212E+04 0.  0.
        1    1    3    3  502    0 -0.65552012007E+03  0.57045617105E+03 -0.64657202305E+03  0.10831353802E+04  0.50400001928E-02 0.  1.
       -1    1    3    3    0  502  0.65552012007E+03 -0.57045617105E+03  0.36136752082E+03  0.94112345419E+03  0.50400001928E-02 0. -1.
</event>
<event>
 5   0  0.1244229E-04  0.1993923E+04  0.7818609E-02  0.8609467E-01
       -2   -1    0    0    0  501  0.00000000000E+00  0.00000000000E+00  0.46470659702E+03  0.46470659703E+03  0.25500000920E-02 0.  1.
        2   -1    0    0  501    0  0.00000000000E+00  0.00000000000E+00 -0.21388390228E+04  0.21388390228E+04  0.25500000920E-02 0. -1.
    10030    2    1    2    0    0  0.00000000000E+00  0.00000000000E+00 -0.16741324257E+04  0.26035456198E+04  0.19939233725E+04 0.  0.
        5    1    3    3  502    0  0.50363484578E+02  0.97319064362E+03 -0.11118120558E+04  0.14784399368E+04  0.46999998093E+01 0. -1.
       -5    1    3    3    0  502 -0.50363484578E+02 -0.97319064362E+03 -0.56232036999E+03  0.11251056830E+04  0.46999998093E+01 0.  1.
</event>
<event>
 5   0  0.6028501E-05  0.1983895E+04  0.7818609E-02  0.8614187E-01
        1   -1    0    0  501    0  0.00000000000E+00  0.00000000000E+00  0.13056642834E+04  0.13056642834E+04  0.50400001928E-02 0. -1.
       -1   -1    0    0    0  501  0.00000000000E+00  0.00000000000E+00 -0.75360884730E+03  0.75360884732E+03  0.50400001928E-02 0.  1.
    10030    2    1    2    0    0  0.00000000000E+00  0.00000000000E+00  0.55205543612E+03  0.20592731307E+04  0.19838953154E+04 0.  0.
        4    1    3    3  502    0 -0.74251132934E+03 -0.44443249510E+03 -0.22728230391E+03  0.89470787158E+03  0.12699999809E+01 0.  1.
       -4    1    3    3    0  502  0.74251132934E+03  0.44443249510E+03  0.77933774004E+03  0.11645652592E+04  0.12699999809E+01 0. -1.
</event>
<event>
 5   0  0.6168338E-05  0.1997517E+04  0.7818609E-02  0.8607783E-01
        1   -1    0    0  501    0  0.00000000000E+00  0.00000000000E+00  0.12084678926E+04  0.12084678926E+04  0.50400001928E-02 0. -1.
       -1   -1    0    0    0  501  0.00000000000E+00  0.00000000000E+00 -0.82544046469E+03  0.82544046471E+03  0.50400001928E-02 0.  1.
    10030    2    1    2    0    0  0.00000000000E+00  0.00000000000E+00  0.38302742793E+03  0.20339083573E+04  0.19975167573E+04 0.  0.
        5    1    3    3  502    0  0.19828062003E+03  0.78091235869E+03 -0.40945678509E+03  0.90377888064E+03  0.46999998093E+01 0.  1.
       -5    1    3    3    0  502 -0.19828062003E+03 -0.78091235869E+03  0.79248421302E+03  0.11301294767E+04  0.46999998093E+01 0. -1.
</event>
<event>
 5   0  0.1242761E-04  0.2005025E+04  0.7818609E-02  0.8604275E-01
        2   -1    0    0  501    0  0.00000000000E+00  0.00000000000E+00  0.17995006474E+04  0.17995006474E+04  0.25500000920E-02 0. -1.
       -2   -1    0    0    0  501  0.00000000000E+00  0.00000000000E+00 -0.55850558845E+03  0.55850558846E+03  0.25500000920E-02 0.  1.
    10030    2    1    2    0    0  0.00000000000E+00  0.00000000000E+00  0.12409950589E+04  0.23580062359E+04  0.20050248557E+04 0.  0.
        4    1    3    3  502    0 -0.22847989699E+03  0.92627285312E+03  0.98268433308E+03  0.13696184042E+04  0.12699999809E+01 0. -1.
       -4    1    3    3    0  502  0.22847989699E+03 -0.92627285312E+03  0.25831072587E+03  0.98838783165E+03  0.12699999809E+01 0.  1.
</event>
<event>
 5   0  0.6028501E-05  0.2304828E+04  0.7818609E-02  0.8476020E-01
       -1   -1    0    0    0  501  0.00000000000E+00  0.00000000000E+00  0.74086674041E+03  0.74086674042E+03  0.50400001928E-02 0.  1.
        1   -1    0    0  501    0  0.00000000000E+00  0.00000000000E+00 -0.17925728716E+04  0.17925728716E+04  0.50400001928E-02 0. -1.
    10030    2    1    2    0    0  0.00000000000E+00  0.00000000000E+00 -0.10517061312E+04  0.25334396120E+04  0.23048276468E+04 0.  0.
        4    1    3    3  502    0  0.42568773107E+03  0.94338414792E+03 -0.10829499758E+04  0.14979873023E+04  0.12699999809E+01 0. -1.
       -4    1    3    3    0  502 -0.42568773107E+03 -0.94338414792E+03  0.31243844616E+02  0.10354523097E+04  0.12699999809E+01 0.  1.
</event>
<event>
 5   0  0.6256535E-05  0.2041229E+04  0.7818609E-02  0.8587584E-01
       -1   -1    0    0    0  501  0.00000000000E+00  0.00000000000E+00  0.11012193630E+04  0.11012193630E+04  0.50400001928E-02 0. -1.
        1   -1    0    0  501    0  0.00000000000E+00  0.00000000000E+00 -0.94590955193E+03  0.94590955194E+03  0.50400001928E-02 0.  1.
    10030    2    1    2    0    0  0.00000000000E+00  0.00000000000E+00  0.15530981103E+03  0.20471289149E+04  0.20412289575E+04 0.  0.
        1    1    3    3  502    0  0.95199785010E+02 -0.92732596519E+03 -0.33906683419E+03  0.99194897190E+03  0.50400001928E-02 0.  1.
       -1    1    3    3    0  502 -0.95199785010E+02  0.92732596519E+03  0.49437664522E+03  0.10551799430E+04  0.50400001928E-02 0. -1.
</event>
<event>
 5   0  0.1274868E-04  0.2010745E+04  0.7818609E-02  0.8601613E-01
        2   -1    0    0  501    0  0.00000000000E+00  0.00000000000E+00  0.90072873405E+03  0.90072873406E+03  0.25500000920E-02 0.  1.
       -2   -1    0    0    0  501  0.00000000000E+00  0.00000000000E+00 -0.11221738015E+04  0.11221738015E+04  0.25500000920E-02 0. -1.
    10030    2    1    2    0    0  0.00000000000E+00  0.00000000000E+00 -0.22144506749E+03  0.20229025356E+04  0.20107453222E+04 0.  0.
        1    1    3    3  502    0 -0.64586810766E+03 -0.36302704942E+02 -0.88499296940E+03  0.10962098589E+04  0.50400001928E-02 0. -1.
       -1    1    3    3    0  502  0.64586810766E+03  0.36302704942E+02  0.66354790191E+03  0.92669267669E+03  0.50400001928E-02 0.  1.
</event>
<event>
 5   0  0.6168338E-05  0.2031373E+04  0.7818609E-02  0.8592092E-01
        1   -1    0    0  501    0  0.00000000000E+00  0.00000000000E+00  0.93504674413E+03  0.93504674415E+03  0.50400001928E-02 0.  1.
       -1   -1    0    0    0  501  0.00000000000E+00  0.00000000000E+00 -0.11032808132E+04  0.11032808132E+04  0.50400001928E-02 0. -1.
    10030    2    1    2    0    0  0.00000000000E+00  0.00000000000E+00 -0.16823406906E+03  0.20383275573E+04  0.20313730650E+04 0.  0.
        5    1    3    3  502    0  0.36393706097E+03  0.21362323078E+03 -0.10111370161E+04  0.10956756931E+04  0.46999998093E+01 0. -1.
       -5    1    3    3    0  502 -0.36393706097E+03 -0.21362323078E+03  0.84290294704E+03  0.94265186427E+03  0.46999998093E+01 0.  1.
</event>
<event>
 5   0  0.1242761E-04  0.2010546E+04  0.7818609E-02  0.8601706E-01
        2   -1    0    0  501    0  0.00000000000E+00  0.00000000000E+00  0.13456663745E+04  0.13456663745E+04  0.25500000920E-02 0. -1.
       -2   -1    0    0    0  501  0.00000000000E+00  0.00000000000E+00 -0.75098397969E+03  0.75098397969E+03  0.25500000920E-02 0.  1.
    10030    2    1    2    0    0  0.00000000000E+00  0.00000000000E+00  0.59468239479E+03  0.20966503542E+04  0.20105460843E+04 0.  0.
        4    1    3    3  502    0 -0.82338514499E+03 -0.56360961861E+03  0.16982022274E+03  0.10121558280E+04  0.12699999809E+01 0.  1.
       -4    1    3    3    0  502  0.82338514499E+03  0.56360961861E+03  0.42486217205E+03  0.10844945262E+04  0.12699999809E+01 0. -1.
</event>
<event>
 5   0  0.1274868E-04  0.2002282E+04  0.7818609E-02  0.8605555E-01
        2   -1    0    0  501    0  0.00000000000E+00  0.00000000000E+00  0.20073278631E+04  0.20073278631E+04  0.25500000920E-02 0.  1.
       -2   -1    0    0    0  501  0.00000000000E+00  0.00000000000E+00 -0.49931201587E+03  0.49931201588E+03  0.25500000920E-02 0. -1.
    10030    2    1    2    0    0  0.00000000000E+00  0.00000000000E+00  0.15080158473E+04  0.25066398790E+04  0.20022816204E+04 0.  0.
        1    1    3    3  502    0  0.21481185542E+03 -0.43806599623E+03  0.18484198213E+04  0.19117274351E+04  0.50400001928E-02 0.  1.
       -1    1    3    3    0  502 -0.21481185542E+03  0.43806599623E+03 -0.34040397408E+03  0.59491244387E+03  0.50400001928E-02 0. -1.
</event>
<event>
 5   0  0.1159914E-04  0.2002294E+04  0.7818609E-02  0.8605549E-01
        2   -1    0    0  501    0  0.00000000000E+00  0.00000000000E+00  0.18253605289E+04  0.18253605289E+04  0.25500000920E-02 0. -1.
       -2   -1    0    0    0  501  0.00000000000E+00  0.00000000000E+00 -0.54909452406E+03  0.54909452407E+03  0.25500000920E-02 0.  1.
    10030    2    1    2    0    0  0.00000000000E+00  0.00000000000E+00  0.12762660048E+04  0.23744550529E+04  0.20022941551E+04 0.  0.
        3    1    3    3  502    0 -0.91200558662E+03  0.27187156048E+03  0.10067586961E+04  0.13853632801E+04  0.10100000352E+00 0.  1.
       -3    1    3    3    0  502  0.91200558662E+03 -0.27187156048E+03  0.26950730866E+03  0.98909177282E+03  0.10100000352E+00 0. -1.
</event>
<event>
 5   0  0.1281789E-04  0.2006518E+04  0.7818609E-02  0.8603579E-01
        2   -1    0    0  501    0  0.00000000000E+00  0.00000000000E+00  0.15174680665E+04  0.15174680665E+04  0.25500000920E-02 0.  1.
       -2   -1    0    0    0  501  0.00000000000E+00  0.00000000000E+00 -0.66329457961E+03  0.66329457962E+03  0.25500000920E-02 0. -1.
    10030    2    1    2    0    0  0.00000000000E+00  0.00000000000E+00  0.85417348687E+03  0.21807626461E+04  0.20065177231E+04 0.  0.
        2    1    3    3  502    0 -0.70122242255E+03 -0.20776680274E+03  0.11734918264E+04  0.13827375010E+04  0.25500000920E-02 0. -1.
       -2    1    3    3    0  502  0.70122242255E+03  0.20776680274E+03 -0.31931833950E+03  0.79802514507E+03  0.25500000920E-02 0.  1.
</event>
<event>
 5   0  0.1274868E-04  0.1998017E+04  0.7818609E-02  0.8607548E-01
       -2   -1    0    0    0  501  0.00000000000E+00  0.00000000000E+00  0.49711444857E+03  0.49711444858E+03  0.25500000920E-02 0. -1.
        2   -1    0    0  501    0  0.00000000000E+00  0.00000000000E+00 -0.20076224586E+04  0.20076224586E+04  0.25500000920E-02 0.  1.
    10030    2    1    2    0    0  0.00000000000E+00  0.00000000000E+00 -0.15105080100E+04  0.25047369071E+04  0.19980171485E+04 0.  0.
        1    1    3    3  502    0  0.58549771641E+03 -0.37790880516E+03  0.14210361131E+03  0.71120747838E+03  0.50400001928E-02 0. -1.
       -1    1    3    3    0  502 -0.58549771641E+03  0.37790880516E+03 -0.16526116213E+04  0.17935294288E+04  0.50400001928E-02 0.  1.
</event>
<event>
 5   0  0.1244229E-04  0.2023287E+04  0.7818609E-02  0.8595810E-01
       -2   -1    0    0    0  501  0.00000000000E+00  0.00000000000E+00  0.72616668299E+03  0.72616668299E+03  0.25500000920E-02 0.  1.
        2   -1    0    0  501    0  0.00000000000E+00  0.00000000000E+00 -0.14093486929E+04  0.14093486929E+04  0.25500000920E-02 0. -1.
    10030    2    1    2    0    0  0.00000000000E+00  0.00000000000E+00 -0.68318200994E+03  0.21355153759E+04  0.20232865003E+04 0.  0.
        5    1    3    3  502    0 -0.21005116625E+03  0.98502248178E+03 -0.24140933294E+03  0.10357081336E+04  0.46999998093E+01 0.  1.
       -5    1    3    3    0  502  0.21005116625E+03 -0.98502248178E+03 -0.44177267700E+03  0.10998072423E+04  0.46999998093E+01 0. -1.
</event>
<event>
 5   0  0.1281789E-04  0.2005281E+04  0.7818609E-02  0.8604156E-01
        2   -1    0    0  501    0  0.00000000000E+00  0.00000000000E+00  0.15455385112E+04  0.15455385112E+04  0.25500000920E-02 0.  1.
       -2   -1    0    0    0  501  0.00000000000E+00  0.00000000000E+00 -0.65044503035E+03  0.65044503036E+03  0.25500000920E-02 0. -1.
    10030    2    1    2    0    0  0.00000000000E+00  0.00000000000E+00  0.89509348089E+03  0.21959835416E+04  0.20052808720E+04 0.  0.
        2    1    3    3  502    0 -0.13976588778E+03  0.33818132886E+03 -0.57470848799E+03  0.68131561024E+03  0.25500000920E-02 0. -1.
       -2    1    3    3    0  502  0.13976588778E+03 -0.33818132886E+03  0.14698019689E+04  0.15146679314E+04  0.25500000920E-02 0.  1.
</event>
<event>
 5   0  0.6214547E-05  0.2040114E+04  0.7818609E-02  0.8588092E-01
       -1   -1    0    0    0  501  0.00000000000E+00  0.00000000000E+00  0.10212288825E+04  0.10212288825E+04  0.50400001928E-02 0.  1.
        1   -1    0    0  501    0  0.00000000000E+00  0.00000000000E+00 -0.10188865670E+04  0.10188865670E+04  0.50400001928E-02 0. -1.
    10030    2    1    2    0    0  0.00000000000E+00  0.00000000000E+00  0.23423155368E+01  0.20401154495E+04  0.20401141049E+04 0.  0.
        3    1    3    3  502    0 -0.80358727342E+03 -0.17049063079E+03  0.60590027140E+03  0.10207520317E+04  0.10100000352E+00 0.  1.
       -3    1    3    3    0  502  0.80358727342E+03  0.17049063079E+03 -0.60355795587E+03  0.10193634178E+04  0.10100000352E+00 0. -1.
</event>
<event>
 5   0  0.6256535E-05  0.2007029E+04  0.7818609E-02  0.8603341E-01
        1   -1    0    0  501    0  0.00000000000E+00  0.00000000000E+00  0.11871413422E+04  0.11871413422E+04  0.50400001928E-02 0. -1.
       -1   -1    0    0    0  501  0.00000000000E+00  0.00000000000E+00 -0.84829127453E+03  0.84829127454E+03  0.50400001928E-02 0.  1.
    10030    2    1    2    0    0  0.00000000000E+00  0.00000000000E+00  0.33885006764E+03  0.20354326167E+04  0.20070292895E+04 0.  0.
        1    1    3    3  502    0  0.63032677644E+03 -0.56079156854E+03  0.72047697917E+03  0.11094530661E+04  0.50400001928E-02 0. -1.
       -1    1    3    3    0  502 -0.63032677644E+03  0.56079156854E+03 -0.38162691153E+03  0.92597955057E+03  0.50400001928E-02 0.  1.
</event>
<event>
 5   0  0.1242761E-04  0.1991284E+04  0.7818609E-02  0.8610706E-01
       -2   -1    0    0    0  501  0.00000000000E+00  0.00000000000E+00  0.77593595069E+03  0.77593595069E+03  0.25500000920E-02 0.  1.
        2   -1    0    0  501    0  0.00000000000E+00  0.00000000000E+00 -0.12775583381E+04  0.12775583381E+04  0.25500000920E-02 0. -1.
    10030    2    1    2    0    0  0.00000000000E+00  0.00000000000E+00 -0.50162238744E+03  0.20534942888E+04  0.19912844535E+04 0.  0.
        4    1    3    3  502    0  0.97315394233E+03  0.15663938744E+03 -0.10593251349E+03  0.99135654710E+03  0.12699999809E+01 0.  1.
       -4    1    3    3    0  502 -0.97315394233E+03 -0.15663938744E+03 -0.39568987395E+03  0.10621377417E+04  0.12699999809E+01 0. -1.
</event>
<event>
 5   0  0.1244229E-04  0.1997573E+04  0.7818609E-02  0.8607756E-01
       -2   -1    0    0    0  501  0.00000000000E+00  0.00000000000E+00  0.10398818967E+04  0.10398818967E+04  0.25500000920E-02 0. -1.
        2   -1    0    0  501    0  0.00000000000E+00  0.00000000000E+00 -0.95931470675E+03  0.95931470675E+03  0.25500000920E-02 0.  1.
    10030    2    1    2    0    0  0.00000000000E+00  0.00000000000E+00  0.80567189982E+02  0.19991966035E+04  0.19975725237E+04 0.  0.
        5    1    3    3  502    0  0.76297411330E+03 -0.62040711950E+03  0.21511796934E+03  0.10066440892E+04  0.46999998093E+01 0. -1.
       -5    1    3    3    0  502 -0.76297411330E+03  0.62040711950E+03 -0.13455077936E+03  0.99255251434E+03  0.46999998093E+01 0.  1.
</event>
<event>
 5   0  0.1244229E-04  0.1980276E+04  0.7818609E-02  0.8615898E-01
       -2   -1    0    0    0  501  0.00000000000E+00  0.00000000000E+00  0.96302971066E+03  0.96302971066E+03  0.25500000920E-02 0.  1.
        2   -1    0    0  501    0  0.00000000000E+00  0.00000000000E+00 -0.10180098627E+04  0.10180098627E+04  0.25500000920E-02 0. -1.
    10030    2    1    2    0    0  0.00000000000E+00  0.00000000000E+00 -0.54980152084E+02  0.19810395734E+04  0.19802764893E+04 0.  0.
        5    1    3    3  502    0  0.81394538376E+02  0.22103957084E+03 -0.98956128417E+03  0.10172203242E+04  0.46999998093E+01 0. -1.
       -5    1    3    3    0  502 -0.81394538376E+02 -0.22103957084E+03  0.93458113209E+03  0.96381924924E+03  0.46999998093E+01 0.  1.
</event>
<event>
 5   0  0.6028501E-05  0.2010123E+04  0.7818609E-02  0.8601903E-01
       -1   -1    0    0    0  501  0.00000000000E+00  0.00000000000E+00  0.10903179221E+04  0.10903179221E+04  0.50400001928E-02 0.  1.
        1   -1    0    0  501    0  0.00000000000E+00  0.00000000000E+00 -0.92647124873E+03  0.92647124874E+03  0.50400001928E-02 0. -1.
    10030    2    1    2    0    0  0.00000000000E+00  0.00000000000E+00  0.16384667332E+03  0.20167891708E+04  0.20101225901E+04 0.  0.
        4    1    3    3  502    0 -0.67840542535E+03 -0.69830121011E+03 -0.16848020825E+03  0.98805146357E+03  0.12699999809E+01 0. -1.
       -4    1    3    3    0  502  0.67840542535E+03  0.69830121011E+03  0.33232688158E+03  0.10287377072E+04  0.12699999809E+01 0.  1.
</event>
<event>
 5   0  0.6168338E-05  0.1991747E+04  0.7818609E-02  0.8610489E-01
       -1   -1    0    0    0  501  0.00000000000E+00  0.00000000000E+00  0.50295726461E+03  0.50295726464E+03  0.50400001928E-02 0.  1.
        1   -1    0    0  501    0  0.00000000000E+00  0.00000000000E+00 -0.19718662884E+04  0.19718662884E+04  0.50400001928E-02 0. -1.
    10030    2    1    2    0    0  0.00000000000E+00  0.00000000000E+00 -0.14689090238E+04  0.24748235530E+04  0.19917474485E+04 0.  0.
        5    1    3    3  502    0  0.59034270460E+03  0.67559596113E+03 -0.12714957992E+04  0.15561677509E+04  0.46999998093E+01 0. -1.
       -5    1    3    3    0  502 -0.59034270460E+03 -0.67559596113E+03 -0.19741322459E+03  0.91865580214E+03  0.46999998093E+01 0.  1.
</event>
<event>
 5   0  0.1274868E-04  0.1994784E+04  0.7818609E-02  0.8609063E-01
       -2   -1    0    0    0  501  0.00000000000E+00  0.00000000000E+00  0.56560330682E+03  0.56560330682E+03  0.25500000920E-02 0.  1.
        2   -1    0    0  501    0  0.00000000000E+00  0.00000000000E+00 -0.17588127562E+04  0.17588127562E+04  0.25500000920E-02 0. -1.
    10030    2    1    2    0    0  0.00000000000E+00  0.00000000000E+00 -0.11932094494E+04  0.23244160630E+04  0.19947835080E+04 0.  0.
        1    1    3    3  502    0 -0.34699640409E+03  0.84855993062E+02 -0.16817141694E+04  0.17192351764E+04  0.50400001928E-02 0. -1.
       -1    1    3    3    0  502  0.34699640409E+03 -0.84855993062E+02  0.48850472006E+03  0.60518088664E+03  0.50400001928E-02 0.  1.
</event>
<event>
 5   0  0.1242761E-04  0.1963115E+04  0.7818609E-02  0.8624062E-01
        2   -1    0    0  501    0  0.00000000000E+00  0.00000000000E+00  0.15985795348E+04  0.15985795348E+04  0.25500000920E-02 0. -1.
       -2   -1    0    0    0  501  0.00000000000E+00  0.00000000000E+00 -0.60269460833E+03  0.60269460834E+03  0.25500000920E-02 0.  1.
    10030    2    1    2    0    0  0.00000000000E+00  0.00000000000E+00  0.99588492643E+03  0.22012741431E+04  0.19631151434E+04 0.  0.
        4    1    3    3  502    0  0.96629212642E+03 -0.10097465436E+03  0.34120939916E+03  0.10297290039E+04  0.12699999809E+01 0. -1.
       -4    1    3    3    0  502 -0.96629212642E+03  0.10097465436E+03  0.65467552727E+03  0.11715451392E+04  0.12699999809E+01 0.  1.
</event>
<event>
 5   0  0.1281789E-04  0.1987039E+04  0.7818609E-02  0.8612705E-01
        2   -1    0    0  501    0  0.00000000000E+00  0.00000000000E+00  0.14447966544E+04  0.14447966544E+04  0.25500000920E-02 0.  1.
       -2   -1    0    0    0  501  0.00000000000E+00  0.00000000000E+00 -0.68319701691E+03  0.68319701692E+03  0.25500000920E-02 0. -1.
    10030    2    1    2    0    0  0.00000000000E+00  0.00000000000E+00  0.76159963750E+03  0.21279936713E+04  0.19870387659E+04 0.  0.
        2    1    3    3  502    0 -0.60619192195E+03 -0.19210050873E+03 -0.43670448180E+03  0.77141561827E+03  0.25500000920E-02 0. -1.
       -2    1    3    3    0  502  0.60619192195E+03  0.19210050873E+03  0.11983041193E+04  0.13565780531E+04  0.25500000920E-02 0.  1.
</event>
<event>
 5   0  0.1281789E-04  0.1993002E+04  0.7818609E-02  0.8609899E-01
       -2   -1    0    0    0  501  0.00000000000E+00  0.00000000000E+00  0.20815912079E+04  0.20815912079E+04  0.25500000920E-02 0.  1.
        2   -1    0    0  501    0  0.00000000000E+00  0.00000000000E+00 -0.47704580341E+03  0.47704580341E+03  0.25500000920E-02 0. -1.
    10030    2    1    2    0    0  0.00000000000E+00  0.00000000000E+00  0.16045454045E+04  0.25586370113E+04  0.19930021075E+04 0.  0.
        2    1    3    3  502    0  0.47909060299E+03  0.65615756257E+03  0.15430478164E+04  0.17438655672E+04  0.25500000920E-02 0.  1.
       -2    1    3    3    0  502 -0.47909060299E+03 -0.65615756257E+03  0.61497588104E+02  0.81477144411E+03  0.25500000920E-02 0. -1.
</event>
<event>
 5   0  0.4479000E-05  0.2007027E+04  0.7818609E-02  0.8603343E-01
        4   -1    0    0  501    0  0.00000000000E+00  0.00000000000E+00  0.76532757319E+03  0.76532862692E+03  0.12699999809E+01 0.  1.
       -4   -1    0    0    0  501  0.00000000000E+00  0.00000000000E+00 -0.13158251363E+04  0.13158257492E+04  0.12699999809E+01 0. -1.
    10030    2    1    2    0    0  0.00000000000E+00  0.00000000000E+00 -0.55049756309E+03  0.20811543761E+04  0.20070266491E+04 0.  0.
        5    1    3    3  502    0 -0.59503352347E+03  0.80804412402E+03 -0.27948654654E+03  0.10416981425E+04  0.46999998093E+01 0. -1.
       -5    1    3    3    0  502  0.59503352347E+03 -0.80804412402E+03 -0.27101101655E+03  0.10394562336E+04  0.46999998093E+01 0.  1.
</event>
<event>
 5   0  0.6214547E-05  0.2080951E+04  0.7818609E-02  0.8569681E-01
       -1   -1    0    0    0  501  0.00000000000E+00  0.00000000000E+00  0.91554634019E+03  0.91554634021E+03  0.50400001928E-02 0. -1.
        1   -1    0    0  501    0  0.00000000000E+00  0.00000000000E+00 -0.11824521964E+04  0.11824521964E+04  0.50400001928E-02 0.  1.
    10030    2    1    2    0    0  0.00000000000E+00  0.00000000000E+00 -0.26690585623E+03  0.20979985366E+04  0.20809514948E+04 0.  0.
        3    1    3    3  502    0  0.41738863568E+03  0.46479467850E+03 -0.97234036333E+03  0.11557219210E+04  0.10100000352E+00 0.  1.
       -3    1    3    3    0  502 -0.41738863568E+03 -0.46479467850E+03  0.70543450709E+03  0.94227661563E+03  0.10100000352E+00 0. -1.
</event>
<event>
 5   0  0.1244229E-04  0.1954903E+04  0.7818609E-02  0.8628000E-01
       -2   -1    0    0    0  501  0.00000000000E+00  0.00000000000E+00  0.94432276397E+03  0.94432276398E+03  0.25500000920E-02 0. -1.
        2   -1    0    0  501    0  0.00000000000E+00  0.00000000000E+00 -0.10117420426E+04  0.10117420426E+04  0.25500000920E-02 0.  1.
    10030    2    1    2    0    0  0.00000000000E+00  0.00000000000E+00 -0.67419278658E+02  0.19560648066E+04  0.19549025982E+04 0.  0.
        5    1    3    3  502    0 -0.66443537583E+03 -0.15638483930E+03 -0.73373857725E+03  0.10021601550E+04  0.46999998093E+01 0.  1.
       -5    1    3    3    0  502  0.66443537583E+03  0.15638483930E+03  0.66631929859E+03  0.95390465157E+03  0.46999998093E+01 0. -1.
</event>
<event>
 5   0  0.1274868E-04  0.2014592E+04  0.7818609E-02  0.8599829E-01
        2   -1    0    0  501    0  0.00000000000E+00  0.00000000000E+00  0.11597612238E+04  0.11597612238E+04  0.25500000920E-02 0.  1.
       -2   -1    0    0    0  501  0.00000000000E+00  0.00000000000E+00 -0.87487427745E+03  0.87487427746E+03  0.25500000920E-02 0. -1.
    10030    2    1    2    0    0  0.00000000000E+00  0.00000000000E+00  0.28488694636E+03  0.20346355013E+04  0.20145920309E+04 0.  0.
        1    1    3    3  502    0 -0.62026091832E+03  0.16634048501E+03  0.92621378991E+03  0.11270602239E+04  0.50400001928E-02 0.  1.
       -1    1    3    3    0  502  0.62026091832E+03 -0.16634048501E+03 -0.64132684355E+03  0.90757527733E+03  0.50400001928E-02 0. -1.
</event>
<event>
 5   0  0.6028501E-05  0.1974213E+04  0.7818609E-02  0.8618773E-01
       -1   -1    0    0    0  501  0.00000000000E+00  0.00000000000E+00  0.62922964499E+03  0.62922964501E+03  0.50400001928E-02 0.  1.
        1   -1    0    0  501    0  0.00000000000E+00  0.00000000000E+00 -0.15485277015E+04  0.15485277015E+04  0.50400001928E-02 0. -1.
    10030    2    1    2    0    0  0.00000000000E+00  0.00000000000E+00 -0.91929805653E+03  0.21777573465E+04  0.19742132974E+04 0.  0.
        4    1    3    3  502    0 -0.37661260436E+03 -0.90083429401E+03 -0.29964820303E+03  0.10213374259E+04  0.12699999809E+01 0. -1.
       -4    1    3    3    0  502  0.37661260436E+03  0.90083429401E+03 -0.61964985350E+03  0.11564199206E+04  0.12699999809E+01 0.  1.
</event>
<event>
 5   0  0.6214547E-05  0.1983359E+04  0.7818609E-02  0.8614441E-01
        1   -1    0    0  501    0  0.00000000000E+00  0.00000000000E+00  0.22363296665E+04  0.22363296665E+04  0.50400001928E-02 0.  1.
       -1   -1    0    0    0  501  0.00000000000E+00  0.00000000000E+00 -0.43975099527E+03  0.43975099530E+03  0.50400001928E-02 0. -1.
    10030    2    1    2    0    0  0.00000000000E+00  0.00000000000E+00  0.17965786712E+04  0.26760806618E+04  0.19833589656E+04 0.  0.
        3    1    3    3  502    0  0.11151078081E+03 -0.16535249205E+03  0.22089909309E+04  0.22179758889E+04  0.10100000352E+00 0.  1.
       -3    1    3    3    0  502 -0.11151078081E+03  0.16535249205E+03 -0.41241225964E+03  0.45810477291E+03  0.10100000352E+00 0. -1.
</event>
<event>
 5   0  0.1244229E-04  0.2022799E+04  0.7818609E-02  0.8596035E-01
        2   -1    0    0  501    0  0.00000000000E+00  0.00000000000E+00  0.13924109661E+04  0.13924109661E+04  0.25500000920E-02 0.  1.
       -2   -1    0    0    0  501  0.00000000000E+00  0.00000000000E+00 -0.73464609543E+03  0.73464609544E+03  0.25500000920E-02 0. -1.
    10030    2    1    2    0    0  0.00000000000E+00  0.00000000000E+00  0.65776487068E+03  0.21270570616E+04  0.20227993272E+04 0.  0.
        5    1    3    3  502    0 -0.23484336340E+03 -0.53355940567E+03 -0.54019603663E+03  0.79477725980E+03  0.46999998093E+01 0. -1.
       -5    1    3    3    0  502  0.23484336340E+03  0.53355940567E+03  0.11979609073E+04  0.13322798018E+04  0.46999998093E+01 0.  1.
</event>
<event>
 5   0  0.1244229E-04  0.2028138E+04  0.7818609E-02  0.8593577E-01
        2   -1    0    0  501    0  0.00000000000E+00  0.00000000000E+00  0.15821777138E+04  0.15821777138E+04  0.25500000920E-02 0.  1.
       -2   -1    0    0    0  501  0.00000000000E+00  0.00000000000E+00 -0.64994977821E+03  0.64994977822E+03  0.25500000920E-02 0. -1.
    10030    2    1    2    0    0  0.00000000000E+00  0.00000000000E+00  0.93222793554E+03  0.22321274920E+04  0.20281381158E+04 0.  0.
        5    1    3    3  502    0  0.14740434302E+03  0.56831466963E+03  0.13760772771E+04  0.14961017234E+04  0.46999998093E+01 0.  1.
       -5    1    3    3    0  502 -0.14740434302E+03 -0.56831466963E+03 -0.44384934156E+03  0.73602576862E+03  0.46999998093E+01 0. -1.
</event>
<event>
 5   0  0.1281789E-04  0.1972443E+04  0.7818609E-02  0.8619614E-01
        2   -1    0    0  501    0  0.00000000000E+00  0.00000000000E+00  0.99954216651E+03  0.99954216651E+03  0.25500000920E-02 0. -1.
       -2   -1    0    0    0  501  0.00000000000E+00  0.00000000000E+00 -0.97307790997E+03  0.97307790998E+03  0.25500000920E-02 0.  1.
    10030    2    1    2    0    0  0.00000000000E+00  0.00000000000E+00  0.26464256533E+02  0.19726200765E+04  0.19724425490E+04 0.  0.
        2    1    3    3  502    0 -0.85536378620E+02  0.95902823737E+03  0.22674787813E+03  0.98917452069E+03  0.25500000920E-02 0.  1.
       -2    1    3    3    0  502  0.85536378620E+02 -0.95902823737E+03 -0.20028362160E+03  0.98344555580E+03  0.25500000920E-02 0. -1.
</event>
<event>
 5   0  0.1242761E-04  0.1999495E+04  0.7818609E-02  0.8606857E-01
       -2   -1    0    0    0  501  0.00000000000E+00  0.00000000000E+00  0.17609317553E+04  0.17609317553E+04  0.25500000920E-02 0. -1.
        2   -1    0    0  501    0  0.00000000000E+00  0.00000000000E+00 -0.56759418565E+03  0.56759418565E+03  0.25500000920E-02 0.  1.
    10030    2    1    2    0    0  0.00000000000E+00  0.00000000000E+00  0.11933375696E+04  0.23285259409E+04  0.19994945618E+04 0.  0.
        4    1    3    3  502    0 -0.35257339003E+03 -0.27779687153E+03 -0.44364914966E+03  0.63111431460E+03  0.12699999809E+01 0.  1.
       -4    1    3    3    0  502  0.35257339003E+03  0.27779687153E+03  0.16369867193E+04  0.16974116263E+04  0.12699999809E+01 0. -1.
</event>
<event>
 5   0  0.6256535E-05  0.1959829E+04  0.7818609E-02  0.8625636E-01
        1   -1    0    0  501    0  0.00000000000E+00  0.00000000000E+00  0.16552358429E+04  0.16552358429E+04  0.50400001928E-02 0. -1.
       -1   -1    0    0    0  501  0.00000000000E+00  0.00000000000E+00 -0.58011834561E+03  0.58011834564E+03  0.50400001928E-02 0.  1.
    10030    2    1    2    0    0  0.00000000000E+00  0.00000000000E+00  0.10751174973E+04  0.22353541885E+04  0.19598292567E+04 0.  0.
        1    1    3    3  502    0  0.27869587755E+02  0.18795984544E+03 -0.55890418207E+03  0.59032152441E+03  0.50400001928E-02 0.  1.
       -1    1    3    3    0  502 -0.27869587755E+02 -0.18795984544E+03  0.16340216794E+04  0.16450326641E+04  0.50400001928E-02 0. -1.
</event>
<event>
 5   0  0.6256535E-05  0.2359959E+04  0.7818609E-02  0.8454648E-01
        1   -1    0    0  501    0  0.00000000000E+00  0.00000000000E+00  0.15763072081E+04  0.15763072081E+04  0.50400001928E-02 0. -1.
       -1   -1    0    0    0  501  0.00000000000E+00  0.00000000000E+00 -0.88329945379E+03  0.88329945380E+03  0.50400001928E-02 0.  1.
    10030    2    1    2    0    0  0.00000000000E+00  0.00000000000E+00  0.69300775434E+03  0.24596066619E+04  0.23599587250E+04 0.  0.
        1    1    3    3  502    0  0.21291357302E+03 -0.45952329537E+03  0.14572713875E+04  0.15427682086E+04  0.50400001928E-02 0. -1.
       -1    1    3    3    0  502 -0.21291357302E+03  0.45952329537E+03 -0.76426363315E+03  0.91683845336E+03  0.50400001928E-02 0.  1.
</event>
<event>
 5   0  0.6168338E-05  0.2011358E+04  0.7818609E-02  0.8601329E-01
       -1   -1    0    0    0  501  0.00000000000E+00  0.00000000000E+00  0.83098267198E+03  0.83098267199E+03  0.50400001928E-02 0. -1.
        1   -1    0    0  501    0  0.00000000000E+00  0.00000000000E+00 -0.12171012116E+04  0.12171012116E+04  0.50400001928E-02 0.  1.
    10030    2    1    2    0    0  0.00000000000E+00  0.00000000000E+00 -0.38611853964E+03  0.20480838836E+04  0.20113577672E+04 0.  0.
        5    1    3    3  502    0  0.91554282082E+02 -0.59962766213E+03  0.62372972695E+03  0.87005539021E+03  0.46999998093E+01 0. -1.
       -5    1    3    3    0  502 -0.91554282082E+02  0.59962766213E+03 -0.10098482666E+04  0.11780284934E+04  0.46999998093E+01 0.  1.
</event>
<event>
 5   0  0.1274868E-04  0.1856745E+04  0.7818609E-02  0.8676692E-01
       -2   -1    0    0    0  501  0.00000000000E+00  0.00000000000E+00  0.61533900257E+03  0.61533900258E+03  0.25500000920E-02 0. -1.
        2   -1    0    0  501    0  0.00000000000E+00  0.00000000000E+00 -0.14006518979E+04  0.14006518979E+04  0.25500000920E-02 0.  1.
    10030    2    1    2    0    0  0.00000000000E+00  0.00000000000E+00 -0.78531289531E+03  0.20159909005E+04  0.18567452618E+04 0.  0.
        1    1    3    3  502    0 -0.15129026083E+03  0.80588001375E+03 -0.86536311148E+03  0.11921344951E+04  0.50400001928E-02 0.  1.
       -1    1    3    3    0  502  0.15129026083E+03 -0.80588001375E+03  0.80050216176E+02  0.82385640540E+03  0.50400001928E-02 0. -1.
</event>
<event>
 5   0  0.1242761E-04  0.1981743E+04  0.7818609E-02  0.8615204E-01
       -2   -1    0    0    0  501  0.00000000000E+00  0.00000000000E+00  0.85699763914E+03  0.85699763914E+03  0.25500000920E-02 0.  1.
        2   -1    0    0  501    0  0.00000000000E+00  0.00000000000E+00 -0.11456580515E+04  0.11456580515E+04  0.25500000920E-02 0. -1.
    10030    2    1    2    0    0  0.00000000000E+00  0.00000000000E+00 -0.28866041240E+03  0.20026556907E+04  0.19817429151E+04 0.  0.
        4    1    3    3  502    0 -0.95032064071E+03  0.28043342362E+03 -0.15292924933E+03  0.10025673012E+04  0.12699999809E+01 0. -1.
       -4    1    3    3    0  502  0.95032064071E+03 -0.28043342362E+03 -0.13573116308E+03  0.10000883895E+04  0.12699999809E+01 0.  1.
</event>
<event>
 5   0  0.6028501E-05  0.1989351E+04  0.7818609E-02  0.8611616E-01
       -1   -1    0    0    0  501  0.00000000000E+00  0.00000000000E+00  0.10618100676E+04  0.10618100676E+04  0.50400001928E-02 0. -1.
        1   -1    0    0  501    0  0.00000000000E+00  0.00000000000E+00 -0.93178569817E+03  0.93178569819E+03  0.50400001928E-02 0.  1.
    10030    2    1    2    0    0  0.00000000000E+00  0.00000000000E+00  0.13002436938E+03  0.19935957658E+04  0.19893510853E+04 0.  0.
        4    1    3    3  502    0 -0.69436374206E+03  0.99986039154E+02  0.77166895642E+03  0.10428867654E+04  0.12699999809E+01 0. -1.
       -4    1    3    3    0  502  0.69436374206E+03 -0.99986039154E+02 -0.64164458704E+03  0.95070900032E+03  0.12699999809E+01 0.  1.
</event>
<event>
 5   0  0.6168338E-05  0.2106155E+04  0.7818609E-02  0.8558537E-01
        1   -1    0    0  501    0  0.00000000000E+00  0.00000000000E+00  0.11225900731E+04  0.11225900732E+04  0.50400001928E-02 0. -1.
       -1   -1    0    0    0  501  0.00000000000E+00  0.00000000000E+00 -0.98786933585E+03  0.98786933586E+03  0.50400001928E-02 0.  1.
    10030    2    1    2    0    0  0.00000000000E+00  0.00000000000E+00  0.13472073730E+03  0.21104594090E+04  0.21061550845E+04 0.  0.
        5    1    3    3  502    0 -0.96999555782E+02 -0.22196874755E+03 -0.95956145008E+03  0.98967636386E+03  0.46999998093E+01 0.  1.
       -5    1    3    3    0  502  0.96999555782E+02  0.22196874755E+03  0.10942821874E+04  0.11207830452E+04  0.46999998093E+01 0. -1.
</event>
<event>
 5   0  0.1274868E-04  0.2008534E+04  0.7818609E-02  0.8602641E-01
       -2   -1    0    0    0  501  0.00000000000E+00  0.00000000000E+00  0.55791482774E+03  0.55791482775E+03  0.25500000920E-02 0.  1.
        2   -1    0    0  501    0  0.00000000000E+00  0.00000000000E+00 -0.18077175297E+04  0.18077175297E+04  0.25500000920E-02 0. -1.
    10030    2    1    2    0    0  0.00000000000E+00  0.00000000000E+00 -0.12498027020E+04  0.23656323574E+04  0.20085342060E+04 0.  0.
        1    1    3    3  502    0 -0.73093906512E+02 -0.75608749863E+03  0.14881049701E+03  0.77405141225E+03  0.50400001928E-02 0.  1.
       -1    1    3    3    0  502  0.73093906512E+02  0.75608749863E+03 -0.13986131990E+04  0.15915809452E+04  0.50400001928E-02 0. -1.
</event>
<event>
 5   0  0.6214547E-05  0.2022270E+04  0.7818609E-02  0.8596279E-01
       -1   -1    0    0    0  501  0.00000000000E+00  0.00000000000E+00  0.12314095236E+04  0.12314095236E+04  0.50400001928E-02 0.  1.
        1   -1    0    0  501    0  0.00000000000E+00  0.00000000000E+00 -0.83026351219E+03  0.83026351221E+03  0.50400001928E-02 0. -1.
    10030    2    1    2    0    0  0.00000000000E+00  0.00000000000E+00  0.40114601143E+03  0.20616730358E+04  0.20222704033E+04 0.  0.
        3    1    3    3  502    0 -0.17837614135E+03 -0.83566781179E+03 -0.35054824803E+03  0.92360317446E+03  0.10100000352E+00 0.  1.
       -3    1    3    3    0  502  0.17837614135E+03  0.83566781179E+03  0.75169425946E+03  0.11380698614E+04  0.10100000352E+00 0. -1.
</event>
<event>
 5   0  0.1281789E-04  0.1988293E+04  0.7818609E-02  0.8612114E-01
        2   -1    0    0  501    0  0.00000000000E+00  0.00000000000E+00  0.17419177872E+04  0.17419177872E+04  0.25500000920E-02 0.  1.
       -2   -1    0    0    0  501  0.00000000000E+00  0.00000000000E+00 -0.56737871257E+03  0.56737871257E+03  0.25500000920E-02 0. -1.
    10030    2    1    2    0    0  0.00000000000E+00  0.00000000000E+00  0.11745390747E+04  0.23092964998E+04  0.19882928069E+04 0.  0.
        2    1    3    3  502    0  0.53055776491E+02 -0.32169022847E+03  0.16780577392E+04  0.17094377130E+04  0.25500000920E-02 0.  1.
       -2    1    3    3    0  502 -0.53055776491E+02  0.32169022847E+03 -0.50351866456E+03  0.59985878678E+03  0.25500000920E-02 0. -1.
</event>
<event>
 5   0  0.1281789E-04  0.1989946E+04  0.7818609E-02  0.8611336E-01
       -2   -1    0    0    0  501  0.00000000000E+00  0.00000000000E+00  0.91699330409E+03  0.91699330409E+03  0.25500000920E-02 0. -1.
        2   -1    0    0  501    0  0.00000000000E+00  0.00000000000E+00 -0.10795839269E+04  0.10795839269E+04  0.25500000920E-02 0.  1.
    10030    2    1    2    0    0  0.00000000000E+00  0.00000000000E+00 -0.16259062285E+03  0.19965772310E+04  0.19899459613E+04 0.  0.
        2    1    3    3  502    0 -0.26056810231E+03 -0.71755720509E+03  0.55894330475E+03  0.94615099031E+03  0.25500000920E-02 0. -1.
       -2    1    3    3    0  502  0.26056810231E+03  0.71755720509E+03 -0.72153392760E+03  0.10504262407E+04  0.25500000920E-02 0.  1.
</event>
<event>
 5   0  0.1242761E-04  0.1993740E+04  0.7818609E-02  0.8609553E-01
        2   -1    0    0  501    0  0.00000000000E+00  0.00000000000E+00  0.53028267516E+03  0.53028267517E+03  0.25500000920E-02 0.  1.
       -2   -1    0    0    0  501  0.00000000000E+00  0.00000000000E+00 -0.18740006168E+04  0.18740006168E+04  0.25500000920E-02 0. -1.
    10030    2    1    2    0    0  0.00000000000E+00  0.00000000000E+00 -0.13437179416E+04  0.24042832920E+04  0.19937402643E+04 0.  0.
        4    1    3    3  502    0 -0.61832611108E+03  0.75764674997E+03 -0.43866876944E+03  0.10718151331E+04  0.12699999809E+01 0.  1.
       -4    1    3    3    0  502  0.61832611108E+03 -0.75764674997E+03 -0.90504917219E+03  0.13324681589E+04  0.12699999809E+01 0. -1.
</event>
<event>
 5   0  0.1159914E-04  0.1977639E+04  0.7818609E-02  0.8617147E-01
       -2   -1    0    0    0  501  0.00000000000E+00  0.00000000000E+00  0.99561831145E+03  0.99561831146E+03  0.25500000920E-02 0.  1.
        2   -1    0    0  501    0  0.00000000000E+00  0.00000000000E+00 -0.98206682750E+03  0.98206682750E+03  0.25500000920E-02 0. -1.
    10030    2    1    2    0    0  0.00000000000E+00  0.00000000000E+00  0.13551483953E+02  0.19776851390E+04  0.19776387097E+04 0.  0.
        3    1    3    3  502    0  0.31154031161E+03 -0.93437308803E+03  0.94260782366E+02  0.98944203402E+03  0.10100000352E+00 0. -1.
       -3    1    3    3    0  502 -0.31154031161E+03  0.93437308803E+03 -0.80709298412E+02  0.98824310493E+03  0.10100000352E+00 0.  1.
</event>
<event>
 5   0  0.1274868E-04  0.1984237E+04  0.7818609E-02  0.8614026E-01
        2   -1    0    0  501    0  0.00000000000E+00  0.00000000000E+00  0.80329871113E+03  0.80329871114E+03  0.25500000920E-02 0.  1.
       -2   -1    0    0    0  501  0.00000000000E+00  0.00000000000E+00 -0.12253220132E+04  0.12253220132E+04  0.25500000920E-02 0. -1.
    10030    2    1    2    0    0  0.00000000000E+00  0.00000000000E+00 -0.42202330202E+03  0.20286207243E+04  0.19842374796E+04 0.  0.
        1    1    3    3  502    0 -0.21195058362E+03  0.96827874151E+03 -0.25454127116E+03  0.10233660293E+04  0.50400001928E-02 0. -1.
       -1    1    3    3    0  502  0.21195058362E+03 -0.96827874151E+03 -0.16748203087E+03  0.10052546950E+04  0.50400001928E-02 0.  1.
</event>
<event>
 5   0  0.1244229E-04  0.2051322E+04  0.7818609E-02  0.8582995E-01
       -2   -1    0    0    0  501  0.00000000000E+00  0.00000000000E+00  0.80128292978E+03  0.80128292978E+03  0.25500000920E-02 0. -1.
        2   -1    0    0  501    0  0.00000000000E+00  0.00000000000E+00 -0.13128697383E+04  0.13128697383E+04  0.25500000920E-02 0.  1.
    10030    2    1    2    0    0  0.00000000000E+00  0.00000000000E+00 -0.51158680857E+03  0.21141526681E+04  0.20513216329E+04 0.  0.
        5    1    3    3  502    0 -0.43079091258E+03  0.80292651133E+03  0.22946374427E+03  0.93965285765E+03  0.46999998093E+01 0. -1.
       -5    1    3    3    0  502  0.43079091258E+03 -0.80292651133E+03 -0.74105055283E+03  0.11744998105E+04  0.46999998093E+01 0.  1.
</event>
<event>
 5   0  0.6028501E-05  0.1932918E+04  0.7818609E-02  0.8638642E-01
       -1   -1    0    0    0  501  0.00000000000E+00  0.00000000000E+00  0.13897799583E+04  0.13897799583E+04  0.50400001928E-02 0. -1.
        1   -1    0    0  501    0  0.00000000000E+00  0.00000000000E+00 -0.67207968319E+03  0.67207968321E+03  0.50400001928E-02 0.  1.
    10030    2    1    2    0    0  0.00000000000E+00  0.00000000000E+00  0.71770027509E+03  0.20618596415E+04  0.19329178711E+04 0.  0.
        4    1    3    3  502    0 -0.45750505581E+03 -0.72122184865E+03  0.84131541620E+03  0.11988682469E+04  0.12699999809E+01 0. -1.
       -4    1    3    3    0  502  0.45750505581E+03  0.72122184865E+03 -0.12361514111E+03  0.86299139456E+03  0.12699999809E+01 0.  1.
</event>
<event>
 5   0  0.6168338E-05  0.1974348E+04  0.7818609E-02  0.8618709E-01
       -1   -1    0    0    0  501  0.00000000000E+00  0.00000000000E+00  0.85599384194E+03  0.85599384196E+03  0.50400001928E-02 0. -1.
        1   -1    0    0  501    0  0.00000000000E+00  0.00000000000E+00 -0.11384568791E+04  0.11384568791E+04  0.50400001928E-02 0.  1.
    10030    2    1    2    0    0  0.00000000000E+00  0.00000000000E+00 -0.28246303711E+03  0.19944507210E+04  0.19743475660E+04 0.  0.
        5    1    3    3  502    0  0.47470773033E+03 -0.19226769300E+03  0.71126629717E+03  0.87649080457E+03  0.46999998093E+01 0. -1.
       -5    1    3    3    0  502 -0.47470773033E+03  0.19226769300E+03 -0.99372933427E+03  0.11179599165E+04  0.46999998093E+01 0.  1.
</event>
<event>
 5   0  0.1242761E-04  0.1985143E+04  0.7818609E-02  0.8613598E-01
        2   -1    0    0  501    0  0.00000000000E+00  0.00000000000E+00  0.14874573433E+04  0.14874573433E+04  0.25500000920E-02 0. -1.
       -2   -1    0    0    0  501  0.00000000000E+00  0.00000000000E+00 -0.66233712483E+03  0.66233712483E+03  0.25500000920E-02 0.  1.
    10030    2    1    2    0    0  0.00000000000E+00  0.00000000000E+00  0.82512021847E+03  0.21497944681E+04  0.19851430377E+04 0.  0.
        4    1    3    3  502    0 -0.92953734214E+03  0.17908764363E+03  0.73578614648E+03  0.11989557626E+04  0.12699999809E+01 0. -1.
       -4    1    3    3    0  502  0.92953734214E+03 -0.17908764363E+03  0.89334071993E+02  0.95083870549E+03  0.12699999809E+01 0.  1.
</event>
<event>
 5   0  0.1281789E-04  0.1980087E+04  0.7818609E-02  0.8615987E-01
        2   -1    0    0  501    0  0.00000000000E+00  0.00000000000E+00  0.12258469192E+04  0.12258469192E+04  0.25500000920E-02 0. -1.
       -2   -1    0    0    0  501  0.00000000000E+00  0.00000000000E+00 -0.79959943195E+03  0.79959943195E+03  0.25500000920E-02 0.  1.
    10030    2    1    2    0    0  0.00000000000E+00  0.00000000000E+00  0.42624748728E+03  0.20254463512E+04  0.19800873721E+04 0.  0.
        2    1    3    3  502    0  0.58220311191E+03 -0.77195290322E+03  0.43087275598E+03  0.10585476277E+04  0.25500000920E-02 0. -1.
       -2    1    3    3    0  502 -0.58220311191E+03  0.77195290322E+03 -0.46252686950E+01  0.96689872346E+03  0.25500000920E-02 0.  1.
</event>
<event>
 5   0  0.6168338E-05  0.2077655E+04  0.7818609E-02  0.8571151E-01
       -1   -1    0    0    0  501  0.00000000000E+00  0.00000000000E+00  0.61461385686E+03  0.61461385688E+03  0.50400001928E-02 0.  1.
        1   -1    0    0  501    0  0.00000000000E+00  0.00000000000E+00 -0.17558391038E+04  0.17558391038E+04  0.50400001928E-02 0. -1.
    10030    2    1    2    0    0  0.00000000000E+00  0.00000000000E+00 -0.11412252469E+04  0.23704529607E+04  0.20776554514E+04 0.  0.
        5    1    3    3  502    0  0.71190737733E+02 -0.54652971513E+03  0.43403689368E+03  0.70155040142E+03  0.46999998093E+01 0.  1.
       -5    1    3    3    0  502 -0.71190737733E+02  0.54652971513E+03 -0.15752621406E+04  0.16689025593E+04  0.46999998093E+01 0. -1.
</event>
<event>
 5   0  0.6222733E-05  0.1998934E+04  0.7818609E-02  0.8607119E-01
       -1   -1    0    0    0  501  0.00000000000E+00  0.00000000000E+00  0.48248122380E+03  0.48248122383E+03  0.50400001928E-02 0. -1.
        1   -1    0    0  501    0  0.00000000000E+00  0.00000000000E+00 -0.20704115438E+04  0.20704115438E+04  0.50400001928E-02 0.  1.
    10030    2    1    2    0    0  0.00000000000E+00  0.00000000000E+00 -0.15879303200E+04  0.25528927677E+04  0.19989344116E+04 0.  0.
        2    1    3    3  502    0 -0.43132986965E+03  0.12185747152E+03 -0.19348619477E+04  0.19860980481E+04  0.25500000920E-02 0.  1.
       -2    1    3    3    0  502  0.43132986965E+03 -0.12185747152E+03  0.34693162772E+03  0.56679471957E+03  0.25500000920E-02 0. -1.
</event>
<event>
 5   0  0.1244229E-04  0.2056110E+04  0.7818609E-02  0.8580828E-01
        2   -1    0    0  501    0  0.00000000000E+00  0.00000000000E+00  0.47388894734E+03  0.47388894734E+03  0.25500000920E-02 0. -1.
       -2   -1    0    0    0  501  0.00000000000E+00  0.00000000000E+00 -0.22302631457E+04  0.22302631457E+04  0.25500000920E-02 0.  1.
    10030    2    1    2    0    0  0.00000000000E+00  0.00000000000E+00 -0.17563741984E+04  0.27041520931E+04  0.20561099722E+04 0.  0.
        5    1    3    3  502    0  0.25372228856E+03 -0.10840764063E+03 -0.21806442214E+04  0.21980351514E+04  0.46999998093E+01 0.  1.
       -5    1    3    3    0  502 -0.25372228856E+03  0.10840764063E+03  0.42427002302E+03  0.50611694171E+03  0.46999998093E+01 0. -1.
</event>
<event>
 5   0  0.6222733E-05  0.1829093E+04  0.7818609E-02  0.8690980E-01
        1   -1    0    0  501    0  0.00000000000E+00  0.00000000000E+00  0.12205106612E+04  0.12205106612E+04  0.50400001928E-02 0. -1.
       -1   -1    0    0    0  501  0.00000000000E+00  0.00000000000E+00 -0.68528270291E+03  0.68528270293E+03  0.50400001928E-02 0.  1.
    10030    2    1    2    0    0  0.00000000000E+00  0.00000000000E+00  0.53522795825E+03  0.19057933641E+04  0.18290925016E+04 0.  0.
        2    1    3    3  502    0 -0.88383480525E+03 -0.23397715312E+03  0.24465419959E+03  0.94644859793E+03  0.25500000920E-02 0. -1.
       -2    1    3    3    0  502  0.88383480525E+03  0.23397715312E+03  0.29057375867E+03  0.95934476617E+03  0.25500000920E-02 0.  1.
</event>
<event>
 5   0  0.6214547E-05  0.1995597E+04  0.7818609E-02  0.8608682E-01
        1   -1    0    0  501    0  0.00000000000E+00  0.00000000000E+00  0.11063209654E+04  0.11063209655E+04  0.50400001928E-02 0. -1.
       -1   -1    0    0    0  501  0.00000000000E+00  0.00000000000E+00 -0.89992122654E+03  0.89992122655E+03  0.50400001928E-02 0.  1.
    10030    2    1    2    0    0  0.00000000000E+00  0.00000000000E+00  0.20639973891E+03  0.20062421920E+04  0.19955968733E+04 0.  0.
        3    1    3    3  502    0  0.79387521611E+03 -0.55908844045E+03 -0.12777331287E+03  0.97935885797E+03  0.10100000352E+00 0.  1.
       -3    1    3    3    0  502 -0.79387521611E+03  0.55908844045E+03  0.33417305178E+03  0.10268833340E+04  0.10100000352E+00 0. -1.
</event>
<event>
 5   0  0.6256535E-05  0.2022505E+04  0.7818609E-02  0.8596170E-01
        1   -1    0    0  501    0  0.00000000000E+00  0.00000000000E+00  0.21380414073E+04  0.21380414073E+04  0.50400001928E-02 0. -1.
       -1   -1    0    0    0  501  0.00000000000E+00  0.00000000000E+00 -0.47830316845E+03  0.47830316848E+03  0.50400001928E-02 0.  1.
    10030    2    1    2    0    0  0.00000000000E+00  0.00000000000E+00  0.16597382389E+04  0.26163445758E+04  0.20225053567E+04 0.  0.
        1    1    3    3  502    0 -0.37676191212E+03 -0.27279174157E+03 -0.33169912657E+03  0.57130480769E+03  0.50400001928E-02 0.  1.
       -1    1    3    3    0  502  0.37676191212E+03  0.27279174157E+03  0.19914373654E+04  0.20450397681E+04  0.50400001928E-02 0. -1.
</event>
<event>
 5   0  0.1274868E-04  0.2042782E+04  0.7818609E-02  0.8586876E-01
        2   -1    0    0  501    0  0.00000000000E+00  0.00000000000E+00  0.22549373165E+04  0.22549373165E+04  0.25500000920E-02 0.  1.
       -2   -1    0    0    0  501  0.00000000000E+00  0.00000000000E+00 -0.46264700324E+03  0.46264700324E+03  0.25500000920E-02 0. -1.
    10030    2    1    2    0    0  0.00000000000E+00  0.00000000000E+00  0.17922903132E+04  0.27175843197E+04  0.20427824083E+04 0.  0.
        1    1    3    3  502    0 -0.87455444422E+03 -0.35782631943E+03  0.38029967970E+03  0.10185838194E+04  0.50400001928E-02 0. -1.
       -1    1    3    3    0  502  0.87455444422E+03  0.35782631943E+03  0.14119906335E+04  0.16990005003E+04  0.50400001928E-02 0.  1.
</event>
<event>
 5   0  0.1159914E-04  0.1996689E+04  0.7818609E-02  0.8608170E-01
       -2   -1    0    0    0  501  0.00000000000E+00  0.00000000000E+00  0.12639257346E+04  0.12639257346E+04  0.25500000920E-02 0.  1.
        2   -1    0    0  501    0  0.00000000000E+00  0.00000000000E+00 -0.78856829904E+03  0.78856829904E+03  0.25500000920E-02 0. -1.
    10030    2    1    2    0    0  0.00000000000E+00  0.00000000000E+00  0.47535743555E+03  0.20524940336E+04  0.19966890260E+04 0.  0.
        3    1    3    3  502    0  0.18634942275E+03 -0.57041564573E+02 -0.76882534764E+03  0.79314076483E+03  0.10100000352E+00 0. -1.
       -3    1    3    3    0  502 -0.18634942275E+03  0.57041564573E+02  0.12441827832E+04  0.12593532688E+04  0.10100000352E+00 0.  1.
</event>
<event>
 5   0  0.1244229E-04  0.2007914E+04  0.7818609E-02  0.8602930E-01
        2   -1    0    0  501    0  0.00000000000E+00  0.00000000000E+00  0.18921042179E+04  0.18921042179E+04  0.25500000920E-02 0. -1.
       -2   -1    0    0    0  501  0.00000000000E+00  0.00000000000E+00 -0.53270291579E+03  0.53270291580E+03  0.25500000920E-02 0.  1.
    10030    2    1    2    0    0  0.00000000000E+00  0.00000000000E+00  0.13594013021E+04  0.24248071337E+04  0.20079137769E+04 0.  0.
        5    1    3    3  502    0 -0.53764497356E+03  0.63387813877E+03 -0.27244065334E+00  0.83119539016E+03  0.46999998093E+01 0.  1.
       -5    1    3    3    0  502  0.53764497356E+03 -0.63387813877E+03  0.13596737427E+04  0.15936117435E+04  0.46999998093E+01 0. -1.
</event>
<event>
 5   0  0.1242761E-04  0.1991982E+04  0.7818609E-02  0.8610379E-01
        2   -1    0    0  501    0  0.00000000000E+00  0.00000000000E+00  0.73718273794E+03  0.73718273795E+03  0.25500000920E-02 0. -1.
       -2   -1    0    0    0  501  0.00000000000E+00  0.00000000000E+00 -0.13456609376E+04  0.13456609376E+04  0.25500000920E-02 0.  1.
    10030    2    1    2    0    0  0.00000000000E+00  0.00000000000E+00 -0.60847819962E+03  0.20828436755E+04  0.19919819420E+04 0.  0.
        4    1    3    3  502    0 -0.67459124077E+03  0.47995939963E+03  0.27469677635E+03  0.87229255371E+03  0.12699999809E+01 0. -1.
       -4    1    3    3    0  502  0.67459124077E+03 -0.47995939963E+03 -0.88317497597E+03  0.12105511218E+04  0.12699999809E+01 0.  1.
</event>
<event>
 5   0  0.1274868E-04  0.1991186E+04  0.7818609E-02  0.8610753E-01
       -2   -1    0    0    0  501  0.00000000000E+00  0.00000000000E+00  0.11718359586E+04  0.11718359586E+04  0.25500000920E-02 0.  1.
        2   -1    0    0  501    0  0.00000000000E+00  0.00000000000E+00 -0.84585699109E+03  0.84585699109E+03  0.25500000920E-02 0. -1.
    10030    2    1    2    0    0  0.00000000000E+00  0.00000000000E+00  0.32597896748E+03  0.20176929497E+04  0.19911862173E+04 0.  0.
        1    1    3    3  502    0 -0.38172419349E+03  0.25746320082E+03 -0.73148726988E+03  0.86433459129E+03  0.50400001928E-02 0. -1.
       -1    1    3    3    0  502  0.38172419349E+03 -0.25746320082E+03  0.10574662374E+04  0.11533583584E+04  0.50400001928E-02 0.  1.
</event>
<event>
 5   0  0.6222733E-05  0.2001804E+04  0.7818609E-02  0.8605778E-01
        1   -1    0    0  501    0  0.00000000000E+00  0.00000000000E+00  0.86823713548E+03  0.86823713549E+03  0.50400001928E-02 0. -1.
       -1   -1    0    0    0  501  0.00000000000E+00  0.00000000000E+00 -0.11538376252E+04  0.11538376252E+04  0.50400001928E-02 0.  1.
    10030    2    1    2    0    0  0.00000000000E+00  0.00000000000E+00 -0.28560048969E+03  0.20220747607E+04  0.20018038610E+04 0.  0.
        2    1    3    3  502    0  0.34147704008E+03  0.89936843988E+03 -0.42188503016E+03  0.10504556812E+04  0.25500000920E-02 0. -1.
       -2    1    3    3    0  502 -0.34147704008E+03 -0.89936843988E+03  0.13628454047E+03  0.97161907944E+03  0.25500000920E-02 0.  1.
</event>
<event>
 5   0  0.6214547E-05  0.1898018E+04  0.7818609E-02  0.8655844E-01
       -1   -1    0    0    0  501  0.00000000000E+00  0.00000000000E+00  0.76274871344E+03  0.76274871346E+03  0.50400001928E-02 0.  1.
        1   -1    0    0  501    0  0.00000000000E+00  0.00000000000E+00 -0.11807532798E+04  0.11807532798E+04  0.50400001928E-02 0. -1.
    10030    2    1    2    0    0  0.00000000000E+00  0.00000000000E+00 -0.41800456635E+03  0.19435019933E+04  0.18980179610E+04 0.  0.
        3    1    3    3  502    0 -0.30313270252E+03 -0.50269421195E+03  0.55453924580E+03  0.80752999412E+03  0.10100000352E+00 0.  1.
       -3    1    3    3    0  502  0.30313270252E+03  0.50269421195E+03 -0.97254381215E+03  0.11359719991E+04  0.10100000352E+00 0. -1.
</event>
<event>
 5   0  0.1159914E-04  0.1946422E+04  0.7818609E-02  0.8632088E-01
        2   -1    0    0  501    0  0.00000000000E+00  0.00000000000E+00  0.12281858038E+04  0.12281858038E+04  0.25500000920E-02 0. -1.
       -2   -1    0    0    0  501  0.00000000000E+00  0.00000000000E+00 -0.77116984650E+03  0.77116984651E+03  0.25500000920E-02 0.  1.
    10030    2    1    2    0    0  0.00000000000E+00  0.00000000000E+00  0.45701595732E+03  0.19993556503E+04  0.19464222130E+04 0.  0.
        3    1    3    3  502    0 -0.37662772323E+03 -0.76177368880E+03  0.71574107863E+03  0.11110503574E+04  0.10100000352E+00 0. -1.
       -3    1    3    3    0  502  0.37662772323E+03  0.76177368880E+03 -0.25872512131E+03  0.88830529293E+03  0.10100000352E+00 0.  1.
</event>
<event>
 5   0  0.1159914E-04  0.2014399E+04  0.7818609E-02  0.8599918E-01
        2   -1    0    0  501    0  0.00000000000E+00  0.00000000000E+00  0.17353705130E+04  0.17353705130E+04  0.25500000920E-02 0. -1.
       -2   -1    0    0    0  501  0.00000000000E+00  0.00000000000E+00 -0.58457286302E+03  0.58457286302E+03  0.25500000920E-02 0.  1.
    10030    2    1    2    0    0  0.00000000000E+00  0.00000000000E+00  0.11507976500E+04  0.23199433760E+04  0.20143986787E+04 0.  0.
        3    1    3    3  502    0  0.10769082328E+03  0.15771304893E+03  0.17143284638E+04  0.17249326975E+04  0.10100000352E+00 0. -1.
       -3    1    3    3    0  502 -0.10769082328E+03 -0.15771304893E+03 -0.56353081378E+03  0.59501067847E+03  0.10100000352E+00 0.  1.
</event>
<event>
 5   0  0.6222733E-05  0.1980451E+04  0.7818609E-02  0.8615815E-01
        1   -1    0    0  501    0  0.00000000000E+00  0.00000000000E+00  0.12495367484E+04  0.12495367484E+04  0.50400001928E-02 0. -1.
       -1   -1    0    0    0  501  0.00000000000E+00  0.00000000000E+00 -0.78472791302E+03  0.78472791304E+03  0.50400001928E-02 0.  1.
    10030    2    1    2    0    0  0.00000000000E+00  0.00000000000E+00  0.46480883538E+03  0.20342646615E+04  0.19804508223E+04 0.  0.
        2    1    3    3  502    0  0.17259269258E+03 -0.16558800469E+02  0.12338233142E+04  0.12459463881E+04  0.25500000920E-02 0. -1.
       -2    1    3    3    0  502 -0.17259269258E+03  0.16558800469E+02 -0.76901447883E+03  0.78831827332E+03  0.25500000920E-02 0.  1.
</event>
<event>
 5   0  0.6256535E-05  0.2019240E+04  0.7818609E-02  0.8597678E-01
       -1   -1    0    0    0  501  0.00000000000E+00  0.00000000000E+00  0.81773495615E+03  0.81773495617E+03  0.50400001928E-02 0.  1.
        1   -1    0    0  501    0  0.00000000000E+00  0.00000000000E+00 -0.12465321889E+04  0.12465321889E+04  0.50400001928E-02 0. -1.
    10030    2    1    2    0    0  0.00000000000E+00  0.00000000000E+00 -0.42879723278E+03  0.20642671451E+04  0.20192403967E+04 0.  0.
        1    1    3    3  502    0  0.85465472816E+03  0.50392920218E+03 -0.40552640208E+03  0.10718353456E+04  0.50400001928E-02 0.  1.
       -1    1    3    3    0  502 -0.85465472816E+03 -0.50392920218E+03 -0.23270830704E+02  0.99243179955E+03  0.50400001928E-02 0. -1.
</event>
<event>
 5   0  0.1244229E-04  0.1856001E+04  0.7818609E-02  0.8677073E-01
        2   -1    0    0  501    0  0.00000000000E+00  0.00000000000E+00  0.16797571870E+04  0.16797571870E+04  0.25500000920E-02 0.  1.
       -2   -1    0    0    0  501  0.00000000000E+00  0.00000000000E+00 -0.51268398148E+03  0.51268398148E+03  0.25500000920E-02 0. -1.
    10030    2    1    2    0    0  0.00000000000E+00  0.00000000000E+00  0.11670732055E+04  0.21924411685E+04  0.18560006493E+04 0.  0.
        5    1    3    3  502    0 -0.83731737841E+03  0.38300454779E+03  0.72012368522E+03  0.11689281791E+04  0.46999998093E+01 0.  1.
       -5    1    3    3    0  502  0.83731737841E+03 -0.38300454779E+03  0.44694952033E+03  0.10235129894E+04  0.46999998093E+01 0. -1.
</event>
<event>
 5   0  0.6028501E-05  0.2144124E+04  0.7818609E-02  0.8542052E-01
        1   -1    0    0  501    0  0.00000000000E+00  0.00000000000E+00  0.67410673710E+03  0.67410673712E+03  0.50400001928E-02 0. -1.
       -1   -1    0    0    0  501  0.00000000000E+00  0.00000000000E+00 -0.17049474125E+04  0.17049474125E+04  0.50400001928E-02 0.  1.
    10030    2    1    2    0    0  0.00000000000E+00  0.00000000000E+00 -0.10308406754E+04  0.23790541497E+04  0.21441236319E+04 0.  0.
        4    1    3    3  502    0  0.94177102972E+03 -0.40324558225E+03 -0.16493817430E+03  0.10376636672E+04  0.12699999809E+01 0. -1.
       -4    1    3    3    0  502 -0.94177102972E+03  0.40324558225E+03 -0.86590250113E+03  0.13413904824E+04  0.12699999809E+01 0.  1.
</event>
<event>
 5   0  0.6256535E-05  0.1956984E+04  0.7818609E-02  0.8627000E-01
        1   -1    0    0  501    0  0.00000000000E+00  0.00000000000E+00  0.17036178887E+04  0.17036178887E+04  0.50400001928E-02 0. -1.
       -1   -1    0    0    0  501  0.00000000000E+00  0.00000000000E+00 -0.56200790124E+03  0.56200790127E+03  0.50400001928E-02 0.  1.
    10030    2    1    2    0    0  0.00000000000E+00  0.00000000000E+00  0.11416099875E+04  0.22656257900E+04  0.19569841228E+04 0.  0.
        1    1    3    3  502    0 -0.37342411306E+03 -0.75667072187E+03 -0.27603406637E+01  0.84380315777E+03  0.50400001928E-02 0.  1.
       -1    1    3    3    0  502  0.37342411306E+03  0.75667072187E+03  0.11443703281E+04  0.14218226322E+04  0.50400001928E-02 0. -1.
</event>
<event>
 5   0  0.1242761E-04  0.1991768E+04  0.7818609E-02  0.8610479E-01
       -2   -1    0    0    0  501  0.00000000000E+00  0.00000000000E+00  0.11166201698E+04  0.11166201698E+04  0.25500000920E-02 0.  1.
        2   -1    0    0  501    0  0.00000000000E+00  0.00000000000E+00 -0.88820250106E+03  0.88820250106E+03  0.25500000920E-02 0. -1.
    10030    2    1    2    0    0  0.00000000000E+00  0.00000000000E+00  0.22841766873E+03  0.20048226709E+04  0.19917678856E+04 0.  0.
        4    1    3    3  502    0  0.76301538406E+03 -0.55024614809E+03 -0.21476651194E+03  0.96492982509E+03  0.12699999809E+01 0. -1.
       -4    1    3    3    0  502 -0.76301538406E+03  0.55024614809E+03  0.44318418066E+03  0.10398928458E+04  0.12699999809E+01 0.  1.
</event>
<event>
 5   0  0.6214547E-05  0.1986836E+04  0.7818609E-02  0.8612800E-01
        1   -1    0    0  501    0  0.00000000000E+00  0.00000000000E+00  0.17655835604E+04  0.17655835605E+04  0.50400001928E-02 0.  1.
       -1   -1    0    0    0  501  0.00000000000E+00  0.00000000000E+00 -0.55895354541E+03  0.55895354543E+03  0.50400001928E-02 0. -1.
    10030    2    1    2    0    0  0.00000000000E+00  0.00000000000E+00  0.12066300150E+04  0.23245371059E+04  0.19868358673E+04 0.  0.
        3    1    3    3  502    0  0.52635969952E+03  0.77998685277E+03  0.23067442450E+03  0.96883678919E+03  0.10100000352E+00 0. -1.
       -3    1    3    3    0  502 -0.52635969952E+03 -0.77998685277E+03  0.97595559054E+03  0.13557003167E+04  0.10100000352E+00 0.  1.
</event>
<event>
 5   0  0.6256535E-05  0.1962376E+04  0.7818609E-02  0.8624416E-01
       -1   -1    0    0    0  501  0.00000000000E+00  0.00000000000E+00  0.17865182888E+04  0.17865182888E+04  0.50400001928E-02 0. -1.
        1   -1    0    0  501    0  0.00000000000E+00  0.00000000000E+00 -0.53888601374E+03  0.53888601377E+03  0.50400001928E-02 0.  1.
    10030    2    1    2    0    0  0.00000000000E+00  0.00000000000E+00  0.12476322750E+04  0.23254043025E+04  0.19623758245E+04 0.  0.
        1    1    3    3  502    0  0.70748410970E+03 -0.11955187943E+03 -0.16924819582E+03  0.73720510658E+03  0.50400001928E-02 0.  1.
       -1    1    3    3    0  502 -0.70748410970E+03  0.11955187943E+03  0.14168804708E+04  0.15881991960E+04  0.50400001928E-02 0. -1.
</event>
<event>
 5   0  0.6256535E-05  0.1985278E+04  0.7818609E-02  0.8613535E-01
        1   -1    0    0  501    0  0.00000000000E+00  0.00000000000E+00  0.13150183324E+04  0.13150183324E+04  0.50400001928E-02 0.  1.
       -1   -1    0    0    0  501  0.00000000000E+00  0.00000000000E+00 -0.74929143663E+03  0.74929143665E+03  0.50400001928E-02 0. -1.
    10030    2    1    2    0    0  0.00000000000E+00  0.00000000000E+00  0.56572689573E+03  0.20643097690E+04  0.19852777896E+04 0.  0.
        1    1    3    3  502    0  0.55747625391E+03 -0.65477000492E+03  0.79841209151E+03  0.11734416905E+04  0.50400001928E-02 0.  1.
       -1    1    3    3    0  502 -0.55747625391E+03  0.65477000492E+03 -0.23268519578E+03  0.89086807855E+03  0.50400001928E-02 0. -1.
</event>
<event>
 5   0  0.6168338E-05  0.2049286E+04  0.7818609E-02  0.8583918E-01
       -1   -1    0    0    0  501  0.00000000000E+00  0.00000000000E+00  0.71560815734E+03  0.71560815736E+03  0.50400001928E-02 0. -1.
        1   -1    0    0  501    0  0.00000000000E+00  0.00000000000E+00 -0.14671337974E+04  0.14671337974E+04  0.50400001928E-02 0.  1.
    10030    2    1    2    0    0  0.00000000000E+00  0.00000000000E+00 -0.75152564008E+03  0.21827419548E+04  0.20492856447E+04 0.  0.
        5    1    3    3  502    0  0.98581426252E+03 -0.27848554097E+03 -0.39926482493E+03  0.10994627993E+04  0.46999998093E+01 0. -1.
       -5    1    3    3    0  502 -0.98581426252E+03  0.27848554097E+03 -0.35226081515E+03  0.10832791554E+04  0.46999998093E+01 0.  1.
</event>
<event>
 5   0  0.6168338E-05  0.1971680E+04  0.7818609E-02  0.8619977E-01
        1   -1    0    0  501    0  0.00000000000E+00  0.00000000000E+00  0.11567005337E+04  0.11567005337E+04  0.50400001928E-02 0. -1.
       -1   -1    0    0    0  501  0.00000000000E+00  0.00000000000E+00 -0.84021825790E+03  0.84021825792E+03  0.50400001928E-02 0.  1.
    10030    2    1    2    0    0  0.00000000000E+00  0.00000000000E+00  0.31648227582E+03  0.19969187916E+04  0.19716804076E+04 0.  0.
        5    1    3    3  502    0 -0.62602600179E+03 -0.34009044469E+03  0.84835057149E+03  0.11078315971E+04  0.46999998093E+01 0. -1.
       -5    1    3    3    0  502  0.62602600179E+03  0.34009044469E+03 -0.53186829567E+03  0.88908719450E+03  0.46999998093E+01 0.  1.
</event>
<event>
 5   0  0.6222733E-05  0.1977672E+04  0.7818609E-02  0.8617132E-01
       -1   -1    0    0    0  501  0.00000000000E+00  0.00000000000E+00  0.52075278216E+03  0.52075278219E+03  0.50400001928E-02 0. -1.
        1   -1    0    0  501    0  0.00000000000E+00  0.00000000000E+00 -0.18776595815E+04  0.18776595815E+04  0.50400001928E-02 0.  1.
    10030    2    1    2    0    0  0.00000000000E+00  0.00000000000E+00 -0.13569067993E+04  0.23984123637E+04  0.19776718141E+04 0.  0.
        2    1    3    3  502    0 -0.45669137963E+03 -0.82489036358E+03 -0.10398135178E+04  0.14036464227E+04  0.25500000920E-02 0. -1.
       -2    1    3    3    0  502  0.45669137963E+03  0.82489036358E+03 -0.31709328155E+03  0.99476594100E+03  0.25500000920E-02 0.  1.
</event>
<event>
 5   0  0.6222733E-05  0.1876757E+04  0.7818609E-02  0.8666513E-01
       -1   -1    0    0    0  501  0.00000000000E+00  0.00000000000E+00  0.94589163590E+03  0.94589163591E+03  0.50400001928E-02 0.  1.
        1   -1    0    0  501    0  0.00000000000E+00  0.00000000000E+00 -0.93092517658E+03  0.93092517659E+03  0.50400001928E-02 0. -1.
    10030    2    1    2    0    0  0.00000000000E+00  0.00000000000E+00  0.14966459321E+02  0.18768168125E+04  0.18767571374E+04 0.  0.
        2    1    3    3  502    0 -0.13795377060E+03  0.41723128160E+01 -0.92071959004E+03  0.93100655986E+03  0.25500000920E-02 0. -1.
       -2    1    3    3    0  502  0.13795377060E+03 -0.41723128160E+01  0.93568604936E+03  0.94581025264E+03  0.25500000920E-02 0.  1.
</event>
<event>
 5   0  0.6222733E-05  0.1992162E+04  0.7818609E-02  0.8610294E-01
        1   -1    0    0  501    0  0.00000000000E+00  0.00000000000E+00  0.93229525102E+03  0.93229525104E+03  0.50400001928E-02 0. -1.
       -1   -1    0    0    0  501  0.00000000000E+00  0.00000000000E+00 -0.10642312660E+04  0.10642312660E+04  0.50400001928E-02 0.  1.
    10030    2    1    2    0    0  0.00000000000E+00  0.00000000000E+00 -0.13193601499E+03  0.19965265171E+04  0.19921623983E+04 0.  0.
        2    1    3    3  502    0  0.27712854095E+03 -0.53804091670E+03  0.72689686428E+03  0.94586854666E+03  0.25500000920E-02 0. -1.
       -2    1    3    3    0  502 -0.27712854095E+03  0.53804091670E+03 -0.85883287927E+03  0.10506579704E+04  0.25500000920E-02 0.  1.
</event>
<event>
 5   0  0.1244229E-04  0.1762653E+04  0.7818609E-02  0.8726416E-01
       -2   -1    0    0    0  501  0.00000000000E+00  0.00000000000E+00  0.82705875804E+03  0.82705875805E+03  0.25500000920E-02 0.  1.
        2   -1    0    0  501    0  0.00000000000E+00  0.00000000000E+00 -0.93915469710E+03  0.93915469711E+03  0.25500000920E-02 0. -1.
    10030    2    1    2    0    0  0.00000000000E+00  0.00000000000E+00 -0.11209593906E+03  0.17662134552E+04  0.17626526798E+04 0.  0.
        5    1    3    3  502    0 -0.76591446853E+03  0.41787797991E+03 -0.18066579331E+03  0.89101582369E+03  0.46999998093E+01 0. -1.
       -5    1    3    3    0  502  0.76591446853E+03 -0.41787797991E+03  0.68569854249E+02  0.87519763146E+03  0.46999998093E+01 0.  1.
</event>
<event>
 5   0  0.6256535E-05  0.2032747E+04  0.7818609E-02  0.8591462E-01
        1   -1    0    0  501    0  0.00000000000E+00  0.00000000000E+00  0.15781973647E+04  0.15781973647E+04  0.50400001928E-02 0. -1.
       -1   -1    0    0    0  501  0.00000000000E+00  0.00000000000E+00 -0.65455360070E+03  0.65455360072E+03  0.50400001928E-02 0.  1.
    10030    2    1    2    0    0  0.00000000000E+00  0.00000000000E+00  0.92364376399E+03  0.22327509654E+04  0.20327466814E+04 0.  0.
        1    1    3    3  502    0  0.55897546537E+03  0.79475695753E+03  0.78936089868E+03  0.12518717270E+04  0.50400001928E-02 0.  1.
       -1    1    3    3    0  502 -0.55897546537E+03 -0.79475695753E+03  0.13428286531E+03  0.98087923843E+03  0.50400001928E-02 0. -1.
</event>
<event>
 5   0  0.4479000E-05  0.2009211E+04  0.7818609E-02  0.8602326E-01
       -3   -1    0    0    0  501  0.00000000000E+00  0.00000000000E+00  0.65490683647E+03  0.65490684426E+03  0.10100000352E+00 0. -1.
        3   -1    0    0  501    0  0.00000000000E+00  0.00000000000E+00 -0.15410315923E+04  0.15410315956E+04  0.10100000352E+00 0.  1.
    10030    2    1    2    0    0  0.00000000000E+00  0.00000000000E+00 -0.88612475582E+03  0.21959384399E+04  0.20092109269E+04 0.  0.
        5    1    3    3  502    0 -0.97244890547E+03 -0.25168626599E+03 -0.45879446413E+03  0.11043175723E+04  0.46999998093E+01 0. -1.
       -5    1    3    3    0  502  0.97244890547E+03  0.25168626599E+03 -0.42733029169E+03  0.10916208675E+04  0.46999998093E+01 0.  1.
</event>
<event>
 5   0  0.1159914E-04  0.1991241E+04  0.7818609E-02  0.8610727E-01
       -2   -1    0    0    0  501  0.00000000000E+00  0.00000000000E+00  0.13275324218E+04  0.13275324218E+04  0.25500000920E-02 0.  1.
        2   -1    0    0  501    0  0.00000000000E+00  0.00000000000E+00 -0.74669340203E+03  0.74669340203E+03  0.25500000920E-02 0. -1.
    10030    2    1    2    0    0  0.00000000000E+00  0.00000000000E+00  0.58083901980E+03  0.20742258239E+04  0.19912405182E+04 0.  0.
        3    1    3    3  502    0  0.25759860429E+03  0.92936129050E+03  0.54809517026E+03  0.11092690274E+04  0.10100000352E+00 0.  1.
       -3    1    3    3    0  502 -0.25759860429E+03 -0.92936129050E+03  0.32743849535E+02  0.96495679649E+03  0.10100000352E+00 0. -1.
</event>
<event>
 5   0  0.6028501E-05  0.2000264E+04  0.7818609E-02  0.8606497E-01
       -1   -1    0    0    0  501  0.00000000000E+00  0.00000000000E+00  0.17170857995E+04  0.17170857995E+04  0.50400001928E-02 0. -1.
        1   -1    0    0  501    0  0.00000000000E+00  0.00000000000E+00 -0.58253612181E+03  0.58253612183E+03  0.50400001928E-02 0.  1.
    10030    2    1    2    0    0  0.00000000000E+00  0.00000000000E+00  0.11345496777E+04  0.22996219213E+04  0.20002644850E+04 0.  0.
        4    1    3    3  502    0 -0.31482665125E+02  0.16276277738E+03  0.17011789622E+04  0.17092379455E+04  0.12699999809E+01 0. -1.
       -4    1    3    3    0  502  0.31482665125E+02 -0.16276277738E+03 -0.56662928455E+03  0.59038397583E+03  0.12699999809E+01 0.  1.
</event>
<event>
 5   0  0.1242761E-04  0.2010607E+04  0.7818609E-02  0.8601678E-01
       -2   -1    0    0    0  501  0.00000000000E+00  0.00000000000E+00  0.42067395213E+03  0.42067395214E+03  0.25500000920E-02 0.  1.
        2   -1    0    0  501    0  0.00000000000E+00  0.00000000000E+00 -0.24024190023E+04  0.24024190023E+04  0.25500000920E-02 0. -1.
    10030    2    1    2    0    0  0.00000000000E+00  0.00000000000E+00 -0.19817450502E+04  0.28230929545E+04  0.20106069694E+04 0.  0.
        4    1    3    3  502    0 -0.36314468399E+03  0.55358514889E+03  0.71338903244E+02  0.66589896426E+03  0.12699999809E+01 0.  1.
       -4    1    3    3    0  502  0.36314468399E+03 -0.55358514889E+03 -0.20530839534E+04  0.21571939902E+04  0.12699999809E+01 0. -1.
</event>
<event>
 5   0  0.1274868E-04  0.2019901E+04  0.7818609E-02  0.8597373E-01
       -2   -1    0    0    0  501  0.00000000000E+00  0.00000000000E+00  0.54530100984E+03  0.54530100985E+03  0.25500000920E-02 0.  1.
        2   -1    0    0  501    0  0.00000000000E+00  0.00000000000E+00 -0.18705257318E+04  0.18705257318E+04  0.25500000920E-02 0. -1.
    10030    2    1    2    0    0  0.00000000000E+00  0.00000000000E+00 -0.13252247219E+04  0.24158267416E+04  0.20199005624E+04 0.  0.
        1    1    3    3  502    0  0.25991778445E+03  0.97533390913E+03 -0.70345372555E+03  0.12303172896E+04  0.50400001928E-02 0.  1.
       -1    1    3    3    0  502 -0.25991778445E+03 -0.97533390913E+03 -0.62177099640E+03  0.11855094521E+04  0.50400001928E-02 0. -1.
</event>
<event>
 5   0  0.6214547E-05  0.2062704E+04  0.7818609E-02  0.8577853E-01
        1   -1    0    0  501    0  0.00000000000E+00  0.00000000000E+00  0.11345396182E+04  0.11345396183E+04  0.50400001928E-02 0. -1.
       -1   -1    0    0    0  501  0.00000000000E+00  0.00000000000E+00 -0.93754951744E+03  0.93754951745E+03  0.50400001928E-02 0.  1.
    10030    2    1    2    0    0  0.00000000000E+00  0.00000000000E+00  0.19699010081E+03  0.20720891357E+04  0.20627041200E+04 0.  0.
        3    1    3    3  502    0  0.77792069193E+02  0.15071946899E+03 -0.92344330192E+03  0.93889057212E+03  0.10100000352E+00 0.  1.
       -3    1    3    3    0  502 -0.77792069193E+02 -0.15071946899E+03  0.11204334027E+04  0.11331985636E+04  0.10100000352E+00 0. -1.
</event>
<event>
 5   0  0.1159914E-04  0.2013398E+04  0.7818609E-02  0.8600382E-01
       -2   -1    0    0    0  501  0.00000000000E+00  0.00000000000E+00  0.71600404322E+03  0.71600404323E+03  0.25500000920E-02 0. -1.
        2   -1    0    0  501    0  0.00000000000E+00  0.00000000000E+00 -0.14154156893E+04  0.14154156893E+04  0.25500000920E-02 0.  1.
    10030    2    1    2    0    0  0.00000000000E+00  0.00000000000E+00 -0.69941164610E+03  0.21314197326E+04  0.20133984766E+04 0.  0.
        3    1    3    3  502    0 -0.61677243663E+03 -0.67967704224E+03 -0.78756205786E+03  0.12093895673E+04  0.10100000352E+00 0.  1.
       -3    1    3    3    0  502  0.61677243663E+03  0.67967704224E+03  0.88150411760E+02  0.92203016525E+03  0.10100000352E+00 0. -1.
</event>
<event>
 5   0  0.6028501E-05  0.2003463E+04  0.7818609E-02  0.8605003E-01
       -1   -1    0    0    0  501  0.00000000000E+00  0.00000000000E+00  0.61871706178E+03  0.61871706180E+03  0.50400001928E-02 0. -1.
        1   -1    0    0  501    0  0.00000000000E+00  0.00000000000E+00 -0.16218494397E+04  0.16218494397E+04  0.50400001928E-02 0.  1.
    10030    2    1    2    0    0  0.00000000000E+00  0.00000000000E+00 -0.10031323779E+04  0.22405665015E+04  0.20034629221E+04 0.  0.
        4    1    3    3  502    0 -0.75019533662E+03  0.65330764145E+03 -0.63322934132E+03  0.11792306513E+04  0.12699999809E+01 0. -1.
       -4    1    3    3    0  502  0.75019533662E+03 -0.65330764145E+03 -0.36990303661E+03  0.10613358502E+04  0.12699999809E+01 0.  1.
</event>
<event>
 5   0  0.1281789E-04  0.1926475E+04  0.7818609E-02  0.8641789E-01
        2   -1    0    0  501    0  0.00000000000E+00  0.00000000000E+00  0.18220389311E+04  0.18220389311E+04  0.25500000920E-02 0. -1.
       -2   -1    0    0    0  501  0.00000000000E+00  0.00000000000E+00 -0.50922414832E+03  0.50922414833E+03  0.25500000920E-02 0.  1.
    10030    2    1    2    0    0  0.00000000000E+00  0.00000000000E+00  0.13128147828E+04  0.23312630795E+04  0.19264747317E+04 0.  0.
        2    1    3    3  502    0 -0.58171845075E+02  0.86799459030E+03  0.15595688432E+03  0.88381056914E+03  0.25500000920E-02 0.  1.
       -2    1    3    3    0  502  0.58171845075E+02 -0.86799459030E+03  0.11568578985E+04  0.14474525103E+04  0.25500000920E-02 0. -1.
</event>
<event>
 5   0  0.6028501E-05  0.1982608E+04  0.7818609E-02  0.8614796E-01
        1   -1    0    0  501    0  0.00000000000E+00  0.00000000000E+00  0.21078102233E+04  0.21078102233E+04  0.50400001928E-02 0.  1.
       -1   -1    0    0    0  501  0.00000000000E+00  0.00000000000E+00 -0.46621045745E+03  0.46621045748E+03  0.50400001928E-02 0. -1.
    10030    2    1    2    0    0  0.00000000000E+00  0.00000000000E+00  0.16415997658E+04  0.25740206807E+04  0.19826075441E+04 0.  0.
        4    1    3    3  502    0 -0.53368826183E+03  0.83418083765E+03  0.76272759204E+03  0.12499743290E+04  0.12699999809E+01 0. -1.
       -4    1    3    3    0  502  0.53368826183E+03 -0.83418083765E+03  0.87887217377E+03  0.13240463517E+04  0.12699999809E+01 0.  1.
</event>
<event>
 5   0  0.6028501E-05  0.2003256E+04  0.7818609E-02  0.8605100E-01
        1   -1    0    0  501    0  0.00000000000E+00  0.00000000000E+00  0.96910860421E+03  0.96910860422E+03  0.50400001928E-02 0. -1.
       -1   -1    0    0    0  501  0.00000000000E+00  0.00000000000E+00 -0.10352387475E+04  0.10352387475E+04  0.50400001928E-02 0.  1.
    10030    2    1    2    0    0  0.00000000000E+00  0.00000000000E+00 -0.66130143301E+02  0.20043473517E+04  0.20032561271E+04 0.  0.
        4    1    3    3  502    0 -0.81063859083E+03  0.44564638624E+03  0.35122947619E+03  0.98949450951E+03  0.12699999809E+01 0. -1.
       -4    1    3    3    0  502  0.81063859083E+03 -0.44564638624E+03 -0.41735961949E+03  0.10148528422E+04  0.12699999809E+01 0.  1.
</event>
<event>
 5   0  0.6222733E-05  0.2013032E+04  0.7818609E-02  0.8600552E-01
       -1   -1    0    0    0  501  0.00000000000E+00  0.00000000000E+00  0.52091498231E+03  0.52091498234E+03  0.50400001928E-02 0. -1.
        1   -1    0    0  501    0  0.00000000000E+00  0.00000000000E+00 -0.19447978491E+04  0.19447978491E+04  0.50400001928E-02 0.  1.
    10030    2    1    2    0    0  0.00000000000E+00  0.00000000000E+00 -0.14238828668E+04  0.24657128314E+04  0.20130318797E+04 0.  0.
        2    1    3    3  502    0  0.27583842258E+03  0.38791117860E+03 -0.17982285650E+04  0.18601580282E+04  0.25500000920E-02 0.  1.
       -2    1    3    3    0  502 -0.27583842258E+03 -0.38791117860E+03  0.37434569827E+03  0.60555480320E+03  0.25500000920E-02 0. -1.
</event>
<event>
 5   0  0.1281789E-04  0.1979148E+04  0.7818609E-02  0.8616432E-01
       -2   -1    0    0    0  501  0.00000000000E+00  0.00000000000E+00  0.11053521735E+04  0.11053521735E+04  0.25500000920E-02 0. -1.
        2   -1    0    0  501    0  0.00000000000E+00  0.00000000000E+00 -0.88592269713E+03  0.88592269713E+03  0.25500000920E-02 0.  1.
    10030    2    1    2    0    0  0.00000000000E+00  0.00000000000E+00  0.21942947638E+03  0.19912748706E+04  0.19791478761E+04 0.  0.
        2    1    3    3  502    0 -0.74567915526E+02  0.12718285294E+03  0.10942404447E+04  0.11041277113E+04  0.25500000920E-02 0. -1.
       -2    1    3    3    0  502  0.74567915526E+02 -0.12718285294E+03 -0.87481096828E+03  0.88714715935E+03  0.25500000920E-02 0.  1.
</event>
<event>
 5   0  0.1274868E-04  0.1966777E+04  0.7818609E-02  0.8622313E-01
        2   -1    0    0  501    0  0.00000000000E+00  0.00000000000E+00  0.18841069119E+04  0.18841069119E+04  0.25500000920E-02 0. -1.
       -2   -1    0    0    0  501  0.00000000000E+00  0.00000000000E+00 -0.51326849693E+03  0.51326849693E+03  0.25500000920E-02 0.  1.
    10030    2    1    2    0    0  0.00000000000E+00  0.00000000000E+00  0.13708384150E+04  0.23973754088E+04  0.19667767771E+04 0.  0.
        1    1    3    3  502    0 -0.65100902948E+03 -0.64121615352E+03  0.24242047708E+03  0.94537749060E+03  0.50400001928E-02 0. -1.
       -1    1    3    3    0  502  0.65100902948E+03  0.64121615352E+03  0.11284179379E+04  0.14519979182E+04  0.50400001928E-02 0.  1.
</event>
<event>
 5   0  0.1244229E-04  0.1994034E+04  0.7818609E-02  0.8609415E-01
       -2   -1    0    0    0  501  0.00000000000E+00  0.00000000000E+00  0.98883675612E+03  0.98883675612E+03  0.25500000920E-02 0.  1.
        2   -1    0    0  501    0  0.00000000000E+00  0.00000000000E+00 -0.10052644228E+04  0.10052644228E+04  0.25500000920E-02 0. -1.
    10030    2    1    2    0    0  0.00000000000E+00  0.00000000000E+00 -0.16427666659E+02  0.19941011789E+04  0.19940335111E+04 0.  0.
        5    1    3    3  502    0  0.87539859404E+03 -0.34731491602E+03 -0.33544041923E+03  0.99974632492E+03  0.46999998093E+01 0. -1.
       -5    1    3    3    0  502 -0.87539859404E+03  0.34731491602E+03  0.31901275257E+03  0.99435485398E+03  0.46999998093E+01 0.  1.
</event>
<event>
 5   0  0.1274868E-04  0.2004408E+04  0.7818609E-02  0.8604563E-01
        2   -1    0    0  501    0  0.00000000000E+00  0.00000000000E+00  0.23490199517E+04  0.23490199517E+04  0.25500000920E-02 0. -1.
       -2   -1    0    0    0  501  0.00000000000E+00  0.00000000000E+00 -0.42758807518E+03  0.42758807519E+03  0.25500000920E-02 0.  1.
    10030    2    1    2    0    0  0.00000000000E+00  0.00000000000E+00  0.19214318765E+04  0.27766080269E+04  0.20044080620E+04 0.  0.
        1    1    3    3  502    0 -0.98377166283E+03 -0.77290629529E+02  0.12031641033E+04  0.15560798133E+04  0.50400001928E-02 0. -1.
       -1    1    3    3    0  502  0.98377166283E+03  0.77290629529E+02  0.71826777324E+03  0.12205282136E+04  0.50400001928E-02 0.  1.
</event>
<event>
 5   0  0.6256535E-05  0.1993935E+04  0.7818609E-02  0.8609462E-01
       -1   -1    0    0    0  501  0.00000000000E+00  0.00000000000E+00  0.43868491507E+03  0.43868491510E+03  0.50400001928E-02 0. -1.
        1   -1    0    0  501    0  0.00000000000E+00  0.00000000000E+00 -0.22657354319E+04  0.22657354319E+04  0.50400001928E-02 0.  1.
    10030    2    1    2    0    0  0.00000000000E+00  0.00000000000E+00 -0.18270505169E+04  0.27044203470E+04  0.19939347588E+04 0.  0.
        1    1    3    3  502    0 -0.41757116262E+03  0.90392394600E+03 -0.98133843784E+03  0.13980233566E+04  0.50400001928E-02 0. -1.
       -1    1    3    3    0  502  0.41757116262E+03 -0.90392394600E+03 -0.84571207903E+03  0.13063969904E+04  0.50400001928E-02 0.  1.
</event>
<event>
 5   0  0.1244229E-04  0.2066417E+04  0.7818609E-02  0.8576183E-01
       -2   -1    0    0    0  501  0.00000000000E+00  0.00000000000E+00  0.79904656409E+03  0.79904656410E+03  0.25500000920E-02 0.  1.
        2   -1    0    0  501    0  0.00000000000E+00  0.00000000000E+00 -0.13359919321E+04  0.13359919321E+04  0.25500000920E-02 0. -1.
    10030    2    1    2    0    0  0.00000000000E+00  0.00000000000E+00 -0.53694536803E+03  0.21350384962E+04  0.20664169599E+04 0.  0.
        5    1    3    3  502    0 -0.98972217044E+03 -0.20890190077E+03 -0.48595669174E+03  0.11222147633E+04  0.46999998093E+01 0. -1.
       -5    1    3    3    0  502  0.98972217044E+03  0.20890190077E+03 -0.50988676289E+02  0.10128237329E+04  0.46999998093E+01 0.  1.
</event>
<event>
 5   0  0.1242761E-04  0.1925149E+04  0.7818609E-02  0.8642438E-01
        2   -1    0    0  501    0  0.00000000000E+00  0.00000000000E+00  0.79014634132E+03  0.79014634132E+03  0.25500000920E-02 0. -1.
       -2   -1    0    0    0  501  0.00000000000E+00  0.00000000000E+00 -0.11726302903E+04  0.11726302903E+04  0.25500000920E-02 0.  1.
    10030    2    1    2    0    0  0.00000000000E+00  0.00000000000E+00 -0.38248394901E+03  0.19627766317E+04  0.19251488604E+04 0.  0.
        4    1    3    3  502    0 -0.37787873931E+02  0.95057263593E+03 -0.41637242537E+02  0.95223501955E+03  0.12699999809E+01 0.  1.
       -4    1    3    3    0  502  0.37787873931E+02 -0.95057263593E+03 -0.34084670647E+03  0.10105416121E+04  0.12699999809E+01 0. -1.
</event>
<event>
 5   0  0.1242761E-04  0.2051725E+04  0.7818609E-02  0.8582812E-01
        2   -1    0    0  501    0  0.00000000000E+00  0.00000000000E+00  0.69746487455E+03  0.69746487455E+03  0.25500000920E-02 0. -1.
       -2   -1    0    0    0  501  0.00000000000E+00  0.00000000000E+00 -0.15088838809E+04  0.15088838809E+04  0.25500000920E-02 0.  1.
    10030    2    1    2    0    0  0.00000000000E+00  0.00000000000E+00 -0.81141900637E+03  0.22063487555E+04  0.20517246469E+04 0.  0.
        4    1    3    3  502    0  0.26873192549E+03  0.87606265353E+03 -0.90164806697E+03  0.12855634836E+04  0.12699999809E+01 0. -1.
       -4    1    3    3    0  502 -0.26873192549E+03 -0.87606265353E+03  0.90229060598E+02  0.92078527191E+03  0.12699999809E+01 0.  1.
</event>
<event>
 5   0  0.6222733E-05  0.1939823E+04  0.7818609E-02  0.8635284E-01
        1   -1    0    0  501    0  0.00000000000E+00  0.00000000000E+00  0.12830774262E+04  0.12830774262E+04  0.50400001928E-02 0. -1.
       -1   -1    0    0    0  501  0.00000000000E+00  0.00000000000E+00 -0.73318101411E+03  0.73318101413E+03  0.50400001928E-02 0.  1.
    10030    2    1    2    0    0  0.00000000000E+00  0.00000000000E+00  0.54989641205E+03  0.20162584403E+04  0.19398226811E+04 0.  0.
        2    1    3    3  502    0 -0.88469274943E+03 -0.24858041185E+03 -0.47525824943E+02  0.92018051821E+03  0.25500000920E-02 0. -1.
       -2    1    3    3    0  502  0.88469274943E+03  0.24858041185E+03  0.59742223700E+03  0.10960779221E+04  0.25500000920E-02 0.  1.
</event>
<event>
 5   0  0.6214547E-05  0.1987946E+04  0.7818609E-02  0.8612277E-01
        1   -1    0    0  501    0  0.00000000000E+00  0.00000000000E+00  0.13308770104E+04  0.13308770104E+04  0.50400001928E-02 0. -1.
       -1   -1    0    0    0  501  0.00000000000E+00  0.00000000000E+00 -0.74235445200E+03  0.74235445202E+03  0.50400001928E-02 0.  1.
    10030    2    1    2    0    0  0.00000000000E+00  0.00000000000E+00  0.58852255835E+03  0.20732314624E+04  0.19879461499E+04 0.  0.
        3    1    3    3  502    0  0.64654897635E+03  0.15965371816E+03 -0.47527515302E+03  0.81816952389E+03  0.10100000352E+00 0.  1.
       -3    1    3    3    0  502 -0.64654897635E+03 -0.15965371816E+03  0.10637977114E+04  0.12550619385E+04  0.10100000352E+00 0. -1.
</event>
<event>
 5   0  0.6168338E-05  0.1986708E+04  0.7818609E-02  0.8612861E-01
        1   -1    0    0  501    0  0.00000000000E+00  0.00000000000E+00  0.78344781120E+03  0.78344781121E+03  0.50400001928E-02 0. -1.
       -1   -1    0    0    0  501  0.00000000000E+00  0.00000000000E+00 -0.12594989928E+04  0.12594989928E+04  0.50400001928E-02 0.  1.
    10030    2    1    2    0    0  0.00000000000E+00  0.00000000000E+00 -0.47605118156E+03  0.20429468040E+04  0.19867075568E+04 0.  0.
        5    1    3    3  502    0  0.68181525132E+03 -0.32663858280E+03 -0.90059807596E+03  0.11758672481E+04  0.46999998093E+01 0.  1.
       -5    1    3    3    0  502 -0.68181525132E+03  0.32663858280E+03  0.42454689440E+03  0.86707955589E+03  0.46999998093E+01 0. -1.
</event>
<event>
 5   0  0.1242761E-04  0.2026402E+04  0.7818609E-02  0.8594375E-01
        2   -1    0    0  501    0  0.00000000000E+00  0.00000000000E+00  0.18084978703E+04  0.18084978703E+04  0.25500000920E-02 0.  1.
       -2   -1    0    0    0  501  0.00000000000E+00  0.00000000000E+00 -0.56764040672E+03  0.56764040672E+03  0.25500000920E-02 0. -1.
    10030    2    1    2    0    0  0.00000000000E+00  0.00000000000E+00  0.12408574636E+04  0.23761382770E+04  0.20264021977E+04 0.  0.
        4    1    3    3  502    0 -0.24761644031E+03 -0.91524102943E+03  0.10392826360E+04  0.14068013555E+04  0.12699999809E+01 0.  1.
       -4    1    3    3    0  502  0.24761644031E+03  0.91524102943E+03  0.20157482763E+03  0.96933692156E+03  0.12699999809E+01 0. -1.
</event>
<event>
 5   0  0.1244229E-04  0.2011816E+04  0.7818609E-02  0.8601116E-01
        2   -1    0    0  501    0  0.00000000000E+00  0.00000000000E+00  0.12901781569E+04  0.12901781569E+04  0.25500000920E-02 0. -1.
       -2   -1    0    0    0  501  0.00000000000E+00  0.00000000000E+00 -0.78427218266E+03  0.78427218266E+03  0.25500000920E-02 0.  1.
    10030    2    1    2    0    0  0.00000000000E+00  0.00000000000E+00  0.50590597420E+03  0.20744503395E+04  0.20118159350E+04 0.  0.
        5    1    3    3  502    0 -0.21602058019E+03  0.21551980910E+03  0.12412903623E+04  0.12782556602E+04  0.46999998093E+01 0. -1.
       -5    1    3    3    0  502  0.21602058019E+03 -0.21551980910E+03 -0.73538438810E+03  0.79619467936E+03  0.46999998093E+01 0.  1.
</event>
<event>
 5   0  0.1274868E-04  0.2000032E+04  0.7818609E-02  0.8606606E-01
       -2   -1    0    0    0  501  0.00000000000E+00  0.00000000000E+00  0.47209870966E+03  0.47209870967E+03  0.25500000920E-02 0.  1.
        2   -1    0    0  501    0  0.00000000000E+00  0.00000000000E+00 -0.21182695025E+04  0.21182695025E+04  0.25500000920E-02 0. -1.
    10030    2    1    2    0    0  0.00000000000E+00  0.00000000000E+00 -0.16461707928E+04  0.25903682122E+04  0.20000322986E+04 0.  0.
        1    1    3    3  502    0 -0.77449302137E+03  0.56335999299E+03 -0.45036097401E+03  0.10583189164E+04  0.50400001928E-02 0.  1.
       -1    1    3    3    0  502  0.77449302137E+03 -0.56335999299E+03 -0.11958098188E+04  0.15320492958E+04  0.50400001928E-02 0. -1.
</event>
<event>
 5   0  0.1274868E-04  0.2106453E+04  0.7818609E-02  0.8558406E-01
        2   -1    0    0  501    0  0.00000000000E+00  0.00000000000E+00  0.68216160840E+03  0.68216160840E+03  0.25500000920E-02 0. -1.
       -2   -1    0    0    0  501  0.00000000000E+00  0.00000000000E+00 -0.16261330865E+04  0.16261330865E+04  0.25500000920E-02 0.  1.
    10030    2    1    2    0    0  0.00000000000E+00  0.00000000000E+00 -0.94397147807E+03  0.23082946949E+04  0.21064525266E+04 0.  0.
        1    1    3    3  502    0 -0.24148135731E+02 -0.10529353701E+04 -0.46603032257E+03  0.11517118944E+04  0.50400001928E-02 0. -1.
       -1    1    3    3    0  502  0.24148135731E+02  0.10529353701E+04 -0.47794115550E+03  0.11565828005E+04  0.50400001928E-02 0.  1.
</event>
<event>
 5   0  0.4479000E-05  0.2000069E+04  0.7818609E-02  0.8606588E-01
       -3   -1    0    0    0  501  0.00000000000E+00  0.00000000000E+00  0.60747661607E+03  0.60747662447E+03  0.10100000352E+00 0. -1.
        3   -1    0    0  501    0  0.00000000000E+00  0.00000000000E+00 -0.16462679832E+04  0.16462679863E+04  0.10100000352E+00 0.  1.
    10030    2    1    2    0    0  0.00000000000E+00  0.00000000000E+00 -0.10387913671E+04  0.22537446108E+04  0.20000693153E+04 0.  0.
        4    1    3    3  502    0 -0.47603837757E+03 -0.44762885918E+03  0.33364281825E+03  0.73369153979E+03  0.12699999809E+01 0. -1.
       -4    1    3    3    0  502  0.47603837757E+03  0.44762885918E+03 -0.13724341854E+04  0.15200530710E+04  0.12699999809E+01 0.  1.
</event>
<event>
 5   0  0.4479000E-05  0.2017987E+04  0.7818609E-02  0.8598257E-01
       -3   -1    0    0    0  501  0.00000000000E+00  0.00000000000E+00  0.10737914398E+04  0.10737914445E+04  0.10100000352E+00 0. -1.
        3   -1    0    0  501    0  0.00000000000E+00  0.00000000000E+00 -0.94810538845E+03  0.94810539383E+03  0.10100000352E+00 0.  1.
    10030    2    1    2    0    0  0.00000000000E+00  0.00000000000E+00  0.12568605132E+03  0.20218968384E+04  0.20179865811E+04 0.  0.
        4    1    3    3  502    0  0.99648135025E+03 -0.13503601188E+03 -0.20118635579E+02  0.10057913195E+04  0.12699999809E+01 0.  1.
       -4    1    3    3    0  502 -0.99648135025E+03  0.13503601188E+03  0.14580468690E+03  0.10161055189E+04  0.12699999809E+01 0. -1.
</event>
<event>
 5   0  0.1242761E-04  0.2001771E+04  0.7818609E-02  0.8605793E-01
        2   -1    0    0  501    0  0.00000000000E+00  0.00000000000E+00  0.72588936830E+03  0.72588936830E+03  0.25500000920E-02 0.  1.
       -2   -1    0    0    0  501  0.00000000000E+00  0.00000000000E+00 -0.13800614143E+04  0.13800614143E+04  0.25500000920E-02 0. -1.
    10030    2    1    2    0    0  0.00000000000E+00  0.00000000000E+00 -0.65417204601E+03  0.21059507826E+04  0.20017711240E+04 0.  0.
        4    1    3    3  502    0 -0.29491749298E+03  0.72238598798E+03  0.33239727122E+03  0.84811992201E+03  0.12699999809E+01 0.  1.
       -4    1    3    3    0  502  0.29491749298E+03 -0.72238598798E+03 -0.98656931723E+03  0.12578308606E+04  0.12699999809E+01 0. -1.
</event>
<event>
 5   0  0.6028501E-05  0.1637348E+04  0.7818609E-02  0.8797926E-01
       -1   -1    0    0    0  501  0.00000000000E+00  0.00000000000E+00  0.77506493895E+03  0.77506493897E+03  0.50400001928E-02 0.  1.
        1   -1    0    0  501    0  0.00000000000E+00  0.00000000000E+00 -0.86473698774E+03  0.86473698776E+03  0.50400001928E-02 0. -1.
    10030    2    1    2    0    0  0.00000000000E+00  0.00000000000E+00 -0.89672048793E+02  0.16398019267E+04  0.16373482472E+04 0.  0.
        4    1    3    3  502    0  0.67321499334E+03  0.45143941437E+03  0.70269825634E+02  0.81360643643E+03  0.12699999809E+01 0.  1.
       -4    1    3    3    0  502 -0.67321499334E+03 -0.45143941437E+03 -0.15994187443E+03  0.82619549030E+03  0.12699999809E+01 0. -1.
</event>
<event>
 5   0  0.1242761E-04  0.1898102E+04  0.7818609E-02  0.8655801E-01
       -2   -1    0    0    0  501  0.00000000000E+00  0.00000000000E+00  0.60186170810E+03  0.60186170810E+03  0.25500000920E-02 0. -1.
        2   -1    0    0  501    0  0.00000000000E+00  0.00000000000E+00 -0.14965202495E+04  0.14965202495E+04  0.25500000920E-02 0.  1.
    10030    2    1    2    0    0  0.00000000000E+00  0.00000000000E+00 -0.89465854143E+03  0.20983819576E+04  0.18981024562E+04 0.  0.
        4    1    3    3  502    0  0.29231448512E+03  0.22660979234E+03  0.51890459696E+03  0.63723100195E+03  0.12699999809E+01 0. -1.
       -4    1    3    3    0  502 -0.29231448512E+03 -0.22660979234E+03 -0.14135631384E+04  0.14611509557E+04  0.12699999809E+01 0.  1.
</event>
<event>
 5   0  0.6214547E-05  0.1991462E+04  0.7818609E-02  0.8610623E-01
        1   -1    0    0  501    0  0.00000000000E+00  0.00000000000E+00  0.78353503594E+03  0.78353503596E+03  0.50400001928E-02 0. -1.
       -1   -1    0    0    0  501  0.00000000000E+00  0.00000000000E+00 -0.12653940619E+04  0.12653940619E+04  0.50400001928E-02 0.  1.
    10030    2    1    2    0    0  0.00000000000E+00  0.00000000000E+00 -0.48185902596E+03  0.20489290979E+04  0.19914623590E+04 0.  0.
        3    1    3    3  502    0 -0.56243845159E+03 -0.34511821819E+03 -0.10081261034E+04  0.12048908029E+04  0.10100000352E+00 0.  1.
       -3    1    3    3    0  502  0.56243845159E+03  0.34511821819E+03  0.52626707746E+03  0.84403829496E+03  0.10100000352E+00 0. -1.
</event>
<event>
 5   0  0.6028501E-05  0.2002052E+04  0.7818609E-02  0.8605662E-01
       -1   -1    0    0    0  501  0.00000000000E+00  0.00000000000E+00  0.79203210221E+03  0.79203210223E+03  0.50400001928E-02 0. -1.
        1   -1    0    0  501    0  0.00000000000E+00  0.00000000000E+00 -0.12651677782E+04  0.12651677782E+04  0.50400001928E-02 0.  1.
    10030    2    1    2    0    0  0.00000000000E+00  0.00000000000E+00 -0.47313567599E+03  0.20571998804E+04  0.20020524419E+04 0.  0.
        4    1    3    3  502    0 -0.32038734451E+02  0.57604229491E+03  0.60401249903E+03  0.83527475594E+03  0.12699999809E+01 0. -1.
       -4    1    3    3    0  502  0.32038734451E+02 -0.57604229491E+03 -0.10771481750E+04  0.12219251245E+04  0.12699999809E+01 0.  1.
</event>
<event>
 5   0  0.6222733E-05  0.1945126E+04  0.7818609E-02  0.8632715E-01
        1   -1    0    0  501    0  0.00000000000E+00  0.00000000000E+00  0.11002710945E+04  0.11002710945E+04  0.50400001928E-02 0.  1.
       -1   -1    0    0    0  501  0.00000000000E+00  0.00000000000E+00 -0.85967814587E+03  0.85967814588E+03  0.50400001928E-02 0. -1.
    10030    2    1    2    0    0  0.00000000000E+00  0.00000000000E+00  0.24059294867E+03  0.19599492404E+04  0.19451262319E+04 0.  0.
        2    1    3    3  502    0 -0.57856433314E+03 -0.69079599680E+03  0.48906801449E+03  0.10252430539E+04  0.25500000920E-02 0.  1.
       -2    1    3    3    0  502  0.57856433314E+03  0.69079599680E+03 -0.24847506582E+03  0.93470618652E+03  0.25500000920E-02 0. -1.
</event>
<event>
 5   0  0.1274868E-04  0.2012805E+04  0.7818609E-02  0.8600657E-01
        2   -1    0    0  501    0  0.00000000000E+00  0.00000000000E+00  0.14105093212E+04  0.14105093212E+04  0.25500000920E-02 0.  1.
       -2   -1    0    0    0  501  0.00000000000E+00  0.00000000000E+00 -0.71807140570E+03  0.71807140570E+03  0.25500000920E-02 0. -1.
    10030    2    1    2    0    0  0.00000000000E+00  0.00000000000E+00  0.69243791549E+03  0.21285807269E+04  0.20128054164E+04 0.  0.
        1    1    3    3  502    0 -0.15911247884E+03 -0.74386034775E+03 -0.35062244992E+03  0.83760438173E+03  0.50400001928E-02 0. -1.
       -1    1    3    3    0  502  0.15911247884E+03  0.74386034775E+03  0.10430603654E+04  0.12909763452E+04  0.50400001928E-02 0.  1.
</event>
<event>
 5   0  0.6256535E-05  0.2037853E+04  0.7818609E-02  0.8589125E-01
        1   -1    0    0  501    0  0.00000000000E+00  0.00000000000E+00  0.17394723020E+04  0.17394723020E+04  0.50400001928E-02 0. -1.
       -1   -1    0    0    0  501  0.00000000000E+00  0.00000000000E+00 -0.59685427429E+03  0.59685427431E+03  0.50400001928E-02 0.  1.
    10030    2    1    2    0    0  0.00000000000E+00  0.00000000000E+00  0.11426180277E+04  0.23363265763E+04  0.20378532612E+04 0.  0.
        1    1    3    3  502    0 -0.77237502666E+03 -0.25883168738E+02 -0.19001456172E+03  0.79582576857E+03  0.50400001928E-02 0.  1.
       -1    1    3    3    0  502  0.77237502666E+03  0.25883168738E+02  0.13326325895E+04  0.15405008078E+04  0.50400001928E-02 0. -1.
</event>
<event>
 5   0  0.1274868E-04  0.1946484E+04  0.7818609E-02  0.8632058E-01
       -2   -1    0    0    0  501  0.00000000000E+00  0.00000000000E+00  0.49226409201E+03  0.49226409202E+03  0.25500000920E-02 0.  1.
        2   -1    0    0  501    0  0.00000000000E+00  0.00000000000E+00 -0.19241710805E+04  0.19241710805E+04  0.25500000920E-02 0. -1.
    10030    2    1    2    0    0  0.00000000000E+00  0.00000000000E+00 -0.14319069885E+04  0.24164351725E+04  0.19464843486E+04 0.  0.
        1    1    3    3  502    0 -0.58655432477E+03 -0.74546376890E+03 -0.98634184798E+03  0.13684416128E+04  0.50400001928E-02 0. -1.
       -1    1    3    3    0  502  0.58655432477E+03  0.74546376890E+03 -0.44556514049E+03  0.10479935597E+04  0.50400001928E-02 0.  1.
</event>
<event>
 5   0  0.1281789E-04  0.1997970E+04  0.7818609E-02  0.8607570E-01
       -2   -1    0    0    0  501  0.00000000000E+00  0.00000000000E+00  0.11404698083E+04  0.11404698083E+04  0.25500000920E-02 0.  1.
        2   -1    0    0  501    0  0.00000000000E+00  0.00000000000E+00 -0.87505248227E+03  0.87505248227E+03  0.25500000920E-02 0. -1.
    10030    2    1    2    0    0  0.00000000000E+00  0.00000000000E+00  0.26541732600E+03  0.20155222905E+04  0.19979699064E+04 0.  0.
        2    1    3    3  502    0  0.16446783082E+02 -0.41841657952E+03 -0.78224775614E+03  0.88727362334E+03  0.25500000920E-02 0. -1.
       -2    1    3    3    0  502 -0.16446783082E+02  0.41841657952E+03  0.10476650821E+04  0.11282486672E+04  0.25500000920E-02 0.  1.
</event>
<event>
 5   0  0.1242761E-04  0.2022683E+04  0.7818609E-02  0.8596089E-01
        2   -1    0    0  501    0  0.00000000000E+00  0.00000000000E+00  0.16390683690E+04  0.16390683690E+04  0.25500000920E-02 0. -1.
       -2   -1    0    0    0  501  0.00000000000E+00  0.00000000000E+00 -0.62401987527E+03  0.62401987527E+03  0.25500000920E-02 0.  1.
    10030    2    1    2    0    0  0.00000000000E+00  0.00000000000E+00  0.10150484937E+04  0.22630882442E+04  0.20226826139E+04 0.  0.
        4    1    3    3  502    0  0.37488202969E+03  0.81684927281E+00  0.15584574166E+04  0.16029124541E+04  0.12699999809E+01 0. -1.
       -4    1    3    3    0  502 -0.37488202969E+03 -0.81684927281E+00 -0.54340892290E+03  0.66017579009E+03  0.12699999809E+01 0.  1.
</event>
<event>
 5   0  0.6028501E-05  0.1981016E+04  0.7818609E-02  0.8615548E-01
        1   -1    0    0  501    0  0.00000000000E+00  0.00000000000E+00  0.18653776628E+04  0.18653776628E+04  0.50400001928E-02 0. -1.
       -1   -1    0    0    0  501  0.00000000000E+00  0.00000000000E+00 -0.52595568709E+03  0.52595568711E+03  0.50400001928E-02 0.  1.
    10030    2    1    2    0    0  0.00000000000E+00  0.00000000000E+00  0.13394219757E+04  0.23913333499E+04  0.19810158913E+04 0.  0.
        4    1    3    3  502    0  0.69073372194E+03  0.51054318581E+03  0.12651759316E+04  0.15291955958E+04  0.12699999809E+01 0.  1.
       -4    1    3    3    0  502 -0.69073372194E+03 -0.51054318581E+03  0.74246044082E+02  0.86213775417E+03  0.12699999809E+01 0. -1.
</event>
<event>
 5   0  0.6256535E-05  0.1958208E+04  0.7818609E-02  0.8626413E-01
        1   -1    0    0  501    0  0.00000000000E+00  0.00000000000E+00  0.13857897465E+04  0.13857897465E+04  0.50400001928E-02 0. -1.
       -1   -1    0    0    0  501  0.00000000000E+00  0.00000000000E+00 -0.69176742448E+03  0.69176742449E+03  0.50400001928E-02 0.  1.
    10030    2    1    2    0    0  0.00000000000E+00  0.00000000000E+00  0.69402232200E+03  0.20775571710E+04  0.19582075516E+04 0.  0.
        1    1    3    3  502    0 -0.78081242495E+03 -0.38907647838E+03  0.81862110930E+03  0.11963231460E+04  0.50400001928E-02 0. -1.
       -1    1    3    3    0  502  0.78081242495E+03  0.38907647838E+03 -0.12459878730E+03  0.88123402500E+03  0.50400001928E-02 0.  1.
</event>
<event>
 5   0  0.1242761E-04  0.1955681E+04  0.7818609E-02  0.8627626E-01
        2   -1    0    0  501    0  0.00000000000E+00  0.00000000000E+00  0.16425255135E+04  0.16425255135E+04  0.25500000920E-02 0.  1.
       -2   -1    0    0    0  501  0.00000000000E+00  0.00000000000E+00 -0.58213555493E+03  0.58213555493E+03  0.25500000920E-02 0. -1.
    10030    2    1    2    0    0  0.00000000000E+00  0.00000000000E+00  0.10603899586E+04  0.22246610684E+04  0.19556814682E+04 0.  0.
        4    1    3    3  502    0 -0.15104854049E+03 -0.60743266756E+02  0.16269991353E+04  0.16351248286E+04  0.12699999809E+01 0.  1.
       -4    1    3    3    0  502  0.15104854049E+03  0.60743266756E+02 -0.56660917671E+03  0.58953623983E+03  0.12699999809E+01 0. -1.
</event>
<event>
 5   0  0.1159914E-04  0.1990360E+04  0.7818609E-02  0.8611141E-01
        2   -1    0    0  501    0  0.00000000000E+00  0.00000000000E+00  0.10924174354E+04  0.10924174354E+04  0.25500000920E-02 0.  1.
       -2   -1    0    0    0  501  0.00000000000E+00  0.00000000000E+00 -0.90659780902E+03  0.90659780902E+03  0.25500000920E-02 0. -1.
    10030    2    1    2    0    0  0.00000000000E+00  0.00000000000E+00  0.18581962638E+03  0.19990152444E+04  0.19903600212E+04 0.  0.
        3    1    3    3  502    0  0.31716912418E+03 -0.89916552729E+03 -0.19344112190E+03  0.97288970425E+03  0.10100000352E+00 0. -1.
       -3    1    3    3    0  502 -0.31716912418E+03  0.89916552729E+03  0.37926074828E+03  0.10261255402E+04  0.10100000352E+00 0.  1.
</event>
<event>
 5   0  0.6222733E-05  0.2009180E+04  0.7818609E-02  0.8602341E-01
       -1   -1    0    0    0  501  0.00000000000E+00  0.00000000000E+00  0.87978040218E+03  0.87978040219E+03  0.50400001928E-02 0.  1.
        1   -1    0    0  501    0  0.00000000000E+00  0.00000000000E+00 -0.11471060835E+04  0.11471060835E+04  0.50400001928E-02 0. -1.
    10030    2    1    2    0    0  0.00000000000E+00  0.00000000000E+00 -0.26732568130E+03  0.20268864857E+04  0.20091803816E+04 0.  0.
        2    1    3    3  502    0  0.41139648349E+03  0.13454450790E+03 -0.10482126186E+04  0.11340630428E+04  0.25500000920E-02 0. -1.
       -2    1    3    3    0  502 -0.41139648349E+03 -0.13454450790E+03  0.78088693733E+03  0.89282344286E+03  0.25500000920E-02 0.  1.
</event>
<event>
 5   0  0.6214547E-05  0.2013350E+04  0.7818609E-02  0.8600404E-01
        1   -1    0    0  501    0  0.00000000000E+00  0.00000000000E+00  0.19019701088E+04  0.19019701088E+04  0.50400001928E-02 0.  1.
       -1   -1    0    0    0  501  0.00000000000E+00  0.00000000000E+00 -0.53281310680E+03  0.53281310682E+03  0.50400001928E-02 0. -1.
    10030    2    1    2    0    0  0.00000000000E+00  0.00000000000E+00  0.13691570020E+04  0.24347832156E+04  0.20133500468E+04 0.  0.
        3    1    3    3  502    0  0.15725486414E+03  0.84531258783E+03  0.51430650851E+02  0.86135218435E+03  0.10100000352E+00 0.  1.
       -3    1    3    3    0  502 -0.15725486414E+03 -0.84531258783E+03  0.13177263512E+04  0.15734310313E+04  0.10100000352E+00 0. -1.
</event>
<event>
 5   0  0.1281789E-04  0.2013335E+04  0.7818609E-02  0.8600411E-01
        2   -1    0    0  501    0  0.00000000000E+00  0.00000000000E+00  0.80077647027E+03  0.80077647028E+03  0.25500000920E-02 0.  1.
       -2   -1    0    0    0  501  0.00000000000E+00  0.00000000000E+00 -0.12654959855E+04  0.12654959855E+04  0.25500000920E-02 0. -1.
    10030    2    1    2    0    0  0.00000000000E+00  0.00000000000E+00 -0.46471951520E+03  0.20662724558E+04  0.20133349532E+04 0.  0.
        2    1    3    3  502    0  0.25494295213E+03 -0.22768295417E+03  0.73939651026E+03  0.81458126411E+03  0.25500000920E-02 0.  1.
       -2    1    3    3    0  502 -0.25494295213E+03  0.22768295417E+03 -0.12041160255E+04  0.12516911916E+04  0.25500000920E-02 0. -1.
</event>
<event>
 5   0  0.1242761E-04  0.1997049E+04  0.7818609E-02  0.8608002E-01
        2   -1    0    0  501    0  0.00000000000E+00  0.00000000000E+00  0.10787007742E+04  0.10787007742E+04  0.25500000920E-02 0.  1.
       -2   -1    0    0    0  501  0.00000000000E+00  0.00000000000E+00 -0.92430750816E+03  0.92430750816E+03  0.25500000920E-02 0. -1.
    10030    2    1    2    0    0  0.00000000000E+00  0.00000000000E+00  0.15439326607E+03  0.20030082824E+04  0.19970490476E+04 0.  0.
        4    1    3    3  502    0  0.79520624779E+03  0.22195676695E+03 -0.48611247171E+03  0.95808388515E+03  0.12699999809E+01 0. -1.
       -4    1    3    3    0  502 -0.79520624779E+03 -0.22195676695E+03  0.64050573778E+03  0.10449243972E+04  0.12699999809E+01 0.  1.
</event>
<event>
 5   0  0.6256535E-05  0.1960560E+04  0.7818609E-02  0.8625285E-01
        1   -1    0    0  501    0  0.00000000000E+00  0.00000000000E+00  0.86379720995E+03  0.86379720997E+03  0.50400001928E-02 0. -1.
       -1   -1    0    0    0  501  0.00000000000E+00  0.00000000000E+00 -0.11124705735E+04  0.11124705735E+04  0.50400001928E-02 0.  1.
    10030    2    1    2    0    0  0.00000000000E+00  0.00000000000E+00 -0.24867336353E+03  0.19762677835E+04  0.19605601012E+04 0.  0.
        1    1    3    3  502    0 -0.69067605288E+03 -0.64792424736E+03  0.13089091379E+03  0.95601865655E+03  0.50400001928E-02 0. -1.
       -1    1    3    3    0  502  0.69067605288E+03  0.64792424736E+03 -0.37956427732E+03  0.10202491269E+04  0.50400001928E-02 0.  1.
</event>
<event>
 5   0  0.6256535E-05  0.1975401E+04  0.7818609E-02  0.8618209E-01
       -1   -1    0    0    0  501  0.00000000000E+00  0.00000000000E+00  0.70897302317E+03  0.70897302318E+03  0.50400001928E-02 0. -1.
        1   -1    0    0  501    0  0.00000000000E+00  0.00000000000E+00 -0.13760074408E+04  0.13760074408E+04  0.50400001928E-02 0.  1.
    10030    2    1    2    0    0  0.00000000000E+00  0.00000000000E+00 -0.66703441761E+03  0.20849804640E+04  0.19754008760E+04 0.  0.
        1    1    3    3  502    0  0.48685177045E+03 -0.17783835736E+03  0.55389633864E+03  0.75858571152E+03  0.50400001928E-02 0. -1.
       -1    1    3    3    0  502 -0.48685177045E+03  0.17783835736E+03 -0.12209307562E+04  0.13263947524E+04  0.50400001928E-02 0.  1.
</event>
<event>
 5   0  0.1159914E-04  0.1986743E+04  0.7818609E-02  0.8612844E-01
       -2   -1    0    0    0  501  0.00000000000E+00  0.00000000000E+00  0.38255656980E+03  0.38255656981E+03  0.25500000920E-02 0.  1.
        2   -1    0    0  501    0  0.00000000000E+00  0.00000000000E+00 -0.25794542251E+04  0.25794542251E+04  0.25500000920E-02 0. -1.
    10030    2    1    2    0    0  0.00000000000E+00  0.00000000000E+00 -0.21968976553E+04  0.29620107949E+04  0.19867432248E+04 0.  0.
        3    1    3    3  502    0 -0.77698641325E+03 -0.54420671580E+03 -0.15379909933E+04  0.18070100004E+04  0.10100000352E+00 0. -1.
       -3    1    3    3    0  502  0.77698641325E+03  0.54420671580E+03 -0.65890666201E+03  0.11550007945E+04  0.10100000352E+00 0.  1.
</event>
<event>
 5   0  0.6028501E-05  0.2023278E+04  0.7818609E-02  0.8595814E-01
       -1   -1    0    0    0  501  0.00000000000E+00  0.00000000000E+00  0.76893513402E+03  0.76893513404E+03  0.50400001928E-02 0. -1.
        1   -1    0    0  501    0  0.00000000000E+00  0.00000000000E+00 -0.13309490855E+04  0.13309490856E+04  0.50400001928E-02 0.  1.
    10030    2    1    2    0    0  0.00000000000E+00  0.00000000000E+00 -0.56201395153E+03  0.20998842196E+04  0.20232780466E+04 0.  0.
        4    1    3    3  502    0 -0.45260488393E+03  0.50301312846E+03 -0.10615033198E+04  0.12588345003E+04  0.12699999809E+01 0.  1.
       -4    1    3    3    0  502  0.45260488393E+03 -0.50301312846E+03  0.49948936827E+03  0.84104971927E+03  0.12699999809E+01 0. -1.
</event>
<event>
 5   0  0.6256535E-05  0.1984646E+04  0.7818609E-02  0.8613833E-01
       -1   -1    0    0    0  501  0.00000000000E+00  0.00000000000E+00  0.69310008316E+03  0.69310008318E+03  0.50400001928E-02 0.  1.
        1   -1    0    0  501    0  0.00000000000E+00  0.00000000000E+00 -0.14207250550E+04  0.14207250550E+04  0.50400001928E-02 0. -1.
    10030    2    1    2    0    0  0.00000000000E+00  0.00000000000E+00 -0.72762497180E+03  0.21138251381E+04  0.19846457152E+04 0.  0.
        1    1    3    3  502    0 -0.57052844379E+03  0.80786197716E+03 -0.27754041163E+03  0.10272158290E+04  0.50400001928E-02 0.  1.
       -1    1    3    3    0  502  0.57052844379E+03 -0.80786197716E+03 -0.45008456017E+03  0.10866093091E+04  0.50400001928E-02 0. -1.
</event>
<event>
 5   0  0.6256535E-05  0.2014887E+04  0.7818609E-02  0.8599692E-01
        1   -1    0    0  501    0  0.00000000000E+00  0.00000000000E+00  0.78183944483E+03  0.78183944485E+03  0.50400001928E-02 0. -1.
       -1   -1    0    0    0  501  0.00000000000E+00  0.00000000000E+00 -0.12981468547E+04  0.12981468547E+04  0.50400001928E-02 0.  1.
    10030    2    1    2    0    0  0.00000000000E+00  0.00000000000E+00 -0.51630740991E+03  0.20799862996E+04  0.20148870105E+04 0.  0.
        1    1    3    3  502    0  0.90896999515E+02 -0.12125379466E+03  0.77000634528E+03  0.78477673197E+03  0.50400001928E-02 0. -1.
       -1    1    3    3    0  502 -0.90896999515E+02  0.12125379466E+03 -0.12863137552E+04  0.12952095676E+04  0.50400001928E-02 0.  1.
</event>
<event>
 5   0  0.6214547E-05  0.2019531E+04  0.7818609E-02  0.8597543E-01
       -1   -1    0    0    0  501  0.00000000000E+00  0.00000000000E+00  0.71703129349E+03  0.71703129350E+03  0.50400001928E-02 0.  1.
        1   -1    0    0  501    0  0.00000000000E+00  0.00000000000E+00 -0.14220108875E+04  0.14220108875E+04  0.50400001928E-02 0. -1.
    10030    2    1    2    0    0  0.00000000000E+00  0.00000000000E+00 -0.70497959398E+03  0.21390421810E+04  0.20195309416E+04 0.  0.
        3    1    3    3  502    0 -0.67122185227E+02  0.87109289181E+02  0.71066976900E+03  0.71912790711E+03  0.10100000352E+00 0.  1.
       -3    1    3    3    0  502  0.67122185227E+02 -0.87109289181E+02 -0.14156493630E+04  0.14199142739E+04  0.10100000352E+00 0. -1.
</event>
<event>
 5   0  0.1244229E-04  0.1733837E+04  0.7818609E-02  0.8742298E-01
       -2   -1    0    0    0  501  0.00000000000E+00  0.00000000000E+00  0.78052740629E+03  0.78052740629E+03  0.25500000920E-02 0.  1.
        2   -1    0    0  501    0  0.00000000000E+00  0.00000000000E+00 -0.96287144261E+03  0.96287144261E+03  0.25500000920E-02 0. -1.
    10030    2    1    2    0    0  0.00000000000E+00  0.00000000000E+00 -0.18234403632E+03  0.17433988489E+04  0.17338368432E+04 0.  0.
        5    1    3    3  502    0  0.42116498984E+03 -0.19630410852E+03 -0.82706210126E+03  0.94866699164E+03  0.46999998093E+01 0. -1.
       -5    1    3    3    0  502 -0.42116498984E+03  0.19630410852E+03  0.64471806494E+03  0.79473185726E+03  0.46999998093E+01 0.  1.
</event>
<event>
 5   0  0.6028501E-05  0.1991878E+04  0.7818609E-02  0.8610428E-01
        1   -1    0    0  501    0  0.00000000000E+00  0.00000000000E+00  0.99454437285E+03  0.99454437286E+03  0.50400001928E-02 0. -1.
       -1   -1    0    0    0  501  0.00000000000E+00  0.00000000000E+00 -0.99733526291E+03  0.99733526292E+03  0.50400001928E-02 0.  1.
    10030    2    1    2    0    0  0.00000000000E+00  0.00000000000E+00 -0.27908900616E+01  0.19918796358E+04  0.19918776806E+04 0.  0.
        4    1    3    3  502    0  0.74000931669E+03  0.43646846836E+02 -0.66650791156E+03  0.99687172951E+03  0.12699999809E+01 0.  1.
       -4    1    3    3    0  502 -0.74000931669E+03 -0.43646846836E+02  0.66371702150E+03  0.99500790627E+03  0.12699999809E+01 0. -1.
</event>
<event>
 5   0  0.6256535E-05  0.1989118E+04  0.7818609E-02  0.8611725E-01
        1   -1    0    0  501    0  0.00000000000E+00  0.00000000000E+00  0.20914491603E+04  0.20914491603E+04  0.50400001928E-02 0.  1.
       -1   -1    0    0    0  501  0.00000000000E+00  0.00000000000E+00 -0.47294836084E+03  0.47294836086E+03  0.50400001928E-02 0. -1.
    10030    2    1    2    0    0  0.00000000000E+00  0.00000000000E+00  0.16185007995E+04  0.25643975212E+04  0.19891178469E+04 0.  0.
        1    1    3    3  502    0  0.78071009519E+03  0.54728452675E+03  0.44433501155E+03  0.10518850738E+04  0.50400001928E-02 0. -1.
       -1    1    3    3    0  502 -0.78071009519E+03 -0.54728452675E+03  0.11741657879E+04  0.15125124474E+04  0.50400001928E-02 0.  1.
</event>
<event>
 5   0  0.6214547E-05  0.1861694E+04  0.7818609E-02  0.8674162E-01
       -1   -1    0    0    0  501  0.00000000000E+00  0.00000000000E+00  0.14611016591E+04  0.14611016591E+04  0.50400001928E-02 0.  1.
        1   -1    0    0  501    0  0.00000000000E+00  0.00000000000E+00 -0.59302961241E+03  0.59302961243E+03  0.50400001928E-02 0. -1.
    10030    2    1    2    0    0  0.00000000000E+00  0.00000000000E+00  0.86807204665E+03  0.20541312715E+04  0.18616944439E+04 0.  0.
        3    1    3    3  502    0  0.58030940529E+03  0.50468014594E+03 -0.14459053762E+03  0.78253912959E+03  0.10100000352E+00 0. -1.
       -3    1    3    3    0  502 -0.58030940529E+03 -0.50468014594E+03  0.10126625843E+04  0.12715921419E+04  0.10100000352E+00 0.  1.
</event>
<event>
 5   0  0.1244229E-04  0.2004167E+04  0.7818609E-02  0.8604675E-01
       -2   -1    0    0    0  501  0.00000000000E+00  0.00000000000E+00  0.56423468054E+03  0.56423468054E+03  0.25500000920E-02 0.  1.
        2   -1    0    0  501    0  0.00000000000E+00  0.00000000000E+00 -0.17797058602E+04  0.17797058602E+04  0.25500000920E-02 0. -1.
    10030    2    1    2    0    0  0.00000000000E+00  0.00000000000E+00 -0.12154711796E+04  0.23439405407E+04  0.20041674256E+04 0.  0.
        5    1    3    3  502    0  0.22966448425E+03 -0.80099652313E+03 -0.12587029846E+04  0.15095351930E+04  0.46999998093E+01 0. -1.
       -5    1    3    3    0  502 -0.22966448425E+03  0.80099652313E+03  0.43231804950E+02  0.83440534775E+03  0.46999998093E+01 0.  1.
</event>
<event>
 5   0  0.1242761E-04  0.1989455E+04  0.7818609E-02  0.8611567E-01
       -2   -1    0    0    0  501  0.00000000000E+00  0.00000000000E+00  0.13484899817E+04  0.13484899817E+04  0.25500000920E-02 0.  1.
        2   -1    0    0  501    0  0.00000000000E+00  0.00000000000E+00 -0.73377085202E+03  0.73377085202E+03  0.25500000920E-02 0. -1.
    10030    2    1    2    0    0  0.00000000000E+00  0.00000000000E+00  0.61471912966E+03  0.20822608337E+04  0.19894548427E+04 0.  0.
        4    1    3    3  502    0 -0.27494630003E+03  0.66822886627E+03 -0.40816547578E+03  0.82989514647E+03  0.12699999809E+01 0. -1.
       -4    1    3    3    0  502  0.27494630003E+03 -0.66822886627E+03  0.10228846054E+04  0.12523656872E+04  0.12699999809E+01 0.  1.
</event>
<event>
 5   0  0.6168338E-05  0.1996351E+04  0.7818609E-02  0.8608329E-01
       -1   -1    0    0    0  501  0.00000000000E+00  0.00000000000E+00  0.76710113465E+03  0.76710113467E+03  0.50400001928E-02 0. -1.
        1   -1    0    0  501    0  0.00000000000E+00  0.00000000000E+00 -0.12988564136E+04  0.12988564136E+04  0.50400001928E-02 0.  1.
    10030    2    1    2    0    0  0.00000000000E+00  0.00000000000E+00 -0.53175527896E+03  0.20659575483E+04  0.19963508997E+04 0.  0.
        5    1    3    3  502    0 -0.12218162021E+03  0.40199080998E+03  0.67112404584E+03  0.79180460628E+03  0.46999998093E+01 0. -1.
       -5    1    3    3    0  502  0.12218162021E+03 -0.40199080998E+03 -0.12028793248E+04  0.12741529420E+04  0.46999998093E+01 0.  1.
</event>
<event>
 5   0  0.1242761E-04  0.2003799E+04  0.7818609E-02  0.8604846E-01
        2   -1    0    0  501    0  0.00000000000E+00  0.00000000000E+00  0.12771598342E+04  0.12771598342E+04  0.25500000920E-02 0.  1.
       -2   -1    0    0    0  501  0.00000000000E+00  0.00000000000E+00 -0.78596504445E+03  0.78596504445E+03  0.25500000920E-02 0. -1.
    10030    2    1    2    0    0  0.00000000000E+00  0.00000000000E+00  0.49119478979E+03  0.20631248787E+04  0.20037993771E+04 0.  0.
        4    1    3    3  502    0  0.87722565049E+03  0.31029915099E+03 -0.13687193021E+03  0.94050302666E+03  0.12699999809E+01 0. -1.
       -4    1    3    3    0  502 -0.87722565049E+03 -0.31029915099E+03  0.62806672001E+03  0.11226218520E+04  0.12699999809E+01 0.  1.
</event>
<event>
 5   0  0.6214547E-05  0.1998673E+04  0.7818609E-02  0.8607242E-01
        1   -1    0    0  501    0  0.00000000000E+00  0.00000000000E+00  0.11627360811E+04  0.11627360811E+04  0.50400001928E-02 0. -1.
       -1   -1    0    0    0  501  0.00000000000E+00  0.00000000000E+00 -0.85889914962E+03  0.85889914963E+03  0.50400001928E-02 0.  1.
    10030    2    1    2    0    0  0.00000000000E+00  0.00000000000E+00  0.30383693146E+03  0.20216352307E+04  0.19986725908E+04 0.  0.
        3    1    3    3  502    0  0.78546499311E+03  0.17114830397E+03  0.75239373507E+03  0.11010646394E+04  0.10100000352E+00 0. -1.
       -3    1    3    3    0  502 -0.78546499311E+03 -0.17114830397E+03 -0.44855680361E+03  0.92057059133E+03  0.10100000352E+00 0.  1.
</event>
<event>
 5   0  0.1281789E-04  0.1906644E+04  0.7818609E-02  0.8651557E-01
       -2   -1    0    0    0  501  0.00000000000E+00  0.00000000000E+00  0.56180027733E+03  0.56180027733E+03  0.25500000920E-02 0. -1.
        2   -1    0    0  501    0  0.00000000000E+00  0.00000000000E+00 -0.16176965355E+04  0.16176965355E+04  0.25500000920E-02 0.  1.
    10030    2    1    2    0    0  0.00000000000E+00  0.00000000000E+00 -0.10558962581E+04  0.21794968128E+04  0.19066435034E+04 0.  0.
        2    1    3    3  502    0  0.65426143708E+03  0.29202883521E+03  0.19092280005E+03  0.74147851232E+03  0.25500000920E-02 0. -1.
       -2    1    3    3    0  502 -0.65426143708E+03 -0.29202883521E+03 -0.12468190582E+04  0.14380183005E+04  0.25500000920E-02 0.  1.
</event>
<event>
 5   0  0.1274868E-04  0.1986811E+04  0.7818609E-02  0.8612812E-01
       -2   -1    0    0    0  501  0.00000000000E+00  0.00000000000E+00  0.57044074078E+03  0.57044074078E+03  0.25500000920E-02 0. -1.
        2   -1    0    0  501    0  0.00000000000E+00  0.00000000000E+00 -0.17299859295E+04  0.17299859295E+04  0.25500000920E-02 0.  1.
    10030    2    1    2    0    0  0.00000000000E+00  0.00000000000E+00 -0.11595451887E+04  0.23004266703E+04  0.19868109675E+04 0.  0.
        1    1    3    3  502    0  0.14489884836E+03  0.81974158879E+03 -0.12074532045E+04  0.14665998737E+04  0.50400001928E-02 0.  1.
       -1    1    3    3    0  502 -0.14489884836E+03 -0.81974158879E+03  0.47908015743E+02  0.83382679655E+03  0.50400001928E-02 0. -1.
</event>
<event>
 5   0  0.6028501E-05  0.2009983E+04  0.7818609E-02  0.8601968E-01
        1   -1    0    0  501    0  0.00000000000E+00  0.00000000000E+00  0.11060494799E+04  0.11060494800E+04  0.50400001928E-02 0.  1.
       -1   -1    0    0    0  501  0.00000000000E+00  0.00000000000E+00 -0.91316666397E+03  0.91316666398E+03  0.50400001928E-02 0. -1.
    10030    2    1    2    0    0  0.00000000000E+00  0.00000000000E+00  0.19288281598E+03  0.20192161439E+04  0.20099826007E+04 0.  0.
        4    1    3    3  502    0 -0.60140986955E+03 -0.80500319697E+03  0.11330909144E+03  0.10112193340E+04  0.12699999809E+01 0.  1.
       -4    1    3    3    0  502  0.60140986955E+03  0.80500319697E+03  0.79573724542E+02  0.10079968100E+04  0.12699999809E+01 0. -1.
</event>
<event>
 5   0  0.1274868E-04  0.2022862E+04  0.7818609E-02  0.8596006E-01
        2   -1    0    0  501    0  0.00000000000E+00  0.00000000000E+00  0.16671337324E+04  0.16671337324E+04  0.25500000920E-02 0. -1.
       -2   -1    0    0    0  501  0.00000000000E+00  0.00000000000E+00 -0.61362350210E+03  0.61362350211E+03  0.25500000920E-02 0.  1.
    10030    2    1    2    0    0  0.00000000000E+00  0.00000000000E+00  0.10535102303E+04  0.22807572345E+04  0.20228617742E+04 0.  0.
        1    1    3    3  502    0 -0.88737325565E+02  0.76449841308E+03  0.12666674616E+04  0.14821533641E+04  0.50400001928E-02 0. -1.
       -1    1    3    3    0  502  0.88737325565E+02 -0.76449841308E+03 -0.21315723126E+03  0.79860387040E+03  0.50400001928E-02 0.  1.
</event>
<event>
 5   0  0.6222733E-05  0.2002298E+04  0.7818609E-02  0.8605547E-01
        1   -1    0    0  501    0  0.00000000000E+00  0.00000000000E+00  0.17106453443E+04  0.17106453443E+04  0.50400001928E-02 0.  1.
       -1   -1    0    0    0  501  0.00000000000E+00  0.00000000000E+00 -0.58591882540E+03  0.58591882543E+03  0.50400001928E-02 0. -1.
    10030    2    1    2    0    0  0.00000000000E+00  0.00000000000E+00  0.11247265189E+04  0.22965641697E+04  0.20022979906E+04 0.  0.
        2    1    3    3  502    0  0.65467025849E+03 -0.31966704794E+03 -0.22522555108E+03  0.76256587765E+03  0.25500000920E-02 0. -1.
       -2    1    3    3    0  502 -0.65467025849E+03  0.31966704794E+03  0.13499520700E+04  0.15339982921E+04  0.25500000920E-02 0.  1.
</event>
<event>
 5   0  0.1242761E-04  0.2085218E+04  0.7818609E-02  0.8567783E-01
       -2   -1    0    0    0  501  0.00000000000E+00  0.00000000000E+00  0.10868407009E+04  0.10868407009E+04  0.25500000920E-02 0. -1.
        2   -1    0    0  501    0  0.00000000000E+00  0.00000000000E+00 -0.10001775008E+04  0.10001775008E+04  0.25500000920E-02 0.  1.
    10030    2    1    2    0    0  0.00000000000E+00  0.00000000000E+00  0.86663200105E+02  0.20870182018E+04  0.20852180856E+04 0.  0.
        4    1    3    3  502    0  0.11209194144E+03 -0.11709818313E+03  0.10741505234E+04  0.10863137427E+04  0.12699999809E+01 0. -1.
       -4    1    3    3    0  502 -0.11209194144E+03  0.11709818313E+03 -0.98748732329E+03  0.10007044591E+04  0.12699999809E+01 0.  1.
</event>
<event>
 5   0  0.1159914E-04  0.2020113E+04  0.7818609E-02  0.8597275E-01
       -2   -1    0    0    0  501  0.00000000000E+00  0.00000000000E+00  0.76323410433E+03  0.76323410433E+03  0.25500000920E-02 0. -1.
        2   -1    0    0  501    0  0.00000000000E+00  0.00000000000E+00 -0.13366983347E+04  0.13366983347E+04  0.25500000920E-02 0.  1.
    10030    2    1    2    0    0  0.00000000000E+00  0.00000000000E+00 -0.57346423037E+03  0.20999324390E+04  0.20201126268E+04 0.  0.
        3    1    3    3  502    0 -0.67298441390E+03 -0.66949904773E+03 -0.64544190148E+03  0.11479251956E+04  0.10100000352E+00 0.  1.
       -3    1    3    3    0  502  0.67298441390E+03  0.66949904773E+03  0.71977671112E+02  0.95200724346E+03  0.10100000352E+00 0. -1.
</event>
<event>
 5   0  0.6222733E-05  0.1986069E+04  0.7818609E-02  0.8613162E-01
        1   -1    0    0  501    0  0.00000000000E+00  0.00000000000E+00  0.16850462915E+04  0.16850462916E+04  0.50400001928E-02 0.  1.
       -1   -1    0    0    0  501  0.00000000000E+00  0.00000000000E+00 -0.58521701542E+03  0.58521701545E+03  0.50400001928E-02 0. -1.
    10030    2    1    2    0    0  0.00000000000E+00  0.00000000000E+00  0.10998292761E+04  0.22702633070E+04  0.19860692451E+04 0.  0.
        2    1    3    3  502    0  0.66122712596E+03  0.51819170518E+03 -0.55357332032E+02  0.84190758972E+03  0.25500000920E-02 0. -1.
       -2    1    3    3    0  502 -0.66122712596E+03 -0.51819170518E+03  0.11551866082E+04  0.14283557173E+04  0.25500000920E-02 0.  1.
</event>
<event>
 5   0  0.6028501E-05  0.1995830E+04  0.7818609E-02  0.8608573E-01
        1   -1    0    0  501    0  0.00000000000E+00  0.00000000000E+00  0.90590543329E+03  0.90590543331E+03  0.50400001928E-02 0. -1.
       -1   -1    0    0    0  501  0.00000000000E+00  0.00000000000E+00 -0.10992692159E+04  0.10992692159E+04  0.50400001928E-02 0.  1.
    10030    2    1    2    0    0  0.00000000000E+00  0.00000000000E+00 -0.19336378261E+03  0.20051746492E+04  0.19958296073E+04 0.  0.
        4    1    3    3  502    0 -0.12686758831E+02  0.92391610754E+03  0.28197860311E+03  0.96607218836E+03  0.12699999809E+01 0. -1.
       -4    1    3    3    0  502  0.12686758831E+02 -0.92391610754E+03 -0.47534238572E+03  0.10391024609E+04  0.12699999809E+01 0.  1.
</event>
<event>
 5   0  0.6214547E-05  0.2010684E+04  0.7818609E-02  0.8601642E-01
       -1   -1    0    0    0  501  0.00000000000E+00  0.00000000000E+00  0.79273437059E+03  0.79273437060E+03  0.50400001928E-02 0.  1.
        1   -1    0    0  501    0  0.00000000000E+00  0.00000000000E+00 -0.12749705017E+04  0.12749705017E+04  0.50400001928E-02 0. -1.
    10030    2    1    2    0    0  0.00000000000E+00  0.00000000000E+00 -0.48223613112E+03  0.20677048723E+04  0.20106843991E+04 0.  0.
        3    1    3    3  502    0  0.45890360075E+03 -0.27047078818E+03  0.63568423865E+03  0.82936205816E+03  0.10100000352E+00 0.  1.
       -3    1    3    3    0  502 -0.45890360075E+03  0.27047078818E+03 -0.11179203698E+04  0.12383428142E+04  0.10100000352E+00 0. -1.
</event>
<event>
 5   0  0.6214547E-05  0.2012959E+04  0.7818609E-02  0.8600586E-01
        1   -1    0    0  501    0  0.00000000000E+00  0.00000000000E+00  0.18362434594E+04  0.18362434594E+04  0.50400001928E-02 0. -1.
       -1   -1    0    0    0  501  0.00000000000E+00  0.00000000000E+00 -0.55167043952E+03  0.55167043955E+03  0.50400001928E-02 0.  1.
    10030    2    1    2    0    0  0.00000000000E+00  0.00000000000E+00  0.12845730199E+04  0.23879138990E+04  0.20129592508E+04 0.  0.
        3    1    3    3  502    0  0.71421032548E+03  0.22796081469E+02  0.14831046796E+04  0.16462732310E+04  0.10100000352E+00 0. -1.
       -3    1    3    3    0  502 -0.71421032548E+03 -0.22796081469E+02 -0.19853165964E+03  0.74164066800E+03  0.10100000352E+00 0.  1.
</event>
<event>
 5   0  0.1159914E-04  0.1950157E+04  0.7818609E-02  0.8630285E-01
       -2   -1    0    0    0  501  0.00000000000E+00  0.00000000000E+00  0.13021550044E+04  0.13021550044E+04  0.25500000920E-02 0. -1.
        2   -1    0    0  501    0  0.00000000000E+00  0.00000000000E+00 -0.73015723112E+03  0.73015723113E+03  0.25500000920E-02 0.  1.
    10030    2    1    2    0    0  0.00000000000E+00  0.00000000000E+00  0.57199777329E+03  0.20323122355E+04  0.19501568065E+04 0.  0.
        3    1    3    3  502    0  0.43673395119E+03  0.68638566122E+03 -0.27415421136E+03  0.85850006515E+03  0.10100000352E+00 0.  1.
       -3    1    3    3    0  502 -0.43673395119E+03 -0.68638566122E+03  0.84615198465E+03  0.11738121704E+04  0.10100000352E+00 0. -1.
</event>
<event>
 5   0  0.1244229E-04  0.1990821E+04  0.7818609E-02  0.8610924E-01
        2   -1    0    0  501    0  0.00000000000E+00  0.00000000000E+00  0.12809649554E+04  0.12809649554E+04  0.25500000920E-02 0.  1.
       -2   -1    0    0    0  501  0.00000000000E+00  0.00000000000E+00 -0.77351254649E+03  0.77351254650E+03  0.25500000920E-02 0. -1.
    10030    2    1    2    0    0  0.00000000000E+00  0.00000000000E+00  0.50745240893E+03  0.20544775019E+04  0.19908214030E+04 0.  0.
        5    1    3    3  502    0  0.43552098041E+03 -0.85898291545E+03  0.51334571508E+03  0.10913643235E+04  0.46999998093E+01 0.  1.
       -5    1    3    3    0  502 -0.43552098041E+03  0.85898291545E+03 -0.58933061473E+01  0.96311317843E+03  0.46999998093E+01 0. -1.
</event>
<event>
 5   0  0.1281789E-04  0.2002774E+04  0.7818609E-02  0.8605325E-01
        2   -1    0    0  501    0  0.00000000000E+00  0.00000000000E+00  0.12138328918E+04  0.12138328918E+04  0.25500000920E-02 0. -1.
       -2   -1    0    0    0  501  0.00000000000E+00  0.00000000000E+00 -0.82612345714E+03  0.82612345715E+03  0.25500000920E-02 0.  1.
    10030    2    1    2    0    0  0.00000000000E+00  0.00000000000E+00  0.38770943464E+03  0.20399563489E+04  0.20027739013E+04 0.  0.
        2    1    3    3  502    0 -0.10335954252E+03 -0.63658015242E+03 -0.58643447452E+03  0.87167819659E+03  0.25500000920E-02 0.  1.
       -2    1    3    3    0  502  0.10335954252E+03  0.63658015242E+03  0.97414390917E+03  0.11682781524E+04  0.25500000920E-02 0. -1.
</event>
<event>
 5   0  0.6256535E-05  0.2003837E+04  0.7818609E-02  0.8604829E-01
       -1   -1    0    0    0  501  0.00000000000E+00  0.00000000000E+00  0.16488886478E+04  0.16488886478E+04  0.50400001928E-02 0. -1.
        1   -1    0    0  501    0  0.00000000000E+00  0.00000000000E+00 -0.60879809215E+03  0.60879809217E+03  0.50400001928E-02 0.  1.
    10030    2    1    2    0    0  0.00000000000E+00  0.00000000000E+00  0.10400905556E+04  0.22576867400E+04  0.20038365831E+04 0.  0.
        1    1    3    3  502    0  0.22014528462E+03 -0.26956333843E+03  0.15785940619E+04  0.16165047330E+04  0.50400001928E-02 0. -1.
       -1    1    3    3    0  502 -0.22014528462E+03  0.26956333843E+03 -0.53850350623E+03  0.64118200693E+03  0.50400001928E-02 0.  1.
</event>
<event>
 5   0  0.1281789E-04  0.1997871E+04  0.7818609E-02  0.8607617E-01
        2   -1    0    0  501    0  0.00000000000E+00  0.00000000000E+00  0.88760933975E+03  0.88760933975E+03  0.25500000920E-02 0.  1.
       -2   -1    0    0    0  501  0.00000000000E+00  0.00000000000E+00 -0.11242239209E+04  0.11242239209E+04  0.25500000920E-02 0. -1.
    10030    2    1    2    0    0  0.00000000000E+00  0.00000000000E+00 -0.23661458111E+03  0.20118332606E+04  0.19978705185E+04 0.  0.
        2    1    3    3  502    0  0.84718527021E+03 -0.48359423806E+03 -0.33495124599E+03  0.10313964351E+04  0.25500000920E-02 0.  1.
       -2    1    3    3    0  502 -0.84718527021E+03  0.48359423806E+03  0.98336664885E+02  0.98043682551E+03  0.25500000920E-02 0. -1.
</event>
<event>
 5   0  0.6256535E-05  0.1984772E+04  0.7818609E-02  0.8613773E-01
       -1   -1    0    0    0  501  0.00000000000E+00  0.00000000000E+00  0.92856600966E+03  0.92856600968E+03  0.50400001928E-02 0.  1.
        1   -1    0    0  501    0  0.00000000000E+00  0.00000000000E+00 -0.10605927027E+04  0.10605927027E+04  0.50400001928E-02 0. -1.
    10030    2    1    2    0    0  0.00000000000E+00  0.00000000000E+00 -0.13202669301E+03  0.19891587124E+04  0.19847723636E+04 0.  0.
        1    1    3    3  502    0  0.13687497580E+03  0.96445626901E+03  0.12393038318E+03  0.98197219601E+03  0.50400001928E-02 0.  1.
       -1    1    3    3    0  502 -0.13687497580E+03 -0.96445626901E+03 -0.25595707619E+03  0.10071865164E+04  0.50400001928E-02 0. -1.
</event>
<event>
 5   0  0.6168338E-05  0.1988654E+04  0.7818609E-02  0.8611944E-01
        1   -1    0    0  501    0  0.00000000000E+00  0.00000000000E+00  0.21775311873E+04  0.21775311873E+04  0.50400001928E-02 0.  1.
       -1   -1    0    0    0  501  0.00000000000E+00  0.00000000000E+00 -0.45404003338E+03  0.45404003341E+03  0.50400001928E-02 0. -1.
    10030    2    1    2    0    0  0.00000000000E+00  0.00000000000E+00  0.17234911539E+04  0.26315712207E+04  0.19886541509E+04 0.  0.
        5    1    3    3  502    0  0.10871232687E+03 -0.91558494036E+03  0.13543057274E+04  0.16383773211E+04  0.46999998093E+01 0.  1.
       -5    1    3    3    0  502 -0.10871232687E+03  0.91558494036E+03  0.36918542646E+03  0.99319389956E+03  0.46999998093E+01 0. -1.
</event>
<event>
 5   0  0.1242761E-04  0.2011065E+04  0.7818609E-02  0.8601465E-01
        2   -1    0    0  501    0  0.00000000000E+00  0.00000000000E+00  0.15999483609E+04  0.15999483609E+04  0.25500000920E-02 0. -1.
       -2   -1    0    0    0  501  0.00000000000E+00  0.00000000000E+00 -0.63195529500E+03  0.63195529500E+03  0.25500000920E-02 0.  1.
    10030    2    1    2    0    0  0.00000000000E+00  0.00000000000E+00  0.96799306590E+03  0.22319036559E+04  0.20110652286E+04 0.  0.
        4    1    3    3  502    0  0.74839716487E+03 -0.39820508794E+01  0.12292910956E+04  0.14391915730E+04  0.12699999809E+01 0. -1.
       -4    1    3    3    0  502 -0.74839716487E+03  0.39820508794E+01 -0.26129802974E+03  0.79271208289E+03  0.12699999809E+01 0.  1.
</event>
<event>
 5   0  0.6214547E-05  0.2006406E+04  0.7818609E-02  0.8603632E-01
        1   -1    0    0  501    0  0.00000000000E+00  0.00000000000E+00  0.20436133758E+04  0.20436133758E+04  0.50400001928E-02 0.  1.
       -1   -1    0    0    0  501  0.00000000000E+00  0.00000000000E+00 -0.49246877178E+03  0.49246877180E+03  0.50400001928E-02 0. -1.
    10030    2    1    2    0    0  0.00000000000E+00  0.00000000000E+00  0.15511446040E+04  0.25360821476E+04  0.20064055115E+04 0.  0.
        3    1    3    3  502    0 -0.95677125927E+03 -0.56915632169E+02  0.40111215958E+03  0.10390099165E+04  0.10100000352E+00 0. -1.
       -3    1    3    3    0  502  0.95677125927E+03  0.56915632169E+02  0.11500324444E+04  0.14970722311E+04  0.10100000352E+00 0.  1.
</event>
<event>
 5   0  0.4479000E-05  0.2015781E+04  0.7818609E-02  0.8599278E-01
        3   -1    0    0  501    0  0.00000000000E+00  0.00000000000E+00  0.16088168512E+04  0.16088168543E+04  0.10100000352E+00 0. -1.
       -3   -1    0    0    0  501  0.00000000000E+00  0.00000000000E+00 -0.63142278815E+03  0.63142279623E+03  0.10100000352E+00 0.  1.
    10030    2    1    2    0    0  0.00000000000E+00  0.00000000000E+00  0.97739406300E+03  0.22402396506E+04  0.20157813715E+04 0.  0.
        5    1    3    3  502    0 -0.70642479966E+03  0.57883218113E+03  0.14918973449E+02  0.91341521624E+03  0.46999998093E+01 0.  1.
       -5    1    3    3    0  502  0.70642479966E+03 -0.57883218113E+03  0.96247508955E+03  0.13268244343E+04  0.46999998093E+01 0. -1.
</event>
<event>
 5   0  0.6256535E-05  0.1989581E+04  0.7818609E-02  0.8611507E-01
        1   -1    0    0  501    0  0.00000000000E+00  0.00000000000E+00  0.11392532442E+04  0.11392532442E+04  0.50400001928E-02 0. -1.
       -1   -1    0    0    0  501  0.00000000000E+00  0.00000000000E+00 -0.86864661704E+03  0.86864661706E+03  0.50400001928E-02 0.  1.
    10030    2    1    2    0    0  0.00000000000E+00  0.00000000000E+00  0.27060662715E+03  0.20078998613E+04  0.19895813394E+04 0.  0.
        1    1    3    3  502    0  0.17963745398E+02  0.42816656733E+03  0.10413214086E+04  0.11260548750E+04  0.50400001928E-02 0. -1.
       -1    1    3    3    0  502 -0.17963745398E+02 -0.42816656733E+03 -0.77071478140E+03  0.88184498628E+03  0.50400001928E-02 0.  1.
</event>
<event>
 5   0  0.6222733E-05  0.2005748E+04  0.7818609E-02  0.8603938E-01
       -1   -1    0    0    0  501  0.00000000000E+00  0.00000000000E+00  0.49453876128E+03  0.49453876130E+03  0.50400001928E-02 0. -1.
        1   -1    0    0  501    0  0.00000000000E+00  0.00000000000E+00 -0.20337264498E+04  0.20337264498E+04  0.50400001928E-02 0.  1.
    10030    2    1    2    0    0  0.00000000000E+00  0.00000000000E+00 -0.15391876885E+04  0.25282652111E+04  0.20057482985E+04 0.  0.
        2    1    3    3  502    0  0.47531102944E+03  0.64682307157E+03 -0.15274274406E+04  0.17254956526E+04  0.25500000920E-02 0.  1.
       -2    1    3    3    0  502 -0.47531102944E+03 -0.64682307157E+03 -0.11760247850E+02  0.80276955850E+03  0.25500000920E-02 0. -1.
</event>
<event>
 5   0  0.6028501E-05  0.2004210E+04  0.7818609E-02  0.8604655E-01
       -1   -1    0    0    0  501  0.00000000000E+00  0.00000000000E+00  0.77422296306E+03  0.77422296307E+03  0.50400001928E-02 0.  1.
        1   -1    0    0  501    0  0.00000000000E+00  0.00000000000E+00 -0.12970615129E+04  0.12970615130E+04  0.50400001928E-02 0. -1.
    10030    2    1    2    0    0  0.00000000000E+00  0.00000000000E+00 -0.52283854989E+03  0.20712844760E+04  0.20042103760E+04 0.  0.
        4    1    3    3  502    0 -0.76187367668E+02 -0.65495197449E+03  0.51845203322E+03  0.83878526903E+03  0.12699999809E+01 0.  1.
       -4    1    3    3    0  502  0.76187367668E+02  0.65495197449E+03 -0.10412905831E+04  0.12324992070E+04  0.12699999809E+01 0. -1.
</event>
<event>
 5   0  0.4479000E-05  0.2010244E+04  0.7818609E-02  0.8601846E-01
       -3   -1    0    0    0  501  0.00000000000E+00  0.00000000000E+00  0.17577792845E+04  0.17577792874E+04  0.10100000352E+00 0. -1.
        3   -1    0    0  501    0  0.00000000000E+00  0.00000000000E+00 -0.57474227443E+03  0.57474228331E+03  0.10100000352E+00 0.  1.
    10030    2    1    2    0    0  0.00000000000E+00  0.00000000000E+00  0.11830370101E+04  0.23325215707E+04  0.20102438436E+04 0.  0.
        4    1    3    3  502    0  0.93927229177E+03  0.25380976550E+03  0.29885925441E+03  0.10178262632E+04  0.12699999809E+01 0. -1.
       -4    1    3    3    0  502 -0.93927229177E+03 -0.25380976550E+03  0.88417775564E+03  0.13146953075E+04  0.12699999809E+01 0.  1.
</event>
<event>
 5   0  0.1274868E-04  0.1966233E+04  0.7818609E-02  0.8622573E-01
        2   -1    0    0  501    0  0.00000000000E+00  0.00000000000E+00  0.90561787194E+03  0.90561787195E+03  0.25500000920E-02 0.  1.
       -2   -1    0    0    0  501  0.00000000000E+00  0.00000000000E+00 -0.10672467724E+04  0.10672467724E+04  0.25500000920E-02 0. -1.
    10030    2    1    2    0    0  0.00000000000E+00  0.00000000000E+00 -0.16162890041E+03  0.19728646443E+04  0.19662326931E+04 0.  0.
        1    1    3    3  502    0 -0.50726477589E+03  0.78061755701E+03 -0.39784921891E+03  0.10124057113E+04  0.50400001928E-02 0. -1.
       -1    1    3    3    0  502  0.50726477589E+03 -0.78061755701E+03  0.23622031850E+03  0.96045893305E+03  0.50400001928E-02 0.  1.
</event>
<event>
 5   0  0.6222733E-05  0.1995846E+04  0.7818609E-02  0.8608565E-01
        1   -1    0    0  501    0  0.00000000000E+00  0.00000000000E+00  0.13368656644E+04  0.13368656644E+04  0.50400001928E-02 0.  1.
       -1   -1    0    0    0  501  0.00000000000E+00  0.00000000000E+00 -0.74491416743E+03  0.74491416745E+03  0.50400001928E-02 0. -1.
    10030    2    1    2    0    0  0.00000000000E+00  0.00000000000E+00  0.59195149695E+03  0.20817798318E+04  0.19958458592E+04 0.  0.
        2    1    3    3  502    0  0.21952753041E+02 -0.85131488643E+03 -0.24664543277E+03  0.88659626027E+03  0.25500000920E-02 0. -1.
       -2    1    3    3    0  502 -0.21952753041E+02  0.85131488643E+03  0.83859692972E+03  0.11951835716E+04  0.25500000920E-02 0.  1.
</event>
<event>
 5   0  0.1159914E-04  0.1993591E+04  0.7818609E-02  0.8609623E-01
        2   -1    0    0  501    0  0.00000000000E+00  0.00000000000E+00  0.68098868158E+03  0.68098868158E+03  0.25500000920E-02 0.  1.
       -2   -1    0    0    0  501  0.00000000000E+00  0.00000000000E+00 -0.14590571535E+04  0.14590571535E+04  0.25500000920E-02 0. -1.
    10030    2    1    2    0    0  0.00000000000E+00  0.00000000000E+00 -0.77806847195E+03  0.21400458351E+04  0.19935911390E+04 0.  0.
        3    1    3    3  502    0 -0.10011183806E+03  0.72465529174E+02  0.67273263327E+03  0.68399037939E+03  0.10100000352E+00 0.  1.
       -3    1    3    3    0  502  0.10011183806E+03 -0.72465529174E+02 -0.14508011052E+04  0.14560554557E+04  0.10100000352E+00 0. -1.
</event>
<event>
 5   0  0.6028501E-05  0.1997654E+04  0.7818609E-02  0.8607718E-01
       -1   -1    0    0    0  501  0.00000000000E+00  0.00000000000E+00  0.84553948249E+03  0.84553948250E+03  0.50400001928E-02 0.  1.
        1   -1    0    0  501    0  0.00000000000E+00  0.00000000000E+00 -0.11799043269E+04  0.11799043269E+04  0.50400001928E-02 0. -1.
    10030    2    1    2    0    0  0.00000000000E+00  0.00000000000E+00 -0.33436484437E+03  0.20254438094E+04  0.19976543184E+04 0.  0.
        4    1    3    3  502    0  0.70348791445E+03  0.88162132678E+02  0.54615735004E+03  0.89496216194E+03  0.12699999809E+01 0.  1.
       -4    1    3    3    0  502 -0.70348791445E+03 -0.88162132678E+02 -0.88052219441E+03  0.11304816474E+04  0.12699999809E+01 0. -1.
</event>
<event>
 5   0  0.1274868E-04  0.2019147E+04  0.7818609E-02  0.8597721E-01
       -2   -1    0    0    0  501  0.00000000000E+00  0.00000000000E+00  0.97893965251E+03  0.97893965251E+03  0.25500000920E-02 0. -1.
        2   -1    0    0  501    0  0.00000000000E+00  0.00000000000E+00 -0.10411663635E+04  0.10411663635E+04  0.25500000920E-02 0.  1.
    10030    2    1    2    0    0  0.00000000000E+00  0.00000000000E+00 -0.62226711028E+02  0.20201060161E+04  0.20191473826E+04 0.  0.
        1    1    3    3  502    0  0.61629841378E+03 -0.16698703472E+03  0.75126215912E+03  0.98595295849E+03  0.50400001928E-02 0. -1.
       -1    1    3    3    0  502 -0.61629841378E+03  0.16698703472E+03 -0.81348887015E+03  0.10341530576E+04  0.50400001928E-02 0.  1.
</event>
<event>
 5   0  0.6214547E-05  0.1994633E+04  0.7818609E-02  0.8609134E-01
        1   -1    0    0  501    0  0.00000000000E+00  0.00000000000E+00  0.22150546005E+04  0.22150546005E+04  0.50400001928E-02 0.  1.
       -1   -1    0    0    0  501  0.00000000000E+00  0.00000000000E+00 -0.44903639307E+03  0.44903639309E+03  0.50400001928E-02 0. -1.
    10030    2    1    2    0    0  0.00000000000E+00  0.00000000000E+00  0.17660182075E+04  0.26640909936E+04  0.19946329269E+04 0.  0.
        3    1    3    3  502    0 -0.21896139399E+03  0.30940429397E+03  0.21150976538E+04  0.21487934299E+04  0.10100000352E+00 0.  1.
       -3    1    3    3    0  502  0.21896139399E+03 -0.30940429397E+03 -0.34907944629E+03  0.51529756375E+03  0.10100000352E+00 0. -1.
</event>
<event>
 5   0  0.1242761E-04  0.2018396E+04  0.7818609E-02  0.8598068E-01
        2   -1    0    0  501    0  0.00000000000E+00  0.00000000000E+00  0.51183617368E+03  0.51183617369E+03  0.25500000920E-02 0.  1.
       -2   -1    0    0    0  501  0.00000000000E+00  0.00000000000E+00 -0.19898574173E+04  0.19898574173E+04  0.25500000920E-02 0. -1.
    10030    2    1    2    0    0  0.00000000000E+00  0.00000000000E+00 -0.14780212436E+04  0.25016935909E+04  0.20183963998E+04 0.  0.
        4    1    3    3  502    0 -0.57502099405E+03  0.52175205423E+03  0.60028526946E+02  0.77876786441E+03  0.12699999809E+01 0.  1.
       -4    1    3    3    0  502  0.57502099405E+03 -0.52175205423E+03 -0.15380497705E+04  0.17229257265E+04  0.12699999809E+01 0. -1.
</event>
<event>
 5   0  0.1242761E-04  0.1938725E+04  0.7818609E-02  0.8635817E-01
        2   -1    0    0  501    0  0.00000000000E+00  0.00000000000E+00  0.15680954535E+04  0.15680954535E+04  0.25500000920E-02 0.  1.
       -2   -1    0    0    0  501  0.00000000000E+00  0.00000000000E+00 -0.59923865917E+03  0.59923865917E+03  0.25500000920E-02 0. -1.
    10030    2    1    2    0    0  0.00000000000E+00  0.00000000000E+00  0.96885679436E+03  0.21673341127E+04  0.19387247531E+04 0.  0.
        4    1    3    3  502    0 -0.18253233519E+03  0.79466631489E+03 -0.10165166705E+03  0.82167346296E+03  0.12699999809E+01 0. -1.
       -4    1    3    3    0  502  0.18253233519E+03 -0.79466631489E+03  0.10705084614E+04  0.13456606497E+04  0.12699999809E+01 0.  1.
</event>
<event>
 5   0  0.1244229E-04  0.2029995E+04  0.7818609E-02  0.8592724E-01
       -2   -1    0    0    0  501  0.00000000000E+00  0.00000000000E+00  0.12499386143E+04  0.12499386143E+04  0.25500000920E-02 0.  1.
        2   -1    0    0  501    0  0.00000000000E+00  0.00000000000E+00 -0.82421617126E+03  0.82421617126E+03  0.25500000920E-02 0. -1.
    10030    2    1    2    0    0  0.00000000000E+00  0.00000000000E+00  0.42572244309E+03  0.20741547856E+04  0.20299946985E+04 0.  0.
        5    1    3    3  502    0 -0.11332820213E+03 -0.18691159766E+02 -0.81754335588E+03  0.82558577361E+03  0.46999998093E+01 0. -1.
       -5    1    3    3    0  502  0.11332820213E+03  0.18691159766E+02  0.12432657990E+04  0.12485690120E+04  0.46999998093E+01 0.  1.
</event>
<event>
 5   0  0.1281789E-04  0.1983032E+04  0.7818609E-02  0.8614595E-01
        2   -1    0    0  501    0  0.00000000000E+00  0.00000000000E+00  0.18264755543E+04  0.18264755543E+04  0.25500000920E-02 0.  1.
       -2   -1    0    0    0  501  0.00000000000E+00  0.00000000000E+00 -0.53825201906E+03  0.53825201906E+03  0.25500000920E-02 0. -1.
    10030    2    1    2    0    0  0.00000000000E+00  0.00000000000E+00  0.12882235352E+04  0.23647275733E+04  0.19830321781E+04 0.  0.
        2    1    3    3  502    0 -0.62876788237E+03 -0.83813585250E+02 -0.26462610880E+03  0.68731415266E+03  0.25500000920E-02 0. -1.
       -2    1    3    3    0  502  0.62876788237E+03  0.83813585250E+02  0.15528496440E+04  0.16774134207E+04  0.25500000920E-02 0.  1.
</event>
<event>
 5   0  0.1159914E-04  0.1998571E+04  0.7818609E-02  0.8607289E-01
        2   -1    0    0  501    0  0.00000000000E+00  0.00000000000E+00  0.82878196519E+03  0.82878196520E+03  0.25500000920E-02 0.  1.
       -2   -1    0    0    0  501  0.00000000000E+00  0.00000000000E+00 -0.12048663501E+04  0.12048663501E+04  0.25500000920E-02 0. -1.
    10030    2    1    2    0    0  0.00000000000E+00  0.00000000000E+00 -0.37608438494E+03  0.20336483153E+04  0.19985709909E+04 0.  0.
        3    1    3    3  502    0 -0.64413725016E+03 -0.82107173115E+02 -0.96092381384E+03  0.11597538407E+04  0.10100000352E+00 0. -1.
       -3    1    3    3    0  502  0.64413725016E+03  0.82107173115E+02  0.58483942890E+03  0.87389447459E+03  0.10100000352E+00 0.  1.
</event>
<event>
 5   0  0.1159914E-04  0.2012479E+04  0.7818609E-02  0.8600808E-01
        2   -1    0    0  501    0  0.00000000000E+00  0.00000000000E+00  0.11685479407E+04  0.11685479407E+04  0.25500000920E-02 0. -1.
       -2   -1    0    0    0  501  0.00000000000E+00  0.00000000000E+00 -0.86647549577E+03  0.86647549577E+03  0.25500000920E-02 0.  1.
    10030    2    1    2    0    0  0.00000000000E+00  0.00000000000E+00  0.30207244496E+03  0.20350234365E+04  0.20124792235E+04 0.  0.
        3    1    3    3  502    0  0.28464272319E+03 -0.75904982599E+03 -0.45174550076E+03  0.92803670501E+03  0.10100000352E+00 0.  1.
       -3    1    3    3    0  502 -0.28464272319E+03  0.75904982599E+03  0.75381794572E+03  0.11069867315E+04  0.10100000352E+00 0. -1.
</event>
<event>
 5   0  0.1281789E-04  0.2011203E+04  0.7818609E-02  0.8601401E-01
       -2   -1    0    0    0  501  0.00000000000E+00  0.00000000000E+00  0.10334576178E+04  0.10334576178E+04  0.25500000920E-02 0. -1.
        2   -1    0    0  501    0  0.00000000000E+00  0.00000000000E+00 -0.97849600394E+03  0.97849600395E+03  0.25500000920E-02 0.  1.
    10030    2    1    2    0    0  0.00000000000E+00  0.00000000000E+00  0.54961613882E+02  0.20119536218E+04  0.20112027738E+04 0.  0.
        2    1    3    3  502    0 -0.83175348839E+02  0.80664464679E+03  0.62237955873E+03  0.10222279785E+04  0.25500000920E-02 0. -1.
       -2    1    3    3    0  502  0.83175348839E+02 -0.80664464679E+03 -0.56741794485E+03  0.98972564329E+03  0.25500000920E-02 0.  1.
</event>
<event>
 5   0  0.1244229E-04  0.1983041E+04  0.7818609E-02  0.8614591E-01
        2   -1    0    0  501    0  0.00000000000E+00  0.00000000000E+00  0.17659530139E+04  0.17659530139E+04  0.25500000920E-02 0. -1.
       -2   -1    0    0    0  501  0.00000000000E+00  0.00000000000E+00 -0.55670371337E+03  0.55670371337E+03  0.25500000920E-02 0.  1.
    10030    2    1    2    0    0  0.00000000000E+00  0.00000000000E+00  0.12092493005E+04  0.23226567273E+04  0.19830406960E+04 0.  0.
        5    1    3    3  502    0 -0.58071935109E+03 -0.64913730970E+03  0.49694081998E+02  0.87241377990E+03  0.46999998093E+01 0.  1.
       -5    1    3    3    0  502  0.58071935109E+03  0.64913730970E+03  0.11595552185E+04  0.14502429474E+04  0.46999998093E+01 0. -1.
</event>
<event>
 5   0  0.1159914E-04  0.2003515E+04  0.7818609E-02  0.8604979E-01
       -2   -1    0    0    0  501  0.00000000000E+00  0.00000000000E+00  0.53473989696E+03  0.53473989697E+03  0.25500000920E-02 0.  1.
        2   -1    0    0  501    0  0.00000000000E+00  0.00000000000E+00 -0.18766479394E+04  0.18766479394E+04  0.25500000920E-02 0. -1.
    10030    2    1    2    0    0  0.00000000000E+00  0.00000000000E+00 -0.13419080424E+04  0.24113878363E+04  0.20035154362E+04 0.  0.
        3    1    3    3  502    0  0.65723840809E+03  0.12407893368E+03  0.22662870469E+03  0.70620003317E+03  0.10100000352E+00 0.  1.
       -3    1    3    3    0  502 -0.65723840809E+03 -0.12407893368E+03 -0.15685367471E+04  0.17051878032E+04  0.10100000352E+00 0. -1.
</event>
<event>
 5   0  0.6028501E-05  0.1995639E+04  0.7818609E-02  0.8608662E-01
        1   -1    0    0  501    0  0.00000000000E+00  0.00000000000E+00  0.18460456150E+04  0.18460456150E+04  0.50400001928E-02 0.  1.
       -1   -1    0    0    0  501  0.00000000000E+00  0.00000000000E+00 -0.53933884391E+03  0.53933884393E+03  0.50400001928E-02 0. -1.
    10030    2    1    2    0    0  0.00000000000E+00  0.00000000000E+00  0.13067067711E+04  0.23853844589E+04  0.19956393540E+04 0.  0.
        4    1    3    3  502    0  0.94378000776E+03  0.19674771833E+03  0.34578258985E+03  0.10242058290E+04  0.12699999809E+01 0.  1.
       -4    1    3    3    0  502 -0.94378000776E+03 -0.19674771833E+03  0.96092418123E+03  0.13611786300E+04  0.12699999809E+01 0. -1.
</event>
<event>
 5   0  0.1274868E-04  0.2015957E+04  0.7818609E-02  0.8599196E-01
       -2   -1    0    0    0  501  0.00000000000E+00  0.00000000000E+00  0.10156246857E+04  0.10156246857E+04  0.25500000920E-02 0. -1.
        2   -1    0    0  501    0  0.00000000000E+00  0.00000000000E+00 -0.10003899581E+04  0.10003899581E+04  0.25500000920E-02 0.  1.
    10030    2    1    2    0    0  0.00000000000E+00  0.00000000000E+00  0.15234727599E+02  0.20160146437E+04  0.20159570796E+04 0.  0.
        1    1    3    3  502    0 -0.70392235653E+03 -0.69623481405E+03  0.19675535371E+03  0.10094366100E+04  0.50400001928E-02 0. -1.
       -1    1    3    3    0  502  0.70392235653E+03  0.69623481405E+03 -0.18152062611E+03  0.10065780338E+04  0.50400001928E-02 0.  1.
</event>
<event>
 5   0  0.1281789E-04  0.2045027E+04  0.7818609E-02  0.8585854E-01
       -2   -1    0    0    0  501  0.00000000000E+00  0.00000000000E+00  0.48059499842E+03  0.48059499843E+03  0.25500000920E-02 0.  1.
        2   -1    0    0  501    0  0.00000000000E+00  0.00000000000E+00 -0.21754978117E+04  0.21754978117E+04  0.25500000920E-02 0. -1.
    10030    2    1    2    0    0  0.00000000000E+00  0.00000000000E+00 -0.16949028133E+04  0.26560928101E+04  0.20450265205E+04 0.  0.
        2    1    3    3  502    0  0.74149557678E+03 -0.65274610055E+02 -0.17579662314E+04  0.19090630518E+04  0.25500000920E-02 0. -1.
       -2    1    3    3    0  502 -0.74149557678E+03  0.65274610055E+02  0.63063418111E+02  0.74702975832E+03  0.25500000920E-02 0.  1.
</event>
<event>
 5   0  0.6222733E-05  0.1975986E+04  0.7818609E-02  0.8617931E-01
       -1   -1    0    0    0  501  0.00000000000E+00  0.00000000000E+00  0.16265123012E+04  0.16265123012E+04  0.50400001928E-02 0.  1.
        1   -1    0    0  501    0  0.00000000000E+00  0.00000000000E+00 -0.60013699386E+03  0.60013699389E+03  0.50400001928E-02 0. -1.
    10030    2    1    2    0    0  0.00000000000E+00  0.00000000000E+00  0.10263753073E+04  0.22266492951E+04  0.19759860353E+04 0.  0.
        2    1    3    3  502    0  0.47476721557E+03  0.60214977867E+03 -0.18885457060E+03  0.78971786974E+03  0.25500000920E-02 0.  1.
       -2    1    3    3    0  502 -0.47476721557E+03 -0.60214977867E+03  0.12152298779E+04  0.14369314253E+04  0.25500000920E-02 0. -1.
</event>
<event>
 5   0  0.1244229E-04  0.2024926E+04  0.7818609E-02  0.8595055E-01
        2   -1    0    0  501    0  0.00000000000E+00  0.00000000000E+00  0.13427440241E+04  0.13427440241E+04  0.25500000920E-02 0. -1.
       -2   -1    0    0    0  501  0.00000000000E+00  0.00000000000E+00 -0.76342309430E+03  0.76342309431E+03  0.25500000920E-02 0.  1.
    10030    2    1    2    0    0  0.00000000000E+00  0.00000000000E+00  0.57932092977E+03  0.21061671184E+04  0.20249264656E+04 0.  0.
        5    1    3    3  502    0  0.98348408617E+03  0.74392362549E+02  0.51828511831E+02  0.98766566003E+03  0.46999998093E+01 0.  1.
       -5    1    3    3    0  502 -0.98348408617E+03 -0.74392362549E+02  0.52749241794E+03  0.11185014584E+04  0.46999998093E+01 0. -1.
</event>
<event>
 5   0  0.6214547E-05  0.1855556E+04  0.7818609E-02  0.8677301E-01
       -1   -1    0    0    0  501  0.00000000000E+00  0.00000000000E+00  0.12179404245E+04  0.12179404245E+04  0.50400001928E-02 0. -1.
        1   -1    0    0  501    0  0.00000000000E+00  0.00000000000E+00 -0.70674387086E+03  0.70674387088E+03  0.50400001928E-02 0.  1.
    10030    2    1    2    0    0  0.00000000000E+00  0.00000000000E+00  0.51119655363E+03  0.19246842954E+04  0.18555559060E+04 0.  0.
        3    1    3    3  502    0  0.30779478405E+03  0.10103589730E+03 -0.64617296995E+03  0.72283151490E+03  0.10100000352E+00 0.  1.
       -3    1    3    3    0  502 -0.30779478405E+03 -0.10103589730E+03  0.11573695236E+04  0.12018527805E+04  0.10100000352E+00 0. -1.
</event>
<event>
 5   0  0.6214547E-05  0.1984246E+04  0.7818609E-02  0.8614022E-01
        1   -1    0    0  501    0  0.00000000000E+00  0.00000000000E+00  0.13627109443E+04  0.13627109443E+04  0.50400001928E-02 0. -1.
       -1   -1    0    0    0  501  0.00000000000E+00  0.00000000000E+00 -0.72231638422E+03  0.72231638424E+03  0.50400001928E-02 0.  1.
    10030    2    1    2    0    0  0.00000000000E+00  0.00000000000E+00  0.64039456006E+03  0.20850273285E+04  0.19842463980E+04 0.  0.
        3    1    3    3  502    0  0.97156264392E+03 -0.20001858019E+03  0.30006625165E+03  0.10363306273E+04  0.10100000352E+00 0. -1.
       -3    1    3    3    0  502 -0.97156264392E+03  0.20001858019E+03  0.34032830841E+03  0.10486967012E+04  0.10100000352E+00 0.  1.
</event>
<event>
 5   0  0.6028501E-05  0.1974844E+04  0.7818609E-02  0.8618473E-01
        1   -1    0    0  501    0  0.00000000000E+00  0.00000000000E+00  0.88105892739E+03  0.88105892740E+03  0.50400001928E-02 0.  1.
       -1   -1    0    0    0  501  0.00000000000E+00  0.00000000000E+00 -0.11066256364E+04  0.11066256364E+04  0.50400001928E-02 0. -1.
    10030    2    1    2    0    0  0.00000000000E+00  0.00000000000E+00 -0.22556670899E+03  0.19876845638E+04  0.19748441926E+04 0.  0.
        4    1    3    3  502    0 -0.49525179735E+03 -0.26602973241E+03  0.70425488314E+03  0.90112302968E+03  0.12699999809E+01 0.  1.
       -4    1    3    3    0  502  0.49525179735E+03  0.26602973241E+03 -0.92982159213E+03  0.10865615341E+04  0.12699999809E+01 0. -1.
</event>
<event>
 5   0  0.1242761E-04  0.1984222E+04  0.7818609E-02  0.8614033E-01
        2   -1    0    0  501    0  0.00000000000E+00  0.00000000000E+00  0.95766258508E+03  0.95766258509E+03  0.25500000920E-02 0. -1.
       -2   -1    0    0    0  501  0.00000000000E+00  0.00000000000E+00 -0.10277984988E+04  0.10277984988E+04  0.25500000920E-02 0.  1.
    10030    2    1    2    0    0  0.00000000000E+00  0.00000000000E+00 -0.70135913714E+02  0.19854610839E+04  0.19842219304E+04 0.  0.
        4    1    3    3  502    0  0.22123262064E+03  0.16262262873E+03  0.91888598865E+03  0.95903235861E+03  0.12699999809E+01 0. -1.
       -4    1    3    3    0  502 -0.22123262064E+03 -0.16262262873E+03 -0.98902190237E+03  0.10264287253E+04  0.12699999809E+01 0.  1.
</event>
<event>
 5   0  0.1281789E-04  0.2042466E+04  0.7818609E-02  0.8587020E-01
       -2   -1    0    0    0  501  0.00000000000E+00  0.00000000000E+00  0.17295331762E+04  0.17295331762E+04  0.25500000920E-02 0. -1.
        2   -1    0    0  501    0  0.00000000000E+00  0.00000000000E+00 -0.60300454323E+03  0.60300454324E+03  0.25500000920E-02 0.  1.
    10030    2    1    2    0    0  0.00000000000E+00  0.00000000000E+00  0.11265286330E+04  0.23325377195E+04  0.20424655326E+04 0.  0.
        2    1    3    3  502    0 -0.21212772847E+03  0.55437571754E+02  0.17023374812E+04  0.17163986709E+04  0.25500000920E-02 0. -1.
       -2    1    3    3    0  502  0.21212772847E+03 -0.55437571754E+02 -0.57580884818E+03  0.61613904859E+03  0.25500000920E-02 0.  1.
</event>
<event>
 5   0  0.1242761E-04  0.1988813E+04  0.7818609E-02  0.8611869E-01
        2   -1    0    0  501    0  0.00000000000E+00  0.00000000000E+00  0.12961965937E+04  0.12961965937E+04  0.25500000920E-02 0.  1.
       -2   -1    0    0    0  501  0.00000000000E+00  0.00000000000E+00 -0.76288106715E+03  0.76288106715E+03  0.25500000920E-02 0. -1.
    10030    2    1    2    0    0  0.00000000000E+00  0.00000000000E+00  0.53331552659E+03  0.20590776609E+04  0.19888125509E+04 0.  0.
        4    1    3    3  502    0 -0.64843717718E+03  0.74719335870E+03  0.16274475291E+03  0.10026246334E+04  0.12699999809E+01 0. -1.
       -4    1    3    3    0  502  0.64843717718E+03 -0.74719335870E+03  0.37057077368E+03  0.10564530275E+04  0.12699999809E+01 0.  1.
</event>
<event>
 5   0  0.1274868E-04  0.2011915E+04  0.7818609E-02  0.8601070E-01
        2   -1    0    0  501    0  0.00000000000E+00  0.00000000000E+00  0.13743654668E+04  0.13743654668E+04  0.25500000920E-02 0. -1.
       -2   -1    0    0    0  501  0.00000000000E+00  0.00000000000E+00 -0.73630372240E+03  0.73630372240E+03  0.25500000920E-02 0.  1.
    10030    2    1    2    0    0  0.00000000000E+00  0.00000000000E+00  0.63806174445E+03  0.21106691893E+04  0.20119149179E+04 0.  0.
        1    1    3    3  502    0  0.99956018302E+03  0.66512026941E+02  0.41521540749E+03  0.10844114735E+04  0.50400001928E-02 0. -1.
       -1    1    3    3    0  502 -0.99956018302E+03 -0.66512026941E+02  0.22284633695E+03  0.10262577157E+04  0.50400001928E-02 0.  1.
</event>
<event>
 5   0  0.1159914E-04  0.2038658E+04  0.7818609E-02  0.8588757E-01
       -2   -1    0    0    0  501  0.00000000000E+00  0.00000000000E+00  0.45759920614E+03  0.45759920615E+03  0.25500000920E-02 0.  1.
        2   -1    0    0  501    0  0.00000000000E+00  0.00000000000E+00 -0.22706147477E+04  0.22706147477E+04  0.25500000920E-02 0. -1.
    10030    2    1    2    0    0  0.00000000000E+00  0.00000000000E+00 -0.18130155416E+04  0.27282139538E+04  0.20386578977E+04 0.  0.
        3    1    3    3  502    0  0.70156237835E+03 -0.16498071982E+03 -0.18711767014E+04  0.20051709819E+04  0.10100000352E+00 0. -1.
       -3    1    3    3    0  502 -0.70156237835E+03  0.16498071982E+03  0.58161159795E+02  0.72304297198E+03  0.10100000352E+00 0.  1.
</event>
<event>
 5   0  0.6256535E-05  0.1991127E+04  0.7818609E-02  0.8610780E-01
        1   -1    0    0  501    0  0.00000000000E+00  0.00000000000E+00  0.88735139393E+03  0.88735139394E+03  0.50400001928E-02 0. -1.
       -1   -1    0    0    0  501  0.00000000000E+00  0.00000000000E+00 -0.11169725506E+04  0.11169725506E+04  0.50400001928E-02 0.  1.
    10030    2    1    2    0    0  0.00000000000E+00  0.00000000000E+00 -0.22962115670E+03  0.20043239446E+04  0.19911274693E+04 0.  0.
        1    1    3    3  502    0  0.95686237736E+03 -0.12147249206E+03  0.13341239669E+03  0.97372482928E+03  0.50400001928E-02 0.  1.
       -1    1    3    3    0  502 -0.95686237736E+03  0.12147249206E+03 -0.36303355339E+03  0.10305991153E+04  0.50400001928E-02 0. -1.
</event>
<event>
 5   0  0.1281789E-04  0.1993197E+04  0.7818609E-02  0.8609808E-01
       -2   -1    0    0    0  501  0.00000000000E+00  0.00000000000E+00  0.75250200004E+03  0.75250200004E+03  0.25500000920E-02 0. -1.
        2   -1    0    0  501    0  0.00000000000E+00  0.00000000000E+00 -0.13198747892E+04  0.13198747892E+04  0.25500000920E-02 0.  1.
    10030    2    1    2    0    0  0.00000000000E+00  0.00000000000E+00 -0.56737278917E+03  0.20723767893E+04  0.19931968480E+04 0.  0.
        2    1    3    3  502    0  0.47511374926E+03 -0.86326702263E+03 -0.43876023960E+03  0.10786443227E+04  0.25500000920E-02 0.  1.
       -2    1    3    3    0  502 -0.47511374926E+03  0.86326702263E+03 -0.12861254957E+03  0.99373246652E+03  0.25500000920E-02 0. -1.
</event>
<event>
 5   0  0.6222733E-05  0.2032344E+04  0.7818609E-02  0.8591646E-01
       -1   -1    0    0    0  501  0.00000000000E+00  0.00000000000E+00  0.61530362025E+03  0.61530362027E+03  0.50400001928E-02 0.  1.
        1   -1    0    0  501    0  0.00000000000E+00  0.00000000000E+00 -0.16782043685E+04  0.16782043685E+04  0.50400001928E-02 0. -1.
    10030    2    1    2    0    0  0.00000000000E+00  0.00000000000E+00 -0.10629007483E+04  0.22935079888E+04  0.20323436948E+04 0.  0.
        2    1    3    3  502    0  0.79092553009E+03 -0.34564396826E+03 -0.11366192870E+04  0.14272127909E+04  0.25500000920E-02 0. -1.
       -2    1    3    3    0  502 -0.79092553009E+03  0.34564396826E+03  0.73718538714E+02  0.86629519790E+03  0.25500000920E-02 0.  1.
</event>
<event>
 5   0  0.1242761E-04  0.1997798E+04  0.7818609E-02  0.8607651E-01
       -2   -1    0    0    0  501  0.00000000000E+00  0.00000000000E+00  0.96973082082E+03  0.96973082082E+03  0.25500000920E-02 0.  1.
        2   -1    0    0  501    0  0.00000000000E+00  0.00000000000E+00 -0.10289442415E+04  0.10289442415E+04  0.25500000920E-02 0. -1.
    10030    2    1    2    0    0  0.00000000000E+00  0.00000000000E+00 -0.59213420674E+02  0.19986750623E+04  0.19977977314E+04 0.  0.
        4    1    3    3  502    0  0.69123684054E+03 -0.67988132860E+03  0.21081182771E+03  0.99221481056E+03  0.12699999809E+01 0. -1.
       -4    1    3    3    0  502 -0.69123684054E+03  0.67988132860E+03 -0.27002524838E+03  0.10064602518E+04  0.12699999809E+01 0.  1.
</event>
<event>
 5   0  0.1242761E-04  0.2003792E+04  0.7818609E-02  0.8604850E-01
        2   -1    0    0  501    0  0.00000000000E+00  0.00000000000E+00  0.19402799521E+04  0.19402799521E+04  0.25500000920E-02 0.  1.
       -2   -1    0    0    0  501  0.00000000000E+00  0.00000000000E+00 -0.51734580143E+03  0.51734580143E+03  0.25500000920E-02 0. -1.
    10030    2    1    2    0    0  0.00000000000E+00  0.00000000000E+00  0.14229341506E+04  0.24576257535E+04  0.20037920918E+04 0.  0.
        4    1    3    3  502    0  0.46549435790E+03 -0.70832761839E+03  0.56264394455E+02  0.84945883195E+03  0.12699999809E+01 0. -1.
       -4    1    3    3    0  502 -0.46549435790E+03  0.70832761839E+03  0.13666697562E+04  0.16081669215E+04  0.12699999809E+01 0.  1.
</event>
<event>
 5   0  0.6256535E-05  0.1992441E+04  0.7818609E-02  0.8610163E-01
        1   -1    0    0  501    0  0.00000000000E+00  0.00000000000E+00  0.11150127626E+04  0.11150127626E+04  0.50400001928E-02 0. -1.
       -1   -1    0    0    0  501  0.00000000000E+00  0.00000000000E+00 -0.89008438605E+03  0.89008438606E+03  0.50400001928E-02 0.  1.
    10030    2    1    2    0    0  0.00000000000E+00  0.00000000000E+00  0.22492837656E+03  0.20050971487E+04  0.19924411663E+04 0.  0.
        1    1    3    3  502    0 -0.85434970162E+02  0.96626764613E+03  0.34080444134E+03  0.10281633943E+04  0.50400001928E-02 0. -1.
       -1    1    3    3    0  502  0.85434970162E+02 -0.96626764613E+03 -0.11587606478E+03  0.97693375440E+03  0.50400001928E-02 0.  1.
</event>
<event>
 5   0  0.6214547E-05  0.1954771E+04  0.7818609E-02  0.8628064E-01
        1   -1    0    0  501    0  0.00000000000E+00  0.00000000000E+00  0.93352910220E+03  0.93352910222E+03  0.50400001928E-02 0.  1.
       -1   -1    0    0    0  501  0.00000000000E+00  0.00000000000E+00 -0.10233017701E+04  0.10233017702E+04  0.50400001928E-02 0. -1.
    10030    2    1    2    0    0  0.00000000000E+00  0.00000000000E+00 -0.89772667935E+02  0.19568308724E+04  0.19547705572E+04 0.  0.
        3    1    3    3  502    0 -0.83078959153E+03  0.51248632125E+03 -0.94217049063E+02  0.98067855967E+03  0.10100000352E+00 0.  1.
       -3    1    3    3    0  502  0.83078959153E+03 -0.51248632125E+03  0.44443811280E+01  0.97615231270E+03  0.10100000352E+00 0. -1.
</event>
<event>
 5   0  0.1159914E-04  0.1995057E+04  0.7818609E-02  0.8608935E-01
       -2   -1    0    0    0  501  0.00000000000E+00  0.00000000000E+00  0.56649931797E+03  0.56649931797E+03  0.25500000920E-02 0.  1.
        2   -1    0    0  501    0  0.00000000000E+00  0.00000000000E+00 -0.17565122882E+04  0.17565122882E+04  0.25500000920E-02 0. -1.
    10030    2    1    2    0    0  0.00000000000E+00  0.00000000000E+00 -0.11900129702E+04  0.23230116062E+04  0.19950569047E+04 0.  0.
        3    1    3    3  502    0 -0.47423007477E+03 -0.87758033998E+03 -0.60041631290E+03  0.11642771044E+04  0.10100000352E+00 0.  1.
       -3    1    3    3    0  502  0.47423007477E+03  0.87758033998E+03 -0.58959665732E+03  0.11587345017E+04  0.10100000352E+00 0. -1.
</event>
<event>
 5   0  0.6168338E-05  0.1974169E+04  0.7818609E-02  0.8618793E-01
       -1   -1    0    0    0  501  0.00000000000E+00  0.00000000000E+00  0.11239980515E+04  0.11239980515E+04  0.50400001928E-02 0.  1.
        1   -1    0    0  501    0  0.00000000000E+00  0.00000000000E+00 -0.86684866559E+03  0.86684866560E+03  0.50400001928E-02 0. -1.
    10030    2    1    2    0    0  0.00000000000E+00  0.00000000000E+00  0.25714938588E+03  0.19908467171E+04  0.19741694062E+04 0.  0.
        5    1    3    3  502    0 -0.42426928573E+03 -0.41152992069E+03 -0.66864317065E+03  0.89245004459E+03  0.46999998093E+01 0. -1.
       -5    1    3    3    0  502  0.42426928573E+03  0.41152992069E+03  0.92579255653E+03  0.10983966725E+04  0.46999998093E+01 0.  1.
</event>
<event>
 5   0  0.6028501E-05  0.1972237E+04  0.7818609E-02  0.8619712E-01
       -1   -1    0    0    0  501  0.00000000000E+00  0.00000000000E+00  0.89734672283E+03  0.89734672284E+03  0.50400001928E-02 0. -1.
        1   -1    0    0  501    0  0.00000000000E+00  0.00000000000E+00 -0.10836725757E+04  0.10836725757E+04  0.50400001928E-02 0.  1.
    10030    2    1    2    0    0  0.00000000000E+00  0.00000000000E+00 -0.18632585285E+03  0.19810192985E+04  0.19722373431E+04 0.  0.
        4    1    3    3  502    0 -0.48355352331E+03 -0.96485007819E+02  0.76462743715E+03  0.90982970779E+03  0.12699999809E+01 0. -1.
       -4    1    3    3    0  502  0.48355352331E+03  0.96485007819E+02 -0.95095329000E+03  0.10711895907E+04  0.12699999809E+01 0.  1.
</event>
<event>
 5   0  0.1242761E-04  0.2010340E+04  0.7818609E-02  0.8601802E-01
       -2   -1    0    0    0  501  0.00000000000E+00  0.00000000000E+00  0.10881851136E+04  0.10881851136E+04  0.25500000920E-02 0. -1.
        2   -1    0    0  501    0  0.00000000000E+00  0.00000000000E+00 -0.92848806027E+03  0.92848806027E+03  0.25500000920E-02 0.  1.
    10030    2    1    2    0    0  0.00000000000E+00  0.00000000000E+00  0.15969705336E+03  0.20166731739E+04  0.20103401557E+04 0.  0.
        4    1    3    3  502    0  0.60774344591E+03  0.57658573380E+03  0.63708205790E+03  0.10524629998E+04  0.12699999809E+01 0. -1.
       -4    1    3    3    0  502 -0.60774344591E+03 -0.57658573380E+03 -0.47738500453E+03  0.96421017415E+03  0.12699999809E+01 0.  1.
</event>
<event>
 5   0  0.1274868E-04  0.1755146E+04  0.7818609E-02  0.8730523E-01
       -2   -1    0    0    0  501  0.00000000000E+00  0.00000000000E+00  0.11033050438E+04  0.11033050438E+04  0.25500000920E-02 0.  1.
        2   -1    0    0  501    0  0.00000000000E+00  0.00000000000E+00 -0.69802481142E+03  0.69802481142E+03  0.25500000920E-02 0. -1.
    10030    2    1    2    0    0  0.00000000000E+00  0.00000000000E+00  0.40528023243E+03  0.18013298553E+04  0.17551459144E+04 0.  0.
        1    1    3    3  502    0 -0.11370750127E+03 -0.45815398931E+03  0.96190387889E+03  0.10714912720E+04  0.50400001928E-02 0.  1.
       -1    1    3    3    0  502  0.11370750127E+03  0.45815398931E+03 -0.55662364646E+03  0.72983858325E+03  0.50400001928E-02 0. -1.
</event>
<event>
 5   0  0.6222733E-05  0.1984015E+04  0.7818609E-02  0.8614131E-01
        1   -1    0    0  501    0  0.00000000000E+00  0.00000000000E+00  0.18287559752E+04  0.18287559752E+04  0.50400001928E-02 0.  1.
       -1   -1    0    0    0  501  0.00000000000E+00  0.00000000000E+00 -0.53811405676E+03  0.53811405679E+03  0.50400001928E-02 0. -1.
    10030    2    1    2    0    0  0.00000000000E+00  0.00000000000E+00  0.12906419184E+04  0.23668700320E+04  0.19840154200E+04 0.  0.
        2    1    3    3  502    0  0.67667829552E+03  0.19317691357E+03 -0.18879297766E+03  0.72859702441E+03  0.25500000920E-02 0. -1.
       -2    1    3    3    0  502 -0.67667829552E+03 -0.19317691357E+03  0.14794348961E+04  0.16382730075E+04  0.25500000920E-02 0.  1.
</event>
<event>
 5   0  0.1281789E-04  0.1862770E+04  0.7818609E-02  0.8673613E-01
       -2   -1    0    0    0  501  0.00000000000E+00  0.00000000000E+00  0.80140886095E+03  0.80140886095E+03  0.25500000920E-02 0. -1.
        2   -1    0    0  501    0  0.00000000000E+00  0.00000000000E+00 -0.10824415805E+04  0.10824415805E+04  0.25500000920E-02 0.  1.
    10030    2    1    2    0    0  0.00000000000E+00  0.00000000000E+00 -0.28103271957E+03  0.18838504415E+04  0.18627702747E+04 0.  0.
        2    1    3    3  502    0 -0.76220480669E+03 -0.42544644984E+03  0.18799410943E+03  0.89291804451E+03  0.25500000920E-02 0. -1.
       -2    1    3    3    0  502  0.76220480669E+03  0.42544644984E+03 -0.46902682900E+03  0.99093239696E+03  0.25500000920E-02 0.  1.
</event>
<event>
 5   0  0.1274868E-04  0.1986235E+04  0.7818609E-02  0.8613083E-01
        2   -1    0    0  501    0  0.00000000000E+00  0.00000000000E+00  0.15891060190E+04  0.15891060190E+04  0.25500000920E-02 0.  1.
       -2   -1    0    0    0  501  0.00000000000E+00  0.00000000000E+00 -0.62065238098E+03  0.62065238098E+03  0.25500000920E-02 0. -1.
    10030    2    1    2    0    0  0.00000000000E+00  0.00000000000E+00  0.96845363804E+03  0.22097584000E+04  0.19862350660E+04 0.  0.
        1    1    3    3  502    0  0.30082095274E+03 -0.83870514376E+03  0.97217620204E+03  0.13187289834E+04  0.50400001928E-02 0.  1.
       -1    1    3    3    0  502 -0.30082095274E+03  0.83870514376E+03 -0.37225640003E+01  0.89102941662E+03  0.50400001928E-02 0. -1.
</event>
<event>
 5   0  0.1159914E-04  0.2015514E+04  0.7818609E-02  0.8599401E-01
        2   -1    0    0  501    0  0.00000000000E+00  0.00000000000E+00  0.19176190089E+04  0.19176190089E+04  0.25500000920E-02 0. -1.
       -2   -1    0    0    0  501  0.00000000000E+00  0.00000000000E+00 -0.52960182192E+03  0.52960182192E+03  0.25500000920E-02 0.  1.
    10030    2    1    2    0    0  0.00000000000E+00  0.00000000000E+00  0.13880171870E+04  0.24472208308E+04  0.20155143471E+04 0.  0.
        3    1    3    3  502    0 -0.83529848371E+03  0.38783813363E+03  0.19717930008E+03  0.94181827407E+03  0.10100000352E+00 0.  1.
       -3    1    3    3    0  502  0.83529848371E+03 -0.38783813363E+03  0.11908378869E+04  0.15054025567E+04  0.10100000352E+00 0. -1.
</event>
<event>
 5   0  0.1281789E-04  0.1734113E+04  0.7818609E-02  0.8742144E-01
       -2   -1    0    0    0  501  0.00000000000E+00  0.00000000000E+00  0.51869394365E+03  0.51869394366E+03  0.25500000920E-02 0. -1.
        2   -1    0    0  501    0  0.00000000000E+00  0.00000000000E+00 -0.14493842775E+04  0.14493842775E+04  0.25500000920E-02 0.  1.
    10030    2    1    2    0    0  0.00000000000E+00  0.00000000000E+00 -0.93069033383E+03  0.19680782211E+04  0.17341128530E+04 0.  0.
        2    1    3    3  502    0  0.73342341434E+03  0.27369643240E+03 -0.88842386530E+03  0.11841100482E+04  0.25500000920E-02 0.  1.
       -2    1    3    3    0  502 -0.73342341434E+03 -0.27369643240E+03 -0.42266468528E+02  0.78396817294E+03  0.25500000920E-02 0. -1.
</event>
<event>
 5   0  0.6168338E-05  0.2009821E+04  0.7818609E-02  0.8602043E-01
        1   -1    0    0  501    0  0.00000000000E+00  0.00000000000E+00  0.14503089313E+04  0.14503089313E+04  0.50400001928E-02 0. -1.
       -1   -1    0    0    0  501  0.00000000000E+00  0.00000000000E+00 -0.69629667874E+03  0.69629667876E+03  0.50400001928E-02 0.  1.
    10030    2    1    2    0    0  0.00000000000E+00  0.00000000000E+00  0.75401225251E+03  0.21466056100E+04  0.20098211781E+04 0.  0.
        5    1    3    3  502    0 -0.37276794757E+03 -0.90176392449E+03  0.12047405809E+03  0.98319388064E+03  0.46999998093E+01 0.  1.
       -5    1    3    3    0  502  0.37276794757E+03  0.90176392449E+03  0.63353819442E+03  0.11634117294E+04  0.46999998093E+01 0. -1.
</event>
<event>
 5   0  0.1242761E-04  0.2015832E+04  0.7818609E-02  0.8599254E-01
       -2   -1    0    0    0  501  0.00000000000E+00  0.00000000000E+00  0.11733680820E+04  0.11733680820E+04  0.25500000920E-02 0.  1.
        2   -1    0    0  501    0  0.00000000000E+00  0.00000000000E+00 -0.86579350420E+03  0.86579350420E+03  0.25500000920E-02 0. -1.
    10030    2    1    2    0    0  0.00000000000E+00  0.00000000000E+00  0.30757457776E+03  0.20391615862E+04  0.20158318019E+04 0.  0.
        4    1    3    3  502    0  0.31257816106E+03 -0.52062675950E+03 -0.65997014364E+03  0.89683863257E+03  0.12699999809E+01 0. -1.
       -4    1    3    3    0  502 -0.31257816106E+03  0.52062675950E+03  0.96754472139E+03  0.11423229536E+04  0.12699999809E+01 0.  1.
</event>
<event>
 5   0  0.6214547E-05  0.1998885E+04  0.7818609E-02  0.8607142E-01
       -1   -1    0    0    0  501  0.00000000000E+00  0.00000000000E+00  0.72497901672E+03  0.72497901673E+03  0.50400001928E-02 0.  1.
        1   -1    0    0  501    0  0.00000000000E+00  0.00000000000E+00 -0.13778124486E+04  0.13778124486E+04  0.50400001928E-02 0. -1.
    10030    2    1    2    0    0  0.00000000000E+00  0.00000000000E+00 -0.65283343185E+03  0.21027914653E+04  0.19988848033E+04 0.  0.
        3    1    3    3  502    0 -0.24238719807E+03  0.80171948659E+03  0.24725559801E+03  0.87329320958E+03  0.10100000352E+00 0.  1.
       -3    1    3    3    0  502  0.24238719807E+03 -0.80171948659E+03 -0.90008902986E+03  0.12294982557E+04  0.10100000352E+00 0. -1.
</event>
<event>
 5   0  0.6214547E-05  0.2070566E+04  0.7818609E-02  0.8574321E-01
       -1   -1    0    0    0  501  0.00000000000E+00  0.00000000000E+00  0.11060474624E+04  0.11060474624E+04  0.50400001928E-02 0. -1.
        1   -1    0    0  501    0  0.00000000000E+00  0.00000000000E+00 -0.96904609816E+03  0.96904609817E+03  0.50400001928E-02 0.  1.
    10030    2    1    2    0    0  0.00000000000E+00  0.00000000000E+00  0.13700136421E+03  0.20750935606E+04  0.20705660847E+04 0.  0.
        3    1    3    3  502    0 -0.49513559088E+03 -0.11901962096E+03 -0.83485034262E+03  0.97790594041E+03  0.10100000352E+00 0.  1.
       -3    1    3    3    0  502  0.49513559088E+03  0.11901962096E+03  0.97185170683E+03  0.10971876201E+04  0.10100000352E+00 0. -1.
</event>
<event>
 5   0  0.1159914E-04  0.1983787E+04  0.7818609E-02  0.8614238E-01
        2   -1    0    0  501    0  0.00000000000E+00  0.00000000000E+00  0.20117156336E+04  0.20117156336E+04  0.25500000920E-02 0. -1.
       -2   -1    0    0    0  501  0.00000000000E+00  0.00000000000E+00 -0.48906176111E+03  0.48906176111E+03  0.25500000920E-02 0.  1.
    10030    2    1    2    0    0  0.00000000000E+00  0.00000000000E+00  0.15226538725E+04  0.25007773947E+04  0.19837874792E+04 0.  0.
        3    1    3    3  502    0  0.28936517135E+03  0.68336530407E+03 -0.68314522171E+02  0.74524306460E+03  0.10100000352E+00 0.  1.
       -3    1    3    3    0  502 -0.28936517135E+03 -0.68336530407E+03  0.15909683947E+04  0.17555343301E+04  0.10100000352E+00 0. -1.
</event>
<event>
 5   0  0.4479000E-05  0.2036061E+04  0.7818609E-02  0.8589944E-01
        3   -1    0    0  501    0  0.00000000000E+00  0.00000000000E+00  0.12620104438E+04  0.12620104478E+04  0.10100000352E+00 0. -1.
       -3   -1    0    0    0  501  0.00000000000E+00  0.00000000000E+00 -0.82121863706E+03  0.82121864327E+03  0.10100000352E+00 0.  1.
    10030    2    1    2    0    0  0.00000000000E+00  0.00000000000E+00  0.44079180672E+03  0.20832290911E+04  0.20360614011E+04 0.  0.
        5    1    3    3  502    0  0.65054587209E+03 -0.22138194776E+03  0.98889143604E+03  0.12042210182E+04  0.46999998093E+01 0. -1.
       -5    1    3    3    0  502 -0.65054587209E+03  0.22138194776E+03 -0.54809962932E+03  0.87900807286E+03  0.46999998093E+01 0.  1.
</event>
<event>
 5   0  0.6214547E-05  0.2009502E+04  0.7818609E-02  0.8602191E-01
        1   -1    0    0  501    0  0.00000000000E+00  0.00000000000E+00  0.58968813168E+03  0.58968813170E+03  0.50400001928E-02 0.  1.
       -1   -1    0    0    0  501  0.00000000000E+00  0.00000000000E+00 -0.17119630639E+04  0.17119630639E+04  0.50400001928E-02 0. -1.
    10030    2    1    2    0    0  0.00000000000E+00  0.00000000000E+00 -0.11222749322E+04  0.23016511956E+04  0.20095017300E+04 0.  0.
        3    1    3    3  502    0 -0.25949443359E+03 -0.62338476226E+03 -0.14133357983E+04  0.15663537314E+04  0.10100000352E+00 0. -1.
       -3    1    3    3    0  502  0.25949443359E+03  0.62338476226E+03  0.29106086610E+03  0.73529746420E+03  0.10100000352E+00 0.  1.
</event>
<event>
 5   0  0.6028501E-05  0.2001235E+04  0.7818609E-02  0.8606043E-01
       -1   -1    0    0    0  501  0.00000000000E+00  0.00000000000E+00  0.77205160113E+03  0.77205160115E+03  0.50400001928E-02 0.  1.
        1   -1    0    0  501    0  0.00000000000E+00  0.00000000000E+00 -0.12968509535E+04  0.12968509535E+04  0.50400001928E-02 0. -1.
    10030    2    1    2    0    0  0.00000000000E+00  0.00000000000E+00 -0.52479935239E+03  0.20689025547E+04  0.20012354735E+04 0.  0.
        4    1    3    3  502    0  0.38960281164E+03  0.31177983692E+03 -0.11590420391E+04  0.12618942424E+04  0.12699999809E+01 0. -1.
       -4    1    3    3    0  502 -0.38960281164E+03 -0.31177983692E+03  0.63424268675E+03  0.80700831231E+03  0.12699999809E+01 0.  1.
</event>
<event>
 5   0  0.6168338E-05  0.2004817E+04  0.7818609E-02  0.8604372E-01
       -1   -1    0    0    0  501  0.00000000000E+00  0.00000000000E+00  0.89327027546E+03  0.89327027547E+03  0.50400001928E-02 0. -1.
        1   -1    0    0  501    0  0.00000000000E+00  0.00000000000E+00 -0.11248807137E+04  0.11248807137E+04  0.50400001928E-02 0.  1.
    10030    2    1    2    0    0  0.00000000000E+00  0.00000000000E+00 -0.23161043827E+03  0.20181509892E+04  0.20048167049E+04 0.  0.
        5    1    3    3  502    0  0.11928344288E+03 -0.13113065609E+03  0.87735528307E+03  0.89509673860E+03  0.46999998093E+01 0. -1.
       -5    1    3    3    0  502 -0.11928344288E+03  0.13113065609E+03 -0.11089657213E+04  0.11230542506E+04  0.46999998093E+01 0.  1.
</event>
<event>
 5   0  0.6028501E-05  0.1997574E+04  0.7818609E-02  0.8607756E-01
        1   -1    0    0  501    0  0.00000000000E+00  0.00000000000E+00  0.14061696578E+04  0.14061696578E+04  0.50400001928E-02 0. -1.
       -1   -1    0    0    0  501  0.00000000000E+00  0.00000000000E+00 -0.70942744035E+03  0.70942744037E+03  0.50400001928E-02 0.  1.
    10030    2    1    2    0    0  0.00000000000E+00  0.00000000000E+00  0.69674221746E+03  0.21155970982E+04  0.19975738695E+04 0.  0.
        4    1    3    3  502    0  0.42167556719E+03  0.86294828694E+03  0.63857480669E+03  0.11533730648E+04  0.12699999809E+01 0.  1.
       -4    1    3    3    0  502 -0.42167556719E+03 -0.86294828694E+03  0.58167410774E+02  0.96222403341E+03  0.12699999809E+01 0. -1.
</event>
<event>
 5   0  0.1159914E-04  0.2002663E+04  0.7818609E-02  0.8605377E-01
       -2   -1    0    0    0  501  0.00000000000E+00  0.00000000000E+00  0.73942378694E+03  0.73942378694E+03  0.25500000920E-02 0.  1.
        2   -1    0    0  501    0  0.00000000000E+00  0.00000000000E+00 -0.13560079801E+04  0.13560079801E+04  0.25500000920E-02 0. -1.
    10030    2    1    2    0    0  0.00000000000E+00  0.00000000000E+00 -0.61658419314E+03  0.20954317670E+04  0.20026627831E+04 0.  0.
        3    1    3    3  502    0 -0.67814436698E+03 -0.62325499323E+03  0.10276494995E+03  0.92676168144E+03  0.10100000352E+00 0.  1.
       -3    1    3    3    0  502  0.67814436698E+03  0.62325499323E+03 -0.71934914309E+03  0.11686700856E+04  0.10100000352E+00 0. -1.
</event>
<event>
 5   0  0.6256535E-05  0.2003864E+04  0.7818609E-02  0.8604816E-01
        1   -1    0    0  501    0  0.00000000000E+00  0.00000000000E+00  0.47380164223E+03  0.47380164226E+03  0.50400001928E-02 0. -1.
       -1   -1    0    0    0  501  0.00000000000E+00  0.00000000000E+00 -0.21187508149E+04  0.21187508149E+04  0.50400001928E-02 0.  1.
    10030    2    1    2    0    0  0.00000000000E+00  0.00000000000E+00 -0.16449491727E+04  0.25925524572E+04  0.20038638832E+04 0.  0.
        1    1    3    3  502    0 -0.17856319740E+03  0.11701065227E+03  0.44403391446E+03  0.49268897433E+03  0.50400001928E-02 0. -1.
       -1    1    3    3    0  502  0.17856319740E+03 -0.11701065227E+03 -0.20889830872E+04  0.20998634829E+04  0.50400001928E-02 0.  1.
</event>
<event>
 5   0  0.1159914E-04  0.1990137E+04  0.7818609E-02  0.8611246E-01
        2   -1    0    0  501    0  0.00000000000E+00  0.00000000000E+00  0.20629734239E+04  0.20629734239E+04  0.25500000920E-02 0.  1.
       -2   -1    0    0    0  501  0.00000000000E+00  0.00000000000E+00 -0.47996805143E+03  0.47996805143E+03  0.25500000920E-02 0. -1.
    10030    2    1    2    0    0  0.00000000000E+00  0.00000000000E+00  0.15830053725E+04  0.25429414754E+04  0.19901370148E+04 0.  0.
        3    1    3    3  502    0 -0.22891233489E+03  0.89631461220E+03  0.12599078224E+04  0.15630574117E+04  0.10100000352E+00 0.  1.
       -3    1    3    3    0  502  0.22891233489E+03 -0.89631461220E+03  0.32309755008E+03  0.97988406364E+03  0.10100000352E+00 0. -1.
</event>
<event>
 5   0  0.1242761E-04  0.1997271E+04  0.7818609E-02  0.8607898E-01
       -2   -1    0    0    0  501  0.00000000000E+00  0.00000000000E+00  0.44918719554E+03  0.44918719554E+03  0.25500000920E-02 0. -1.
        2   -1    0    0  501    0  0.00000000000E+00  0.00000000000E+00 -0.22201722233E+04  0.22201722233E+04  0.25500000920E-02 0.  1.
    10030    2    1    2    0    0  0.00000000000E+00  0.00000000000E+00 -0.17709850277E+04  0.26693594188E+04  0.19972710728E+04 0.  0.
        4    1    3    3  502    0  0.58433741104E+03 -0.80969110472E+03 -0.90538023543E+03  0.13478742073E+04  0.12699999809E+01 0. -1.
       -4    1    3    3    0  502 -0.58433741104E+03  0.80969110472E+03 -0.86560479231E+03  0.13214852116E+04  0.12699999809E+01 0.  1.
</event>
<event>
 5   0  0.6028501E-05  0.2014210E+04  0.7818609E-02  0.8600006E-01
       -1   -1    0    0    0  501  0.00000000000E+00  0.00000000000E+00  0.12874405945E+04  0.12874405945E+04  0.50400001928E-02 0. -1.
        1   -1    0    0  501    0  0.00000000000E+00  0.00000000000E+00 -0.78781144324E+03  0.78781144326E+03  0.50400001928E-02 0.  1.
    10030    2    1    2    0    0  0.00000000000E+00  0.00000000000E+00  0.49962915127E+03  0.20752520378E+04  0.20142099522E+04 0.  0.
        4    1    3    3  502    0  0.22337623289E+03 -0.98181094388E+03  0.27065501567E+03  0.10426434776E+04  0.12699999809E+01 0. -1.
       -4    1    3    3    0  502 -0.22337623289E+03  0.98181094388E+03  0.22897413560E+03  0.10326085602E+04  0.12699999809E+01 0.  1.
</event>
<event>
 5   0  0.6256535E-05  0.2010020E+04  0.7818609E-02  0.8601950E-01
        1   -1    0    0  501    0  0.00000000000E+00  0.00000000000E+00  0.50610826758E+03  0.50610826760E+03  0.50400001928E-02 0.  1.
       -1   -1    0    0    0  501  0.00000000000E+00  0.00000000000E+00 -0.19957088605E+04  0.19957088605E+04  0.50400001928E-02 0. -1.
    10030    2    1    2    0    0  0.00000000000E+00  0.00000000000E+00 -0.14896005929E+04  0.25018171281E+04  0.20100196556E+04 0.  0.
        1    1    3    3  502    0  0.52487526689E+02 -0.88801328465E+03 -0.13269058057E+04  0.15974985294E+04  0.50400001928E-02 0. -1.
       -1    1    3    3    0  502 -0.52487526689E+02  0.88801328465E+03 -0.16269478721E+03  0.90431859871E+03  0.50400001928E-02 0.  1.
</event>
<event>
 5   0  0.1281789E-04  0.2003627E+04  0.7818609E-02  0.8604927E-01
        2   -1    0    0  501    0  0.00000000000E+00  0.00000000000E+00  0.84359369518E+03  0.84359369519E+03  0.25500000920E-02 0.  1.
       -2   -1    0    0    0  501  0.00000000000E+00  0.00000000000E+00 -0.11897081632E+04  0.11897081632E+04  0.25500000920E-02 0. -1.
    10030    2    1    2    0    0  0.00000000000E+00  0.00000000000E+00 -0.34611446799E+03  0.20333018584E+04  0.20036270168E+04 0.  0.
        2    1    3    3  502    0 -0.77053573658E+03 -0.13244329910E+03  0.46260940668E+03  0.90844593234E+03  0.25500000920E-02 0.  1.
       -2    1    3    3    0  502  0.77053573658E+03  0.13244329910E+03 -0.80872387468E+03  0.11248559260E+04  0.25500000920E-02 0. -1.
</event>
<event>
 5   0  0.1159914E-04  0.2004657E+04  0.7818609E-02  0.8604446E-01
        2   -1    0    0  501    0  0.00000000000E+00  0.00000000000E+00  0.11041875485E+04  0.11041875485E+04  0.25500000920E-02 0.  1.
       -2   -1    0    0    0  501  0.00000000000E+00  0.00000000000E+00 -0.90986603366E+03  0.90986603366E+03  0.25500000920E-02 0. -1.
    10030    2    1    2    0    0  0.00000000000E+00  0.00000000000E+00  0.19432151483E+03  0.20140535822E+04  0.20046573225E+04 0.  0.
        3    1    3    3  502    0 -0.10649737177E+03  0.88088783324E+02 -0.90024695262E+03  0.91079410947E+03  0.10100000352E+00 0. -1.
       -3    1    3    3    0  502  0.10649737177E+03 -0.88088783324E+02  0.10945684674E+04  0.11032594727E+04  0.10100000352E+00 0.  1.
</event>
<event>
 5   0  0.6028501E-05  0.1994611E+04  0.7818609E-02  0.8609144E-01
        1   -1    0    0  501    0  0.00000000000E+00  0.00000000000E+00  0.13241818110E+04  0.13241818110E+04  0.50400001928E-02 0. -1.
       -1   -1    0    0    0  501  0.00000000000E+00  0.00000000000E+00 -0.75111938488E+03  0.75111938490E+03  0.50400001928E-02 0.  1.
    10030    2    1    2    0    0  0.00000000000E+00  0.00000000000E+00  0.57306242608E+03  0.20753011959E+04  0.19946113680E+04 0.  0.
        4    1    3    3  502    0 -0.73312734647E+03 -0.15524230962E+03  0.97121086605E+03  0.12267143270E+04  0.12699999809E+01 0. -1.
       -4    1    3    3    0  502  0.73312734647E+03  0.15524230962E+03 -0.39814843997E+03  0.84858686886E+03  0.12699999809E+01 0.  1.
</event>
<event>
 5   0  0.6222733E-05  0.2002563E+04  0.7818609E-02  0.8605423E-01
       -1   -1    0    0    0  501  0.00000000000E+00  0.00000000000E+00  0.66547213073E+03  0.66547213075E+03  0.50400001928E-02 0.  1.
        1   -1    0    0  501    0  0.00000000000E+00  0.00000000000E+00 -0.15065462249E+04  0.15065462249E+04  0.50400001928E-02 0. -1.
    10030    2    1    2    0    0  0.00000000000E+00  0.00000000000E+00 -0.84107409420E+03  0.21720183557E+04  0.20025628843E+04 0.  0.
        2    1    3    3  502    0 -0.16785772104E+03  0.57089618923E+03  0.45287843201E+03  0.74779512407E+03  0.25500000920E-02 0.  1.
       -2    1    3    3    0  502  0.16785772104E+03 -0.57089618923E+03 -0.12939525262E+04  0.14242232316E+04  0.25500000920E-02 0. -1.
</event>
<event>
 5   0  0.6256535E-05  0.1999808E+04  0.7818609E-02  0.8606710E-01
       -1   -1    0    0    0  501  0.00000000000E+00  0.00000000000E+00  0.68673181935E+03  0.68673181937E+03  0.50400001928E-02 0.  1.
        1   -1    0    0  501    0  0.00000000000E+00  0.00000000000E+00 -0.14558932336E+04  0.14558932336E+04  0.50400001928E-02 0. -1.
    10030    2    1    2    0    0  0.00000000000E+00  0.00000000000E+00 -0.76916141428E+03  0.21426250530E+04  0.19998081999E+04 0.  0.
        1    1    3    3  502    0  0.14856945084E+03 -0.59064614077E+02  0.67294834075E+03  0.69167982456E+03  0.50400001928E-02 0.  1.
       -1    1    3    3    0  502 -0.14856945084E+03  0.59064614077E+02 -0.14421097550E+04  0.14509452284E+04  0.50400001928E-02 0. -1.
</event>
<event>
 5   0  0.1281789E-04  0.1991792E+04  0.7818609E-02  0.8610468E-01
       -2   -1    0    0    0  501  0.00000000000E+00  0.00000000000E+00  0.85630383870E+03  0.85630383870E+03  0.25500000920E-02 0. -1.
        2   -1    0    0  501    0  0.00000000000E+00  0.00000000000E+00 -0.11582443101E+04  0.11582443101E+04  0.25500000920E-02 0.  1.
    10030    2    1    2    0    0  0.00000000000E+00  0.00000000000E+00 -0.30194047137E+03  0.20145481488E+04  0.19917922069E+04 0.  0.
        2    1    3    3  502    0 -0.33257114000E+03 -0.18628459333E+03 -0.10815380152E+04  0.11467475708E+04  0.25500000920E-02 0.  1.
       -2    1    3    3    0  502  0.33257114000E+03  0.18628459333E+03  0.77959754379E+03  0.86780057799E+03  0.25500000920E-02 0. -1.
</event>
<event>
 5   0  0.6168338E-05  0.1988915E+04  0.7818609E-02  0.8611821E-01
        1   -1    0    0  501    0  0.00000000000E+00  0.00000000000E+00  0.87444350505E+03  0.87444350506E+03  0.50400001928E-02 0. -1.
       -1   -1    0    0    0  501  0.00000000000E+00  0.00000000000E+00 -0.11309429673E+04  0.11309429673E+04  0.50400001928E-02 0.  1.
    10030    2    1    2    0    0  0.00000000000E+00  0.00000000000E+00 -0.25649946221E+03  0.20053864723E+04  0.19889150131E+04 0.  0.
        5    1    3    3  502    0 -0.62610567542E+03 -0.16222956730E+03  0.63338467786E+03  0.90527619512E+03  0.46999998093E+01 0. -1.
       -5    1    3    3    0  502  0.62610567542E+03  0.16222956730E+03 -0.88988414007E+03  0.11001102772E+04  0.46999998093E+01 0.  1.
</event>
<event>
 5   0  0.6214547E-05  0.1977392E+04  0.7818609E-02  0.8617264E-01
        1   -1    0    0  501    0  0.00000000000E+00  0.00000000000E+00  0.67001922789E+03  0.67001922790E+03  0.50400001928E-02 0. -1.
       -1   -1    0    0    0  501  0.00000000000E+00  0.00000000000E+00 -0.14589427415E+04  0.14589427415E+04  0.50400001928E-02 0.  1.
    10030    2    1    2    0    0  0.00000000000E+00  0.00000000000E+00 -0.78892351363E+03  0.21289619694E+04  0.19773919078E+04 0.  0.
        3    1    3    3  502    0  0.49239448658E+03  0.73254181109E+03 -0.87408534242E+03  0.12422137624E+04  0.10100000352E+00 0.  1.
       -3    1    3    3    0  502 -0.49239448658E+03 -0.73254181109E+03  0.85161828787E+02  0.88674820705E+03  0.10100000352E+00 0. -1.
</event>
<event>
 5   0  0.1159914E-04  0.2002489E+04  0.7818609E-02  0.8605458E-01
        2   -1    0    0  501    0  0.00000000000E+00  0.00000000000E+00  0.77068118051E+03  0.77068118052E+03  0.25500000920E-02 0.  1.
       -2   -1    0    0    0  501  0.00000000000E+00  0.00000000000E+00 -0.13007854372E+04  0.13007854372E+04  0.25500000920E-02 0. -1.
    10030    2    1    2    0    0  0.00000000000E+00  0.00000000000E+00 -0.53010425664E+03  0.20714666177E+04  0.20024893071E+04 0.  0.
        3    1    3    3  502    0 -0.50506820102E+03 -0.41621995953E+03  0.51878062496E+03  0.83514447218E+03  0.10100000352E+00 0.  1.
       -3    1    3    3    0  502  0.50506820102E+03  0.41621995953E+03 -0.10488848816E+04  0.12363221455E+04  0.10100000352E+00 0. -1.
</event>
<event>
 5   0  0.1159914E-04  0.1987050E+04  0.7818609E-02  0.8612699E-01
       -2   -1    0    0    0  501  0.00000000000E+00  0.00000000000E+00  0.60433774458E+03  0.60433774459E+03  0.25500000920E-02 0.  1.
        2   -1    0    0  501    0  0.00000000000E+00  0.00000000000E+00 -0.16333451395E+04  0.16333451395E+04  0.25500000920E-02 0. -1.
    10030    2    1    2    0    0  0.00000000000E+00  0.00000000000E+00 -0.10290073949E+04  0.22376828841E+04  0.19870501934E+04 0.  0.
        3    1    3    3  502    0 -0.78239514830E+03  0.83875119590E+02 -0.11975708365E+04  0.14329525890E+04  0.10100000352E+00 0. -1.
       -3    1    3    3    0  502  0.78239514830E+03 -0.83875119590E+02  0.16856344157E+03  0.80473029507E+03  0.10100000352E+00 0.  1.
</event>
<event>
 5   0  0.6256535E-05  0.1980644E+04  0.7818609E-02  0.8615724E-01
       -1   -1    0    0    0  501  0.00000000000E+00  0.00000000000E+00  0.78484111777E+03  0.78484111779E+03  0.50400001928E-02 0.  1.
        1   -1    0    0  501    0  0.00000000000E+00  0.00000000000E+00 -0.12495998161E+04  0.12495998161E+04  0.50400001928E-02 0. -1.
    10030    2    1    2    0    0  0.00000000000E+00  0.00000000000E+00 -0.46475869833E+03  0.20344409339E+04  0.19806436494E+04 0.  0.
        1    1    3    3  502    0  0.62739248180E+03 -0.72180647066E+03  0.31725847516E+02  0.95688684635E+03  0.50400001928E-02 0.  1.
       -1    1    3    3    0  502 -0.62739248180E+03  0.72180647066E+03 -0.49648454585E+03  0.10775540875E+04  0.50400001928E-02 0. -1.
</event>
<event>
 5   0  0.1274868E-04  0.1965416E+04  0.7818609E-02  0.8622963E-01
       -2   -1    0    0    0  501  0.00000000000E+00  0.00000000000E+00  0.89232728354E+03  0.89232728354E+03  0.25500000920E-02 0. -1.
        2   -1    0    0  501    0  0.00000000000E+00  0.00000000000E+00 -0.10822430274E+04  0.10822430274E+04  0.25500000920E-02 0.  1.
    10030    2    1    2    0    0  0.00000000000E+00  0.00000000000E+00 -0.18991574384E+03  0.19745703109E+04  0.19654159669E+04 0.  0.
        1    1    3    3  502    0  0.26781040961E+03 -0.91912365992E+03  0.12789564309E+03  0.96585092704E+03  0.50400001928E-02 0. -1.
       -1    1    3    3    0  502 -0.26781040961E+03  0.91912365992E+03 -0.31781138693E+03  0.10087193839E+04  0.50400001928E-02 0.  1.
</event>
<event>
 5   0  0.6222733E-05  0.2052335E+04  0.7818609E-02  0.8582536E-01
        1   -1    0    0  501    0  0.00000000000E+00  0.00000000000E+00  0.15086448959E+04  0.15086448959E+04  0.50400001928E-02 0. -1.
       -1   -1    0    0    0  501  0.00000000000E+00  0.00000000000E+00 -0.69799017034E+03  0.69799017035E+03  0.50400001928E-02 0.  1.
    10030    2    1    2    0    0  0.00000000000E+00  0.00000000000E+00  0.81065472554E+03  0.22066350662E+04  0.20523345808E+04 0.  0.
        2    1    3    3  502    0  0.55159843389E+03 -0.85857835368E+03  0.52113652223E+03  0.11458625120E+04  0.25500000920E-02 0. -1.
       -2    1    3    3    0  502 -0.55159843389E+03  0.85857835368E+03  0.28951820331E+03  0.10607725542E+04  0.25500000920E-02 0.  1.
</event>
<event>
 5   0  0.6256535E-05  0.1984383E+04  0.7818609E-02  0.8613957E-01
        1   -1    0    0  501    0  0.00000000000E+00  0.00000000000E+00  0.23671076259E+04  0.23671076259E+04  0.50400001928E-02 0. -1.
       -1   -1    0    0    0  501  0.00000000000E+00  0.00000000000E+00 -0.41588467253E+03  0.41588467256E+03  0.50400001928E-02 0.  1.
    10030    2    1    2    0    0  0.00000000000E+00  0.00000000000E+00  0.19512229534E+04  0.27829922985E+04  0.19843828057E+04 0.  0.
        1    1    3    3  502    0  0.47488577171E+03  0.85527723523E+03  0.74334598770E+03  0.12286492187E+04  0.50400001928E-02 0. -1.
       -1    1    3    3    0  502 -0.47488577171E+03 -0.85527723523E+03  0.12078769657E+04  0.15543430797E+04  0.50400001928E-02 0.  1.
</event>
<event>
 5   0  0.4479000E-05  0.1984261E+04  0.7818609E-02  0.8614015E-01
        4   -1    0    0  501    0  0.00000000000E+00  0.00000000000E+00  0.51237662663E+03  0.51237820057E+03  0.12699999809E+01 0. -1.
       -4   -1    0    0    0  501  0.00000000000E+00  0.00000000000E+00 -0.19210877987E+04  0.19210882185E+04  0.12699999809E+01 0.  1.
    10030    2    1    2    0    0  0.00000000000E+00  0.00000000000E+00 -0.14087111721E+04  0.24334664191E+04  0.19842609824E+04 0.  0.
        2    1    3    3  502    0  0.50631587160E+03  0.59669551828E+03  0.43559460379E+02  0.78377211609E+03  0.25500000920E-02 0. -1.
       -2    1    3    3    0  502 -0.50631587160E+03 -0.59669551828E+03 -0.14522706325E+04  0.16496943030E+04  0.25500000920E-02 0.  1.
</event>
<event>
 5   0  0.1274868E-04  0.1981553E+04  0.7818609E-02  0.8615294E-01
       -2   -1    0    0    0  501  0.00000000000E+00  0.00000000000E+00  0.14643783189E+04  0.14643783189E+04  0.25500000920E-02 0. -1.
        2   -1    0    0  501    0  0.00000000000E+00  0.00000000000E+00 -0.67034439933E+03  0.67034439933E+03  0.25500000920E-02 0.  1.
    10030    2    1    2    0    0  0.00000000000E+00  0.00000000000E+00  0.79403391953E+03  0.21347227182E+04  0.19815527291E+04 0.  0.
        1    1    3    3  502    0 -0.27243405215E+03 -0.10039220814E+03  0.14175194884E+04  0.14469486544E+04  0.50400001928E-02 0. -1.
       -1    1    3    3    0  502  0.27243405215E+03  0.10039220814E+03 -0.62348556891E+03  0.68777406383E+03  0.50400001928E-02 0.  1.
</event>
<event>
 5   0  0.6222733E-05  0.2033019E+04  0.7818609E-02  0.8591337E-01
       -1   -1    0    0    0  501  0.00000000000E+00  0.00000000000E+00  0.53525755033E+03  0.53525755035E+03  0.50400001928E-02 0.  1.
        1   -1    0    0  501    0  0.00000000000E+00  0.00000000000E+00 -0.19304575875E+04  0.19304575875E+04  0.50400001928E-02 0. -1.
    10030    2    1    2    0    0  0.00000000000E+00  0.00000000000E+00 -0.13952000372E+04  0.24657151378E+04  0.20330194287E+04 0.  0.
        2    1    3    3  502    0  0.63772297534E+03  0.71128909559E+03 -0.11189079552E+04  0.14712504148E+04  0.25500000920E-02 0. -1.
       -2    1    3    3    0  502 -0.63772297534E+03 -0.71128909559E+03 -0.27629208191E+03  0.99446472302E+03  0.25500000920E-02 0.  1.
</event>
<event>
 5   0  0.6222733E-05  0.2033027E+04  0.7818609E-02  0.8591333E-01
       -1   -1    0    0    0  501  0.00000000000E+00  0.00000000000E+00  0.10074631168E+04  0.10074631168E+04  0.50400001928E-02 0.  1.
        1   -1    0    0  501    0  0.00000000000E+00  0.00000000000E+00 -0.10256450055E+04  0.10256450055E+04  0.50400001928E-02 0. -1.
    10030    2    1    2    0    0  0.00000000000E+00  0.00000000000E+00 -0.18181888703E+02  0.20331081224E+04  0.20330268213E+04 0.  0.
        2    1    3    3  502    0  0.70752881999E+03  0.56963281357E+03  0.44723963158E+03  0.10124731411E+04  0.25500000920E-02 0. -1.
       -2    1    3    3    0  502 -0.70752881999E+03 -0.56963281357E+03 -0.46542152029E+03  0.10206349813E+04  0.25500000920E-02 0.  1.
</event>
<event>
 5   0  0.1281789E-04  0.2016540E+04  0.7818609E-02  0.8598926E-01
       -2   -1    0    0    0  501  0.00000000000E+00  0.00000000000E+00  0.10268577329E+04  0.10268577329E+04  0.25500000920E-02 0.  1.
        2   -1    0    0  501    0  0.00000000000E+00  0.00000000000E+00 -0.99001898570E+03  0.99001898570E+03  0.25500000920E-02 0. -1.
    10030    2    1    2    0    0  0.00000000000E+00  0.00000000000E+00  0.36838747207E+02  0.20168767186E+04  0.20165402562E+04 0.  0.
        2    1    3    3  502    0  0.20866101667E+03  0.93731326353E+02 -0.96372393603E+03  0.99049927122E+03  0.25500000920E-02 0. -1.
       -2    1    3    3    0  502 -0.20866101667E+03 -0.93731326353E+02  0.10005626832E+04  0.10263774474E+04  0.25500000920E-02 0.  1.
</event>
<event>
 5   0  0.6214547E-05  0.1884049E+04  0.7818609E-02  0.8662837E-01
        1   -1    0    0  501    0  0.00000000000E+00  0.00000000000E+00  0.14999901548E+04  0.14999901548E+04  0.50400001928E-02 0. -1.
       -1   -1    0    0    0  501  0.00000000000E+00  0.00000000000E+00 -0.59161085288E+03  0.59161085291E+03  0.50400001928E-02 0.  1.
    10030    2    1    2    0    0  0.00000000000E+00  0.00000000000E+00  0.90837930190E+03  0.20916010077E+04  0.18840493145E+04 0.  0.
        3    1    3    3  502    0  0.33111311518E+03  0.83566408134E+03  0.14128901380E+03  0.90990820829E+03  0.10100000352E+00 0.  1.
       -3    1    3    3    0  502 -0.33111311518E+03 -0.83566408134E+03  0.76709028810E+03  0.11816927994E+04  0.10100000352E+00 0. -1.
</event>
<event>
 5   0  0.1244229E-04  0.2009751E+04  0.7818609E-02  0.8602075E-01
       -2   -1    0    0    0  501  0.00000000000E+00  0.00000000000E+00  0.43042876285E+03  0.43042876285E+03  0.25500000920E-02 0.  1.
        2   -1    0    0  501    0  0.00000000000E+00  0.00000000000E+00 -0.23459739277E+04  0.23459739277E+04  0.25500000920E-02 0. -1.
    10030    2    1    2    0    0  0.00000000000E+00  0.00000000000E+00 -0.19155451649E+04  0.27764026906E+04  0.20097508854E+04 0.  0.
        5    1    3    3  502    0  0.39615801741E+03 -0.79543294783E+03 -0.30966351934E+03  0.94104640399E+03  0.46999998093E+01 0.  1.
       -5    1    3    3    0  502 -0.39615801741E+03  0.79543294783E+03 -0.16058816455E+04  0.18353562866E+04  0.46999998093E+01 0. -1.
</event>
<event>
 5   0  0.6214547E-05  0.1969437E+04  0.7818609E-02  0.8621045E-01
       -1   -1    0    0    0  501  0.00000000000E+00  0.00000000000E+00  0.92729875976E+03  0.92729875977E+03  0.50400001928E-02 0.  1.
        1   -1    0    0  501    0  0.00000000000E+00  0.00000000000E+00 -0.10456933417E+04  0.10456933417E+04  0.50400001928E-02 0. -1.
    10030    2    1    2    0    0  0.00000000000E+00  0.00000000000E+00 -0.11839458196E+03  0.19729921015E+04  0.19694366087E+04 0.  0.
        3    1    3    3  502    0 -0.72341122930E+03  0.22893313304E+03 -0.68797356218E+03  0.10242274252E+04  0.10100000352E+00 0. -1.
       -3    1    3    3    0  502  0.72341122930E+03 -0.22893313304E+03  0.56957898022E+03  0.94876467630E+03  0.10100000352E+00 0.  1.
</event>
<event>
 5   0  0.1281789E-04  0.1996035E+04  0.7818609E-02  0.8608477E-01
       -2   -1    0    0    0  501  0.00000000000E+00  0.00000000000E+00  0.47879385000E+03  0.47879385001E+03  0.25500000920E-02 0. -1.
        2   -1    0    0  501    0  0.00000000000E+00  0.00000000000E+00 -0.20803075739E+04  0.20803075739E+04  0.25500000920E-02 0.  1.
    10030    2    1    2    0    0  0.00000000000E+00  0.00000000000E+00 -0.16015137239E+04  0.25591014239E+04  0.19960345413E+04 0.  0.
        2    1    3    3  502    0 -0.93933638820E+03 -0.31507275005E+03 -0.64682677222E+03  0.11832195744E+04  0.25500000920E-02 0.  1.
       -2    1    3    3    0  502  0.93933638820E+03  0.31507275005E+03 -0.95468695164E+03  0.13758818494E+04  0.25500000920E-02 0. -1.
</event>
<event>
 5   0  0.1281789E-04  0.2060657E+04  0.7818609E-02  0.8578775E-01
        2   -1    0    0  501    0  0.00000000000E+00  0.00000000000E+00  0.11675731401E+04  0.11675731401E+04  0.25500000920E-02 0.  1.
       -2   -1    0    0    0  501  0.00000000000E+00  0.00000000000E+00 -0.90921664385E+03  0.90921664386E+03  0.25500000920E-02 0. -1.
    10030    2    1    2    0    0  0.00000000000E+00  0.00000000000E+00  0.25835649622E+03  0.20767897839E+04  0.20606571106E+04 0.  0.
        2    1    3    3  502    0 -0.96585287500E+03 -0.20099947494E+03  0.42866519406E+03  0.10756516228E+04  0.25500000920E-02 0.  1.
       -2    1    3    3    0  502  0.96585287500E+03  0.20099947494E+03 -0.17030869784E+03  0.10011381611E+04  0.25500000920E-02 0. -1.
</event>
<event>
 5   0  0.6256535E-05  0.2018023E+04  0.7818609E-02  0.8598240E-01
       -1   -1    0    0    0  501  0.00000000000E+00  0.00000000000E+00  0.97723740834E+03  0.97723740835E+03  0.50400001928E-02 0.  1.
        1   -1    0    0  501    0  0.00000000000E+00  0.00000000000E+00 -0.10418191377E+04  0.10418191377E+04  0.50400001928E-02 0. -1.
    10030    2    1    2    0    0  0.00000000000E+00  0.00000000000E+00 -0.64581729317E+02  0.20190565460E+04  0.20180234231E+04 0.  0.
        1    1    3    3  502    0 -0.84941004901E+03  0.54459955804E+03 -0.36597027506E+02  0.10096660103E+04  0.50400001928E-02 0.  1.
       -1    1    3    3    0  502  0.84941004901E+03 -0.54459955804E+03 -0.27984701811E+02  0.10093905357E+04  0.50400001928E-02 0. -1.
</event>
<event>
 5   0  0.1159914E-04  0.2030420E+04  0.7818609E-02  0.8592529E-01
        2   -1    0    0  501    0  0.00000000000E+00  0.00000000000E+00  0.94456148349E+03  0.94456148349E+03  0.25500000920E-02 0. -1.
       -2   -1    0    0    0  501  0.00000000000E+00  0.00000000000E+00 -0.10911428233E+04  0.10911428233E+04  0.25500000920E-02 0.  1.
    10030    2    1    2    0    0  0.00000000000E+00  0.00000000000E+00 -0.14658133985E+03  0.20357043068E+04  0.20304201377E+04 0.  0.
        3    1    3    3  502    0 -0.81630870420E+03  0.60331386844E+03 -0.90770184157E+02  0.10191107697E+04  0.10100000352E+00 0.  1.
       -3    1    3    3    0  502  0.81630870420E+03 -0.60331386844E+03 -0.55811155692E+02  0.10165935371E+04  0.10100000352E+00 0. -1.
</event>
<event>
 5   0  0.1281789E-04  0.2011559E+04  0.7818609E-02  0.8601236E-01
       -2   -1    0    0    0  501  0.00000000000E+00  0.00000000000E+00  0.62214474703E+03  0.62214474704E+03  0.25500000920E-02 0.  1.
        2   -1    0    0  501    0  0.00000000000E+00  0.00000000000E+00 -0.16259753589E+04  0.16259753589E+04  0.25500000920E-02 0. -1.
    10030    2    1    2    0    0  0.00000000000E+00  0.00000000000E+00 -0.10038306118E+04  0.22481201059E+04  0.20115586279E+04 0.  0.
        2    1    3    3  502    0  0.78692573790E+03  0.35893988953E+02 -0.12007972352E+04  0.14361248189E+04  0.25500000920E-02 0. -1.
       -2    1    3    3    0  502 -0.78692573790E+03 -0.35893988953E+02  0.19696662334E+03  0.81199528701E+03  0.25500000920E-02 0.  1.
</event>
<event>
 5   0  0.6214547E-05  0.1995634E+04  0.7818609E-02  0.8608665E-01
       -1   -1    0    0    0  501  0.00000000000E+00  0.00000000000E+00  0.56194739200E+03  0.56194739202E+03  0.50400001928E-02 0. -1.
        1   -1    0    0  501    0  0.00000000000E+00  0.00000000000E+00 -0.17717644913E+04  0.17717644914E+04  0.50400001928E-02 0.  1.
    10030    2    1    2    0    0  0.00000000000E+00  0.00000000000E+00 -0.12098170993E+04  0.23337118834E+04  0.19956336690E+04 0.  0.
        3    1    3    3  502    0 -0.17834429441E+03  0.26718993807E+03 -0.17096387818E+04  0.17395579683E+04  0.10100000352E+00 0.  1.
       -3    1    3    3    0  502  0.17834429441E+03 -0.26718993807E+03  0.49982168250E+03  0.59415391512E+03  0.10100000352E+00 0. -1.
</event>
<event>
 5   0  0.6214547E-05  0.2107302E+04  0.7818609E-02  0.8558034E-01
        1   -1    0    0  501    0  0.00000000000E+00  0.00000000000E+00  0.11611766630E+04  0.11611766630E+04  0.50400001928E-02 0.  1.
       -1   -1    0    0    0  501  0.00000000000E+00  0.00000000000E+00 -0.95608222567E+03  0.95608222569E+03  0.50400001928E-02 0. -1.
    10030    2    1    2    0    0  0.00000000000E+00  0.00000000000E+00  0.20509443732E+03  0.21172588887E+04  0.21073019417E+04 0.  0.
        3    1    3    3  502    0 -0.16557477311E+03 -0.20252603332E+03 -0.92293622136E+03  0.95929300975E+03  0.10100000352E+00 0. -1.
       -3    1    3    3    0  502  0.16557477311E+03  0.20252603332E+03  0.11280306587E+04  0.11579658789E+04  0.10100000352E+00 0.  1.
</event>
<event>
 5   0  0.6028501E-05  0.1983063E+04  0.7818609E-02  0.8614581E-01
       -1   -1    0    0    0  501  0.00000000000E+00  0.00000000000E+00  0.15534296367E+04  0.15534296367E+04  0.50400001928E-02 0. -1.
        1   -1    0    0  501    0  0.00000000000E+00  0.00000000000E+00 -0.63287979582E+03  0.63287979584E+03  0.50400001928E-02 0.  1.
    10030    2    1    2    0    0  0.00000000000E+00  0.00000000000E+00  0.92054984090E+03  0.21863094326E+04  0.19830625117E+04 0.  0.
        4    1    3    3  502    0 -0.12902202816E+03 -0.96278500073E+03  0.24107318000E+03  0.10008593969E+04  0.12699999809E+01 0.  1.
       -4    1    3    3    0  502  0.12902202816E+03  0.96278500073E+03  0.67947666090E+03  0.11854500356E+04  0.12699999809E+01 0. -1.
</event>
<event>
 5   0  0.1159914E-04  0.1938828E+04  0.7818609E-02  0.8635767E-01
        2   -1    0    0  501    0  0.00000000000E+00  0.00000000000E+00  0.13379953338E+04  0.13379953338E+04  0.25500000920E-02 0.  1.
       -2   -1    0    0    0  501  0.00000000000E+00  0.00000000000E+00 -0.70236647429E+03  0.70236647429E+03  0.25500000920E-02 0. -1.
    10030    2    1    2    0    0  0.00000000000E+00  0.00000000000E+00  0.63562885956E+03  0.20403618081E+04  0.19388275480E+04 0.  0.
        3    1    3    3  502    0 -0.26396826299E+03  0.55024741816E+03  0.11104596261E+04  0.12671116985E+04  0.10100000352E+00 0.  1.
       -3    1    3    3    0  502  0.26396826299E+03 -0.55024741816E+03 -0.47483076653E+03  0.77325010967E+03  0.10100000352E+00 0. -1.
</event>
<event>
 5   0  0.1281789E-04  0.2011695E+04  0.7818609E-02  0.8601172E-01
       -2   -1    0    0    0  501  0.00000000000E+00  0.00000000000E+00  0.46552220058E+03  0.46552220059E+03  0.25500000920E-02 0.  1.
        2   -1    0    0  501    0  0.00000000000E+00  0.00000000000E+00 -0.21733213948E+04  0.21733213948E+04  0.25500000920E-02 0. -1.
    10030    2    1    2    0    0  0.00000000000E+00  0.00000000000E+00 -0.17077991942E+04  0.26388435953E+04  0.20116951641E+04 0.  0.
        2    1    3    3  502    0  0.17486954493E+02  0.53578737483E+03  0.26251972809E+03  0.59690075578E+03  0.25500000920E-02 0. -1.
       -2    1    3    3    0  502 -0.17486954493E+02 -0.53578737483E+03 -0.19703189223E+04  0.20419428396E+04  0.25500000920E-02 0.  1.
</event>
<event>
 5   0  0.1242761E-04  0.1871313E+04  0.7818609E-02  0.8669269E-01
        2   -1    0    0  501    0  0.00000000000E+00  0.00000000000E+00  0.98476467843E+03  0.98476467843E+03  0.25500000920E-02 0.  1.
       -2   -1    0    0    0  501  0.00000000000E+00  0.00000000000E+00 -0.88899712378E+03  0.88899712379E+03  0.25500000920E-02 0. -1.
    10030    2    1    2    0    0  0.00000000000E+00  0.00000000000E+00  0.95767554648E+02  0.18737618022E+04  0.18713128725E+04 0.  0.
        4    1    3    3  502    0 -0.46608051834E+03  0.38987269819E+03 -0.66453842788E+03  0.90046915849E+03  0.12699999809E+01 0. -1.
       -4    1    3    3    0  502  0.46608051834E+03 -0.38987269819E+03  0.76030598252E+03  0.97329264373E+03  0.12699999809E+01 0.  1.
</event>
<event>
 5   0  0.6222733E-05  0.2053281E+04  0.7818609E-02  0.8582108E-01
        1   -1    0    0  501    0  0.00000000000E+00  0.00000000000E+00  0.13251099645E+04  0.13251099645E+04  0.50400001928E-02 0.  1.
       -1   -1    0    0    0  501  0.00000000000E+00  0.00000000000E+00 -0.79539837739E+03  0.79539837740E+03  0.50400001928E-02 0. -1.
    10030    2    1    2    0    0  0.00000000000E+00  0.00000000000E+00  0.52971158715E+03  0.21205083419E+04  0.20532806098E+04 0.  0.
        2    1    3    3  502    0 -0.69539236145E+03  0.69644028289E+03  0.56664033928E+03  0.11356411749E+04  0.25500000920E-02 0.  1.
       -2    1    3    3    0  502  0.69539236145E+03 -0.69644028289E+03 -0.36928752133E+02  0.98486716706E+03  0.25500000920E-02 0. -1.
</event>
<event>
 5   0  0.1159914E-04  0.1953731E+04  0.7818609E-02  0.8628564E-01
        2   -1    0    0  501    0  0.00000000000E+00  0.00000000000E+00  0.10912989983E+04  0.10912989983E+04  0.25500000920E-02 0. -1.
       -2   -1    0    0    0  501  0.00000000000E+00  0.00000000000E+00 -0.87443183679E+03  0.87443183679E+03  0.25500000920E-02 0.  1.
    10030    2    1    2    0    0  0.00000000000E+00  0.00000000000E+00  0.21686716152E+03  0.19657308351E+04  0.19537313915E+04 0.  0.
        3    1    3    3  502    0 -0.70087480750E+03  0.67848604645E+03  0.56174548584E+02  0.97709999546E+03  0.10100000352E+00 0. -1.
       -3    1    3    3    0  502  0.70087480750E+03 -0.67848604645E+03  0.16069261293E+03  0.98863083963E+03  0.10100000352E+00 0.  1.
</event>
<event>
 5   0  0.1281789E-04  0.1938162E+04  0.7818609E-02  0.8636090E-01
       -2   -1    0    0    0  501  0.00000000000E+00  0.00000000000E+00  0.66984257418E+03  0.66984257419E+03  0.25500000920E-02 0. -1.
        2   -1    0    0  501    0  0.00000000000E+00  0.00000000000E+00 -0.14019981675E+04  0.14019981675E+04  0.25500000920E-02 0.  1.
    10030    2    1    2    0    0  0.00000000000E+00  0.00000000000E+00 -0.73215559331E+03  0.20718407417E+04  0.19381620794E+04 0.  0.
        2    1    3    3  502    0 -0.56248446606E+03  0.15131230921E+03  0.46182961379E+03  0.74335104873E+03  0.25500000920E-02 0. -1.
       -2    1    3    3    0  502  0.56248446606E+03 -0.15131230921E+03 -0.11939852071E+04  0.13284896929E+04  0.25500000920E-02 0.  1.
</event>
<event>
 5   0  0.6256535E-05  0.2068755E+04  0.7818609E-02  0.8575133E-01
       -1   -1    0    0    0  501  0.00000000000E+00  0.00000000000E+00  0.51642306792E+03  0.51642306794E+03  0.50400001928E-02 0.  1.
        1   -1    0    0  501    0  0.00000000000E+00  0.00000000000E+00 -0.20718219696E+04  0.20718219696E+04  0.50400001928E-02 0. -1.
    10030    2    1    2    0    0  0.00000000000E+00  0.00000000000E+00 -0.15553989017E+04  0.25882450376E+04  0.20687548504E+04 0.  0.
        1    1    3    3  502    0 -0.41676308824E+03  0.57808099327E+03  0.16027415460E+03  0.73044980057E+03  0.50400001928E-02 0.  1.
       -1    1    3    3    0  502  0.41676308824E+03 -0.57808099327E+03 -0.17156730563E+04  0.18577952370E+04  0.50400001928E-02 0. -1.
</event>
<event>
 5   0  0.6214547E-05  0.2025460E+04  0.7818609E-02  0.8594809E-01
       -1   -1    0    0    0  501  0.00000000000E+00  0.00000000000E+00  0.78079998584E+03  0.78079998586E+03  0.50400001928E-02 0. -1.
        1   -1    0    0  501    0  0.00000000000E+00  0.00000000000E+00 -0.13135523141E+04  0.13135523141E+04  0.50400001928E-02 0.  1.
    10030    2    1    2    0    0  0.00000000000E+00  0.00000000000E+00 -0.53275232825E+03  0.20943523000E+04  0.20254595807E+04 0.  0.
        3    1    3    3  502    0 -0.33377497916E+03  0.78351140317E+03  0.30028369745E+03  0.90303165214E+03  0.10100000352E+00 0. -1.
       -3    1    3    3    0  502  0.33377497916E+03 -0.78351140317E+03 -0.83303602570E+03  0.11913206478E+04  0.10100000352E+00 0.  1.
</event>
<event>
 5   0  0.6028501E-05  0.1987470E+04  0.7818609E-02  0.8612501E-01
       -1   -1    0    0    0  501  0.00000000000E+00  0.00000000000E+00  0.66272772763E+03  0.66272772765E+03  0.50400001928E-02 0. -1.
        1   -1    0    0  501    0  0.00000000000E+00  0.00000000000E+00 -0.14900681729E+04  0.14900681729E+04  0.50400001928E-02 0.  1.
    10030    2    1    2    0    0  0.00000000000E+00  0.00000000000E+00 -0.82734044530E+03  0.21527959006E+04  0.19874702456E+04 0.  0.
        4    1    3    3  502    0 -0.11316050634E+03 -0.93515034658E+03 -0.75653928822E+03  0.12081658737E+04  0.12699999809E+01 0. -1.
       -4    1    3    3    0  502  0.11316050634E+03  0.93515034658E+03 -0.70801157082E+02  0.94463002686E+03  0.12699999809E+01 0.  1.
</event>
<event>
 5   0  0.6214547E-05  0.1899371E+04  0.7818609E-02  0.8655169E-01
       -1   -1    0    0    0  501  0.00000000000E+00  0.00000000000E+00  0.83782817595E+03  0.83782817597E+03  0.50400001928E-02 0.  1.
        1   -1    0    0  501    0  0.00000000000E+00  0.00000000000E+00 -0.10764770379E+04  0.10764770379E+04  0.50400001928E-02 0. -1.
    10030    2    1    2    0    0  0.00000000000E+00  0.00000000000E+00 -0.23864886193E+03  0.19143052139E+04  0.18993712572E+04 0.  0.
        3    1    3    3  502    0  0.14685741970E+03  0.82754930691E+03  0.32630337985E+03  0.90159794975E+03  0.10100000352E+00 0.  1.
       -3    1    3    3    0  502 -0.14685741970E+03 -0.82754930691E+03 -0.56495224179E+03  0.10127072641E+04  0.10100000352E+00 0. -1.
</event>
<event>
 5   0  0.1159914E-04  0.1934554E+04  0.7818609E-02  0.8637846E-01
       -2   -1    0    0    0  501  0.00000000000E+00  0.00000000000E+00  0.78115131443E+03  0.78115131444E+03  0.25500000920E-02 0.  1.
        2   -1    0    0  501    0  0.00000000000E+00  0.00000000000E+00 -0.11977504268E+04  0.11977504268E+04  0.25500000920E-02 0. -1.
    10030    2    1    2    0    0  0.00000000000E+00  0.00000000000E+00 -0.41659911236E+03  0.19789017412E+04  0.19345535095E+04 0.  0.
        3    1    3    3  502    0 -0.37037939722E+03  0.77669223585E+03 -0.66023368512E+03  0.10845922074E+04  0.10100000352E+00 0. -1.
       -3    1    3    3    0  502  0.37037939722E+03 -0.77669223585E+03  0.24363457276E+03  0.89430953386E+03  0.10100000352E+00 0.  1.
</event>
<event>
 5   0  0.6222733E-05  0.1981817E+04  0.7818609E-02  0.8615169E-01
        1   -1    0    0  501    0  0.00000000000E+00  0.00000000000E+00  0.15185746545E+04  0.15185746545E+04  0.50400001928E-02 0. -1.
       -1   -1    0    0    0  501  0.00000000000E+00  0.00000000000E+00 -0.64659307219E+03  0.64659307221E+03  0.50400001928E-02 0.  1.
    10030    2    1    2    0    0  0.00000000000E+00  0.00000000000E+00  0.87198158229E+03  0.21651677267E+04  0.19818171976E+04 0.  0.
        2    1    3    3  502    0 -0.94959352844E+03 -0.15941396000E+03  0.18033455793E+03  0.97962300539E+03  0.25500000920E-02 0. -1.
       -2    1    3    3    0  502  0.94959352844E+03  0.15941396000E+03  0.69164702436E+03  0.11855447213E+04  0.25500000920E-02 0.  1.
</event>
<event>
 5   0  0.1274868E-04  0.1994565E+04  0.7818609E-02  0.8609166E-01
       -2   -1    0    0    0  501  0.00000000000E+00  0.00000000000E+00  0.10430577531E+04  0.10430577531E+04  0.25500000920E-02 0. -1.
        2   -1    0    0  501    0  0.00000000000E+00  0.00000000000E+00 -0.95351651126E+03  0.95351651126E+03  0.25500000920E-02 0.  1.
    10030    2    1    2    0    0  0.00000000000E+00  0.00000000000E+00  0.89541241870E+02  0.19965742644E+04  0.19945654061E+04 0.  0.
        1    1    3    3  502    0  0.52048022412E+03  0.59034406753E+03 -0.56835505903E+03  0.97079001587E+03  0.50400001928E-02 0.  1.
       -1    1    3    3    0  502 -0.52048022412E+03 -0.59034406753E+03  0.65789630090E+03  0.10257842485E+04  0.50400001928E-02 0. -1.
</event>
<event>
 5   0  0.6222733E-05  0.2022233E+04  0.7818609E-02  0.8596296E-01
        1   -1    0    0  501    0  0.00000000000E+00  0.00000000000E+00  0.20784975733E+04  0.20784975734E+04  0.50400001928E-02 0. -1.
       -1   -1    0    0    0  501  0.00000000000E+00  0.00000000000E+00 -0.49187292335E+03  0.49187292338E+03  0.50400001928E-02 0.  1.
    10030    2    1    2    0    0  0.00000000000E+00  0.00000000000E+00  0.15866246500E+04  0.25703704967E+04  0.20222330999E+04 0.  0.
        2    1    3    3  502    0 -0.21663586249E+02 -0.10108759458E+04  0.78804259474E+03  0.12819323773E+04  0.25500000920E-02 0. -1.
       -2    1    3    3    0  502  0.21663586249E+02  0.10108759458E+04  0.79858205525E+03  0.12884381195E+04  0.25500000920E-02 0.  1.
</event>
<event>
 5   0  0.6214547E-05  0.1985295E+04  0.7818609E-02  0.8613527E-01
        1   -1    0    0  501    0  0.00000000000E+00  0.00000000000E+00  0.87751334808E+03  0.87751334809E+03  0.50400001928E-02 0. -1.
       -1   -1    0    0    0  501  0.00000000000E+00  0.00000000000E+00 -0.11228882678E+04  0.11228882678E+04  0.50400001928E-02 0.  1.
    10030    2    1    2    0    0  0.00000000000E+00  0.00000000000E+00 -0.24537491969E+03  0.20004016159E+04  0.19852953870E+04 0.  0.
        3    1    3    3  502    0 -0.24464757391E+03 -0.91950537698E+02  0.84222230026E+03  0.88184224783E+03  0.10100000352E+00 0. -1.
       -3    1    3    3    0  502  0.24464757391E+03  0.91950537698E+02 -0.10875972199E+04  0.11185593680E+04  0.10100000352E+00 0.  1.
</event>
<event>
 5   0  0.1274868E-04  0.1994885E+04  0.7818609E-02  0.8609016E-01
       -2   -1    0    0    0  501  0.00000000000E+00  0.00000000000E+00  0.96312822191E+03  0.96312822192E+03  0.25500000920E-02 0.  1.
        2   -1    0    0  501    0  0.00000000000E+00  0.00000000000E+00 -0.10329795905E+04  0.10329795905E+04  0.25500000920E-02 0. -1.
    10030    2    1    2    0    0  0.00000000000E+00  0.00000000000E+00 -0.69851368549E+02  0.19961078124E+04  0.19948852561E+04 0.  0.
        1    1    3    3  502    0  0.29564685042E+03  0.39742859131E+03  0.83136193013E+03  0.96773922326E+03  0.50400001928E-02 0.  1.
       -1    1    3    3    0  502 -0.29564685042E+03 -0.39742859131E+03 -0.90121329867E+03  0.10283685891E+04  0.50400001928E-02 0. -1.
</event>
<event>
 5   0  0.6028501E-05  0.1956779E+04  0.7818609E-02  0.8627099E-01
       -1   -1    0    0    0  501  0.00000000000E+00  0.00000000000E+00  0.10975989877E+04  0.10975989877E+04  0.50400001928E-02 0.  1.
        1   -1    0    0  501    0  0.00000000000E+00  0.00000000000E+00 -0.87212767370E+03  0.87212767372E+03  0.50400001928E-02 0. -1.
    10030    2    1    2    0    0  0.00000000000E+00  0.00000000000E+00  0.22547131396E+03  0.19697266614E+04  0.19567794478E+04 0.  0.
        4    1    3    3  502    0 -0.24294132715E+03 -0.20201282053E+03  0.10448295593E+04  0.10915585595E+04  0.12699999809E+01 0.  1.
       -4    1    3    3    0  502  0.24294132715E+03  0.20201282053E+03 -0.81935824529E+03  0.87816810186E+03  0.12699999809E+01 0. -1.
</event>
<event>
 5   0  0.1281789E-04  0.1991063E+04  0.7818609E-02  0.8610810E-01
        2   -1    0    0  501    0  0.00000000000E+00  0.00000000000E+00  0.25398096169E+04  0.25398096169E+04  0.25500000920E-02 0. -1.
       -2   -1    0    0    0  501  0.00000000000E+00  0.00000000000E+00 -0.39021933651E+03  0.39021933652E+03  0.25500000920E-02 0.  1.
    10030    2    1    2    0    0  0.00000000000E+00  0.00000000000E+00  0.21495902804E+04  0.29300289534E+04  0.19910628554E+04 0.  0.
        2    1    3    3  502    0 -0.33782333227E+03 -0.49020213110E+03 -0.99401287604E+02  0.60357547096E+03  0.25500000920E-02 0.  1.
       -2    1    3    3    0  502  0.33782333227E+03  0.49020213110E+03  0.22489915680E+04  0.23264534825E+04  0.25500000920E-02 0. -1.
</event>
<event>
 5   0  0.6168338E-05  0.1948205E+04  0.7818609E-02  0.8631227E-01
        1   -1    0    0  501    0  0.00000000000E+00  0.00000000000E+00  0.12866409135E+04  0.12866409135E+04  0.50400001928E-02 0.  1.
       -1   -1    0    0    0  501  0.00000000000E+00  0.00000000000E+00 -0.73748324734E+03  0.73748324735E+03  0.50400001928E-02 0. -1.
    10030    2    1    2    0    0  0.00000000000E+00  0.00000000000E+00  0.54915766614E+03  0.20241241608E+04  0.19482054502E+04 0.  0.
        5    1    3    3  502    0  0.11026182127E+03 -0.55956080485E+03 -0.54586960452E+03  0.78946923859E+03  0.46999998093E+01 0. -1.
       -5    1    3    3    0  502 -0.11026182127E+03  0.55956080485E+03  0.10950272707E+04  0.12346549223E+04  0.46999998093E+01 0.  1.
</event>
<event>
 5   0  0.1159914E-04  0.1653820E+04  0.7818609E-02  0.8788150E-01
        2   -1    0    0  501    0  0.00000000000E+00  0.00000000000E+00  0.20956328742E+04  0.20956328742E+04  0.25500000920E-02 0.  1.
       -2   -1    0    0    0  501  0.00000000000E+00  0.00000000000E+00 -0.32628833053E+03  0.32628833054E+03  0.25500000920E-02 0. -1.
    10030    2    1    2    0    0  0.00000000000E+00  0.00000000000E+00  0.17693445437E+04  0.24219212048E+04  0.16538204884E+04 0.  0.
        3    1    3    3  502    0  0.74488020372E+03 -0.34825158804E+03  0.10127991174E+04  0.13045641988E+04  0.10100000352E+00 0.  1.
       -3    1    3    3    0  502 -0.74488020372E+03  0.34825158804E+03  0.75654542634E+03  0.11173570060E+04  0.10100000352E+00 0. -1.
</event>
<event>
 5   0  0.6222733E-05  0.2089162E+04  0.7818609E-02  0.8566033E-01
       -1   -1    0    0    0  501  0.00000000000E+00  0.00000000000E+00  0.88277203967E+03  0.88277203969E+03  0.50400001928E-02 0. -1.
        1   -1    0    0  501    0  0.00000000000E+00  0.00000000000E+00 -0.12360485581E+04  0.12360485581E+04  0.50400001928E-02 0.  1.
    10030    2    1    2    0    0  0.00000000000E+00  0.00000000000E+00 -0.35327651841E+03  0.21188205978E+04  0.20891616565E+04 0.  0.
        2    1    3    3  502    0 -0.16410276633E+03 -0.16627595701E+02  0.86948125296E+03  0.88498804743E+03  0.25500000920E-02 0. -1.
       -2    1    3    3    0  502  0.16410276633E+03  0.16627595701E+02 -0.12227577714E+04  0.12338325503E+04  0.25500000920E-02 0.  1.
</event>
<event>
 5   0  0.1281789E-04  0.2025892E+04  0.7818609E-02  0.8594610E-01
       -2   -1    0    0    0  501  0.00000000000E+00  0.00000000000E+00  0.77631776197E+03  0.77631776197E+03  0.25500000920E-02 0. -1.
        2   -1    0    0  501    0  0.00000000000E+00  0.00000000000E+00 -0.13217008540E+04  0.13217008540E+04  0.25500000920E-02 0.  1.
    10030    2    1    2    0    0  0.00000000000E+00  0.00000000000E+00 -0.54538309206E+03  0.20980186160E+04  0.20258922469E+04 0.  0.
        2    1    3    3  502    0  0.84714495127E+03  0.55533989563E+03 -0.27093381345E+03  0.10485523828E+04  0.25500000920E-02 0.  1.
       -2    1    3    3    0  502 -0.84714495127E+03 -0.55533989563E+03 -0.27444927860E+03  0.10494662332E+04  0.25500000920E-02 0. -1.
</event>
<event>
 5   0  0.1274868E-04  0.1999148E+04  0.7818609E-02  0.8607019E-01
       -2   -1    0    0    0  501  0.00000000000E+00  0.00000000000E+00  0.45371219093E+03  0.45371219094E+03  0.25500000920E-02 0.  1.
        2   -1    0    0  501    0  0.00000000000E+00  0.00000000000E+00 -0.22021622367E+04  0.22021622367E+04  0.25500000920E-02 0. -1.
    10030    2    1    2    0    0  0.00000000000E+00  0.00000000000E+00 -0.17484500457E+04  0.26558744276E+04  0.19991476716E+04 0.  0.
        1    1    3    3  502    0 -0.90909696767E+03  0.14116754527E+03 -0.35498192933E+03  0.98610229827E+03  0.50400001928E-02 0.  1.
       -1    1    3    3    0  502  0.90909696767E+03 -0.14116754527E+03 -0.13934681164E+04  0.16697721293E+04  0.50400001928E-02 0. -1.
</event>
<event>
 5   0  0.6214547E-05  0.2001870E+04  0.7818609E-02  0.8605747E-01
       -1   -1    0    0    0  501  0.00000000000E+00  0.00000000000E+00  0.77648786335E+03  0.77648786336E+03  0.50400001928E-02 0.  1.
        1   -1    0    0  501    0  0.00000000000E+00  0.00000000000E+00 -0.12902591290E+04  0.12902591290E+04  0.50400001928E-02 0. -1.
    10030    2    1    2    0    0  0.00000000000E+00  0.00000000000E+00 -0.51377126562E+03  0.20667469923E+04  0.20018696803E+04 0.  0.
        3    1    3    3  502    0 -0.22481696458E+03 -0.86297200310E+03 -0.72615719481E+03  0.11500294029E+04  0.10100000352E+00 0. -1.
       -3    1    3    3    0  502  0.22481696458E+03  0.86297200310E+03  0.21238592919E+03  0.91671758946E+03  0.10100000352E+00 0.  1.
</event>
<event>
 5   0  0.6028501E-05  0.1999052E+04  0.7818609E-02  0.8607064E-01
       -1   -1    0    0    0  501  0.00000000000E+00  0.00000000000E+00  0.62771570664E+03  0.62771570666E+03  0.50400001928E-02 0. -1.
        1   -1    0    0  501    0  0.00000000000E+00  0.00000000000E+00 -0.15915682667E+04  0.15915682667E+04  0.50400001928E-02 0.  1.
    10030    2    1    2    0    0  0.00000000000E+00  0.00000000000E+00 -0.96385256009E+03  0.22192839734E+04  0.19990521746E+04 0.  0.
        4    1    3    3  502    0  0.19014811688E+02  0.33926532068E+03  0.56162481338E+03  0.65641950366E+03  0.12699999809E+01 0. -1.
       -4    1    3    3    0  502 -0.19014811688E+02 -0.33926532068E+03 -0.15254773735E+04  0.15628644697E+04  0.12699999809E+01 0.  1.
</event>
<event>
 5   0  0.1281789E-04  0.1948259E+04  0.7818609E-02  0.8631201E-01
        2   -1    0    0  501    0  0.00000000000E+00  0.00000000000E+00  0.10564243948E+04  0.10564243948E+04  0.25500000920E-02 0.  1.
       -2   -1    0    0    0  501  0.00000000000E+00  0.00000000000E+00 -0.89824543336E+03  0.89824543336E+03  0.25500000920E-02 0. -1.
    10030    2    1    2    0    0  0.00000000000E+00  0.00000000000E+00  0.15817896148E+03  0.19546698282E+04  0.19482591084E+04 0.  0.
        2    1    3    3  502    0  0.38710068931E+03  0.86058560571E+03  0.32169885382E+03  0.99696774320E+03  0.25500000920E-02 0. -1.
       -2    1    3    3    0  502 -0.38710068931E+03 -0.86058560571E+03 -0.16351989233E+03  0.95770208500E+03  0.25500000920E-02 0.  1.
</event>
<event>
 5   0  0.1242761E-04  0.1999809E+04  0.7818609E-02  0.8606710E-01
        2   -1    0    0  501    0  0.00000000000E+00  0.00000000000E+00  0.10862618456E+04  0.10862618456E+04  0.25500000920E-02 0. -1.
       -2   -1    0    0    0  501  0.00000000000E+00  0.00000000000E+00 -0.92041220766E+03  0.92041220766E+03  0.25500000920E-02 0.  1.
    10030    2    1    2    0    0  0.00000000000E+00  0.00000000000E+00  0.16584963798E+03  0.20066740533E+04  0.19998086543E+04 0.  0.
        4    1    3    3  502    0  0.46801358987E+03 -0.88266318495E+03  0.41844900945E+02  0.99994181181E+03  0.12699999809E+01 0. -1.
       -4    1    3    3    0  502 -0.46801358987E+03  0.88266318495E+03  0.12400473703E+03  0.10067322415E+04  0.12699999809E+01 0.  1.
</event>
<event>
 5   0  0.1159914E-04  0.2005089E+04  0.7818609E-02  0.8604245E-01
       -2   -1    0    0    0  501  0.00000000000E+00  0.00000000000E+00  0.59747688647E+03  0.59747688648E+03  0.25500000920E-02 0.  1.
        2   -1    0    0  501    0  0.00000000000E+00  0.00000000000E+00 -0.16822328517E+04  0.16822328517E+04  0.25500000920E-02 0. -1.
    10030    2    1    2    0    0  0.00000000000E+00  0.00000000000E+00 -0.10847559652E+04  0.22797097382E+04  0.20050887727E+04 0.  0.
        3    1    3    3  502    0  0.46968864932E+03  0.72130223899E+03  0.42036951632E+02  0.86177228012E+03  0.10100000352E+00 0.  1.
       -3    1    3    3    0  502 -0.46968864932E+03 -0.72130223899E+03 -0.11267929169E+04  0.14179374581E+04  0.10100000352E+00 0. -1.
</event>
<event>
 5   0  0.1244229E-04  0.1948026E+04  0.7818609E-02  0.8631313E-01
       -2   -1    0    0    0  501  0.00000000000E+00  0.00000000000E+00  0.15487245235E+04  0.15487245235E+04  0.25500000920E-02 0.  1.
        2   -1    0    0  501    0  0.00000000000E+00  0.00000000000E+00 -0.61256937226E+03  0.61256937227E+03  0.25500000920E-02 0. -1.
    10030    2    1    2    0    0  0.00000000000E+00  0.00000000000E+00  0.93615515119E+03  0.21612938957E+04  0.19480258819E+04 0.  0.
        5    1    3    3  502    0 -0.41327402767E+03  0.25301977251E+03 -0.46932697011E+03  0.67461420241E+03  0.46999998093E+01 0. -1.
       -5    1    3    3    0  502  0.41327402767E+03 -0.25301977251E+03  0.14054821213E+04  0.14866796933E+04  0.46999998093E+01 0.  1.
</event>
<event>
 5   0  0.6028501E-05  0.2000173E+04  0.7818609E-02  0.8606540E-01
        1   -1    0    0  501    0  0.00000000000E+00  0.00000000000E+00  0.19404714068E+04  0.19404714068E+04  0.50400001928E-02 0. -1.
       -1   -1    0    0    0  501  0.00000000000E+00  0.00000000000E+00 -0.51542800978E+03  0.51542800980E+03  0.50400001928E-02 0.  1.
    10030    2    1    2    0    0  0.00000000000E+00  0.00000000000E+00  0.14250433970E+04  0.24558994166E+04  0.20001733078E+04 0.  0.
        4    1    3    3  502    0  0.21342111788E+03  0.18683808965E+02 -0.48692099783E+03  0.53196929357E+03  0.12699999809E+01 0.  1.
       -4    1    3    3    0  502 -0.21342111788E+03 -0.18683808965E+02  0.19119643948E+04  0.19239301230E+04  0.12699999809E+01 0. -1.
</event>
<event>
 5   0  0.6168338E-05  0.2014888E+04  0.7818609E-02  0.8599692E-01
       -1   -1    0    0    0  501  0.00000000000E+00  0.00000000000E+00  0.87703445545E+03  0.87703445546E+03  0.50400001928E-02 0. -1.
        1   -1    0    0  501    0  0.00000000000E+00  0.00000000000E+00 -0.11572442637E+04  0.11572442637E+04  0.50400001928E-02 0.  1.
    10030    2    1    2    0    0  0.00000000000E+00  0.00000000000E+00 -0.28020980821E+03  0.20342787191E+04  0.20148876819E+04 0.  0.
        5    1    3    3  502    0 -0.44705793755E+02  0.46593942515E+03  0.76056948892E+03  0.89307681270E+03  0.46999998093E+01 0. -1.
       -5    1    3    3    0  502  0.44705793755E+02 -0.46593942515E+03 -0.10407792971E+04  0.11412019064E+04  0.46999998093E+01 0.  1.
</event>
<event>
 5   0  0.6256535E-05  0.1999692E+04  0.7818609E-02  0.8606765E-01
        1   -1    0    0  501    0  0.00000000000E+00  0.00000000000E+00  0.15632091557E+04  0.15632091557E+04  0.50400001928E-02 0.  1.
       -1   -1    0    0    0  501  0.00000000000E+00  0.00000000000E+00 -0.63951237999E+03  0.63951238001E+03  0.50400001928E-02 0. -1.
    10030    2    1    2    0    0  0.00000000000E+00  0.00000000000E+00  0.92369677569E+03  0.22027215357E+04  0.19996915838E+04 0.  0.
        1    1    3    3  502    0  0.63112637505E+01 -0.42641248439E+03  0.14580025400E+04  0.15190914540E+04  0.50400001928E-02 0.  1.
       -1    1    3    3    0  502 -0.63112637505E+01  0.42641248439E+03 -0.53430576428E+03  0.68363008174E+03  0.50400001928E-02 0. -1.
</event>
<event>
 5   0  0.1242761E-04  0.1828907E+04  0.7818609E-02  0.8691076E-01
        2   -1    0    0  501    0  0.00000000000E+00  0.00000000000E+00  0.13010168884E+04  0.13010168884E+04  0.25500000920E-02 0. -1.
       -2   -1    0    0    0  501  0.00000000000E+00  0.00000000000E+00 -0.64274735984E+03  0.64274735984E+03  0.25500000920E-02 0.  1.
    10030    2    1    2    0    0  0.00000000000E+00  0.00000000000E+00  0.65826952856E+03  0.19437642482E+04  0.18289069633E+04 0.  0.
        4    1    3    3  502    0  0.46593228499E+03 -0.73760474170E+03  0.37939090567E+02  0.87326664695E+03  0.12699999809E+01 0.  1.
       -4    1    3    3    0  502 -0.46593228499E+03  0.73760474170E+03  0.62033043799E+03  0.10704976013E+04  0.12699999809E+01 0. -1.
</event>
<event>
 5   0  0.1242761E-04  0.1973567E+04  0.7818609E-02  0.8619080E-01
       -2   -1    0    0    0  501  0.00000000000E+00  0.00000000000E+00  0.84705550974E+03  0.84705550974E+03  0.25500000920E-02 0.  1.
        2   -1    0    0  501    0  0.00000000000E+00  0.00000000000E+00 -0.11495600663E+04  0.11495600663E+04  0.25500000920E-02 0. -1.
    10030    2    1    2    0    0  0.00000000000E+00  0.00000000000E+00 -0.30250455656E+03  0.19966155760E+04  0.19735665055E+04 0.  0.
        4    1    3    3  502    0  0.89274532868E+03 -0.20032161608E+03  0.22268126994E+03  0.94165361606E+03  0.12699999809E+01 0.  1.
       -4    1    3    3    0  502 -0.89274532868E+03  0.20032161608E+03 -0.52518582651E+03  0.10549619600E+04  0.12699999809E+01 0. -1.
</event>
<event>
 5   0  0.4479000E-05  0.2004867E+04  0.7818609E-02  0.8604348E-01
       -3   -1    0    0    0  501  0.00000000000E+00  0.00000000000E+00  0.64827457643E+03  0.64827458430E+03  0.10100000352E+00 0. -1.
        3   -1    0    0  501    0  0.00000000000E+00  0.00000000000E+00 -0.15500734583E+04  0.15500734616E+04  0.10100000352E+00 0.  1.
    10030    2    1    2    0    0  0.00000000000E+00  0.00000000000E+00 -0.90179888191E+03  0.21983480459E+04  0.20048673042E+04 0.  0.
        1    1    3    3  502    0 -0.10954449575E+03 -0.51038933670E+03  0.48747864507E+03  0.71423574609E+03  0.50400001928E-02 0. -1.
       -1    1    3    3    0  502  0.10954449575E+03  0.51038933670E+03 -0.13892775270E+04  0.14841122998E+04  0.50400001928E-02 0.  1.
</event>
<event>
 5   0  0.1281789E-04  0.1998894E+04  0.7818609E-02  0.8607138E-01
       -2   -1    0    0    0  501  0.00000000000E+00  0.00000000000E+00  0.14674396265E+04  0.14674396265E+04  0.25500000920E-02 0.  1.
        2   -1    0    0  501    0  0.00000000000E+00  0.00000000000E+00 -0.68070522336E+03  0.68070522337E+03  0.25500000920E-02 0. -1.
    10030    2    1    2    0    0  0.00000000000E+00  0.00000000000E+00  0.78673440309E+03  0.21481448498E+04  0.19988935126E+04 0.  0.
        2    1    3    3  502    0 -0.45185017391E+03 -0.89138698358E+03  0.38000997095E+03  0.10691804863E+04  0.25500000920E-02 0. -1.
       -2    1    3    3    0  502  0.45185017391E+03  0.89138698358E+03  0.40672443214E+03  0.10789643636E+04  0.25500000920E-02 0.  1.
</event>
<event>
 5   0  0.6222733E-05  0.2079811E+04  0.7818609E-02  0.8570190E-01
       -1   -1    0    0    0  501  0.00000000000E+00  0.00000000000E+00  0.11413685117E+04  0.11413685117E+04  0.50400001928E-02 0. -1.
        1   -1    0    0  501    0  0.00000000000E+00  0.00000000000E+00 -0.94746169170E+03  0.94746169172E+03  0.50400001928E-02 0.  1.
    10030    2    1    2    0    0  0.00000000000E+00  0.00000000000E+00  0.19390682003E+03  0.20888302035E+04  0.20798105116E+04 0.  0.
        2    1    3    3  502    0 -0.64462094649E+03  0.44570272933E+03 -0.58954281757E+03  0.98068742285E+03  0.25500000920E-02 0.  1.
       -2    1    3    3    0  502  0.64462094649E+03 -0.44570272933E+03  0.78344963760E+03  0.11081427806E+04  0.25500000920E-02 0. -1.
</event>
<event>
 5   0  0.6214547E-05  0.2043530E+04  0.7818609E-02  0.8586535E-01
        1   -1    0    0  501    0  0.00000000000E+00  0.00000000000E+00  0.14037310222E+04  0.14037310222E+04  0.50400001928E-02 0. -1.
       -1   -1    0    0    0  501  0.00000000000E+00  0.00000000000E+00 -0.74373515245E+03  0.74373515247E+03  0.50400001928E-02 0.  1.
    10030    2    1    2    0    0  0.00000000000E+00  0.00000000000E+00  0.65999586976E+03  0.21474661747E+04  0.20435303823E+04 0.  0.
        3    1    3    3  502    0  0.54223295441E+03 -0.77182432203E+03  0.74275321441E+03  0.12005880678E+04  0.10100000352E+00 0. -1.
       -3    1    3    3    0  502 -0.54223295441E+03  0.77182432203E+03 -0.82757344654E+02  0.94687810684E+03  0.10100000352E+00 0.  1.
</event>
<event>
 5   0  0.1244229E-04  0.1998918E+04  0.7818609E-02  0.8607127E-01
       -2   -1    0    0    0  501  0.00000000000E+00  0.00000000000E+00  0.38467194117E+03  0.38467194118E+03  0.25500000920E-02 0. -1.
        2   -1    0    0  501    0  0.00000000000E+00  0.00000000000E+00 -0.25968067212E+04  0.25968067212E+04  0.25500000920E-02 0.  1.
    10030    2    1    2    0    0  0.00000000000E+00  0.00000000000E+00 -0.22121347800E+04  0.29814786624E+04  0.19989183898E+04 0.  0.
        5    1    3    3  502    0  0.87006059209E+03  0.17283571131E+03 -0.17928574607E+04  0.20003093715E+04  0.46999998093E+01 0.  1.
       -5    1    3    3    0  502 -0.87006059209E+03 -0.17283571131E+03 -0.41927731929E+03  0.98116929094E+03  0.46999998093E+01 0. -1.
</event>
<event>
 5   0  0.1274868E-04  0.1980275E+04  0.7818609E-02  0.8615898E-01
        2   -1    0    0  501    0  0.00000000000E+00  0.00000000000E+00  0.83522626796E+03  0.83522626796E+03  0.25500000920E-02 0.  1.
       -2   -1    0    0    0  501  0.00000000000E+00  0.00000000000E+00 -0.11737809046E+04  0.11737809046E+04  0.25500000920E-02 0. -1.
    10030    2    1    2    0    0  0.00000000000E+00  0.00000000000E+00 -0.33855463659E+03  0.20090071725E+04  0.19802753791E+04 0.  0.
        1    1    3    3  502    0  0.61627504962E+03  0.46761839890E+03  0.45767835331E+03  0.89885003137E+03  0.50400001928E-02 0.  1.
       -1    1    3    3    0  502 -0.61627504962E+03 -0.46761839890E+03 -0.79623298991E+03  0.11101571411E+04  0.50400001928E-02 0. -1.
</event>
<event>
 5   0  0.6028501E-05  0.2002569E+04  0.7818609E-02  0.8605421E-01
        1   -1    0    0  501    0  0.00000000000E+00  0.00000000000E+00  0.17044800998E+04  0.17044800999E+04  0.50400001928E-02 0. -1.
       -1   -1    0    0    0  501  0.00000000000E+00  0.00000000000E+00 -0.58819731317E+03  0.58819731319E+03  0.50400001928E-02 0.  1.
    10030    2    1    2    0    0  0.00000000000E+00  0.00000000000E+00  0.11162827867E+04  0.22926774130E+04  0.20025689652E+04 0.  0.
        4    1    3    3  502    0  0.99488490782E+03  0.11301769311E+03  0.55831668667E+03  0.11464240552E+04  0.12699999809E+01 0. -1.
       -4    1    3    3    0  502 -0.99488490782E+03 -0.11301769311E+03  0.55796610001E+03  0.11462533579E+04  0.12699999809E+01 0.  1.
</event>
<event>
 5   0  0.6028501E-05  0.2001579E+04  0.7818609E-02  0.8605883E-01
        1   -1    0    0  501    0  0.00000000000E+00  0.00000000000E+00  0.16300428254E+04  0.16300428254E+04  0.50400001928E-02 0.  1.
       -1   -1    0    0    0  501  0.00000000000E+00  0.00000000000E+00 -0.61445001442E+03  0.61445001444E+03  0.50400001928E-02 0. -1.
    10030    2    1    2    0    0  0.00000000000E+00  0.00000000000E+00  0.10155928110E+04  0.22444928399E+04  0.20015792141E+04 0.  0.
        4    1    3    3  502    0  0.39996770545E+03  0.77401101735E+03 -0.44422368039E+02  0.87237731519E+03  0.12699999809E+01 0. -1.
       -4    1    3    3    0  502 -0.39996770545E+03 -0.77401101735E+03  0.10600151790E+04  0.13721155247E+04  0.12699999809E+01 0.  1.
</event>
<event>
 5   0  0.6168338E-05  0.2014192E+04  0.7818609E-02  0.8600014E-01
        1   -1    0    0  501    0  0.00000000000E+00  0.00000000000E+00  0.14977430660E+04  0.14977430660E+04  0.50400001928E-02 0.  1.
       -1   -1    0    0    0  501  0.00000000000E+00  0.00000000000E+00 -0.67718059948E+03  0.67718059950E+03  0.50400001928E-02 0. -1.
    10030    2    1    2    0    0  0.00000000000E+00  0.00000000000E+00  0.82056246651E+03  0.21749236655E+04  0.20141921927E+04 0.  0.
        5    1    3    3  502    0  0.90917188518E+03 -0.18609903518E+03  0.83263895395E+03  0.12468103646E+04  0.46999998093E+01 0.  1.
       -5    1    3    3    0  502 -0.90917188518E+03  0.18609903518E+03 -0.12076487442E+02  0.92811330087E+03  0.46999998093E+01 0. -1.
</event>
<event>
 5   0  0.1242761E-04  0.1976846E+04  0.7818609E-02  0.8617523E-01
       -2   -1    0    0    0  501  0.00000000000E+00  0.00000000000E+00  0.18056258768E+04  0.18056258768E+04  0.25500000920E-02 0.  1.
        2   -1    0    0  501    0  0.00000000000E+00  0.00000000000E+00 -0.54107580389E+03  0.54107580390E+03  0.25500000920E-02 0. -1.
    10030    2    1    2    0    0  0.00000000000E+00  0.00000000000E+00  0.12645500729E+04  0.23467016807E+04  0.19768464511E+04 0.  0.
        4    1    3    3  502    0 -0.26868172614E+03 -0.85353719561E+03  0.13388904309E+03  0.90478920364E+03  0.12699999809E+01 0. -1.
       -4    1    3    3    0  502  0.26868172614E+03  0.85353719561E+03  0.11306610298E+04  0.14419124771E+04  0.12699999809E+01 0.  1.
</event>
<event>
 5   0  0.6168338E-05  0.1986363E+04  0.7818609E-02  0.8613023E-01
       -1   -1    0    0    0  501  0.00000000000E+00  0.00000000000E+00  0.76327566298E+03  0.76327566299E+03  0.50400001928E-02 0. -1.
        1   -1    0    0  501    0  0.00000000000E+00  0.00000000000E+00 -0.12923376814E+04  0.12923376814E+04  0.50400001928E-02 0.  1.
    10030    2    1    2    0    0  0.00000000000E+00  0.00000000000E+00 -0.52906201840E+03  0.20556133444E+04  0.19863634114E+04 0.  0.
        5    1    3    3  502    0  0.54712498068E+03 -0.21002894955E+03 -0.10943140134E+04  0.12413714811E+04  0.46999998093E+01 0.  1.
       -5    1    3    3    0  502 -0.54712498068E+03  0.21002894955E+03  0.56525199498E+03  0.81424186331E+03  0.46999998093E+01 0. -1.
</event>
<event>
 5   0  0.1159914E-04  0.2100485E+04  0.7818609E-02  0.8561030E-01
       -2   -1    0    0    0  501  0.00000000000E+00  0.00000000000E+00  0.48337706523E+03  0.48337706523E+03  0.25500000920E-02 0.  1.
        2   -1    0    0  501    0  0.00000000000E+00  0.00000000000E+00 -0.22818811015E+04  0.22818811015E+04  0.25500000920E-02 0. -1.
    10030    2    1    2    0    0  0.00000000000E+00  0.00000000000E+00 -0.17985040363E+04  0.27652581668E+04  0.21004846965E+04 0.  0.
        3    1    3    3  502    0  0.76728567561E+03 -0.45058696646E+03 -0.16337201809E+04  0.18603218974E+04  0.10100000352E+00 0. -1.
       -3    1    3    3    0  502 -0.76728567561E+03  0.45058696646E+03 -0.16478385538E+03  0.90493626932E+03  0.10100000352E+00 0.  1.
</event>
<event>
 5   0  0.1159914E-04  0.2004192E+04  0.7818609E-02  0.8604663E-01
       -2   -1    0    0    0  501  0.00000000000E+00  0.00000000000E+00  0.87434897158E+03  0.87434897159E+03  0.25500000920E-02 0. -1.
        2   -1    0    0  501    0  0.00000000000E+00  0.00000000000E+00 -0.11485073634E+04  0.11485073634E+04  0.25500000920E-02 0.  1.
    10030    2    1    2    0    0  0.00000000000E+00  0.00000000000E+00 -0.27415839185E+03  0.20228563350E+04  0.20041918392E+04 0.  0.
        3    1    3    3  502    0 -0.82838578039E+03 -0.29139962651E+03  0.35017898053E+03  0.94538990480E+03  0.10100000352E+00 0. -1.
       -3    1    3    3    0  502  0.82838578039E+03  0.29139962651E+03 -0.62433737238E+03  0.10774664302E+04  0.10100000352E+00 0.  1.
</event>
<event>
 5   0  0.4479000E-05  0.1727844E+04  0.7818609E-02  0.8745641E-01
        3   -1    0    0  501    0  0.00000000000E+00  0.00000000000E+00  0.73430664816E+03  0.73430665511E+03  0.10100000352E+00 0.  1.
       -3   -1    0    0    0  501  0.00000000000E+00  0.00000000000E+00 -0.10164163424E+04  0.10164163474E+04  0.10100000352E+00 0. -1.
    10030    2    1    2    0    0  0.00000000000E+00  0.00000000000E+00 -0.28210969423E+03  0.17507230025E+04  0.17278440763E+04 0.  0.
        5    1    3    3  502    0  0.17928047417E+03  0.21612057798E+03  0.68676368192E+03  0.74196767952E+03  0.46999998093E+01 0.  1.
       -5    1    3    3    0  502 -0.17928047417E+03 -0.21612057798E+03 -0.96887337615E+03  0.10087553230E+04  0.46999998093E+01 0. -1.
</event>
<event>
 5   0  0.6168338E-05  0.1929310E+04  0.7818609E-02  0.8640403E-01
       -1   -1    0    0    0  501  0.00000000000E+00  0.00000000000E+00  0.41377610990E+03  0.41377610993E+03  0.50400001928E-02 0.  1.
        1   -1    0    0  501    0  0.00000000000E+00  0.00000000000E+00 -0.22489435267E+04  0.22489435267E+04  0.50400001928E-02 0. -1.
    10030    2    1    2    0    0  0.00000000000E+00  0.00000000000E+00 -0.18351674168E+04  0.26627196366E+04  0.19293098288E+04 0.  0.
        5    1    3    3  502    0  0.78120858998E+03 -0.16678587354E+03 -0.17124429686E+03  0.81697679764E+03  0.46999998093E+01 0.  1.
       -5    1    3    3    0  502 -0.78120858998E+03  0.16678587354E+03 -0.16639231199E+04  0.18457428390E+04  0.46999998093E+01 0. -1.
</event>
<event>
 5   0  0.1159914E-04  0.2015386E+04  0.7818609E-02  0.8599461E-01
       -2   -1    0    0    0  501  0.00000000000E+00  0.00000000000E+00  0.78035670242E+03  0.78035670242E+03  0.25500000920E-02 0.  1.
        2   -1    0    0  501    0  0.00000000000E+00  0.00000000000E+00 -0.13012570771E+04  0.13012570771E+04  0.25500000920E-02 0. -1.
    10030    2    1    2    0    0  0.00000000000E+00  0.00000000000E+00 -0.52090037471E+03  0.20816137796E+04  0.20153855033E+04 0.  0.
        3    1    3    3  502    0 -0.18604367937E+03  0.83070779672E+03 -0.81738850224E+03  0.11801744227E+04  0.10100000352E+00 0. -1.
       -3    1    3    3    0  502  0.18604367937E+03 -0.83070779672E+03  0.29648812752E+03  0.90143935688E+03  0.10100000352E+00 0.  1.
</event>
<event>
 5   0  0.1281789E-04  0.2033882E+04  0.7818609E-02  0.8590941E-01
       -2   -1    0    0    0  501  0.00000000000E+00  0.00000000000E+00  0.11259284944E+04  0.11259284944E+04  0.25500000920E-02 0. -1.
        2   -1    0    0  501    0  0.00000000000E+00  0.00000000000E+00 -0.91850370444E+03  0.91850370444E+03  0.25500000920E-02 0.  1.
    10030    2    1    2    0    0  0.00000000000E+00  0.00000000000E+00  0.20742478999E+03  0.20444321989E+04  0.20338824873E+04 0.  0.
        2    1    3    3  502    0 -0.41582475387E+03 -0.31636912981E+03 -0.77326347026E+03  0.93323954410E+03  0.25500000920E-02 0.  1.
       -2    1    3    3    0  502  0.41582475387E+03  0.31636912981E+03  0.98068826025E+03  0.11111926548E+04  0.25500000920E-02 0. -1.
</event>
<event>
 5   0  0.1274868E-04  0.2017576E+04  0.7818609E-02  0.8598447E-01
        2   -1    0    0  501    0  0.00000000000E+00  0.00000000000E+00  0.20606517417E+04  0.20606517417E+04  0.25500000920E-02 0.  1.
       -2   -1    0    0    0  501  0.00000000000E+00  0.00000000000E+00 -0.49385021518E+03  0.49385021519E+03  0.25500000920E-02 0. -1.
    10030    2    1    2    0    0  0.00000000000E+00  0.00000000000E+00  0.15668015265E+04  0.25545019568E+04  0.20175760764E+04 0.  0.
        1    1    3    3  502    0  0.32523116408E+03  0.61632524563E+03  0.17069090234E+04  0.18436839568E+04  0.50400001928E-02 0.  1.
       -1    1    3    3    0  502 -0.32523116408E+03 -0.61632524563E+03 -0.14010749688E+03  0.71081800005E+03  0.50400001928E-02 0. -1.
</event>
<event>
 5   0  0.6256535E-05  0.1932513E+04  0.7818609E-02  0.8638840E-01
        1   -1    0    0  501    0  0.00000000000E+00  0.00000000000E+00  0.14371857834E+04  0.14371857834E+04  0.50400001928E-02 0.  1.
       -1   -1    0    0    0  501  0.00000000000E+00  0.00000000000E+00 -0.64963852135E+03  0.64963852136E+03  0.50400001928E-02 0. -1.
    10030    2    1    2    0    0  0.00000000000E+00  0.00000000000E+00  0.78754726209E+03  0.20868243048E+04  0.19325126103E+04 0.  0.
        1    1    3    3  502    0  0.31402610318E+03  0.49266584149E+03  0.12248510133E+04  0.13570526996E+04  0.50400001928E-02 0.  1.
       -1    1    3    3    0  502 -0.31402610318E+03 -0.49266584149E+03 -0.43730375120E+03  0.72977160515E+03  0.50400001928E-02 0. -1.
</event>
<event>
 5   0  0.1242761E-04  0.1999593E+04  0.7818609E-02  0.8606811E-01
       -2   -1    0    0    0  501  0.00000000000E+00  0.00000000000E+00  0.72571423584E+03  0.72571423584E+03  0.25500000920E-02 0. -1.
        2   -1    0    0  501    0  0.00000000000E+00  0.00000000000E+00 -0.13773919777E+04  0.13773919777E+04  0.25500000920E-02 0.  1.
    10030    2    1    2    0    0  0.00000000000E+00  0.00000000000E+00 -0.65167774186E+03  0.21031062135E+04  0.19995929251E+04 0.  0.
        4    1    3    3  502    0  0.70547884138E+03  0.48308212528E+03  0.21917813250E+03  0.88267174083E+03  0.12699999809E+01 0.  1.
       -4    1    3    3    0  502 -0.70547884138E+03 -0.48308212528E+03 -0.87085587436E+03  0.12204344727E+04  0.12699999809E+01 0. -1.
</event>
<event>
 5   0  0.1242761E-04  0.1991007E+04  0.7818609E-02  0.8610837E-01
        2   -1    0    0  501    0  0.00000000000E+00  0.00000000000E+00  0.16726809348E+04  0.16726809348E+04  0.25500000920E-02 0. -1.
       -2   -1    0    0    0  501  0.00000000000E+00  0.00000000000E+00 -0.59247850983E+03  0.59247850983E+03  0.25500000920E-02 0.  1.
    10030    2    1    2    0    0  0.00000000000E+00  0.00000000000E+00  0.10802024250E+04  0.22651594447E+04  0.19910072905E+04 0.  0.
        4    1    3    3  502    0  0.63087308551E+03  0.64830171446E+03  0.67266090907E+02  0.90709553129E+03  0.12699999809E+01 0.  1.
       -4    1    3    3    0  502 -0.63087308551E+03 -0.64830171446E+03  0.10129363341E+04  0.13580639134E+04  0.12699999809E+01 0. -1.
</event>
<event>
 5   0  0.1159914E-04  0.1995109E+04  0.7818609E-02  0.8608911E-01
       -2   -1    0    0    0  501  0.00000000000E+00  0.00000000000E+00  0.81124462550E+03  0.81124462550E+03  0.25500000920E-02 0.  1.
        2   -1    0    0  501    0  0.00000000000E+00  0.00000000000E+00 -0.12266520508E+04  0.12266520508E+04  0.25500000920E-02 0. -1.
    10030    2    1    2    0    0  0.00000000000E+00  0.00000000000E+00 -0.41540742525E+03  0.20378966763E+04  0.19951089028E+04 0.  0.
        3    1    3    3  502    0 -0.91258182221E+03  0.33041780720E+03 -0.44315399198E+03  0.10669428196E+04  0.10100000352E+00 0. -1.
       -3    1    3    3    0  502  0.91258182221E+03 -0.33041780720E+03  0.27746566724E+02  0.97095385663E+03  0.10100000352E+00 0.  1.
</event>
<event>
 5   0  0.6028501E-05  0.1892937E+04  0.7818609E-02  0.8658380E-01
       -1   -1    0    0    0  501  0.00000000000E+00  0.00000000000E+00  0.74137833347E+03  0.74137833349E+03  0.50400001928E-02 0.  1.
        1   -1    0    0  501    0  0.00000000000E+00  0.00000000000E+00 -0.12082931834E+04  0.12082931834E+04  0.50400001928E-02 0. -1.
    10030    2    1    2    0    0  0.00000000000E+00  0.00000000000E+00 -0.46691484992E+03  0.19496715169E+04  0.18929367519E+04 0.  0.
        4    1    3    3  502    0 -0.27913741189E+03  0.35850550203E+03 -0.10886174715E+04  0.11796327826E+04  0.12699999809E+01 0. -1.
       -4    1    3    3    0  502  0.27913741189E+03 -0.35850550203E+03  0.62170262158E+03  0.77003873427E+03  0.12699999809E+01 0.  1.
</event>
<event>
 5   0  0.6222733E-05  0.1959880E+04  0.7818609E-02  0.8625611E-01
        1   -1    0    0  501    0  0.00000000000E+00  0.00000000000E+00  0.83645123642E+03  0.83645123644E+03  0.50400001928E-02 0. -1.
       -1   -1    0    0    0  501  0.00000000000E+00  0.00000000000E+00 -0.11480430821E+04  0.11480430821E+04  0.50400001928E-02 0.  1.
    10030    2    1    2    0    0  0.00000000000E+00  0.00000000000E+00 -0.31159184571E+03  0.19844943186E+04  0.19598796448E+04 0.  0.
        2    1    3    3  502    0  0.93978027807E+03  0.17666382686E+03  0.61102161125E+02  0.95819129242E+03  0.25500000920E-02 0. -1.
       -2    1    3    3    0  502 -0.93978027807E+03 -0.17666382686E+03 -0.37269400684E+03  0.10263030262E+04  0.25500000920E-02 0.  1.
</event>
<event>
 5   0  0.1159914E-04  0.2023904E+04  0.7818609E-02  0.8595526E-01
        2   -1    0    0  501    0  0.00000000000E+00  0.00000000000E+00  0.17371963053E+04  0.17371963053E+04  0.25500000920E-02 0. -1.
       -2   -1    0    0    0  501  0.00000000000E+00  0.00000000000E+00 -0.58948264797E+03  0.58948264798E+03  0.25500000920E-02 0.  1.
    10030    2    1    2    0    0  0.00000000000E+00  0.00000000000E+00  0.11477136573E+04  0.23266789533E+04  0.20239042251E+04 0.  0.
        3    1    3    3  502    0 -0.50593613559E+03 -0.95422502510E+02 -0.42766144541E+03  0.66930646895E+03  0.10100000352E+00 0.  1.
       -3    1    3    3    0  502  0.50593613559E+03  0.95422502510E+02  0.15753751027E+04  0.16573724843E+04  0.10100000352E+00 0. -1.
</event>
<event>
 5   0  0.1242761E-04  0.2048441E+04  0.7818609E-02  0.8584302E-01
        2   -1    0    0  501    0  0.00000000000E+00  0.00000000000E+00  0.15359597575E+04  0.15359597575E+04  0.25500000920E-02 0.  1.
       -2   -1    0    0    0  501  0.00000000000E+00  0.00000000000E+00 -0.68297859599E+03  0.68297859599E+03  0.25500000920E-02 0. -1.
    10030    2    1    2    0    0  0.00000000000E+00  0.00000000000E+00  0.85298116151E+03  0.22189383535E+04  0.20484410059E+04 0.  0.
        4    1    3    3  502    0  0.52834011469E+03  0.79085122127E+03  0.83817188813E+03  0.12677234154E+04  0.12699999809E+01 0.  1.
       -4    1    3    3    0  502 -0.52834011469E+03 -0.79085122127E+03  0.14809273383E+02  0.95121493810E+03  0.12699999809E+01 0. -1.
</event>
<event>
 5   0  0.1242761E-04  0.2019546E+04  0.7818609E-02  0.8597536E-01
        2   -1    0    0  501    0  0.00000000000E+00  0.00000000000E+00  0.21186177965E+04  0.21186177965E+04  0.25500000920E-02 0. -1.
       -2   -1    0    0    0  501  0.00000000000E+00  0.00000000000E+00 -0.48127685234E+03  0.48127685235E+03  0.25500000920E-02 0.  1.
    10030    2    1    2    0    0  0.00000000000E+00  0.00000000000E+00  0.16373409441E+04  0.25998946488E+04  0.20195461910E+04 0.  0.
        4    1    3    3  502    0  0.85546330517E+03  0.97102640432E+02  0.13941731971E+03  0.87217268428E+03  0.12699999809E+01 0.  1.
       -4    1    3    3    0  502 -0.85546330517E+03 -0.97102640432E+02  0.14979236244E+04  0.17277219645E+04  0.12699999809E+01 0. -1.
</event>
<event>
 5   0  0.6214547E-05  0.1993500E+04  0.7818609E-02  0.8609665E-01
        1   -1    0    0  501    0  0.00000000000E+00  0.00000000000E+00  0.84761353712E+03  0.84761353713E+03  0.50400001928E-02 0. -1.
       -1   -1    0    0    0  501  0.00000000000E+00  0.00000000000E+00 -0.11721272529E+04  0.11721272529E+04  0.50400001928E-02 0.  1.
    10030    2    1    2    0    0  0.00000000000E+00  0.00000000000E+00 -0.32451371575E+03  0.20197407900E+04  0.19935003655E+04 0.  0.
        3    1    3    3  502    0  0.88348173326E+03  0.41543057328E+03 -0.36587081600E+03  0.10425852476E+04  0.10100000352E+00 0.  1.
       -3    1    3    3    0  502 -0.88348173326E+03 -0.41543057328E+03  0.41357100241E+02  0.97715554246E+03  0.10100000352E+00 0. -1.
</event>
<event>
 5   0  0.6256535E-05  0.1999857E+04  0.7818609E-02  0.8606687E-01
       -1   -1    0    0    0  501  0.00000000000E+00  0.00000000000E+00  0.11310728349E+04  0.11310728349E+04  0.50400001928E-02 0.  1.
        1   -1    0    0  501    0  0.00000000000E+00  0.00000000000E+00 -0.88399025223E+03  0.88399025224E+03  0.50400001928E-02 0. -1.
    10030    2    1    2    0    0  0.00000000000E+00  0.00000000000E+00  0.24708258263E+03  0.20150630871E+04  0.19998573555E+04 0.  0.
        1    1    3    3  502    0 -0.30258682180E+03 -0.85514358888E+03  0.54748737880E+03  0.10595148759E+04  0.50400001928E-02 0. -1.
       -1    1    3    3    0  502  0.30258682180E+03  0.85514358888E+03 -0.30040479617E+03  0.95554821119E+03  0.50400001928E-02 0.  1.
</event>
<event>
 5   0  0.6222733E-05  0.2019696E+04  0.7818609E-02  0.8597467E-01
       -1   -1    0    0    0  501  0.00000000000E+00  0.00000000000E+00  0.11066191959E+04  0.11066191959E+04  0.50400001928E-02 0. -1.
        1   -1    0    0  501    0  0.00000000000E+00  0.00000000000E+00 -0.92153904044E+03  0.92153904045E+03  0.50400001928E-02 0.  1.
    10030    2    1    2    0    0  0.00000000000E+00  0.00000000000E+00  0.18508015546E+03  0.20281582364E+04  0.20196958107E+04 0.  0.
        2    1    3    3  502    0 -0.85732703846E+03  0.47186532291E+03 -0.15775566866E+03  0.99123830881E+03  0.25500000920E-02 0.  1.
       -2    1    3    3    0  502  0.85732703846E+03 -0.47186532291E+03  0.34283582412E+03  0.10369199276E+04  0.25500000920E-02 0. -1.
</event>
<event>
 5   0  0.1274868E-04  0.1991109E+04  0.7818609E-02  0.8610789E-01
        2   -1    0    0  501    0  0.00000000000E+00  0.00000000000E+00  0.94087470722E+03  0.94087470722E+03  0.25500000920E-02 0.  1.
       -2   -1    0    0    0  501  0.00000000000E+00  0.00000000000E+00 -0.10534124131E+04  0.10534124131E+04  0.25500000920E-02 0. -1.
    10030    2    1    2    0    0  0.00000000000E+00  0.00000000000E+00 -0.11253770585E+03  0.19942871203E+04  0.19911093347E+04 0.  0.
        1    1    3    3  502    0 -0.77488038776E+03 -0.24920666798E+03 -0.63040750403E+03  0.10295422283E+04  0.50400001928E-02 0. -1.
       -1    1    3    3    0  502  0.77488038776E+03  0.24920666798E+03  0.51786979818E+03  0.96474489198E+03  0.50400001928E-02 0.  1.
</event>
<event>
 5   0  0.1242761E-04  0.1965260E+04  0.7818609E-02  0.8623037E-01
       -2   -1    0    0    0  501  0.00000000000E+00  0.00000000000E+00  0.13450458496E+04  0.13450458496E+04  0.25500000920E-02 0. -1.
        2   -1    0    0  501    0  0.00000000000E+00  0.00000000000E+00 -0.71786522859E+03  0.71786522860E+03  0.25500000920E-02 0.  1.
    10030    2    1    2    0    0  0.00000000000E+00  0.00000000000E+00  0.62718062098E+03  0.20629110782E+04  0.19652599281E+04 0.  0.
        4    1    3    3  502    0 -0.21994186798E+03  0.32276213183E+03 -0.63288330140E+03  0.74370202711E+03  0.12699999809E+01 0.  1.
       -4    1    3    3    0  502  0.21994186798E+03 -0.32276213183E+03  0.12600639224E+04  0.13192090511E+04  0.12699999809E+01 0. -1.
</event>
<event>
 5   0  0.6168338E-05  0.1983867E+04  0.7818609E-02  0.8614201E-01
        1   -1    0    0  501    0  0.00000000000E+00  0.00000000000E+00  0.62231360802E+03  0.62231360804E+03  0.50400001928E-02 0. -1.
       -1   -1    0    0    0  501  0.00000000000E+00  0.00000000000E+00 -0.15810876329E+04  0.15810876329E+04  0.50400001928E-02 0.  1.
    10030    2    1    2    0    0  0.00000000000E+00  0.00000000000E+00 -0.95877402489E+03  0.22034012410E+04  0.19838672833E+04 0.  0.
        5    1    3    3  502    0  0.58166768595E+03 -0.47199561570E+03 -0.12015661204E+04  0.14159450518E+04  0.46999998093E+01 0.  1.
       -5    1    3    3    0  502 -0.58166768595E+03  0.47199561570E+03  0.24279209552E+03  0.78745618911E+03  0.46999998093E+01 0. -1.
</event>
<event>
 5   0  0.1274868E-04  0.2000156E+04  0.7818609E-02  0.8606548E-01
       -2   -1    0    0    0  501  0.00000000000E+00  0.00000000000E+00  0.36826459035E+03  0.36826459036E+03  0.25500000920E-02 0.  1.
        2   -1    0    0  501    0  0.00000000000E+00  0.00000000000E+00 -0.27158615213E+04  0.27158615213E+04  0.25500000920E-02 0. -1.
    10030    2    1    2    0    0  0.00000000000E+00  0.00000000000E+00 -0.23475969309E+04  0.30841261116E+04  0.20001556245E+04 0.  0.
        1    1    3    3  502    0  0.20020314888E+03  0.96786369342E+03 -0.93835935631E+03  0.13628498492E+04  0.50400001928E-02 0.  1.
       -1    1    3    3    0  502 -0.20020314888E+03 -0.96786369342E+03 -0.14092375746E+04  0.17212762624E+04  0.50400001928E-02 0. -1.
</event>
<event>
 5   0  0.6214547E-05  0.1904050E+04  0.7818609E-02  0.8652843E-01
       -1   -1    0    0    0  501  0.00000000000E+00  0.00000000000E+00  0.54318225948E+03  0.54318225950E+03  0.50400001928E-02 0. -1.
        1   -1    0    0  501    0  0.00000000000E+00  0.00000000000E+00 -0.16685954799E+04  0.16685954799E+04  0.50400001928E-02 0.  1.
    10030    2    1    2    0    0  0.00000000000E+00  0.00000000000E+00 -0.11254132204E+04  0.22117777394E+04  0.19040498554E+04 0.  0.
        3    1    3    3  502    0 -0.89628707354E+03 -0.18919231024E+03 -0.86389324259E+03  0.12591408949E+04  0.10100000352E+00 0.  1.
       -3    1    3    3    0  502  0.89628707354E+03  0.18919231024E+03 -0.26151997781E+03  0.95263684447E+03  0.10100000352E+00 0. -1.
</event>
<event>
 5   0  0.4479000E-05  0.2016223E+04  0.7818609E-02  0.8599073E-01
       -3   -1    0    0    0  501  0.00000000000E+00  0.00000000000E+00  0.11016126794E+04  0.11016126840E+04  0.10100000352E+00 0. -1.
        3   -1    0    0  501    0  0.00000000000E+00  0.00000000000E+00 -0.92254626351E+03  0.92254626904E+03  0.10100000352E+00 0.  1.
    10030    2    1    2    0    0  0.00000000000E+00  0.00000000000E+00  0.17906641585E+03  0.20241589530E+04  0.20162228760E+04 0.  0.
        4    1    3    3  502    0 -0.44256798797E+03 -0.86554907372E+03  0.35750223460E+03  0.10357852498E+04  0.12699999809E+01 0. -1.
       -4    1    3    3    0  502  0.44256798797E+03  0.86554907372E+03 -0.17843581874E+03  0.98837370327E+03  0.12699999809E+01 0.  1.
</event>
<event>
 5   0  0.6168338E-05  0.1986206E+04  0.7818609E-02  0.8613097E-01
       -1   -1    0    0    0  501  0.00000000000E+00  0.00000000000E+00  0.34845258106E+03  0.34845258110E+03  0.50400001928E-02 0. -1.
        1   -1    0    0  501    0  0.00000000000E+00  0.00000000000E+00 -0.28303820359E+04  0.28303820359E+04  0.50400001928E-02 0.  1.
    10030    2    1    2    0    0  0.00000000000E+00  0.00000000000E+00 -0.24819294549E+04  0.31788346170E+04  0.19862063598E+04 0.  0.
        5    1    3    3  502    0 -0.96144319232E+03 -0.45072784445E+01 -0.16389555594E+04  0.19001554524E+04  0.46999998093E+01 0.  1.
       -5    1    3    3    0  502  0.96144319232E+03  0.45072784445E+01 -0.84297389549E+03  0.12786791646E+04  0.46999998093E+01 0. -1.
</event>
<event>
 5   0  0.1244229E-04  0.1965426E+04  0.7818609E-02  0.8622958E-01
       -2   -1    0    0    0  501  0.00000000000E+00  0.00000000000E+00  0.87662090440E+03  0.87662090441E+03  0.25500000920E-02 0.  1.
        2   -1    0    0  501    0  0.00000000000E+00  0.00000000000E+00 -0.11016448041E+04  0.11016448041E+04  0.25500000920E-02 0. -1.
    10030    2    1    2    0    0  0.00000000000E+00  0.00000000000E+00 -0.22502389967E+03  0.19782657085E+04  0.19654260245E+04 0.  0.
        5    1    3    3  502    0  0.27470197539E+03  0.25227713061E+03  0.80260174758E+03  0.88504044039E+03  0.46999998093E+01 0.  1.
       -5    1    3    3    0  502 -0.27470197539E+03 -0.25227713061E+03 -0.10276256472E+04  0.10932252681E+04  0.46999998093E+01 0. -1.
</event>
<event>
 5   0  0.1244229E-04  0.1989904E+04  0.7818609E-02  0.8611356E-01
        2   -1    0    0  501    0  0.00000000000E+00  0.00000000000E+00  0.21041887534E+04  0.21041887534E+04  0.25500000920E-02 0. -1.
       -2   -1    0    0    0  501  0.00000000000E+00  0.00000000000E+00 -0.47045639593E+03  0.47045639593E+03  0.25500000920E-02 0.  1.
    10030    2    1    2    0    0  0.00000000000E+00  0.00000000000E+00  0.16337323575E+04  0.25746451494E+04  0.19899035728E+04 0.  0.
        5    1    3    3  502    0 -0.39674905527E+03 -0.91170801571E+03  0.77047381732E+03  0.12578844589E+04  0.46999998093E+01 0. -1.
       -5    1    3    3    0  502  0.39674905527E+03  0.91170801571E+03  0.86325854018E+03  0.13167606905E+04  0.46999998093E+01 0.  1.
</event>
<event>
 5   0  0.1242761E-04  0.2002422E+04  0.7818609E-02  0.8605489E-01
        2   -1    0    0  501    0  0.00000000000E+00  0.00000000000E+00  0.22719746799E+04  0.22719746799E+04  0.25500000920E-02 0.  1.
       -2   -1    0    0    0  501  0.00000000000E+00  0.00000000000E+00 -0.44121251485E+03  0.44121251486E+03  0.25500000920E-02 0. -1.
    10030    2    1    2    0    0  0.00000000000E+00  0.00000000000E+00  0.18307621650E+04  0.27131871947E+04  0.20024221954E+04 0.  0.
        4    1    3    3  502    0 -0.11141228932E+03  0.54634977589E+03 -0.21135899068E+03  0.59630949319E+03  0.12699999809E+01 0. -1.
       -4    1    3    3    0  502  0.11141228932E+03 -0.54634977589E+03  0.20421211557E+04  0.21168777015E+04  0.12699999809E+01 0.  1.
</event>
<event>
 5   0  0.6256535E-05  0.2004827E+04  0.7818609E-02  0.8604367E-01
        1   -1    0    0  501    0  0.00000000000E+00  0.00000000000E+00  0.12315565821E+04  0.12315565821E+04  0.50400001928E-02 0.  1.
       -1   -1    0    0    0  501  0.00000000000E+00  0.00000000000E+00 -0.81590491013E+03  0.81590491015E+03  0.50400001928E-02 0. -1.
    10030    2    1    2    0    0  0.00000000000E+00  0.00000000000E+00  0.41565167194E+03  0.20474614922E+04  0.20048272369E+04 0.  0.
        1    1    3    3  502    0 -0.82614496736E+03 -0.43724275233E+03  0.57765427352E+03  0.10988089876E+04  0.50400001928E-02 0.  1.
       -1    1    3    3    0  502  0.82614496736E+03  0.43724275233E+03 -0.16200260158E+03  0.94865250461E+03  0.50400001928E-02 0. -1.
</event>
<event>
 5   0  0.1244229E-04  0.1981971E+04  0.7818609E-02  0.8615096E-01
        2   -1    0    0  501    0  0.00000000000E+00  0.00000000000E+00  0.25172569749E+04  0.25172569749E+04  0.25500000920E-02 0. -1.
       -2   -1    0    0    0  501  0.00000000000E+00  0.00000000000E+00 -0.39012808320E+03  0.39012808321E+03  0.25500000920E-02 0.  1.
    10030    2    1    2    0    0  0.00000000000E+00  0.00000000000E+00  0.21271288917E+04  0.29073850582E+04  0.19819713808E+04 0.  0.
        5    1    3    3  502    0 -0.26024446583E+03  0.33783285421E+02  0.24653420069E+04  0.24792744490E+04  0.46999998093E+01 0. -1.
       -5    1    3    3    0  502  0.26024446583E+03 -0.33783285421E+02 -0.33821311520E+03  0.42811060914E+03  0.46999998093E+01 0.  1.
</event>
<event>
 5   0  0.6168338E-05  0.1994792E+04  0.7818609E-02  0.8609060E-01
        1   -1    0    0  501    0  0.00000000000E+00  0.00000000000E+00  0.67913279540E+03  0.67913279542E+03  0.50400001928E-02 0.  1.
       -1   -1    0    0    0  501  0.00000000000E+00  0.00000000000E+00 -0.14648070484E+04  0.14648070484E+04  0.50400001928E-02 0. -1.
    10030    2    1    2    0    0  0.00000000000E+00  0.00000000000E+00 -0.78567425295E+03  0.21439398438E+04  0.19947917240E+04 0.  0.
        5    1    3    3  502    0  0.59788618746E+03 -0.74347827316E+03 -0.80324048798E+02  0.95744549643E+03  0.46999998093E+01 0. -1.
       -5    1    3    3    0  502 -0.59788618746E+03  0.74347827316E+03 -0.70535020415E+03  0.11864943474E+04  0.46999998093E+01 0.  1.
</event>
<event>
 5   0  0.1159914E-04  0.2016719E+04  0.7818609E-02  0.8598844E-01
       -2   -1    0    0    0  501  0.00000000000E+00  0.00000000000E+00  0.42744253068E+03  0.42744253068E+03  0.25500000920E-02 0. -1.
        2   -1    0    0  501    0  0.00000000000E+00  0.00000000000E+00 -0.23787736985E+04  0.23787736985E+04  0.25500000920E-02 0.  1.
    10030    2    1    2    0    0  0.00000000000E+00  0.00000000000E+00 -0.19513311678E+04  0.28062162292E+04  0.20167191670E+04 0.  0.
        3    1    3    3  502    0 -0.26563978686E+03 -0.55975398365E+03  0.13132330318E+03  0.63335206538E+03  0.10100000352E+00 0. -1.
       -3    1    3    3    0  502  0.26563978686E+03  0.55975398365E+03 -0.20826544710E+04  0.21728641638E+04  0.10100000352E+00 0.  1.
</event>
<event>
 5   0  0.1244229E-04  0.1871685E+04  0.7818609E-02  0.8669080E-01
        2   -1    0    0  501    0  0.00000000000E+00  0.00000000000E+00  0.81375271901E+03  0.81375271901E+03  0.25500000920E-02 0. -1.
       -2   -1    0    0    0  501  0.00000000000E+00  0.00000000000E+00 -0.10762501686E+04  0.10762501686E+04  0.25500000920E-02 0.  1.
    10030    2    1    2    0    0  0.00000000000E+00  0.00000000000E+00 -0.26249744962E+03  0.18900028876E+04  0.18716853379E+04 0.  0.
        5    1    3    3  502    0  0.62024481564E+03  0.15384671895E+03  0.55911381865E+03  0.84911883530E+03  0.46999998093E+01 0. -1.
       -5    1    3    3    0  502 -0.62024481564E+03 -0.15384671895E+03 -0.82161126827E+03  0.10408840523E+04  0.46999998093E+01 0.  1.
</event>
<event>
 5   0  0.6028501E-05  0.2004083E+04  0.7818609E-02  0.8604714E-01
       -1   -1    0    0    0  501  0.00000000000E+00  0.00000000000E+00  0.80445343431E+03  0.80445343433E+03  0.50400001928E-02 0.  1.
        1   -1    0    0  501    0  0.00000000000E+00  0.00000000000E+00 -0.12481605716E+04  0.12481605716E+04  0.50400001928E-02 0. -1.
    10030    2    1    2    0    0  0.00000000000E+00  0.00000000000E+00 -0.44370713732E+03  0.20526140060E+04  0.20040828910E+04 0.  0.
        4    1    3    3  502    0  0.73705626539E+03 -0.45023429678E+03 -0.74221441406E+03  0.11387917763E+04  0.12699999809E+01 0. -1.
       -4    1    3    3    0  502 -0.73705626539E+03  0.45023429678E+03  0.29850727674E+03  0.91382222971E+03  0.12699999809E+01 0.  1.
</event>
<event>
 5   0  0.1159914E-04  0.1999560E+04  0.7818609E-02  0.8606826E-01
       -2   -1    0    0    0  501  0.00000000000E+00  0.00000000000E+00  0.61044867569E+03  0.61044867570E+03  0.25500000920E-02 0. -1.
        2   -1    0    0  501    0  0.00000000000E+00  0.00000000000E+00 -0.16374186462E+04  0.16374186462E+04  0.25500000920E-02 0.  1.
    10030    2    1    2    0    0  0.00000000000E+00  0.00000000000E+00 -0.10269699705E+04  0.22478673219E+04  0.19995599957E+04 0.  0.
        3    1    3    3  502    0 -0.40660457597E+03 -0.90771585076E+03 -0.39947791798E+03  0.10718479202E+04  0.10100000352E+00 0. -1.
       -3    1    3    3    0  502  0.40660457597E+03  0.90771585076E+03 -0.62749205252E+03  0.11760194017E+04  0.10100000352E+00 0.  1.
</event>
<event>
 5   0  0.1281789E-04  0.2010987E+04  0.7818609E-02  0.8601501E-01
        2   -1    0    0  501    0  0.00000000000E+00  0.00000000000E+00  0.10373308521E+04  0.10373308521E+04  0.25500000920E-02 0.  1.
       -2   -1    0    0    0  501  0.00000000000E+00  0.00000000000E+00 -0.97463365481E+03  0.97463365481E+03  0.25500000920E-02 0. -1.
    10030    2    1    2    0    0  0.00000000000E+00  0.00000000000E+00  0.62697197328E+02  0.20119645069E+04  0.20109873790E+04 0.  0.
        2    1    3    3  502    0  0.13187393483E+03  0.93495986304E+03 -0.31447363028E+03  0.99520567941E+03  0.25500000920E-02 0. -1.
       -2    1    3    3    0  502 -0.13187393483E+03 -0.93495986304E+03  0.37717082761E+03  0.10167588275E+04  0.25500000920E-02 0.  1.
</event>
<event>
 5   0  0.1242761E-04  0.1988203E+04  0.7818609E-02  0.8612156E-01
       -2   -1    0    0    0  501  0.00000000000E+00  0.00000000000E+00  0.12576602819E+04  0.12576602819E+04  0.25500000920E-02 0.  1.
        2   -1    0    0  501    0  0.00000000000E+00  0.00000000000E+00 -0.78577505348E+03  0.78577505348E+03  0.25500000920E-02 0. -1.
    10030    2    1    2    0    0  0.00000000000E+00  0.00000000000E+00  0.47188522839E+03  0.20434353354E+04  0.19882032846E+04 0.  0.
        4    1    3    3  502    0 -0.79743270728E+03 -0.49834829003E+03 -0.95484959489E+02  0.94518195666E+03  0.12699999809E+01 0. -1.
       -4    1    3    3    0  502  0.79743270728E+03  0.49834829003E+03  0.56737018787E+03  0.10982533787E+04  0.12699999809E+01 0.  1.
</event>
<event>
 5   0  0.1159914E-04  0.1987000E+04  0.7818609E-02  0.8612723E-01
       -2   -1    0    0    0  501  0.00000000000E+00  0.00000000000E+00  0.59700763416E+03  0.59700763416E+03  0.25500000920E-02 0. -1.
        2   -1    0    0  501    0  0.00000000000E+00  0.00000000000E+00 -0.16533151766E+04  0.16533151766E+04  0.25500000920E-02 0.  1.
    10030    2    1    2    0    0  0.00000000000E+00  0.00000000000E+00 -0.10563075425E+04  0.22503228108E+04  0.19869995291E+04 0.  0.
        3    1    3    3  502    0  0.52327935405E+03 -0.68160511194E+02 -0.14814763058E+04  0.15726535514E+04  0.10100000352E+00 0.  1.
       -3    1    3    3    0  502 -0.52327935405E+03  0.68160511194E+02  0.42516876335E+03  0.67766925944E+03  0.10100000352E+00 0. -1.
</event>
<event>
 5   0  0.1274868E-04  0.1995808E+04  0.7818609E-02  0.8608583E-01
        2   -1    0    0  501    0  0.00000000000E+00  0.00000000000E+00  0.22065505684E+04  0.22065505684E+04  0.25500000920E-02 0. -1.
       -2   -1    0    0    0  501  0.00000000000E+00  0.00000000000E+00 -0.45129844246E+03  0.45129844246E+03  0.25500000920E-02 0.  1.
    10030    2    1    2    0    0  0.00000000000E+00  0.00000000000E+00  0.17552521260E+04  0.26578490109E+04  0.19958084425E+04 0.  0.
        1    1    3    3  502    0 -0.38474589193E+03 -0.83945685154E+03  0.13813871673E+04  0.16616099762E+04  0.50400001928E-02 0. -1.
       -1    1    3    3    0  502  0.38474589193E+03  0.83945685154E+03  0.37386495869E+03  0.99623903473E+03  0.50400001928E-02 0.  1.
</event>
<event>
 5   0  0.1274868E-04  0.2006933E+04  0.7818609E-02  0.8603386E-01
       -2   -1    0    0    0  501  0.00000000000E+00  0.00000000000E+00  0.52374643959E+03  0.52374643960E+03  0.25500000920E-02 0. -1.
        2   -1    0    0  501    0  0.00000000000E+00  0.00000000000E+00 -0.19225808898E+04  0.19225808899E+04  0.25500000920E-02 0.  1.
    10030    2    1    2    0    0  0.00000000000E+00  0.00000000000E+00 -0.13988344503E+04  0.24463273294E+04  0.20069328797E+04 0.  0.
        1    1    3    3  502    0  0.92712432428E+03 -0.28531554742E+03 -0.10125216910E+04  0.14021999319E+04  0.50400001928E-02 0.  1.
       -1    1    3    3    0  502 -0.92712432428E+03  0.28531554742E+03 -0.38631275923E+03  0.10441273975E+04  0.50400001928E-02 0. -1.
</event>
<event>
 5   0  0.6256535E-05  0.1988352E+04  0.7818609E-02  0.8612086E-01
        1   -1    0    0  501    0  0.00000000000E+00  0.00000000000E+00  0.12776594066E+04  0.12776594066E+04  0.50400001928E-02 0. -1.
       -1   -1    0    0    0  501  0.00000000000E+00  0.00000000000E+00 -0.77359123913E+03  0.77359123914E+03  0.50400001928E-02 0.  1.
    10030    2    1    2    0    0  0.00000000000E+00  0.00000000000E+00  0.50406816744E+03  0.20512506457E+04  0.19883522058E+04 0.  0.
        1    1    3    3  502    0 -0.10575991655E+03  0.81949167888E+02 -0.76426116576E+03  0.77588398332E+03  0.50400001928E-02 0.  1.
       -1    1    3    3    0  502  0.10575991655E+03 -0.81949167888E+02  0.12683293332E+04  0.12753666624E+04  0.50400001928E-02 0. -1.
</event>
<event>
 5   0  0.6222733E-05  0.2009911E+04  0.7818609E-02  0.8602001E-01
       -1   -1    0    0    0  501  0.00000000000E+00  0.00000000000E+00  0.41328964952E+03  0.41328964955E+03  0.50400001928E-02 0.  1.
        1   -1    0    0  501    0  0.00000000000E+00  0.00000000000E+00 -0.24436517814E+04  0.24436517814E+04  0.50400001928E-02 0. -1.
    10030    2    1    2    0    0  0.00000000000E+00  0.00000000000E+00 -0.20303621319E+04  0.28569414310E+04  0.20099114292E+04 0.  0.
        2    1    3    3  502    0 -0.71099406314E+03  0.56914717360E+02 -0.88912455886E+01  0.71332383749E+03  0.25500000920E-02 0. -1.
       -2    1    3    3    0  502  0.71099406314E+03 -0.56914717360E+02 -0.20214708863E+04  0.21436175935E+04  0.25500000920E-02 0.  1.
</event>
<event>
 5   0  0.1274868E-04  0.1989441E+04  0.7818609E-02  0.8611573E-01
       -2   -1    0    0    0  501  0.00000000000E+00  0.00000000000E+00  0.82883760166E+03  0.82883760166E+03  0.25500000920E-02 0.  1.
        2   -1    0    0  501    0  0.00000000000E+00  0.00000000000E+00 -0.11938030590E+04  0.11938030590E+04  0.25500000920E-02 0. -1.
    10030    2    1    2    0    0  0.00000000000E+00  0.00000000000E+00 -0.36496545739E+03  0.20226406607E+04  0.19894409912E+04 0.  0.
        1    1    3    3  502    0  0.31944091186E+03  0.34579612546E+03 -0.10733772001E+04  0.11720734066E+04  0.50400001928E-02 0. -1.
       -1    1    3    3    0  502 -0.31944091186E+03 -0.34579612546E+03  0.70841174275E+03  0.85056725416E+03  0.50400001928E-02 0.  1.
</event>
<event>
 5   0  0.6168338E-05  0.2018351E+04  0.7818609E-02  0.8598089E-01
       -1   -1    0    0    0  501  0.00000000000E+00  0.00000000000E+00  0.13464831498E+04  0.13464831498E+04  0.50400001928E-02 0.  1.
        1   -1    0    0  501    0  0.00000000000E+00  0.00000000000E+00 -0.75636717031E+03  0.75636717032E+03  0.50400001928E-02 0. -1.
    10030    2    1    2    0    0  0.00000000000E+00  0.00000000000E+00  0.59011597951E+03  0.21028503202E+04  0.20183514559E+04 0.  0.
        5    1    3    3  502    0 -0.78845900472E+03  0.34462332434E+03 -0.25425378451E+03  0.89727360082E+03  0.46999998093E+01 0. -1.
       -5    1    3    3    0  502  0.78845900472E+03 -0.34462332434E+03  0.84436976402E+03  0.12055767193E+04  0.46999998093E+01 0.  1.
</event>
<event>
 5   0  0.1244229E-04  0.1988867E+04  0.7818609E-02  0.8611843E-01
       -2   -1    0    0    0  501  0.00000000000E+00  0.00000000000E+00  0.14649049555E+04  0.14649049555E+04  0.25500000920E-02 0.  1.
        2   -1    0    0  501    0  0.00000000000E+00  0.00000000000E+00 -0.67505975979E+03  0.67505975980E+03  0.25500000920E-02 0. -1.
    10030    2    1    2    0    0  0.00000000000E+00  0.00000000000E+00  0.78984519571E+03  0.21399647153E+04  0.19888674037E+04 0.  0.
        5    1    3    3  502    0 -0.53042677906E+03 -0.73072883463E+03  0.84317691078E+03  0.12354297190E+04  0.46999998093E+01 0.  1.
       -5    1    3    3    0  502  0.53042677906E+03  0.73072883463E+03 -0.53331715069E+02  0.90453499631E+03  0.46999998093E+01 0. -1.
</event>
<event>
 5   0  0.6214547E-05  0.2007920E+04  0.7818609E-02  0.8602927E-01
       -1   -1    0    0    0  501  0.00000000000E+00  0.00000000000E+00  0.64746824690E+03  0.64746824692E+03  0.50400001928E-02 0.  1.
        1   -1    0    0  501    0  0.00000000000E+00  0.00000000000E+00 -0.15567336998E+04  0.15567336999E+04  0.50400001928E-02 0. -1.
    10030    2    1    2    0    0  0.00000000000E+00  0.00000000000E+00 -0.90926545295E+03  0.22042019468E+04  0.20079199581E+04 0.  0.
        3    1    3    3  502    0 -0.98359054467E+03 -0.18865295328E+03 -0.37782655715E+03  0.10704173083E+04  0.10100000352E+00 0. -1.
       -3    1    3    3    0  502  0.98359054467E+03  0.18865295328E+03 -0.53143889579E+03  0.11337846385E+04  0.10100000352E+00 0.  1.
</event>
<event>
 5   0  0.1281789E-04  0.2059971E+04  0.7818609E-02  0.8579084E-01
       -2   -1    0    0    0  501  0.00000000000E+00  0.00000000000E+00  0.19351046083E+04  0.19351046083E+04  0.25500000920E-02 0.  1.
        2   -1    0    0  501    0  0.00000000000E+00  0.00000000000E+00 -0.54822364616E+03  0.54822364617E+03  0.25500000920E-02 0. -1.
    10030    2    1    2    0    0  0.00000000000E+00  0.00000000000E+00  0.13868809621E+04  0.24833282544E+04  0.20599709746E+04 0.  0.
        2    1    3    3  502    0  0.60627958213E+03 -0.62553654653E+03  0.13559252926E+04  0.16116464568E+04  0.25500000920E-02 0.  1.
       -2    1    3    3    0  502 -0.60627958213E+03  0.62553654653E+03  0.30955669501E+02  0.87168179758E+03  0.25500000920E-02 0. -1.
</event>
<event>
 5   0  0.6028501E-05  0.1980464E+04  0.7818609E-02  0.8615809E-01
        1   -1    0    0  501    0  0.00000000000E+00  0.00000000000E+00  0.21054381208E+04  0.21054381208E+04  0.50400001928E-02 0.  1.
       -1   -1    0    0    0  501  0.00000000000E+00  0.00000000000E+00 -0.46572704991E+03  0.46572704994E+03  0.50400001928E-02 0. -1.
    10030    2    1    2    0    0  0.00000000000E+00  0.00000000000E+00  0.16397110709E+04  0.25711651707E+04  0.19804640717E+04 0.  0.
        4    1    3    3  502    0 -0.13449365399E+03  0.97064678967E+03  0.63481698633E+03  0.11675778142E+04  0.12699999809E+01 0. -1.
       -4    1    3    3    0  502  0.13449365399E+03 -0.97064678967E+03  0.10048940846E+04  0.14035873565E+04  0.12699999809E+01 0.  1.
</event>
<event>
 5   0  0.6168338E-05  0.1999713E+04  0.7818609E-02  0.8606755E-01
        1   -1    0    0  501    0  0.00000000000E+00  0.00000000000E+00  0.50606993919E+03  0.50606993921E+03  0.50400001928E-02 0. -1.
       -1   -1    0    0    0  501  0.00000000000E+00  0.00000000000E+00 -0.19754436525E+04  0.19754436525E+04  0.50400001928E-02 0.  1.
    10030    2    1    2    0    0  0.00000000000E+00  0.00000000000E+00 -0.14693737133E+04  0.24815135917E+04  0.19997126285E+04 0.  0.
        5    1    3    3  502    0  0.20574192357E+03 -0.32636865252E+03  0.40996685715E+03  0.56297526626E+03  0.46999998093E+01 0. -1.
       -5    1    3    3    0  502 -0.20574192357E+03  0.32636865252E+03 -0.18793405704E+04  0.19185383254E+04  0.46999998093E+01 0.  1.
</event>
<event>
 5   0  0.6256535E-05  0.2049685E+04  0.7818609E-02  0.8583737E-01
        1   -1    0    0  501    0  0.00000000000E+00  0.00000000000E+00  0.18899877754E+04  0.18899877754E+04  0.50400001928E-02 0.  1.
       -1   -1    0    0    0  501  0.00000000000E+00  0.00000000000E+00 -0.55571887430E+03  0.55571887432E+03  0.50400001928E-02 0. -1.
    10030    2    1    2    0    0  0.00000000000E+00  0.00000000000E+00  0.13342689011E+04  0.24457066497E+04  0.20496847358E+04 0.  0.
        1    1    3    3  502    0 -0.29829623290E+03  0.85359050630E+03  0.91535924212E+02  0.90883233902E+03  0.50400001928E-02 0. -1.
       -1    1    3    3    0  502  0.29829623290E+03 -0.85359050630E+03  0.12427329769E+04  0.15368743107E+04  0.50400001928E-02 0.  1.
</event>
<event>
 5   0  0.6222733E-05  0.2000094E+04  0.7818609E-02  0.8606577E-01
       -1   -1    0    0    0  501  0.00000000000E+00  0.00000000000E+00  0.13748715364E+04  0.13748715364E+04  0.50400001928E-02 0.  1.
        1   -1    0    0  501    0  0.00000000000E+00  0.00000000000E+00 -0.72740900490E+03  0.72740900492E+03  0.50400001928E-02 0. -1.
    10030    2    1    2    0    0  0.00000000000E+00  0.00000000000E+00  0.64746253147E+03  0.21022805413E+04  0.20000939340E+04 0.  0.
        2    1    3    3  502    0 -0.60204419125E+03 -0.10975141737E+03 -0.50762207611E+03  0.79509921016E+03  0.25500000920E-02 0. -1.
       -2    1    3    3    0  502  0.60204419125E+03  0.10975141737E+03  0.11550846076E+04  0.13071813311E+04  0.25500000920E-02 0.  1.
</event>
<event>
 5   0  0.1159914E-04  0.2005785E+04  0.7818609E-02  0.8603921E-01
        2   -1    0    0  501    0  0.00000000000E+00  0.00000000000E+00  0.12799437059E+04  0.12799437059E+04  0.25500000920E-02 0.  1.
       -2   -1    0    0    0  501  0.00000000000E+00  0.00000000000E+00 -0.78581059885E+03  0.78581059886E+03  0.25500000920E-02 0. -1.
    10030    2    1    2    0    0  0.00000000000E+00  0.00000000000E+00  0.49413310708E+03  0.20657543048E+04  0.20057849636E+04 0.  0.
        3    1    3    3  502    0  0.23014296091E+03 -0.34357537787E+03  0.11880483514E+04  0.12579621291E+04  0.10100000352E+00 0.  1.
       -3    1    3    3    0  502 -0.23014296091E+03  0.34357537787E+03 -0.69391524429E+03  0.80779217574E+03  0.10100000352E+00 0. -1.
</event>
<event>
 5   0  0.1274868E-04  0.2031668E+04  0.7818609E-02  0.8591956E-01
        2   -1    0    0  501    0  0.00000000000E+00  0.00000000000E+00  0.20223745236E+04  0.20223745236E+04  0.25500000920E-02 0.  1.
       -2   -1    0    0    0  501  0.00000000000E+00  0.00000000000E+00 -0.51025126331E+03  0.51025126332E+03  0.25500000920E-02 0. -1.
    10030    2    1    2    0    0  0.00000000000E+00  0.00000000000E+00  0.15121232603E+04  0.25326257869E+04  0.20316684331E+04 0.  0.
        1    1    3    3  502    0  0.10150984990E+04  0.34438824830E+02  0.73417865006E+03  0.12532474957E+04  0.50400001928E-02 0.  1.
       -1    1    3    3    0  502 -0.10150984990E+04 -0.34438824830E+02  0.77794461021E+03  0.12793782912E+04  0.50400001928E-02 0. -1.
</event>
<event>
 5   0  0.6222733E-05  0.1988566E+04  0.7818609E-02  0.8611985E-01
       -1   -1    0    0    0  501  0.00000000000E+00  0.00000000000E+00  0.66791092569E+03  0.66791092571E+03  0.50400001928E-02 0.  1.
        1   -1    0    0  501    0  0.00000000000E+00  0.00000000000E+00 -0.14801348744E+04  0.14801348744E+04  0.50400001928E-02 0. -1.
    10030    2    1    2    0    0  0.00000000000E+00  0.00000000000E+00 -0.81222394868E+03  0.21480458001E+04  0.19885655675E+04 0.  0.
        2    1    3    3  502    0 -0.56281974170E+03 -0.73063574033E+03 -0.48307486852E+01  0.92228953308E+03  0.25500000920E-02 0.  1.
       -2    1    3    3    0  502  0.56281974170E+03  0.73063574033E+03 -0.80739319999E+03  0.12257562670E+04  0.25500000920E-02 0. -1.
</event>
<event>
 5   0  0.6028501E-05  0.1980561E+04  0.7818609E-02  0.8615764E-01
        1   -1    0    0  501    0  0.00000000000E+00  0.00000000000E+00  0.27916545352E+04  0.27916545352E+04  0.50400001928E-02 0. -1.
       -1   -1    0    0    0  501  0.00000000000E+00  0.00000000000E+00 -0.35128093823E+03  0.35128093826E+03  0.50400001928E-02 0.  1.
    10030    2    1    2    0    0  0.00000000000E+00  0.00000000000E+00  0.24403735970E+04  0.31429354735E+04  0.19805605514E+04 0.  0.
        4    1    3    3  502    0  0.76001900664E+03  0.64133808780E+01  0.21281239191E+03  0.78927862569E+03  0.12699999809E+01 0.  1.
       -4    1    3    3    0  502 -0.76001900664E+03 -0.64133808780E+01  0.22275612051E+04  0.23536568478E+04  0.12699999809E+01 0. -1.
</event>
<event>
 5   0  0.6214547E-05  0.1999780E+04  0.7818609E-02  0.8606724E-01
        1   -1    0    0  501    0  0.00000000000E+00  0.00000000000E+00  0.15190636209E+04  0.15190636209E+04  0.50400001928E-02 0. -1.
       -1   -1    0    0    0  501  0.00000000000E+00  0.00000000000E+00 -0.65815517243E+03  0.65815517245E+03  0.50400001928E-02 0.  1.
    10030    2    1    2    0    0  0.00000000000E+00  0.00000000000E+00  0.86090844847E+03  0.21772187934E+04  0.19997795672E+04 0.  0.
        3    1    3    3  502    0 -0.41821809336E+03  0.56060053958E+03  0.12084199267E+04  0.13962299482E+04  0.10100000352E+00 0. -1.
       -3    1    3    3    0  502  0.41821809336E+03 -0.56060053958E+03 -0.34751147827E+03  0.78098884520E+03  0.10100000352E+00 0.  1.
</event>
<event>
 5   0  0.6028501E-05  0.1978821E+04  0.7818609E-02  0.8616587E-01
       -1   -1    0    0    0  501  0.00000000000E+00  0.00000000000E+00  0.75703604870E+03  0.75703604872E+03  0.50400001928E-02 0.  1.
        1   -1    0    0  501    0  0.00000000000E+00  0.00000000000E+00 -0.12931127945E+04  0.12931127946E+04  0.50400001928E-02 0. -1.
    10030    2    1    2    0    0  0.00000000000E+00  0.00000000000E+00 -0.53607674584E+03  0.20501488433E+04  0.19788208616E+04 0.  0.
        4    1    3    3  502    0 -0.30553796262E+03 -0.48840919820E+03 -0.11014174569E+04  0.12429879399E+04  0.12699999809E+01 0. -1.
       -4    1    3    3    0  502  0.30553796262E+03  0.48840919820E+03  0.56534071104E+03  0.80716090338E+03  0.12699999809E+01 0.  1.
</event>
<event>
 5   0  0.1281789E-04  0.2000056E+04  0.7818609E-02  0.8606594E-01
        2   -1    0    0  501    0  0.00000000000E+00  0.00000000000E+00  0.29679363535E+04  0.29679363535E+04  0.25500000920E-02 0.  1.
       -2   -1    0    0    0  501  0.00000000000E+00  0.00000000000E+00 -0.33695342597E+03  0.33695342598E+03  0.25500000920E-02 0. -1.
    10030    2    1    2    0    0  0.00000000000E+00  0.00000000000E+00  0.26309829275E+04  0.33048897795E+04  0.20000563216E+04 0.  0.
        2    1    3    3  502    0  0.65998762976E+02  0.57063998853E+03 -0.37126030590E+02  0.57564240235E+03  0.25500000920E-02 0. -1.
       -2    1    3    3    0  502 -0.65998762976E+02 -0.57063998853E+03  0.26681089581E+04  0.27292473772E+04  0.25500000920E-02 0.  1.
</event>
<event>
 5   0  0.1274868E-04  0.1984660E+04  0.7818609E-02  0.8613826E-01
       -2   -1    0    0    0  501  0.00000000000E+00  0.00000000000E+00  0.81321046598E+03  0.81321046598E+03  0.25500000920E-02 0.  1.
        2   -1    0    0  501    0  0.00000000000E+00  0.00000000000E+00 -0.12109026681E+04  0.12109026681E+04  0.25500000920E-02 0. -1.
    10030    2    1    2    0    0  0.00000000000E+00  0.00000000000E+00 -0.39769220216E+03  0.20241131341E+04  0.19846598933E+04 0.  0.
        1    1    3    3  502    0 -0.74725837462E+03 -0.19014619490E+03  0.43820541226E+03  0.88689043136E+03  0.50400001928E-02 0.  1.
       -1    1    3    3    0  502  0.74725837462E+03  0.19014619490E+03 -0.83589761443E+03  0.11372227028E+04  0.50400001928E-02 0. -1.
</event>
<event>
 5   0  0.6256535E-05  0.1984011E+04  0.7818609E-02  0.8614133E-01
        1   -1    0    0  501    0  0.00000000000E+00  0.00000000000E+00  0.47123194439E+03  0.47123194441E+03  0.50400001928E-02 0. -1.
       -1   -1    0    0    0  501  0.00000000000E+00  0.00000000000E+00 -0.20883022111E+04  0.20883022111E+04  0.50400001928E-02 0.  1.
    10030    2    1    2    0    0  0.00000000000E+00  0.00000000000E+00 -0.16170702667E+04  0.25595341555E+04  0.19840107978E+04 0.  0.
        1    1    3    3  502    0  0.51840925591E+03 -0.22595529319E+03 -0.18599871686E+04  0.19440566397E+04  0.50400001928E-02 0.  1.
       -1    1    3    3    0  502 -0.51840925591E+03  0.22595529319E+03  0.24291690192E+03  0.61547751575E+03  0.50400001928E-02 0. -1.
</event>
<event>
 5   0  0.1281789E-04  0.1939954E+04  0.7818609E-02  0.8635221E-01
       -2   -1    0    0    0  501  0.00000000000E+00  0.00000000000E+00  0.83710116082E+03  0.83710116083E+03  0.25500000920E-02 0. -1.
        2   -1    0    0  501    0  0.00000000000E+00  0.00000000000E+00 -0.11239443480E+04  0.11239443480E+04  0.25500000920E-02 0.  1.
    10030    2    1    2    0    0  0.00000000000E+00  0.00000000000E+00 -0.28684318718E+03  0.19610455088E+04  0.19399537298E+04 0.  0.
        2    1    3    3  502    0 -0.60295638459E+03 -0.69102701441E+03  0.17589308406E+03  0.93381642382E+03  0.25500000920E-02 0. -1.
       -2    1    3    3    0  502  0.60295638459E+03  0.69102701441E+03 -0.46273627125E+03  0.10272290850E+04  0.25500000920E-02 0.  1.
</event>
<event>
 5   0  0.6214547E-05  0.2006069E+04  0.7818609E-02  0.8603789E-01
        1   -1    0    0  501    0  0.00000000000E+00  0.00000000000E+00  0.14202014112E+04  0.14202014112E+04  0.50400001928E-02 0. -1.
       -1   -1    0    0    0  501  0.00000000000E+00  0.00000000000E+00 -0.70840512654E+03  0.70840512656E+03  0.50400001928E-02 0.  1.
    10030    2    1    2    0    0  0.00000000000E+00  0.00000000000E+00  0.71179628469E+03  0.21286065378E+04  0.20060687530E+04 0.  0.
        3    1    3    3  502    0 -0.58889143133E+03 -0.66179449430E+03 -0.14327696845E+03  0.89738139632E+03  0.10100000352E+00 0.  1.
       -3    1    3    3    0  502  0.58889143133E+03  0.66179449430E+03  0.85507325314E+03  0.12312251415E+04  0.10100000352E+00 0. -1.
</event>
<event>
 5   0  0.1274868E-04  0.2022662E+04  0.7818609E-02  0.8596098E-01
       -2   -1    0    0    0  501  0.00000000000E+00  0.00000000000E+00  0.70800071920E+03  0.70800071921E+03  0.25500000920E-02 0. -1.
        2   -1    0    0  501    0  0.00000000000E+00  0.00000000000E+00 -0.14446175466E+04  0.14446175466E+04  0.25500000920E-02 0.  1.
    10030    2    1    2    0    0  0.00000000000E+00  0.00000000000E+00 -0.73661682737E+03  0.21526182658E+04  0.20226618719E+04 0.  0.
        1    1    3    3  502    0 -0.10000476766E+04 -0.10996984012E+03 -0.25872918796E+03  0.10388115873E+04  0.50400001928E-02 0. -1.
       -1    1    3    3    0  502  0.10000476766E+04  0.10996984012E+03 -0.47788763941E+03  0.11138066785E+04  0.50400001928E-02 0.  1.
</event>
<event>
 5   0  0.6214547E-05  0.2008707E+04  0.7818609E-02  0.8602561E-01
        1   -1    0    0  501    0  0.00000000000E+00  0.00000000000E+00  0.19112448384E+04  0.19112448385E+04  0.50400001928E-02 0. -1.
       -1   -1    0    0    0  501  0.00000000000E+00  0.00000000000E+00 -0.52778454580E+03  0.52778454582E+03  0.50400001928E-02 0.  1.
    10030    2    1    2    0    0  0.00000000000E+00  0.00000000000E+00  0.13834602926E+04  0.24390293843E+04  0.20087065381E+04 0.  0.
        3    1    3    3  502    0 -0.90662934270E+03  0.15302597691E+03  0.11824525273E+04  0.14978610430E+04  0.10100000352E+00 0. -1.
       -3    1    3    3    0  502  0.90662934270E+03 -0.15302597691E+03  0.20100776533E+03  0.94116834125E+03  0.10100000352E+00 0.  1.
</event>
<event>
 5   0  0.1244229E-04  0.1991447E+04  0.7818609E-02  0.8610630E-01
       -2   -1    0    0    0  501  0.00000000000E+00  0.00000000000E+00  0.63278619993E+03  0.63278619994E+03  0.25500000920E-02 0. -1.
        2   -1    0    0  501    0  0.00000000000E+00  0.00000000000E+00 -0.15668255743E+04  0.15668255743E+04  0.25500000920E-02 0.  1.
    10030    2    1    2    0    0  0.00000000000E+00  0.00000000000E+00 -0.93403937433E+03  0.21996117742E+04  0.19914473140E+04 0.  0.
        5    1    3    3  502    0  0.37213368584E+02  0.11353358746E+03  0.62482787999E+03  0.63616560728E+03  0.46999998093E+01 0. -1.
       -5    1    3    3    0  502 -0.37213368584E+02 -0.11353358746E+03 -0.15588672543E+04  0.15634461669E+04  0.46999998093E+01 0.  1.
</event>
<event>
 5   0  0.1274868E-04  0.1994681E+04  0.7818609E-02  0.8609111E-01
       -2   -1    0    0    0  501  0.00000000000E+00  0.00000000000E+00  0.93181065876E+03  0.93181065876E+03  0.25500000920E-02 0. -1.
        2   -1    0    0  501    0  0.00000000000E+00  0.00000000000E+00 -0.10674791576E+04  0.10674791576E+04  0.25500000920E-02 0.  1.
    10030    2    1    2    0    0  0.00000000000E+00  0.00000000000E+00 -0.13566849884E+03  0.19992898164E+04  0.19946813851E+04 0.  0.
        1    1    3    3  502    0  0.24671394530E+03 -0.88596819344E+03 -0.45457677181E+03  0.10258886158E+04  0.50400001928E-02 0.  1.
       -1    1    3    3    0  502 -0.24671394530E+03  0.88596819344E+03  0.31890827298E+03  0.97340120053E+03  0.50400001928E-02 0. -1.
</event>
<event>
 5   0  0.6222733E-05  0.1992181E+04  0.7818609E-02  0.8610285E-01
       -1   -1    0    0    0  501  0.00000000000E+00  0.00000000000E+00  0.65674428871E+03  0.65674428873E+03  0.50400001928E-02 0.  1.
        1   -1    0    0  501    0  0.00000000000E+00  0.00000000000E+00 -0.15107797082E+04  0.15107797082E+04  0.50400001928E-02 0. -1.
    10030    2    1    2    0    0  0.00000000000E+00  0.00000000000E+00 -0.85403541952E+03  0.21675239970E+04  0.19921806594E+04 0.  0.
        2    1    3    3  502    0 -0.24183429265E+03 -0.21718166041E+03 -0.14514550562E+04  0.14874049478E+04  0.25500000920E-02 0. -1.
       -2    1    3    3    0  502  0.24183429265E+03  0.21718166041E+03  0.59741963667E+03  0.68011904914E+03  0.25500000920E-02 0.  1.
</event>
<event>
 5   0  0.1281789E-04  0.1992083E+04  0.7818609E-02  0.8610331E-01
        2   -1    0    0  501    0  0.00000000000E+00  0.00000000000E+00  0.83997585606E+03  0.83997585606E+03  0.25500000920E-02 0. -1.
       -2   -1    0    0    0  501  0.00000000000E+00  0.00000000000E+00 -0.11811040995E+04  0.11811040995E+04  0.25500000920E-02 0.  1.
    10030    2    1    2    0    0  0.00000000000E+00  0.00000000000E+00 -0.34112824343E+03  0.20210799556E+04  0.19920832584E+04 0.  0.
        2    1    3    3  502    0  0.22830581280E+03 -0.73150660062E+03  0.47499448036E+03  0.90157928508E+03  0.25500000920E-02 0. -1.
       -2    1    3    3    0  502 -0.22830581280E+03  0.73150660062E+03 -0.81612272379E+03  0.11195006705E+04  0.25500000920E-02 0.  1.
</event>
<event>
 5   0  0.1274868E-04  0.2002450E+04  0.7818609E-02  0.8605476E-01
       -2   -1    0    0    0  501  0.00000000000E+00  0.00000000000E+00  0.46682367743E+03  0.46682367744E+03  0.25500000920E-02 0. -1.
        2   -1    0    0  501    0  0.00000000000E+00  0.00000000000E+00 -0.21473871095E+04  0.21473871095E+04  0.25500000920E-02 0.  1.
    10030    2    1    2    0    0  0.00000000000E+00  0.00000000000E+00 -0.16805634320E+04  0.26142107869E+04  0.20024496471E+04 0.  0.
        1    1    3    3  502    0  0.55774580056E+03  0.33910422675E+03  0.15085395695E+03  0.66994699119E+03  0.50400001928E-02 0. -1.
       -1    1    3    3    0  502 -0.55774580056E+03 -0.33910422675E+03 -0.18314173890E+04  0.19442637957E+04  0.50400001928E-02 0.  1.
</event>
<event>
 5   0  0.6222733E-05  0.2034373E+04  0.7818609E-02  0.8590717E-01
       -1   -1    0    0    0  501  0.00000000000E+00  0.00000000000E+00  0.47780269667E+03  0.47780269670E+03  0.50400001928E-02 0. -1.
        1   -1    0    0  501    0  0.00000000000E+00  0.00000000000E+00 -0.21654716050E+04  0.21654716050E+04  0.50400001928E-02 0.  1.
    10030    2    1    2    0    0  0.00000000000E+00  0.00000000000E+00 -0.16876689083E+04  0.26432743017E+04  0.20343728001E+04 0.  0.
        2    1    3    3  502    0 -0.87709787798E+03  0.72082365121E+02 -0.15065721166E+04  0.17447796702E+04  0.25500000920E-02 0.  1.
       -2    1    3    3    0  502  0.87709787798E+03 -0.72082365121E+02 -0.18109679173E+03  0.89849463154E+03  0.25500000920E-02 0. -1.
</event>
<event>
 5   0  0.6028501E-05  0.2015006E+04  0.7818609E-02  0.8599637E-01
        1   -1    0    0  501    0  0.00000000000E+00  0.00000000000E+00  0.17037600965E+04  0.17037600965E+04  0.50400001928E-02 0.  1.
       -1   -1    0    0    0  501  0.00000000000E+00  0.00000000000E+00 -0.59577788785E+03  0.59577788787E+03  0.50400001928E-02 0. -1.
    10030    2    1    2    0    0  0.00000000000E+00  0.00000000000E+00  0.11079822087E+04  0.22995379844E+04  0.20150062945E+04 0.  0.
        4    1    3    3  502    0  0.33945001358E+03  0.34715687037E+03 -0.45345354079E+03  0.66435376940E+03  0.12699999809E+01 0. -1.
       -4    1    3    3    0  502 -0.33945001358E+03 -0.34715687037E+03  0.15614357495E+04  0.16351842150E+04  0.12699999809E+01 0.  1.
</event>
<event>
 5   0  0.1244229E-04  0.2015060E+04  0.7818609E-02  0.8599612E-01
        2   -1    0    0  501    0  0.00000000000E+00  0.00000000000E+00  0.11287838502E+04  0.11287838502E+04  0.25500000920E-02 0.  1.
       -2   -1    0    0    0  501  0.00000000000E+00  0.00000000000E+00 -0.89930127493E+03  0.89930127493E+03  0.25500000920E-02 0. -1.
    10030    2    1    2    0    0  0.00000000000E+00  0.00000000000E+00  0.22948257527E+03  0.20280851251E+04  0.20150600543E+04 0.  0.
        5    1    3    3  502    0 -0.45051591795E+03 -0.80739703244E+03 -0.28814621568E+03  0.96845489928E+03  0.46999998093E+01 0. -1.
       -5    1    3    3    0  502  0.45051591795E+03  0.80739703244E+03  0.51762879095E+03  0.10596302259E+04  0.46999998093E+01 0.  1.
</event>
<event>
 5   0  0.6168338E-05  0.2007026E+04  0.7818609E-02  0.8603343E-01
        1   -1    0    0  501    0  0.00000000000E+00  0.00000000000E+00  0.11574653713E+04  0.11574653713E+04  0.50400001928E-02 0. -1.
       -1   -1    0    0    0  501  0.00000000000E+00  0.00000000000E+00 -0.87003790195E+03  0.87003790197E+03  0.50400001928E-02 0.  1.
    10030    2    1    2    0    0  0.00000000000E+00  0.00000000000E+00  0.28742746936E+03  0.20275032733E+04  0.20070264007E+04 0.  0.
        5    1    3    3  502    0  0.58456402567E+03 -0.47117693732E+03  0.81630981231E+03  0.11091017113E+04  0.46999998093E+01 0. -1.
       -5    1    3    3    0  502 -0.58456402567E+03  0.47117693732E+03 -0.52888234295E+03  0.91840156198E+03  0.46999998093E+01 0.  1.
</event>
<event>
 5   0  0.6214547E-05  0.2064342E+04  0.7818609E-02  0.8577116E-01
        1   -1    0    0  501    0  0.00000000000E+00  0.00000000000E+00  0.17101916810E+04  0.17101916810E+04  0.50400001928E-02 0.  1.
       -1   -1    0    0    0  501  0.00000000000E+00  0.00000000000E+00 -0.62295780064E+03  0.62295780066E+03  0.50400001928E-02 0. -1.
    10030    2    1    2    0    0  0.00000000000E+00  0.00000000000E+00  0.10872338803E+04  0.23331494816E+04  0.20643422665E+04 0.  0.
        3    1    3    3  502    0 -0.72538984982E+03  0.53375926471E+03  0.11135497586E+04  0.14321600685E+04  0.10100000352E+00 0.  1.
       -3    1    3    3    0  502  0.72538984982E+03 -0.53375926471E+03 -0.26315878229E+02  0.90098941311E+03  0.10100000352E+00 0. -1.
</event>
<event>
 5   0  0.1159914E-04  0.1949131E+04  0.7818609E-02  0.8630780E-01
       -2   -1    0    0    0  501  0.00000000000E+00  0.00000000000E+00  0.14311363883E+04  0.14311363883E+04  0.25500000920E-02 0.  1.
        2   -1    0    0  501    0  0.00000000000E+00  0.00000000000E+00 -0.66365270840E+03  0.66365270841E+03  0.25500000920E-02 0. -1.
    10030    2    1    2    0    0  0.00000000000E+00  0.00000000000E+00  0.76748367990E+03  0.20947890967E+04  0.19491306167E+04 0.  0.
        3    1    3    3  502    0 -0.12288726020E+03 -0.51866843355E+03  0.12605919599E+04  0.13686527399E+04  0.10100000352E+00 0.  1.
       -3    1    3    3    0  502  0.12288726020E+03  0.51866843355E+03 -0.49310828004E+03  0.72613635684E+03  0.10100000352E+00 0. -1.
</event>
<event>
 5   0  0.1244229E-04  0.1996412E+04  0.7818609E-02  0.8608300E-01
        2   -1    0    0  501    0  0.00000000000E+00  0.00000000000E+00  0.21607627562E+04  0.21607627562E+04  0.25500000920E-02 0. -1.
       -2   -1    0    0    0  501  0.00000000000E+00  0.00000000000E+00 -0.46114056887E+03  0.46114056888E+03  0.25500000920E-02 0.  1.
    10030    2    1    2    0    0  0.00000000000E+00  0.00000000000E+00  0.16996221873E+04  0.26219033251E+04  0.19964121484E+04 0.  0.
        5    1    3    3  502    0  0.24349146664E+03 -0.89137042402E+03  0.13456850843E+04  0.16323969380E+04  0.46999998093E+01 0.  1.
       -5    1    3    3    0  502 -0.24349146664E+03  0.89137042402E+03  0.35393710302E+03  0.98950638706E+03  0.46999998093E+01 0. -1.
</event>
<event>
 5   0  0.6168338E-05  0.2002213E+04  0.7818609E-02  0.8605587E-01
       -1   -1    0    0    0  501  0.00000000000E+00  0.00000000000E+00  0.46763113172E+03  0.46763113174E+03  0.50400001928E-02 0. -1.
        1   -1    0    0  501    0  0.00000000000E+00  0.00000000000E+00 -0.21431719933E+04  0.21431719934E+04  0.50400001928E-02 0.  1.
    10030    2    1    2    0    0  0.00000000000E+00  0.00000000000E+00 -0.16755408616E+04  0.26108031251E+04  0.20022127207E+04 0.  0.
        5    1    3    3  502    0  0.67273323155E+03  0.69321750962E+03 -0.49507142624E+03  0.10854668689E+04  0.46999998093E+01 0. -1.
       -5    1    3    3    0  502 -0.67273323155E+03 -0.69321750962E+03 -0.11804694354E+04  0.15253362562E+04  0.46999998093E+01 0.  1.
</event>
<event>
 5   0  0.6222733E-05  0.1998193E+04  0.7818609E-02  0.8607466E-01
        1   -1    0    0  501    0  0.00000000000E+00  0.00000000000E+00  0.11296659132E+04  0.11296659132E+04  0.50400001928E-02 0. -1.
       -1   -1    0    0    0  501  0.00000000000E+00  0.00000000000E+00 -0.88361824624E+03  0.88361824625E+03  0.50400001928E-02 0.  1.
    10030    2    1    2    0    0  0.00000000000E+00  0.00000000000E+00  0.24604766697E+03  0.20132841595E+04  0.19981925964E+04 0.  0.
        2    1    3    3  502    0 -0.21307946897E+03  0.38852320011E+03 -0.77919453428E+03  0.89638008644E+03  0.25500000920E-02 0.  1.
       -2    1    3    3    0  502  0.21307946897E+03 -0.38852320011E+03  0.10252422012E+04  0.11169040730E+04  0.25500000920E-02 0. -1.
</event>
<event>
 5   0  0.1242761E-04  0.1749969E+04  0.7818609E-02  0.8733367E-01
       -2   -1    0    0    0  501  0.00000000000E+00  0.00000000000E+00  0.83571804712E+03  0.83571804713E+03  0.25500000920E-02 0.  1.
        2   -1    0    0  501    0  0.00000000000E+00  0.00000000000E+00 -0.91609615316E+03  0.91609615316E+03  0.25500000920E-02 0. -1.
    10030    2    1    2    0    0  0.00000000000E+00  0.00000000000E+00 -0.80378106039E+02  0.17518142003E+04  0.17499692433E+04 0.  0.
        4    1    3    3  502    0 -0.75991975389E+03 -0.42173206099E+03  0.61211922742E+02  0.87125454145E+03  0.12699999809E+01 0.  1.
       -4    1    3    3    0  502  0.75991975389E+03  0.42173206099E+03 -0.14159002878E+03  0.88055965884E+03  0.12699999809E+01 0. -1.
</event>
<event>
 5   0  0.1244229E-04  0.1988079E+04  0.7818609E-02  0.8612215E-01
       -2   -1    0    0    0  501  0.00000000000E+00  0.00000000000E+00  0.57211576703E+03  0.57211576704E+03  0.25500000920E-02 0. -1.
        2   -1    0    0  501    0  0.00000000000E+00  0.00000000000E+00 -0.17271229607E+04  0.17271229607E+04  0.25500000920E-02 0.  1.
    10030    2    1    2    0    0  0.00000000000E+00  0.00000000000E+00 -0.11550071937E+04  0.22992387278E+04  0.19880787484E+04 0.  0.
        5    1    3    3  502    0 -0.57320130322E+03 -0.42791891092E+03  0.22075664557E+03  0.74861867122E+03  0.46999998093E+01 0. -1.
       -5    1    3    3    0  502  0.57320130322E+03  0.42791891092E+03 -0.13757638393E+04  0.15506200565E+04  0.46999998093E+01 0.  1.
</event>
<event>
 5   0  0.6256535E-05  0.1982497E+04  0.7818609E-02  0.8614848E-01
       -1   -1    0    0    0  501  0.00000000000E+00  0.00000000000E+00  0.61273694813E+03  0.61273694815E+03  0.50400001928E-02 0. -1.
        1   -1    0    0  501    0  0.00000000000E+00  0.00000000000E+00 -0.16035817092E+04  0.16035817092E+04  0.50400001928E-02 0.  1.
    10030    2    1    2    0    0  0.00000000000E+00  0.00000000000E+00 -0.99084476107E+03  0.22163186574E+04  0.19824971754E+04 0.  0.
        1    1    3    3  502    0  0.86944725358E+02 -0.65577493404E+03  0.32986910143E+03  0.73919806107E+03  0.50400001928E-02 0. -1.
       -1    1    3    3    0  502 -0.86944725358E+02  0.65577493404E+03 -0.13207138625E+04  0.14771205963E+04  0.50400001928E-02 0.  1.
</event>
<event>
 5   0  0.1281789E-04  0.2003504E+04  0.7818609E-02  0.8604984E-01
       -2   -1    0    0    0  501  0.00000000000E+00  0.00000000000E+00  0.53456016022E+03  0.53456016022E+03  0.25500000920E-02 0.  1.
        2   -1    0    0  501    0  0.00000000000E+00  0.00000000000E+00 -0.18772575624E+04  0.18772575624E+04  0.25500000920E-02 0. -1.
    10030    2    1    2    0    0  0.00000000000E+00  0.00000000000E+00 -0.13426974022E+04  0.24118177226E+04  0.20035040338E+04 0.  0.
        2    1    3    3  502    0 -0.72749530366E+03  0.47023078403E+02 -0.14984270642E+04  0.16663565805E+04  0.25500000920E-02 0. -1.
       -2    1    3    3    0  502  0.72749530366E+03 -0.47023078403E+02  0.15572966200E+03  0.74546114211E+03  0.25500000920E-02 0.  1.
</event>
<event>
 5   0  0.6222733E-05  0.2010318E+04  0.7818609E-02  0.8601812E-01
        1   -1    0    0  501    0  0.00000000000E+00  0.00000000000E+00  0.14408000262E+04  0.14408000262E+04  0.50400001928E-02 0.  1.
       -1   -1    0    0    0  501  0.00000000000E+00  0.00000000000E+00 -0.70123869828E+03  0.70123869830E+03  0.50400001928E-02 0. -1.
    10030    2    1    2    0    0  0.00000000000E+00  0.00000000000E+00  0.73956132790E+03  0.21420387245E+04  0.20103181190E+04 0.  0.
        2    1    3    3  502    0 -0.62272514719E+02 -0.63067541749E+03 -0.46154209588E+03  0.78399646338E+03  0.25500000920E-02 0. -1.
       -2    1    3    3    0  502  0.62272514719E+02  0.63067541749E+03  0.12011034238E+04  0.13580422611E+04  0.25500000920E-02 0.  1.
</event>
<event>
 5   0  0.1274868E-04  0.1909314E+04  0.7818609E-02  0.8650234E-01
       -2   -1    0    0    0  501  0.00000000000E+00  0.00000000000E+00  0.12306294198E+04  0.12306294198E+04  0.25500000920E-02 0.  1.
        2   -1    0    0  501    0  0.00000000000E+00  0.00000000000E+00 -0.74057249725E+03  0.74057249726E+03  0.25500000920E-02 0. -1.
    10030    2    1    2    0    0  0.00000000000E+00  0.00000000000E+00  0.49005692256E+03  0.19712019171E+04  0.19093143299E+04 0.  0.
        1    1    3    3  502    0 -0.24588439586E+03 -0.72606730159E+03 -0.34239345389E+03  0.83956306485E+03  0.50400001928E-02 0. -1.
       -1    1    3    3    0  502  0.24588439586E+03  0.72606730159E+03  0.83245037645E+03  0.11316388522E+04  0.50400001928E-02 0.  1.
</event>
<event>
 5   0  0.6214547E-05  0.1996356E+04  0.7818609E-02  0.8608326E-01
       -1   -1    0    0    0  501  0.00000000000E+00  0.00000000000E+00  0.11632142821E+04  0.11632142821E+04  0.50400001928E-02 0.  1.
        1   -1    0    0  501    0  0.00000000000E+00  0.00000000000E+00 -0.85655672085E+03  0.85655672086E+03  0.50400001928E-02 0. -1.
    10030    2    1    2    0    0  0.00000000000E+00  0.00000000000E+00  0.30665756129E+03  0.20197710030E+04  0.19963556909E+04 0.  0.
        3    1    3    3  502    0  0.87950607846E+03 -0.41584140323E+03 -0.72683391827E+02  0.97557055118E+03  0.10100000352E+00 0. -1.
       -3    1    3    3    0  502 -0.87950607846E+03  0.41584140323E+03  0.37934095312E+03  0.10442004518E+04  0.10100000352E+00 0.  1.
</event>
<event>
 5   0  0.6214547E-05  0.2001180E+04  0.7818609E-02  0.8606069E-01
       -1   -1    0    0    0  501  0.00000000000E+00  0.00000000000E+00  0.80652682559E+03  0.80652682561E+03  0.50400001928E-02 0.  1.
        1   -1    0    0  501    0  0.00000000000E+00  0.00000000000E+00 -0.12413480801E+04  0.12413480801E+04  0.50400001928E-02 0. -1.
    10030    2    1    2    0    0  0.00000000000E+00  0.00000000000E+00 -0.43482125447E+03  0.20478749057E+04  0.20011801783E+04 0.  0.
        3    1    3    3  502    0  0.89389950058E+03  0.31803028881E+03 -0.54260043446E+03  0.10929843656E+04  0.10100000352E+00 0. -1.
       -3    1    3    3    0  502 -0.89389950058E+03 -0.31803028881E+03  0.10777917998E+03  0.95489054010E+03  0.10100000352E+00 0.  1.
</event>
<event>
 5   0  0.1242761E-04  0.1979055E+04  0.7818609E-02  0.8616476E-01
       -2   -1    0    0    0  501  0.00000000000E+00  0.00000000000E+00  0.56066231143E+03  0.56066231143E+03  0.25500000920E-02 0.  1.
        2   -1    0    0  501    0  0.00000000000E+00  0.00000000000E+00 -0.17464436370E+04  0.17464436370E+04  0.25500000920E-02 0. -1.
    10030    2    1    2    0    0  0.00000000000E+00  0.00000000000E+00 -0.11857813256E+04  0.23071059484E+04  0.19790554578E+04 0.  0.
        4    1    3    3  502    0 -0.33998024964E+02  0.47216778195E+03  0.42009153129E+03  0.63291135839E+03  0.12699999809E+01 0.  1.
       -4    1    3    3    0  502  0.33998024964E+02 -0.47216778195E+03 -0.16058728569E+04  0.16741945900E+04  0.12699999809E+01 0. -1.
</event>
<event>
 5   0  0.1274868E-04  0.2034280E+04  0.7818609E-02  0.8590759E-01
        2   -1    0    0  501    0  0.00000000000E+00  0.00000000000E+00  0.13983341089E+04  0.13983341089E+04  0.25500000920E-02 0.  1.
       -2   -1    0    0    0  501  0.00000000000E+00  0.00000000000E+00 -0.73986174014E+03  0.73986174014E+03  0.25500000920E-02 0. -1.
    10030    2    1    2    0    0  0.00000000000E+00  0.00000000000E+00  0.65847236872E+03  0.21381958490E+04  0.20342801253E+04 0.  0.
        1    1    3    3  502    0 -0.16152073819E+03 -0.81359598072E+03  0.94798945633E+03  0.12596473229E+04  0.50400001928E-02 0. -1.
       -1    1    3    3    0  502  0.16152073819E+03  0.81359598072E+03 -0.28951708761E+03  0.87854852612E+03  0.50400001928E-02 0.  1.
</event>
<event>
 5   0  0.4479000E-05  0.1999557E+04  0.7818609E-02  0.8606828E-01
        4   -1    0    0  501    0  0.00000000000E+00  0.00000000000E+00  0.11829481227E+04  0.11829488045E+04  0.12699999809E+01 0.  1.
       -4   -1    0    0    0  501  0.00000000000E+00  0.00000000000E+00 -0.84496987424E+03  0.84497082865E+03  0.12699999809E+01 0. -1.
    10030    2    1    2    0    0  0.00000000000E+00  0.00000000000E+00  0.33797824849E+03  0.20279196331E+04  0.19995571364E+04 0.  0.
        2    1    3    3  502    0  0.27690325519E+03 -0.22258322525E+03  0.11167706072E+04  0.11719194912E+04  0.25500000920E-02 0.  1.
       -2    1    3    3    0  502 -0.27690325519E+03  0.22258322525E+03 -0.77879235869E+03  0.85600014186E+03  0.25500000920E-02 0. -1.
</event>
<event>
 5   0  0.6028501E-05  0.2014276E+04  0.7818609E-02  0.8599975E-01
       -1   -1    0    0    0  501  0.00000000000E+00  0.00000000000E+00  0.80390665291E+03  0.80390665293E+03  0.50400001928E-02 0.  1.
        1   -1    0    0  501    0  0.00000000000E+00  0.00000000000E+00 -0.12617466456E+04  0.12617466456E+04  0.50400001928E-02 0. -1.
    10030    2    1    2    0    0  0.00000000000E+00  0.00000000000E+00 -0.45783999271E+03  0.20656532986E+04  0.20142755747E+04 0.  0.
        4    1    3    3  502    0 -0.11000535128E+03 -0.98167534923E+03 -0.27603735626E+02  0.98820607553E+03  0.12699999809E+01 0.  1.
       -4    1    3    3    0  502  0.11000535128E+03  0.98167534923E+03 -0.43023625708E+03  0.10774472230E+04  0.12699999809E+01 0. -1.
</event>
<event>
 5   0  0.6168338E-05  0.2018071E+04  0.7818609E-02  0.8598218E-01
       -1   -1    0    0    0  501  0.00000000000E+00  0.00000000000E+00  0.45136268456E+03  0.45136268459E+03  0.50400001928E-02 0. -1.
        1   -1    0    0  501    0  0.00000000000E+00  0.00000000000E+00 -0.22557300753E+04  0.22557300753E+04  0.50400001928E-02 0.  1.
    10030    2    1    2    0    0  0.00000000000E+00  0.00000000000E+00 -0.18043673908E+04  0.27070927599E+04  0.20180707446E+04 0.  0.
        5    1    3    3  502    0  0.26501624054E+03  0.47581076594E+03 -0.20416071609E+04  0.21130100289E+04  0.46999998093E+01 0.  1.
       -5    1    3    3    0  502 -0.26501624054E+03 -0.47581076594E+03  0.23723977017E+03  0.59408273101E+03  0.46999998093E+01 0. -1.
</event>
<event>
 5   0  0.1281789E-04  0.1979575E+04  0.7818609E-02  0.8616230E-01
       -2   -1    0    0    0  501  0.00000000000E+00  0.00000000000E+00  0.81544941358E+03  0.81544941359E+03  0.25500000920E-02 0.  1.
        2   -1    0    0  501    0  0.00000000000E+00  0.00000000000E+00 -0.12013974268E+04  0.12013974269E+04  0.25500000920E-02 0. -1.
    10030    2    1    2    0    0  0.00000000000E+00  0.00000000000E+00 -0.38594801326E+03  0.20168468404E+04  0.19795745272E+04 0.  0.
        2    1    3    3  502    0 -0.37756822327E+03 -0.24292110151E+03  0.70574033671E+03  0.83644357111E+03  0.25500000920E-02 0.  1.
       -2    1    3    3    0  502  0.37756822327E+03  0.24292110151E+03 -0.10916883500E+04  0.11804032693E+04  0.25500000920E-02 0. -1.
</event>
<event>
 5   0  0.6028501E-05  0.1990751E+04  0.7818609E-02  0.8610957E-01
       -1   -1    0    0    0  501  0.00000000000E+00  0.00000000000E+00  0.56633544133E+03  0.56633544135E+03  0.50400001928E-02 0.  1.
        1   -1    0    0  501    0  0.00000000000E+00  0.00000000000E+00 -0.17494438641E+04  0.17494438641E+04  0.50400001928E-02 0. -1.
    10030    2    1    2    0    0  0.00000000000E+00  0.00000000000E+00 -0.11831084227E+04  0.23157793054E+04  0.19907506754E+04 0.  0.
        4    1    3    3  502    0 -0.58647796432E+03 -0.80133835416E+03 -0.67105658456E+03  0.11985066179E+04  0.12699999809E+01 0. -1.
       -4    1    3    3    0  502  0.58647796432E+03  0.80133835416E+03 -0.51205183817E+03  0.11172726876E+04  0.12699999809E+01 0.  1.
</event>
<event>
 5   0  0.1244229E-04  0.1958757E+04  0.7818609E-02  0.8626149E-01
       -2   -1    0    0    0  501  0.00000000000E+00  0.00000000000E+00  0.86683690043E+03  0.86683690043E+03  0.25500000920E-02 0.  1.
        2   -1    0    0  501    0  0.00000000000E+00  0.00000000000E+00 -0.11065319492E+04  0.11065319492E+04  0.25500000920E-02 0. -1.
    10030    2    1    2    0    0  0.00000000000E+00  0.00000000000E+00 -0.23969504881E+03  0.19733688497E+04  0.19587574889E+04 0.  0.
        5    1    3    3  502    0 -0.35510852054E+02 -0.93887275201E+03 -0.39834689008E+03  0.10205123223E+04  0.46999998093E+01 0. -1.
       -5    1    3    3    0  502  0.35510852054E+02  0.93887275201E+03  0.15865184127E+03  0.95285652740E+03  0.46999998093E+01 0.  1.
</event>
<event>
 5   0  0.6168338E-05  0.2003035E+04  0.7818609E-02  0.8605203E-01
       -1   -1    0    0    0  501  0.00000000000E+00  0.00000000000E+00  0.90013908247E+03  0.90013908248E+03  0.50400001928E-02 0.  1.
        1   -1    0    0  501    0  0.00000000000E+00  0.00000000000E+00 -0.11143137014E+04  0.11143137014E+04  0.50400001928E-02 0. -1.
    10030    2    1    2    0    0  0.00000000000E+00  0.00000000000E+00 -0.21417461891E+03  0.20144527839E+04  0.20030350099E+04 0.  0.
        5    1    3    3  502    0 -0.62315733283E+03 -0.35273437634E+03 -0.81127041470E+03  0.10820944402E+04  0.46999998093E+01 0. -1.
       -5    1    3    3    0  502  0.62315733283E+03  0.35273437634E+03  0.59709579578E+03  0.93235834369E+03  0.46999998093E+01 0.  1.
</event>
<event>
 5   0  0.6256535E-05  0.1999102E+04  0.7818609E-02  0.8607040E-01
        1   -1    0    0  501    0  0.00000000000E+00  0.00000000000E+00  0.11228554526E+04  0.11228554526E+04  0.50400001928E-02 0.  1.
       -1   -1    0    0    0  501  0.00000000000E+00  0.00000000000E+00 -0.88978743241E+03  0.88978743242E+03  0.50400001928E-02 0. -1.
    10030    2    1    2    0    0  0.00000000000E+00  0.00000000000E+00  0.23306802015E+03  0.20126428850E+04  0.19991024687E+04 0.  0.
        1    1    3    3  502    0  0.27593896855E+03  0.74719485040E+03  0.72449520016E+03  0.10767245488E+04  0.50400001928E-02 0.  1.
       -1    1    3    3    0  502 -0.27593896855E+03 -0.74719485040E+03 -0.49142718001E+03  0.93591833624E+03  0.50400001928E-02 0. -1.
</event>
<event>
 5   0  0.1281789E-04  0.1908440E+04  0.7818609E-02  0.8650667E-01
       -2   -1    0    0    0  501  0.00000000000E+00  0.00000000000E+00  0.56441761805E+03  0.56441761806E+03  0.25500000920E-02 0. -1.
        2   -1    0    0  501    0  0.00000000000E+00  0.00000000000E+00 -0.16132300734E+04  0.16132300734E+04  0.25500000920E-02 0.  1.
    10030    2    1    2    0    0  0.00000000000E+00  0.00000000000E+00 -0.10488124554E+04  0.21776476915E+04  0.19084396510E+04 0.  0.
        2    1    3    3  502    0  0.74582363688E+03 -0.57304983360E+03 -0.34078222867E+03  0.10003856939E+04  0.25500000920E-02 0.  1.
       -2    1    3    3    0  502 -0.74582363688E+03  0.57304983360E+03 -0.70803022670E+03  0.11772619976E+04  0.25500000920E-02 0. -1.
</event>
<event>
 5   0  0.6168338E-05  0.1994225E+04  0.7818609E-02  0.8609326E-01
       -1   -1    0    0    0  501  0.00000000000E+00  0.00000000000E+00  0.77419856833E+03  0.77419856834E+03  0.50400001928E-02 0. -1.
        1   -1    0    0  501    0  0.00000000000E+00  0.00000000000E+00 -0.12842091081E+04  0.12842091081E+04  0.50400001928E-02 0.  1.
    10030    2    1    2    0    0  0.00000000000E+00  0.00000000000E+00 -0.51001053977E+03  0.20584076765E+04  0.19942245139E+04 0.  0.
        5    1    3    3  502    0 -0.50607385159E+03 -0.81436350038E+03 -0.53751496349E+03  0.10992011099E+04  0.46999998093E+01 0. -1.
       -5    1    3    3    0  502  0.50607385159E+03  0.81436350038E+03  0.27504423721E+02  0.95920656656E+03  0.46999998093E+01 0.  1.
</event>
<event>
 5   0  0.1274868E-04  0.2006827E+04  0.7818609E-02  0.8603436E-01
        2   -1    0    0  501    0  0.00000000000E+00  0.00000000000E+00  0.94568493198E+03  0.94568493199E+03  0.25500000920E-02 0. -1.
       -2   -1    0    0    0  501  0.00000000000E+00  0.00000000000E+00 -0.10646657000E+04  0.10646657000E+04  0.25500000920E-02 0.  1.
    10030    2    1    2    0    0  0.00000000000E+00  0.00000000000E+00 -0.11898076806E+03  0.20103506320E+04  0.20068266593E+04 0.  0.
        1    1    3    3  502    0 -0.74594961314E+02  0.23113677933E+03 -0.10347757002E+04  0.10628966877E+04  0.50400001928E-02 0.  1.
       -1    1    3    3    0  502  0.74594961314E+02 -0.23113677933E+03  0.91579493209E+03  0.94745394436E+03  0.50400001928E-02 0. -1.
</event>
<event>
 5   0  0.6256535E-05  0.1978817E+04  0.7818609E-02  0.8616589E-01
       -1   -1    0    0    0  501  0.00000000000E+00  0.00000000000E+00  0.78525795491E+03  0.78525795493E+03  0.50400001928E-02 0.  1.
        1   -1    0    0  501    0  0.00000000000E+00  0.00000000000E+00 -0.12466338841E+04  0.12466338841E+04  0.50400001928E-02 0. -1.
    10030    2    1    2    0    0  0.00000000000E+00  0.00000000000E+00 -0.46137592919E+03  0.20318918390E+04  0.19788169945E+04 0.  0.
        1    1    3    3  502    0 -0.37892074916E+03  0.55953247945E+03 -0.97275506632E+03  0.11844449961E+04  0.50400001928E-02 0. -1.
       -1    1    3    3    0  502  0.37892074916E+03 -0.55953247945E+03  0.51137913713E+03  0.84744684295E+03  0.50400001928E-02 0.  1.
</event>
<event>
 5   0  0.6222733E-05  0.2001321E+04  0.7818609E-02  0.8606003E-01
        1   -1    0    0  501    0  0.00000000000E+00  0.00000000000E+00  0.17221489217E+04  0.17221489217E+04  0.50400001928E-02 0. -1.
       -1   -1    0    0    0  501  0.00000000000E+00  0.00000000000E+00 -0.58143740789E+03  0.58143740791E+03  0.50400001928E-02 0.  1.
    10030    2    1    2    0    0  0.00000000000E+00  0.00000000000E+00  0.11407115138E+04  0.23035863296E+04  0.20013213685E+04 0.  0.
        2    1    3    3  502    0  0.51321987320E+03 -0.55026274861E+03 -0.18892291869E+03  0.77580641913E+03  0.25500000920E-02 0.  1.
       -2    1    3    3    0  502 -0.51321987320E+03  0.55026274861E+03  0.13296344325E+04  0.15277799104E+04  0.25500000920E-02 0. -1.
</event>
<event>
 5   0  0.1242761E-04  0.2007965E+04  0.7818609E-02  0.8602906E-01
       -2   -1    0    0    0  501  0.00000000000E+00  0.00000000000E+00  0.10155139733E+04  0.10155139733E+04  0.25500000920E-02 0.  1.
        2   -1    0    0  501    0  0.00000000000E+00  0.00000000000E+00 -0.99258223519E+03  0.99258223519E+03  0.25500000920E-02 0. -1.
    10030    2    1    2    0    0  0.00000000000E+00  0.00000000000E+00  0.22931738140E+02  0.20080962085E+04  0.20079652681E+04 0.  0.
        4    1    3    3  502    0 -0.83441536608E+03  0.20888008724E+03 -0.50635127006E+03  0.99813481834E+03  0.12699999809E+01 0. -1.
       -4    1    3    3    0  502  0.83441536608E+03 -0.20888008724E+03  0.52928300820E+03  0.10099613902E+04  0.12699999809E+01 0.  1.
</event>
<event>
 5   0  0.1281789E-04  0.1987908E+04  0.7818609E-02  0.8612295E-01
        2   -1    0    0  501    0  0.00000000000E+00  0.00000000000E+00  0.91447672188E+03  0.91447672188E+03  0.25500000920E-02 0.  1.
       -2   -1    0    0    0  501  0.00000000000E+00  0.00000000000E+00 -0.10803382153E+04  0.10803382153E+04  0.25500000920E-02 0. -1.
    10030    2    1    2    0    0  0.00000000000E+00  0.00000000000E+00 -0.16586149343E+03  0.19948149372E+04  0.19879075931E+04 0.  0.
        2    1    3    3  502    0 -0.82792800893E+03  0.14036804399E+03  0.45068400364E+03  0.95303937321E+03  0.25500000920E-02 0.  1.
       -2    1    3    3    0  502  0.82792800893E+03 -0.14036804399E+03 -0.61654549707E+03  0.10417755640E+04  0.25500000920E-02 0. -1.
</event>
<event>
 5   0  0.1242761E-04  0.2023268E+04  0.7818609E-02  0.8595819E-01
        2   -1    0    0  501    0  0.00000000000E+00  0.00000000000E+00  0.14354110479E+04  0.14354110479E+04  0.25500000920E-02 0.  1.
       -2   -1    0    0    0  501  0.00000000000E+00  0.00000000000E+00 -0.71296880230E+03  0.71296880230E+03  0.25500000920E-02 0. -1.
    10030    2    1    2    0    0  0.00000000000E+00  0.00000000000E+00  0.72244224560E+03  0.21483798502E+04  0.20232679463E+04 0.  0.
        4    1    3    3  502    0 -0.28007414865E+03 -0.74065681820E+03  0.10297462212E+04  0.12989968992E+04  0.12699999809E+01 0.  1.
       -4    1    3    3    0  502  0.28007414865E+03  0.74065681820E+03 -0.30730397564E+03  0.84938295099E+03  0.12699999809E+01 0. -1.
</event>
<event>
 5   0  0.6222733E-05  0.2011011E+04  0.7818609E-02  0.8601490E-01
        1   -1    0    0  501    0  0.00000000000E+00  0.00000000000E+00  0.11984384790E+04  0.11984384790E+04  0.50400001928E-02 0.  1.
       -1   -1    0    0    0  501  0.00000000000E+00  0.00000000000E+00 -0.84363214897E+03  0.84363214898E+03  0.50400001928E-02 0. -1.
    10030    2    1    2    0    0  0.00000000000E+00  0.00000000000E+00  0.35480633007E+03  0.20420706280E+04  0.20110109194E+04 0.  0.
        2    1    3    3  502    0 -0.23756494382E+03 -0.82571397863E+03  0.70777316771E+03  0.11131862081E+04  0.25500000920E-02 0.  1.
       -2    1    3    3    0  502  0.23756494382E+03  0.82571397863E+03 -0.35296683764E+03  0.92888441989E+03  0.25500000920E-02 0. -1.
</event>
<event>
 5   0  0.1274868E-04  0.1984267E+04  0.7818609E-02  0.8614012E-01
       -2   -1    0    0    0  501  0.00000000000E+00  0.00000000000E+00  0.12260005477E+04  0.12260005477E+04  0.25500000920E-02 0.  1.
        2   -1    0    0  501    0  0.00000000000E+00  0.00000000000E+00 -0.80287769741E+03  0.80287769741E+03  0.25500000920E-02 0. -1.
    10030    2    1    2    0    0  0.00000000000E+00  0.00000000000E+00  0.42312285027E+03  0.20288782451E+04  0.19842666119E+04 0.  0.
        1    1    3    3  502    0 -0.69075352924E+03 -0.47550082495E+03  0.75365762061E+03  0.11274933622E+04  0.50400001928E-02 0. -1.
       -1    1    3    3    0  502  0.69075352924E+03  0.47550082495E+03 -0.33053477034E+03  0.90138488289E+03  0.50400001928E-02 0.  1.
</event>
<event>
 5   0  0.6028501E-05  0.1978641E+04  0.7818609E-02  0.8616672E-01
        1   -1    0    0  501    0  0.00000000000E+00  0.00000000000E+00  0.10306649848E+04  0.10306649848E+04  0.50400001928E-02 0.  1.
       -1   -1    0    0    0  501  0.00000000000E+00  0.00000000000E+00 -0.94963422912E+03  0.94963422913E+03  0.50400001928E-02 0. -1.
    10030    2    1    2    0    0  0.00000000000E+00  0.00000000000E+00  0.81030755659E+02  0.19802992139E+04  0.19786406933E+04 0.  0.
        4    1    3    3  502    0  0.78443344432E+03 -0.56583602574E+03 -0.16761782317E+03  0.98163312095E+03  0.12699999809E+01 0. -1.
       -4    1    3    3    0  502 -0.78443344432E+03  0.56583602574E+03  0.24864857883E+03  0.99866609297E+03  0.12699999809E+01 0.  1.
</event>
<event>
 5   0  0.6222733E-05  0.1971475E+04  0.7818609E-02  0.8620075E-01
       -1   -1    0    0    0  501  0.00000000000E+00  0.00000000000E+00  0.92147424048E+03  0.92147424049E+03  0.50400001928E-02 0. -1.
        1   -1    0    0  501    0  0.00000000000E+00  0.00000000000E+00 -0.10544821022E+04  0.10544821022E+04  0.50400001928E-02 0.  1.
    10030    2    1    2    0    0  0.00000000000E+00  0.00000000000E+00 -0.13300786170E+03  0.19759563427E+04  0.19714746706E+04 0.  0.
        2    1    3    3  502    0  0.26980190342E+02 -0.94109070980E+02 -0.10495974125E+04  0.10541532983E+04  0.25500000920E-02 0.  1.
       -2    1    3    3    0  502 -0.26980190342E+02  0.94109070980E+02  0.91658955084E+03  0.92180304438E+03  0.25500000920E-02 0. -1.
</event>
<event>
 5   0  0.6256535E-05  0.1984464E+04  0.7818609E-02  0.8613919E-01
       -1   -1    0    0    0  501  0.00000000000E+00  0.00000000000E+00  0.99053814672E+03  0.99053814673E+03  0.50400001928E-02 0.  1.
        1   -1    0    0  501    0  0.00000000000E+00  0.00000000000E+00 -0.99392883464E+03  0.99392883465E+03  0.50400001928E-02 0. -1.
    10030    2    1    2    0    0  0.00000000000E+00  0.00000000000E+00 -0.33906879190E+01  0.19844669814E+04  0.19844640847E+04 0.  0.
        1    1    3    3  502    0  0.52498640486E+03 -0.30459501457E+03  0.78324884283E+03  0.99089232412E+03  0.50400001928E-02 0.  1.
       -1    1    3    3    0  502 -0.52498640486E+03  0.30459501457E+03 -0.78663953075E+03  0.99357465726E+03  0.50400001928E-02 0. -1.
</event>
<event>
 5   0  0.1274868E-04  0.1996878E+04  0.7818609E-02  0.8608082E-01
       -2   -1    0    0    0  501  0.00000000000E+00  0.00000000000E+00  0.51341616826E+03  0.51341616826E+03  0.25500000920E-02 0.  1.
        2   -1    0    0  501    0  0.00000000000E+00  0.00000000000E+00 -0.19416616310E+04  0.19416616310E+04  0.25500000920E-02 0. -1.
    10030    2    1    2    0    0  0.00000000000E+00  0.00000000000E+00 -0.14282454627E+04  0.24550777992E+04  0.19968780380E+04 0.  0.
        1    1    3    3  502    0 -0.87898340189E+03 -0.46347894864E+03 -0.83367713210E+03  0.12970898648E+04  0.50400001928E-02 0. -1.
       -1    1    3    3    0  502  0.87898340189E+03  0.46347894864E+03 -0.59456833061E+03  0.11579879345E+04  0.50400001928E-02 0.  1.
</event>
<event>
 5   0  0.6214547E-05  0.2005164E+04  0.7818609E-02  0.8604210E-01
        1   -1    0    0  501    0  0.00000000000E+00  0.00000000000E+00  0.60584579111E+03  0.60584579113E+03  0.50400001928E-02 0.  1.
       -1   -1    0    0    0  501  0.00000000000E+00  0.00000000000E+00 -0.16591201787E+04  0.16591201787E+04  0.50400001928E-02 0. -1.
    10030    2    1    2    0    0  0.00000000000E+00  0.00000000000E+00 -0.10532743876E+04  0.22649659699E+04  0.20051643097E+04 0.  0.
        3    1    3    3  502    0 -0.42193692411E+03 -0.20104506708E+03 -0.15285319625E+04  0.15983928984E+04  0.10100000352E+00 0. -1.
       -3    1    3    3    0  502  0.42193692411E+03  0.20104506708E+03  0.47525757491E+03  0.66657307149E+03  0.10100000352E+00 0.  1.
</event>
<event>
 5   0  0.6168338E-05  0.1923698E+04  0.7818609E-02  0.8643149E-01
       -1   -1    0    0    0  501  0.00000000000E+00  0.00000000000E+00  0.85935222430E+03  0.85935222431E+03  0.50400001928E-02 0. -1.
        1   -1    0    0  501    0  0.00000000000E+00  0.00000000000E+00 -0.10765708615E+04  0.10765708615E+04  0.50400001928E-02 0.  1.
    10030    2    1    2    0    0  0.00000000000E+00  0.00000000000E+00 -0.21721863720E+03  0.19359230858E+04  0.19236980683E+04 0.  0.
        5    1    3    3  502    0 -0.61886340587E+03 -0.45337614770E+03 -0.69245968150E+03  0.10334719865E+04  0.46999998093E+01 0.  1.
       -5    1    3    3    0  502  0.61886340587E+03  0.45337614770E+03  0.47524104431E+03  0.90245109930E+03  0.46999998093E+01 0. -1.
</event>
<event>
 5   0  0.6214547E-05  0.1995706E+04  0.7818609E-02  0.8608631E-01
        1   -1    0    0  501    0  0.00000000000E+00  0.00000000000E+00  0.66715028774E+03  0.66715028776E+03  0.50400001928E-02 0. -1.
       -1   -1    0    0    0  501  0.00000000000E+00  0.00000000000E+00 -0.14924831330E+04  0.14924831330E+04  0.50400001928E-02 0.  1.
    10030    2    1    2    0    0  0.00000000000E+00  0.00000000000E+00 -0.82533284522E+03  0.21596334207E+04  0.19957059419E+04 0.  0.
        3    1    3    3  502    0  0.36150769587E+02 -0.90018083868E+03 -0.87695133996E+03  0.12572494117E+04  0.10100000352E+00 0. -1.
       -3    1    3    3    0  502 -0.36150769587E+02  0.90018083868E+03  0.51618494743E+02  0.90238400898E+03  0.10100000352E+00 0.  1.
</event>
<event>
 5   0  0.1281789E-04  0.1984937E+04  0.7818609E-02  0.8613696E-01
       -2   -1    0    0    0  501  0.00000000000E+00  0.00000000000E+00  0.71255273565E+03  0.71255273565E+03  0.25500000920E-02 0.  1.
        2   -1    0    0  501    0  0.00000000000E+00  0.00000000000E+00 -0.13823447273E+04  0.13823447273E+04  0.25500000920E-02 0. -1.
    10030    2    1    2    0    0  0.00000000000E+00  0.00000000000E+00 -0.66979199168E+03  0.20948974630E+04  0.19849367920E+04 0.  0.
        2    1    3    3  502    0  0.94850913398E+03  0.20176341056E+03 -0.55782101147E+03  0.11187235279E+04  0.25500000920E-02 0.  1.
       -2    1    3    3    0  502 -0.94850913398E+03 -0.20176341056E+03 -0.11197098021E+03  0.97617393506E+03  0.25500000920E-02 0. -1.
</event>
<event>
 5   0  0.1281789E-04  0.2002177E+04  0.7818609E-02  0.8605603E-01
       -2   -1    0    0    0  501  0.00000000000E+00  0.00000000000E+00  0.12364866617E+04  0.12364866617E+04  0.25500000920E-02 0. -1.
        2   -1    0    0  501    0  0.00000000000E+00  0.00000000000E+00 -0.81050495246E+03  0.81050495247E+03  0.25500000920E-02 0.  1.
    10030    2    1    2    0    0  0.00000000000E+00  0.00000000000E+00  0.42598170925E+03  0.20469916142E+04  0.20021773777E+04 0.  0.
        2    1    3    3  502    0  0.66946301464E+01  0.94516567833E+03 -0.12423366924E+03  0.95331892992E+03  0.25500000920E-02 0.  1.
       -2    1    3    3    0  502 -0.66946301464E+01 -0.94516567833E+03  0.55021537850E+03  0.10936726843E+04  0.25500000920E-02 0. -1.
</event>
<event>
 5   0  0.1242761E-04  0.2005175E+04  0.7818609E-02  0.8604205E-01
        2   -1    0    0  501    0  0.00000000000E+00  0.00000000000E+00  0.18597549529E+04  0.18597549529E+04  0.25500000920E-02 0.  1.
       -2   -1    0    0    0  501  0.00000000000E+00  0.00000000000E+00 -0.54049145612E+03  0.54049145613E+03  0.25500000920E-02 0. -1.
    10030    2    1    2    0    0  0.00000000000E+00  0.00000000000E+00  0.13192634968E+04  0.24002464090E+04  0.20051749674E+04 0.  0.
        4    1    3    3  502    0  0.38854617919E+03  0.52163772388E+03  0.15729131061E+04  0.17020961490E+04  0.12699999809E+01 0.  1.
       -4    1    3    3    0  502 -0.38854617919E+03 -0.52163772388E+03 -0.25364960930E+03  0.69815026000E+03  0.12699999809E+01 0. -1.
</event>
<event>
 5   0  0.4479000E-05  0.1970473E+04  0.7818609E-02  0.8620551E-01
       -3   -1    0    0    0  501  0.00000000000E+00  0.00000000000E+00  0.57574160585E+03  0.57574161471E+03  0.10100000352E+00 0.  1.
        3   -1    0    0  501    0  0.00000000000E+00  0.00000000000E+00 -0.16859837322E+04  0.16859837352E+04  0.10100000352E+00 0. -1.
    10030    2    1    2    0    0  0.00000000000E+00  0.00000000000E+00 -0.11102421263E+04  0.22617253499E+04  0.19704730344E+04 0.  0.
        5    1    3    3  502    0 -0.55554863480E+03 -0.38881488269E+03 -0.13755090679E+04  0.15335770553E+04  0.46999998093E+01 0. -1.
       -5    1    3    3    0  502  0.55554863480E+03  0.38881488269E+03  0.26526694159E+03  0.72814829460E+03  0.46999998093E+01 0.  1.
</event>
<event>
 5   0  0.6214547E-05  0.2001651E+04  0.7818609E-02  0.8605849E-01
        1   -1    0    0  501    0  0.00000000000E+00  0.00000000000E+00  0.12952231164E+04  0.12952231165E+04  0.50400001928E-02 0. -1.
       -1   -1    0    0    0  501  0.00000000000E+00  0.00000000000E+00 -0.77334310170E+03  0.77334310172E+03  0.50400001928E-02 0.  1.
    10030    2    1    2    0    0  0.00000000000E+00  0.00000000000E+00  0.52188001474E+03  0.20685662182E+04  0.20016511807E+04 0.  0.
        3    1    3    3  502    0 -0.37016764824E+02  0.20244394102E+03  0.12731201535E+04  0.12896467445E+04  0.10100000352E+00 0. -1.
       -3    1    3    3    0  502  0.37016764824E+02 -0.20244394102E+03 -0.75124013878E+03  0.77891947366E+03  0.10100000352E+00 0.  1.
</event>
<event>
 5   0  0.6028501E-05  0.1996540E+04  0.7818609E-02  0.8608240E-01
        1   -1    0    0  501    0  0.00000000000E+00  0.00000000000E+00  0.18162696118E+04  0.18162696118E+04  0.50400001928E-02 0.  1.
       -1   -1    0    0    0  501  0.00000000000E+00  0.00000000000E+00 -0.54867564994E+03  0.54867564996E+03  0.50400001928E-02 0. -1.
    10030    2    1    2    0    0  0.00000000000E+00  0.00000000000E+00  0.12675939618E+04  0.23649452617E+04  0.19965399167E+04 0.  0.
        4    1    3    3  502    0  0.94748148936E+02 -0.54774946357E+03  0.16159753796E+04  0.17089133176E+04  0.12699999809E+01 0.  1.
       -4    1    3    3    0  502 -0.94748148936E+02  0.54774946357E+03 -0.34838141781E+03  0.65603194415E+03  0.12699999809E+01 0. -1.
</event>
<event>
 5   0  0.1244229E-04  0.1805122E+04  0.7818609E-02  0.8703581E-01
       -2   -1    0    0    0  501  0.00000000000E+00  0.00000000000E+00  0.50749880121E+03  0.50749880122E+03  0.25500000920E-02 0. -1.
        2   -1    0    0  501    0  0.00000000000E+00  0.00000000000E+00 -0.16051583744E+04  0.16051583744E+04  0.25500000920E-02 0.  1.
    10030    2    1    2    0    0  0.00000000000E+00  0.00000000000E+00 -0.10976595732E+04  0.21126571756E+04  0.18051215480E+04 0.  0.
        5    1    3    3  502    0 -0.73000004977E+03 -0.11409672758E+03  0.57818245646E+02  0.74113640811E+03  0.46999998093E+01 0. -1.
       -5    1    3    3    0  502  0.73000004977E+03  0.11409672758E+03 -0.11554778189E+04  0.13715207675E+04  0.46999998093E+01 0.  1.
</event>
<event>
 5   0  0.6168338E-05  0.1988487E+04  0.7818609E-02  0.8612022E-01
        1   -1    0    0  501    0  0.00000000000E+00  0.00000000000E+00  0.11936105769E+04  0.11936105769E+04  0.50400001928E-02 0. -1.
       -1   -1    0    0    0  501  0.00000000000E+00  0.00000000000E+00 -0.82817629785E+03  0.82817629787E+03  0.50400001928E-02 0.  1.
    10030    2    1    2    0    0  0.00000000000E+00  0.00000000000E+00  0.36543427907E+03  0.20217868748E+04  0.19884868505E+04 0.  0.
        5    1    3    3  502    0  0.11070932902E+03  0.88051329802E+03  0.63848462155E+03  0.10932725760E+04  0.46999998093E+01 0.  1.
       -5    1    3    3    0  502 -0.11070932902E+03 -0.88051329802E+03 -0.27305034248E+03  0.92851429878E+03  0.46999998093E+01 0. -1.
</event>
<event>
 5   0  0.6222733E-05  0.2122099E+04  0.7818609E-02  0.8551571E-01
       -1   -1    0    0    0  501  0.00000000000E+00  0.00000000000E+00  0.85284486357E+03  0.85284486359E+03  0.50400001928E-02 0.  1.
        1   -1    0    0  501    0  0.00000000000E+00  0.00000000000E+00 -0.13200831915E+04  0.13200831916E+04  0.50400001928E-02 0. -1.
    10030    2    1    2    0    0  0.00000000000E+00  0.00000000000E+00 -0.46723832797E+03  0.21729280551E+04  0.21220991206E+04 0.  0.
        2    1    3    3  502    0 -0.13792807264E+02  0.70720525540E+03  0.57620769657E+03  0.91232933987E+03  0.25500000920E-02 0.  1.
       -2    1    3    3    0  502  0.13792807264E+02 -0.70720525540E+03 -0.10434460245E+04  0.12605987153E+04  0.25500000920E-02 0. -1.
</event>
<event>
 5   0  0.1159914E-04  0.1992409E+04  0.7818609E-02  0.8610178E-01
        2   -1    0    0  501    0  0.00000000000E+00  0.00000000000E+00  0.15025314969E+04  0.15025314969E+04  0.25500000920E-02 0. -1.
       -2   -1    0    0    0  501  0.00000000000E+00  0.00000000000E+00 -0.66050096305E+03  0.66050096306E+03  0.25500000920E-02 0.  1.
    10030    2    1    2    0    0  0.00000000000E+00  0.00000000000E+00  0.84203053382E+03  0.21630324599E+04  0.19924090953E+04 0.  0.
        3    1    3    3  502    0  0.25506787362E+03 -0.42877241402E+03  0.13571326075E+04  0.14459302638E+04  0.10100000352E+00 0. -1.
       -3    1    3    3    0  502 -0.25506787362E+03  0.42877241402E+03 -0.51510207369E+03  0.71710219614E+03  0.10100000352E+00 0.  1.
</event>
<event>
 5   0  0.6214547E-05  0.2001017E+04  0.7818609E-02  0.8606145E-01
        1   -1    0    0  501    0  0.00000000000E+00  0.00000000000E+00  0.12893345572E+04  0.12893345572E+04  0.50400001928E-02 0.  1.
       -1   -1    0    0    0  501  0.00000000000E+00  0.00000000000E+00 -0.77638280641E+03  0.77638280642E+03  0.50400001928E-02 0. -1.
    10030    2    1    2    0    0  0.00000000000E+00  0.00000000000E+00  0.51295175078E+03  0.20657173636E+04  0.20010169234E+04 0.  0.
        3    1    3    3  502    0  0.82831063876E+03 -0.12753876074E+03 -0.30768534700E+03  0.89276812932E+03  0.10100000352E+00 0. -1.
       -3    1    3    3    0  502 -0.82831063876E+03  0.12753876074E+03  0.82063709778E+03  0.11729492343E+04  0.10100000352E+00 0.  1.
</event>
<event>
 5   0  0.6214547E-05  0.1990154E+04  0.7818609E-02  0.8611238E-01
       -1   -1    0    0    0  501  0.00000000000E+00  0.00000000000E+00  0.67996341419E+03  0.67996341421E+03  0.50400001928E-02 0. -1.
        1   -1    0    0  501    0  0.00000000000E+00  0.00000000000E+00 -0.14562229174E+04  0.14562229174E+04  0.50400001928E-02 0.  1.
    10030    2    1    2    0    0  0.00000000000E+00  0.00000000000E+00 -0.77625950322E+03  0.21361863316E+04  0.19901540712E+04 0.  0.
        3    1    3    3  502    0 -0.97655961881E+03  0.15136623731E+02 -0.18367886176E+03  0.99379864205E+03  0.10100000352E+00 0. -1.
       -3    1    3    3    0  502  0.97655961881E+03 -0.15136623731E+02 -0.59258064146E+03  0.11423876896E+04  0.10100000352E+00 0.  1.
</event>
<event>
 5   0  0.6214547E-05  0.2025557E+04  0.7818609E-02  0.8594764E-01
       -1   -1    0    0    0  501  0.00000000000E+00  0.00000000000E+00  0.56050220556E+03  0.56050220559E+03  0.50400001928E-02 0. -1.
        1   -1    0    0  501    0  0.00000000000E+00  0.00000000000E+00 -0.18300026529E+04  0.18300026529E+04  0.50400001928E-02 0.  1.
    10030    2    1    2    0    0  0.00000000000E+00  0.00000000000E+00 -0.12695004473E+04  0.23905048585E+04  0.20255572302E+04 0.  0.
        3    1    3    3  502    0  0.45988119725E+03 -0.86147345891E+01  0.43012522763E+03  0.62974014552E+03  0.10100000352E+00 0. -1.
       -3    1    3    3    0  502 -0.45988119725E+03  0.86147345891E+01 -0.16996256750E+04  0.17607647130E+04  0.10100000352E+00 0.  1.
</event>
<event>
 5   0  0.4479000E-05  0.2006265E+04  0.7818609E-02  0.8603697E-01
       -4   -1    0    0    0  501  0.00000000000E+00  0.00000000000E+00  0.10625409125E+04  0.10625416715E+04  0.12699999809E+01 0.  1.
        4   -1    0    0  501    0  0.00000000000E+00  0.00000000000E+00 -0.94704403986E+03  0.94704489140E+03  0.12699999809E+01 0. -1.
    10030    2    1    2    0    0  0.00000000000E+00  0.00000000000E+00  0.11549687263E+03  0.20095865629E+04  0.20062648445E+04 0.  0.
        4    1    3    3  502    0 -0.10464508896E+03 -0.88520080727E+03  0.51866460132E+03  0.10312834942E+04  0.12699999809E+01 0.  1.
       -4    1    3    3    0  502  0.10464508896E+03  0.88520080727E+03 -0.40316772869E+03  0.97830306868E+03  0.12699999809E+01 0. -1.
</event>
<event>
 5   0  0.6028501E-05  0.1990313E+04  0.7818609E-02  0.8611163E-01
       -1   -1    0    0    0  501  0.00000000000E+00  0.00000000000E+00  0.85385829959E+03  0.85385829961E+03  0.50400001928E-02 0. -1.
        1   -1    0    0  501    0  0.00000000000E+00  0.00000000000E+00 -0.11598372438E+04  0.11598372438E+04  0.50400001928E-02 0.  1.
    10030    2    1    2    0    0  0.00000000000E+00  0.00000000000E+00 -0.30597894422E+03  0.20136955434E+04  0.19903131983E+04 0.  0.
        4    1    3    3  502    0 -0.71743516223E+02 -0.75253096411E+03  0.50182734036E+03  0.90734903786E+03  0.12699999809E+01 0. -1.
       -4    1    3    3    0  502  0.71743516223E+02  0.75253096411E+03 -0.80780628458E+03  0.11063465056E+04  0.12699999809E+01 0.  1.
</event>
<event>
 5   0  0.6028501E-05  0.1923897E+04  0.7818609E-02  0.8643052E-01
        1   -1    0    0  501    0  0.00000000000E+00  0.00000000000E+00  0.77805570485E+03  0.77805570487E+03  0.50400001928E-02 0. -1.
       -1   -1    0    0    0  501  0.00000000000E+00  0.00000000000E+00 -0.11893041181E+04  0.11893041181E+04  0.50400001928E-02 0.  1.
    10030    2    1    2    0    0  0.00000000000E+00  0.00000000000E+00 -0.41124841324E+03  0.19673598230E+04  0.19238969348E+04 0.  0.
        4    1    3    3  502    0 -0.91610268798E+03  0.25779348598E+03 -0.62309519625E+02  0.95372202736E+03  0.12699999809E+01 0. -1.
       -4    1    3    3    0  502  0.91610268798E+03 -0.25779348598E+03 -0.34893889362E+03  0.10136377956E+04  0.12699999809E+01 0.  1.
</event>
<event>
 5   0  0.1159914E-04  0.2005891E+04  0.7818609E-02  0.8603871E-01
        2   -1    0    0  501    0  0.00000000000E+00  0.00000000000E+00  0.10683859155E+04  0.10683859155E+04  0.25500000920E-02 0.  1.
       -2   -1    0    0    0  501  0.00000000000E+00  0.00000000000E+00 -0.94151320821E+03  0.94151320821E+03  0.25500000920E-02 0. -1.
    10030    2    1    2    0    0  0.00000000000E+00  0.00000000000E+00  0.12687270733E+03  0.20098991237E+04  0.20058907756E+04 0.  0.
        3    1    3    3  502    0  0.90682929331E+03  0.31256310158E+03  0.35704815099E+03  0.10234834889E+04  0.10100000352E+00 0.  1.
       -3    1    3    3    0  502 -0.90682929331E+03 -0.31256310158E+03 -0.23017544366E+03  0.98641563488E+03  0.10100000352E+00 0. -1.
</event>
<event>
 5   0  0.1242761E-04  0.1990126E+04  0.7818609E-02  0.8611251E-01
       -2   -1    0    0    0  501  0.00000000000E+00  0.00000000000E+00  0.58390768044E+03  0.58390768045E+03  0.25500000920E-02 0. -1.
        2   -1    0    0  501    0  0.00000000000E+00  0.00000000000E+00 -0.16957317937E+04  0.16957317937E+04  0.25500000920E-02 0.  1.
    10030    2    1    2    0    0  0.00000000000E+00  0.00000000000E+00 -0.11118241132E+04  0.22796394741E+04  0.19901264465E+04 0.  0.
        4    1    3    3  502    0 -0.68848983275E+02 -0.97812507159E+03 -0.74990139044E+03  0.12344320745E+04  0.12699999809E+01 0.  1.
       -4    1    3    3    0  502  0.68848983275E+02  0.97812507159E+03 -0.36192272280E+03  0.10452073997E+04  0.12699999809E+01 0. -1.
</event>
<event>
 5   0  0.1242761E-04  0.1959001E+04  0.7818609E-02  0.8626033E-01
        2   -1    0    0  501    0  0.00000000000E+00  0.00000000000E+00  0.18288919401E+04  0.18288919401E+04  0.25500000920E-02 0. -1.
       -2   -1    0    0    0  501  0.00000000000E+00  0.00000000000E+00 -0.52459142492E+03  0.52459142493E+03  0.25500000920E-02 0.  1.
    10030    2    1    2    0    0  0.00000000000E+00  0.00000000000E+00  0.13043005152E+04  0.23534833651E+04  0.19590007952E+04 0.  0.
        4    1    3    3  502    0 -0.55647439061E+03 -0.18799293529E+03 -0.28953806930E+03  0.65485799804E+03  0.12699999809E+01 0.  1.
       -4    1    3    3    0  502  0.55647439061E+03  0.18799293529E+03  0.15938385845E+04  0.16986253670E+04  0.12699999809E+01 0. -1.
</event>
<event>
 5   0  0.6168338E-05  0.1983439E+04  0.7818609E-02  0.8614403E-01
       -1   -1    0    0    0  501  0.00000000000E+00  0.00000000000E+00  0.69705586464E+03  0.69705586466E+03  0.50400001928E-02 0.  1.
        1   -1    0    0  501    0  0.00000000000E+00  0.00000000000E+00 -0.14109453599E+04  0.14109453599E+04  0.50400001928E-02 0. -1.
    10030    2    1    2    0    0  0.00000000000E+00  0.00000000000E+00 -0.71388949524E+03  0.21080012246E+04  0.19834391726E+04 0.  0.
        5    1    3    3  502    0 -0.71766521387E+03 -0.62896182415E+03 -0.70088243740E+02  0.95685463230E+03  0.46999998093E+01 0.  1.
       -5    1    3    3    0  502  0.71766521387E+03  0.62896182415E+03 -0.64380125150E+03  0.11511465923E+04  0.46999998093E+01 0. -1.
</event>
<event>
 5   0  0.6214547E-05  0.2009582E+04  0.7818609E-02  0.8602154E-01
       -1   -1    0    0    0  501  0.00000000000E+00  0.00000000000E+00  0.48074711116E+03  0.48074711119E+03  0.50400001928E-02 0.  1.
        1   -1    0    0  501    0  0.00000000000E+00  0.00000000000E+00 -0.21000754535E+04  0.21000754535E+04  0.50400001928E-02 0. -1.
    10030    2    1    2    0    0  0.00000000000E+00  0.00000000000E+00 -0.16193283423E+04  0.25808225647E+04  0.20095822526E+04 0.  0.
        3    1    3    3  502    0 -0.72847277114E+03 -0.34556378526E+03 -0.39624934453E+02  0.80725278173E+03  0.10100000352E+00 0.  1.
       -3    1    3    3    0  502  0.72847277114E+03  0.34556378526E+03 -0.15797034079E+04  0.17735697830E+04  0.10100000352E+00 0. -1.
</event>
<event>
 5   0  0.1242761E-04  0.1972292E+04  0.7818609E-02  0.8619686E-01
        2   -1    0    0  501    0  0.00000000000E+00  0.00000000000E+00  0.72767074744E+03  0.72767074744E+03  0.25500000920E-02 0.  1.
       -2   -1    0    0    0  501  0.00000000000E+00  0.00000000000E+00 -0.13364335447E+04  0.13364335447E+04  0.25500000920E-02 0. -1.
    10030    2    1    2    0    0  0.00000000000E+00  0.00000000000E+00 -0.60876279722E+03  0.20641042921E+04  0.19722916583E+04 0.  0.
        4    1    3    3  502    0  0.47388654433E+03  0.64678447722E+03 -0.90519968433E+03  0.12092504696E+04  0.12699999809E+01 0. -1.
       -4    1    3    3    0  502 -0.47388654433E+03 -0.64678447722E+03  0.29643688712E+03  0.85485382248E+03  0.12699999809E+01 0.  1.
</event>
<event>
 5   0  0.1244229E-04  0.2001748E+04  0.7818609E-02  0.8605804E-01
        2   -1    0    0  501    0  0.00000000000E+00  0.00000000000E+00  0.21026348455E+04  0.21026348455E+04  0.25500000920E-02 0. -1.
       -2   -1    0    0    0  501  0.00000000000E+00  0.00000000000E+00 -0.47642538800E+03  0.47642538800E+03  0.25500000920E-02 0.  1.
    10030    2    1    2    0    0  0.00000000000E+00  0.00000000000E+00  0.16262094576E+04  0.25790602336E+04  0.20017478584E+04 0.  0.
        5    1    3    3  502    0  0.95655831369E+03 -0.63057920719E+02  0.11837229162E+04  0.15232209759E+04  0.46999998093E+01 0. -1.
       -5    1    3    3    0  502 -0.95655831369E+03  0.63057920719E+02  0.44248654130E+03  0.10558392577E+04  0.46999998093E+01 0.  1.
</event>
<event>
 5   0  0.6168338E-05  0.2024042E+04  0.7818609E-02  0.8595462E-01
        1   -1    0    0  501    0  0.00000000000E+00  0.00000000000E+00  0.12313181431E+04  0.12313181431E+04  0.50400001928E-02 0.  1.
       -1   -1    0    0    0  501  0.00000000000E+00  0.00000000000E+00 -0.83178032206E+03  0.83178032207E+03  0.50400001928E-02 0. -1.
    10030    2    1    2    0    0  0.00000000000E+00  0.00000000000E+00  0.39953782101E+03  0.20630984652E+04  0.20240417008E+04 0.  0.
        5    1    3    3  502    0 -0.34036790445E+03 -0.23127426599E+03 -0.74263996022E+03  0.84904316557E+03  0.46999998093E+01 0. -1.
       -5    1    3    3    0  502  0.34036790445E+03  0.23127426599E+03  0.11421777812E+04  0.12140552996E+04  0.46999998093E+01 0.  1.
</event>
<event>
 5   0  0.6214547E-05  0.2018125E+04  0.7818609E-02  0.8598193E-01
       -1   -1    0    0    0  501  0.00000000000E+00  0.00000000000E+00  0.73221474269E+03  0.73221474271E+03  0.50400001928E-02 0.  1.
        1   -1    0    0  501    0  0.00000000000E+00  0.00000000000E+00 -0.13905855471E+04  0.13905855472E+04  0.50400001928E-02 0. -1.
    10030    2    1    2    0    0  0.00000000000E+00  0.00000000000E+00 -0.65837080445E+03  0.21228002899E+04  0.20181251087E+04 0.  0.
        3    1    3    3  502    0 -0.92164039685E+03 -0.38212707358E+02  0.10108627783E+03  0.92795456671E+03  0.10100000352E+00 0.  1.
       -3    1    3    3    0  502  0.92164039685E+03  0.38212707358E+02 -0.75945708228E+03  0.11948457232E+04  0.10100000352E+00 0. -1.
</event>
<event>
 5   0  0.1281789E-04  0.1992030E+04  0.7818609E-02  0.8610356E-01
       -2   -1    0    0    0  501  0.00000000000E+00  0.00000000000E+00  0.57178293690E+03  0.57178293691E+03  0.25500000920E-02 0.  1.
        2   -1    0    0  501    0  0.00000000000E+00  0.00000000000E+00 -0.17350049700E+04  0.17350049700E+04  0.25500000920E-02 0. -1.
    10030    2    1    2    0    0  0.00000000000E+00  0.00000000000E+00 -0.11632220331E+04  0.23067879069E+04  0.19920303585E+04 0.  0.
        2    1    3    3  502    0  0.79351275637E+03  0.33441085921E+02 -0.12776361461E+04  0.15043719362E+04  0.25500000920E-02 0.  1.
       -2    1    3    3    0  502 -0.79351275637E+03 -0.33441085921E+02  0.11441411297E+03  0.80241597068E+03  0.25500000920E-02 0. -1.
</event>
<event>
 5   0  0.1244229E-04  0.1982868E+04  0.7818609E-02  0.8614672E-01
       -2   -1    0    0    0  501  0.00000000000E+00  0.00000000000E+00  0.15202856816E+04  0.15202856816E+04  0.25500000920E-02 0. -1.
        2   -1    0    0  501    0  0.00000000000E+00  0.00000000000E+00 -0.64655068852E+03  0.64655068853E+03  0.25500000920E-02 0.  1.
    10030    2    1    2    0    0  0.00000000000E+00  0.00000000000E+00  0.87373499310E+03  0.21668363701E+04  0.19828683811E+04 0.  0.
        5    1    3    3  502    0  0.72827327513E+03  0.65567617008E+03  0.60124430504E+03  0.11496999642E+04  0.46999998093E+01 0. -1.
       -5    1    3    3    0  502 -0.72827327513E+03 -0.65567617008E+03  0.27249068806E+03  0.10171364060E+04  0.46999998093E+01 0.  1.
</event>
<event>
 5   0  0.1274868E-04  0.2001961E+04  0.7818609E-02  0.8605705E-01
        2   -1    0    0  501    0  0.00000000000E+00  0.00000000000E+00  0.17020657650E+04  0.17020657650E+04  0.25500000920E-02 0. -1.
       -2   -1    0    0    0  501  0.00000000000E+00  0.00000000000E+00 -0.58867379895E+03  0.58867379896E+03  0.25500000920E-02 0.  1.
    10030    2    1    2    0    0  0.00000000000E+00  0.00000000000E+00  0.11133919661E+04  0.22907395640E+04  0.20019605590E+04 0.  0.
        1    1    3    3  502    0  0.75560483972E+03 -0.52781348438E+03  0.10034450423E+04  0.13625078719E+04  0.50400001928E-02 0. -1.
       -1    1    3    3    0  502 -0.75560483972E+03  0.52781348438E+03  0.10994692381E+03  0.92823169208E+03  0.50400001928E-02 0.  1.
</event>
<event>
 5   0  0.1242761E-04  0.1866250E+04  0.7818609E-02  0.8671841E-01
       -2   -1    0    0    0  501  0.00000000000E+00  0.00000000000E+00  0.37863171774E+03  0.37863171774E+03  0.25500000920E-02 0. -1.
        2   -1    0    0  501    0  0.00000000000E+00  0.00000000000E+00 -0.22996544784E+04  0.22996544784E+04  0.25500000920E-02 0.  1.
    10030    2    1    2    0    0  0.00000000000E+00  0.00000000000E+00 -0.19210227607E+04  0.26782861961E+04  0.18662498497E+04 0.  0.
        4    1    3    3  502    0 -0.21585264859E+03  0.25729981845E+03  0.28888516022E+03  0.44300317287E+03  0.12699999809E+01 0. -1.
       -4    1    3    3    0  502  0.21585264859E+03 -0.25729981845E+03 -0.22099079209E+04  0.22352830233E+04  0.12699999809E+01 0.  1.
</event>
<event>
 5   0  0.1244229E-04  0.2177754E+04  0.7818609E-02  0.8527745E-01
       -2   -1    0    0    0  501  0.00000000000E+00  0.00000000000E+00  0.74434377680E+03  0.74434377680E+03  0.25500000920E-02 0. -1.
        2   -1    0    0  501    0  0.00000000000E+00  0.00000000000E+00 -0.15928837119E+04  0.15928837119E+04  0.25500000920E-02 0.  1.
    10030    2    1    2    0    0  0.00000000000E+00  0.00000000000E+00 -0.84853993512E+03  0.23372274887E+04  0.21777539605E+04 0.  0.
        5    1    3    3  502    0  0.57921168855E+03 -0.75998695060E+03 -0.98457810844E+03  0.13720358912E+04  0.46999998093E+01 0.  1.
       -5    1    3    3    0  502 -0.57921168855E+03  0.75998695060E+03  0.13603817332E+03  0.96519159747E+03  0.46999998093E+01 0. -1.
</event>
<event>
 5   0  0.1159914E-04  0.1917592E+04  0.7818609E-02  0.8646149E-01
       -2   -1    0    0    0  501  0.00000000000E+00  0.00000000000E+00  0.59675409144E+03  0.59675409144E+03  0.25500000920E-02 0.  1.
        2   -1    0    0  501    0  0.00000000000E+00  0.00000000000E+00 -0.15404833037E+04  0.15404833037E+04  0.25500000920E-02 0. -1.
    10030    2    1    2    0    0  0.00000000000E+00  0.00000000000E+00 -0.94372921224E+03  0.21372373951E+04  0.19175919423E+04 0.  0.
        3    1    3    3  502    0  0.83137652779E+03  0.33628780722E+03 -0.93883083634E+02  0.90171528979E+03  0.10100000352E+00 0.  1.
       -3    1    3    3    0  502 -0.83137652779E+03 -0.33628780722E+03 -0.84984612861E+03  0.12355221053E+04  0.10100000352E+00 0. -1.
</event>
<event>
 5   0  0.6028501E-05  0.2010303E+04  0.7818609E-02  0.8601819E-01
       -1   -1    0    0    0  501  0.00000000000E+00  0.00000000000E+00  0.13423768549E+04  0.13423768549E+04  0.50400001928E-02 0. -1.
        1   -1    0    0  501    0  0.00000000000E+00  0.00000000000E+00 -0.75264261647E+03  0.75264261648E+03  0.50400001928E-02 0.  1.
    10030    2    1    2    0    0  0.00000000000E+00  0.00000000000E+00  0.58973423842E+03  0.20950194714E+04  0.20103034879E+04 0.  0.
        4    1    3    3  502    0  0.44660795352E+03  0.69729293807E+03 -0.29892671833E+03  0.88036066555E+03  0.12699999809E+01 0.  1.
       -4    1    3    3    0  502 -0.44660795352E+03 -0.69729293807E+03  0.88866095675E+03  0.12146588058E+04  0.12699999809E+01 0. -1.
</event>
<event>
 5   0  0.1244229E-04  0.2007863E+04  0.7818609E-02  0.8602953E-01
       -2   -1    0    0    0  501  0.00000000000E+00  0.00000000000E+00  0.68491949905E+03  0.68491949906E+03  0.25500000920E-02 0. -1.
        2   -1    0    0  501    0  0.00000000000E+00  0.00000000000E+00 -0.14715285698E+04  0.14715285698E+04  0.25500000920E-02 0.  1.
    10030    2    1    2    0    0  0.00000000000E+00  0.00000000000E+00 -0.78660907073E+03  0.21564480688E+04  0.20078631536E+04 0.  0.
        5    1    3    3  502    0 -0.67055404288E+03  0.69869968389E+01 -0.11956957884E+04  0.13709128531E+04  0.46999998093E+01 0.  1.
       -5    1    3    3    0  502  0.67055404288E+03 -0.69869968389E+01  0.40908671766E+03  0.78553521570E+03  0.46999998093E+01 0. -1.
</event>
<event>
 5   0  0.6168338E-05  0.1930811E+04  0.7818609E-02  0.8639670E-01
       -1   -1    0    0    0  501  0.00000000000E+00  0.00000000000E+00  0.78987251747E+03  0.78987251749E+03  0.50400001928E-02 0. -1.
        1   -1    0    0  501    0  0.00000000000E+00  0.00000000000E+00 -0.11799469828E+04  0.11799469828E+04  0.50400001928E-02 0.  1.
    10030    2    1    2    0    0  0.00000000000E+00  0.00000000000E+00 -0.39007446536E+03  0.19698195003E+04  0.19308109113E+04 0.  0.
        5    1    3    3  502    0 -0.94804225645E+02 -0.78933610420E+03 -0.75377551209E+03  0.10955541699E+04  0.46999998093E+01 0.  1.
       -5    1    3    3    0  502  0.94804225645E+02  0.78933610420E+03  0.36370104672E+03  0.87426533042E+03  0.46999998093E+01 0. -1.
</event>
<event>
 5   0  0.6168338E-05  0.2007419E+04  0.7818609E-02  0.8603160E-01
        1   -1    0    0  501    0  0.00000000000E+00  0.00000000000E+00  0.98679490143E+03  0.98679490144E+03  0.50400001928E-02 0. -1.
       -1   -1    0    0    0  501  0.00000000000E+00  0.00000000000E+00 -0.10209139571E+04  0.10209139571E+04  0.50400001928E-02 0.  1.
    10030    2    1    2    0    0  0.00000000000E+00  0.00000000000E+00 -0.34119055703E+02  0.20077088586E+04  0.20074189276E+04 0.  0.
        5    1    3    3  502    0 -0.68534103046E+03 -0.70448652505E+03  0.18648154975E+03  0.10003954470E+04  0.46999998093E+01 0. -1.
       -5    1    3    3    0  502  0.68534103046E+03  0.70448652505E+03 -0.22060060545E+03  0.10073134116E+04  0.46999998093E+01 0.  1.
</event>
<event>
 5   0  0.6168338E-05  0.1988727E+04  0.7818609E-02  0.8611909E-01
       -1   -1    0    0    0  501  0.00000000000E+00  0.00000000000E+00  0.56981106327E+03  0.56981106329E+03  0.50400001928E-02 0.  1.
        1   -1    0    0  501    0  0.00000000000E+00  0.00000000000E+00 -0.17352391637E+04  0.17352391637E+04  0.50400001928E-02 0. -1.
    10030    2    1    2    0    0  0.00000000000E+00  0.00000000000E+00 -0.11654281004E+04  0.23050502270E+04  0.19887267011E+04 0.  0.
        5    1    3    3  502    0 -0.34515601986E+03  0.56433790367E+03 -0.14431744933E+04  0.15875719372E+04  0.46999998093E+01 0. -1.
       -5    1    3    3    0  502  0.34515601986E+03 -0.56433790367E+03  0.27774639291E+03  0.71747828980E+03  0.46999998093E+01 0.  1.
</event>
<event>
 5   0  0.6256535E-05  0.2027908E+04  0.7818609E-02  0.8593683E-01
       -1   -1    0    0    0  501  0.00000000000E+00  0.00000000000E+00  0.10551179847E+04  0.10551179847E+04  0.50400001928E-02 0.  1.
        1   -1    0    0  501    0  0.00000000000E+00  0.00000000000E+00 -0.97439617184E+03  0.97439617185E+03  0.50400001928E-02 0. -1.
    10030    2    1    2    0    0  0.00000000000E+00  0.00000000000E+00  0.80721812848E+02  0.20295141566E+04  0.20279082081E+04 0.  0.
        1    1    3    3  502    0  0.31026073875E+03  0.33775429789E+03 -0.86465785486E+03  0.97876089917E+03  0.50400001928E-02 0. -1.
       -1    1    3    3    0  502 -0.31026073875E+03 -0.33775429789E+03  0.94537966771E+03  0.10507532574E+04  0.50400001928E-02 0.  1.
</event>
<event>
 5   0  0.1159914E-04  0.1992355E+04  0.7818609E-02  0.8610203E-01
       -2   -1    0    0    0  501  0.00000000000E+00  0.00000000000E+00  0.57736368835E+03  0.57736368836E+03  0.25500000920E-02 0. -1.
        2   -1    0    0  501    0  0.00000000000E+00  0.00000000000E+00 -0.17187944077E+04  0.17187944077E+04  0.25500000920E-02 0.  1.
    10030    2    1    2    0    0  0.00000000000E+00  0.00000000000E+00 -0.11414307194E+04  0.22961580961E+04  0.19923548668E+04 0.  0.
        3    1    3    3  502    0 -0.82624479377E+03 -0.55178503817E+03 -0.48743066274E+03  0.11066778433E+04  0.10100000352E+00 0. -1.
       -3    1    3    3    0  502  0.82624479377E+03  0.55178503817E+03 -0.65400005664E+03  0.11894802528E+04  0.10100000352E+00 0.  1.
</event>
<event>
 5   0  0.1244229E-04  0.1931804E+04  0.7818609E-02  0.8639185E-01
       -2   -1    0    0    0  501  0.00000000000E+00  0.00000000000E+00  0.57106776835E+03  0.57106776835E+03  0.25500000920E-02 0. -1.
        2   -1    0    0  501    0  0.00000000000E+00  0.00000000000E+00 -0.16337238725E+04  0.16337238725E+04  0.25500000920E-02 0.  1.
    10030    2    1    2    0    0  0.00000000000E+00  0.00000000000E+00 -0.10626561042E+04  0.22047916409E+04  0.19318043855E+04 0.  0.
        5    1    3    3  502    0 -0.60845519892E+03 -0.21230824451E+03  0.28982391417E+03  0.70662048584E+03  0.46999998093E+01 0. -1.
       -5    1    3    3    0  502  0.60845519892E+03  0.21230824451E+03 -0.13524800184E+04  0.14981711551E+04  0.46999998093E+01 0.  1.
</event>
<event>
 5   0  0.6028501E-05  0.2002791E+04  0.7818609E-02  0.8605317E-01
        1   -1    0    0  501    0  0.00000000000E+00  0.00000000000E+00  0.81210925330E+03  0.81210925332E+03  0.50400001928E-02 0.  1.
       -1   -1    0    0    0  501  0.00000000000E+00  0.00000000000E+00 -0.12348006380E+04  0.12348006381E+04  0.50400001928E-02 0. -1.
    10030    2    1    2    0    0  0.00000000000E+00  0.00000000000E+00 -0.42269138475E+03  0.20469098914E+04  0.20027910766E+04 0.  0.
        4    1    3    3  502    0  0.71480150718E+03  0.62043420583E+03 -0.54552189337E+03  0.10924630646E+04  0.12699999809E+01 0. -1.
       -4    1    3    3    0  502 -0.71480150718E+03 -0.62043420583E+03  0.12283050862E+03  0.95444682679E+03  0.12699999809E+01 0.  1.
</event>
<event>
 5   0  0.1242761E-04  0.1983055E+04  0.7818609E-02  0.8614584E-01
       -2   -1    0    0    0  501  0.00000000000E+00  0.00000000000E+00  0.47635641895E+03  0.47635641895E+03  0.25500000920E-02 0.  1.
        2   -1    0    0  501    0  0.00000000000E+00  0.00000000000E+00 -0.20638461648E+04  0.20638461648E+04  0.25500000920E-02 0. -1.
    10030    2    1    2    0    0  0.00000000000E+00  0.00000000000E+00 -0.15874897458E+04  0.25402025837E+04  0.19830545815E+04 0.  0.
        4    1    3    3  502    0 -0.31374798382E+02  0.97985426214E+03 -0.60363637659E+03  0.11512937249E+04  0.12699999809E+01 0. -1.
       -4    1    3    3    0  502  0.31374798382E+02 -0.97985426214E+03 -0.98385336925E+03  0.13889088588E+04  0.12699999809E+01 0.  1.
</event>
<event>
 5   0  0.1281789E-04  0.1942990E+04  0.7818609E-02  0.8633749E-01
       -2   -1    0    0    0  501  0.00000000000E+00  0.00000000000E+00  0.14039917464E+04  0.14039917464E+04  0.25500000920E-02 0.  1.
        2   -1    0    0  501    0  0.00000000000E+00  0.00000000000E+00 -0.67222764568E+03  0.67222764569E+03  0.25500000920E-02 0. -1.
    10030    2    1    2    0    0  0.00000000000E+00  0.00000000000E+00  0.73176410072E+03  0.20762193921E+04  0.19429895175E+04 0.  0.
        2    1    3    3  502    0 -0.80410258759E+01 -0.24007349134E+03 -0.63999447984E+03  0.68358823393E+03  0.25500000920E-02 0. -1.
       -2    1    3    3    0  502  0.80410258759E+01  0.24007349134E+03  0.13717585806E+04  0.13926311582E+04  0.25500000920E-02 0.  1.
</event>
<event>
 5   0  0.6256535E-05  0.1997818E+04  0.7818609E-02  0.8607642E-01
       -1   -1    0    0    0  501  0.00000000000E+00  0.00000000000E+00  0.52681897268E+03  0.52681897270E+03  0.50400001928E-02 0. -1.
        1   -1    0    0  501    0  0.00000000000E+00  0.00000000000E+00 -0.18940453087E+04  0.18940453087E+04  0.50400001928E-02 0.  1.
    10030    2    1    2    0    0  0.00000000000E+00  0.00000000000E+00 -0.13672263360E+04  0.24208642814E+04  0.19978178133E+04 0.  0.
        1    1    3    3  502    0  0.36350596654E+03 -0.92305931956E+02 -0.18054921820E+04  0.18440333490E+04  0.50400001928E-02 0.  1.
       -1    1    3    3    0  502 -0.36350596654E+03  0.92305931956E+02  0.43826584602E+03  0.57683093242E+03  0.50400001928E-02 0. -1.
</event>
<event>
 5   0  0.1244229E-04  0.1988439E+04  0.7818609E-02  0.8612045E-01
       -2   -1    0    0    0  501  0.00000000000E+00  0.00000000000E+00  0.78286081363E+03  0.78286081363E+03  0.25500000920E-02 0. -1.
        2   -1    0    0  501    0  0.00000000000E+00  0.00000000000E+00 -0.12626409463E+04  0.12626409463E+04  0.25500000920E-02 0.  1.
    10030    2    1    2    0    0  0.00000000000E+00  0.00000000000E+00 -0.47978013272E+03  0.20455017600E+04  0.19884387027E+04 0.  0.
        5    1    3    3  502    0  0.57530562191E+03 -0.36469408810E+03 -0.98487703509E+03  0.11974903761E+04  0.46999998093E+01 0.  1.
       -5    1    3    3    0  502 -0.57530562191E+03  0.36469408810E+03  0.50509690237E+03  0.84801138393E+03  0.46999998093E+01 0. -1.
</event>
<event>
 5   0  0.6214547E-05  0.1984790E+04  0.7818609E-02  0.8613765E-01
        1   -1    0    0  501    0  0.00000000000E+00  0.00000000000E+00  0.15405393486E+04  0.15405393486E+04  0.50400001928E-02 0. -1.
       -1   -1    0    0    0  501  0.00000000000E+00  0.00000000000E+00 -0.63928793499E+03  0.63928793501E+03  0.50400001928E-02 0.  1.
    10030    2    1    2    0    0  0.00000000000E+00  0.00000000000E+00  0.90125141363E+03  0.21798272836E+04  0.19847903859E+04 0.  0.
        3    1    3    3  502    0  0.87933142228E+03  0.12842962978E+03 -0.34517305103E+02  0.88933085776E+03  0.10100000352E+00 0.  1.
       -3    1    3    3    0  502 -0.87933142228E+03 -0.12842962978E+03  0.93576871873E+03  0.12904964259E+04  0.10100000352E+00 0. -1.
</event>
<event>
 5   0  0.1242761E-04  0.1986578E+04  0.7818609E-02  0.8612922E-01
        2   -1    0    0  501    0  0.00000000000E+00  0.00000000000E+00  0.15038973166E+04  0.15038973166E+04  0.25500000920E-02 0. -1.
       -2   -1    0    0    0  501  0.00000000000E+00  0.00000000000E+00 -0.65604400435E+03  0.65604400435E+03  0.25500000920E-02 0.  1.
    10030    2    1    2    0    0  0.00000000000E+00  0.00000000000E+00  0.84785331228E+03  0.21599413210E+04  0.19865777787E+04 0.  0.
        4    1    3    3  502    0 -0.87212547534E+03 -0.11542651624E+03  0.92536218351E+03  0.12768018284E+04  0.12699999809E+01 0. -1.
       -4    1    3    3    0  502  0.87212547534E+03  0.11542651624E+03 -0.77508871224E+02  0.88313949261E+03  0.12699999809E+01 0.  1.
</event>
<event>
 5   0  0.1244229E-04  0.1977557E+04  0.7818609E-02  0.8617186E-01
       -2   -1    0    0    0  501  0.00000000000E+00  0.00000000000E+00  0.15573121938E+04  0.15573121938E+04  0.25500000920E-02 0.  1.
        2   -1    0    0  501    0  0.00000000000E+00  0.00000000000E+00 -0.62780156441E+03  0.62780156441E+03  0.25500000920E-02 0. -1.
    10030    2    1    2    0    0  0.00000000000E+00  0.00000000000E+00  0.92951062944E+03  0.21851137583E+04  0.19775571108E+04 0.  0.
        5    1    3    3  502    0  0.14841167053E+02 -0.97391259793E+03  0.27679928744E+03  0.10126035474E+04  0.46999998093E+01 0. -1.
       -5    1    3    3    0  502 -0.14841167053E+02  0.97391259793E+03  0.65271134199E+03  0.11725102109E+04  0.46999998093E+01 0.  1.
</event>
<event>
 5   0  0.6256535E-05  0.2031511E+04  0.7818609E-02  0.8592028E-01
        1   -1    0    0  501    0  0.00000000000E+00  0.00000000000E+00  0.72227479111E+03  0.72227479112E+03  0.50400001928E-02 0. -1.
       -1   -1    0    0    0  501  0.00000000000E+00  0.00000000000E+00 -0.14284852856E+04  0.14284852856E+04  0.50400001928E-02 0.  1.
    10030    2    1    2    0    0  0.00000000000E+00  0.00000000000E+00 -0.70621049450E+03  0.21507600767E+04  0.20315106805E+04 0.  0.
        1    1    3    3  502    0 -0.46744966070E+03  0.16915406625E+03  0.58468809509E+03  0.76745192161E+03  0.50400001928E-02 0. -1.
       -1    1    3    3    0  502  0.46744966070E+03 -0.16915406625E+03 -0.12908985896E+04  0.13833081551E+04  0.50400001928E-02 0.  1.
</event>
<event>
 5   0  0.6256535E-05  0.2005165E+04  0.7818609E-02  0.8604210E-01
        1   -1    0    0  501    0  0.00000000000E+00  0.00000000000E+00  0.12760310889E+04  0.12760310889E+04  0.50400001928E-02 0.  1.
       -1   -1    0    0    0  501  0.00000000000E+00  0.00000000000E+00 -0.78773300065E+03  0.78773300066E+03  0.50400001928E-02 0. -1.
    10030    2    1    2    0    0  0.00000000000E+00  0.00000000000E+00  0.48829808821E+03  0.20637640895E+04  0.20051651289E+04 0.  0.
        1    1    3    3  502    0 -0.56659595409E+02 -0.19049594920E+03  0.12555535947E+04  0.12711859996E+04  0.50400001928E-02 0.  1.
       -1    1    3    3    0  502  0.56659595409E+02  0.19049594920E+03 -0.76725550647E+03  0.79257808994E+03  0.50400001928E-02 0. -1.
</event>
<event>
 5   0  0.6214547E-05  0.2087469E+04  0.7818609E-02  0.8566783E-01
       -1   -1    0    0    0  501  0.00000000000E+00  0.00000000000E+00  0.88773743627E+03  0.88773743629E+03  0.50400001928E-02 0. -1.
        1   -1    0    0  501    0  0.00000000000E+00  0.00000000000E+00 -0.12271443728E+04  0.12271443729E+04  0.50400001928E-02 0.  1.
    10030    2    1    2    0    0  0.00000000000E+00  0.00000000000E+00 -0.33940693657E+03  0.21148818091E+04  0.20874692807E+04 0.  0.
        3    1    3    3  502    0 -0.84887463335E+03 -0.21470362840E+03  0.40581986123E+03  0.96507800781E+03  0.10100000352E+00 0. -1.
       -3    1    3    3    0  502  0.84887463335E+03  0.21470362840E+03 -0.74522679780E+03  0.11498038013E+04  0.10100000352E+00 0.  1.
</event>
<event>
 5   0  0.1242761E-04  0.2003592E+04  0.7818609E-02  0.8604943E-01
        2   -1    0    0  501    0  0.00000000000E+00  0.00000000000E+00  0.78182613940E+03  0.78182613940E+03  0.25500000920E-02 0. -1.
       -2   -1    0    0    0  501  0.00000000000E+00  0.00000000000E+00 -0.12836549832E+04  0.12836549832E+04  0.25500000920E-02 0.  1.
    10030    2    1    2    0    0  0.00000000000E+00  0.00000000000E+00 -0.50182884375E+03  0.20654811226E+04  0.20035917946E+04 0.  0.
        4    1    3    3  502    0  0.46444954341E+03 -0.44380480675E+03 -0.10433707653E+04  0.12252755819E+04  0.12699999809E+01 0.  1.
       -4    1    3    3    0  502 -0.46444954341E+03  0.44380480675E+03  0.54154192152E+03  0.84020554065E+03  0.12699999809E+01 0. -1.
</event>
<event>
 5   0  0.1274868E-04  0.1987902E+04  0.7818609E-02  0.8612298E-01
       -2   -1    0    0    0  501  0.00000000000E+00  0.00000000000E+00  0.46554588350E+03  0.46554588351E+03  0.25500000920E-02 0.  1.
        2   -1    0    0  501    0  0.00000000000E+00  0.00000000000E+00 -0.21221078183E+04  0.21221078183E+04  0.25500000920E-02 0. -1.
    10030    2    1    2    0    0  0.00000000000E+00  0.00000000000E+00 -0.16565619348E+04  0.25876537018E+04  0.19879019686E+04 0.  0.
        1    1    3    3  502    0  0.20787553247E+03  0.80267622165E+03 -0.15417712268E+04  0.17505884352E+04  0.50400001928E-02 0. -1.
       -1    1    3    3    0  502 -0.20787553247E+03 -0.80267622165E+03 -0.11479070799E+03  0.83706526655E+03  0.50400001928E-02 0.  1.
</event>
<event>
 5   0  0.1244229E-04  0.1982646E+04  0.7818609E-02  0.8614778E-01
        2   -1    0    0  501    0  0.00000000000E+00  0.00000000000E+00  0.12589617732E+04  0.12589617732E+04  0.25500000920E-02 0.  1.
       -2   -1    0    0    0  501  0.00000000000E+00  0.00000000000E+00 -0.78058035516E+03  0.78058035516E+03  0.25500000920E-02 0. -1.
    10030    2    1    2    0    0  0.00000000000E+00  0.00000000000E+00  0.47838141804E+03  0.20395421284E+04  0.19826455337E+04 0.  0.
        5    1    3    3  502    0  0.32183495372E+03  0.91880697258E+03  0.43140782590E+03  0.10648562309E+04  0.46999998093E+01 0.  1.
       -5    1    3    3    0  502 -0.32183495372E+03 -0.91880697258E+03  0.46973592144E+02  0.97468589744E+03  0.46999998093E+01 0. -1.
</event>
<event>
 5   0  0.6222733E-05  0.1996072E+04  0.7818609E-02  0.8608459E-01
       -1   -1    0    0    0  501  0.00000000000E+00  0.00000000000E+00  0.72124301932E+03  0.72124301934E+03  0.50400001928E-02 0.  1.
        1   -1    0    0  501    0  0.00000000000E+00  0.00000000000E+00 -0.13810550623E+04  0.13810550623E+04  0.50400001928E-02 0. -1.
    10030    2    1    2    0    0  0.00000000000E+00  0.00000000000E+00 -0.65981204295E+03  0.21022980816E+04  0.19960724666E+04 0.  0.
        2    1    3    3  502    0 -0.79220149971E+03  0.47182770616E+03  0.72350918531E+02  0.92489959232E+03  0.25500000920E-02 0.  1.
       -2    1    3    3    0  502  0.79220149971E+03 -0.47182770616E+03 -0.73216296149E+03  0.11773984893E+04  0.25500000920E-02 0. -1.
</event>
<event>
 5   0  0.4479000E-05  0.1997666E+04  0.7818609E-02  0.8607712E-01
        3   -1    0    0  501    0  0.00000000000E+00  0.00000000000E+00  0.15712582610E+04  0.15712582643E+04  0.10100000352E+00 0. -1.
       -3   -1    0    0    0  501  0.00000000000E+00  0.00000000000E+00 -0.63494828395E+03  0.63494829198E+03  0.10100000352E+00 0.  1.
    10030    2    1    2    0    0  0.00000000000E+00  0.00000000000E+00  0.93630997709E+03  0.22062065563E+04  0.19976663875E+04 0.  0.
        4    1    3    3  502    0 -0.83986939934E+03 -0.45439091284E+03  0.79167664725E+03  0.12404052710E+04  0.12699999809E+01 0.  1.
       -4    1    3    3    0  502  0.83986939934E+03  0.45439091284E+03  0.14463332984E+03  0.96580128526E+03  0.12699999809E+01 0. -1.
</event>
<event>
 5   0  0.1242761E-04  0.1998612E+04  0.7818609E-02  0.8607270E-01
        2   -1    0    0  501    0  0.00000000000E+00  0.00000000000E+00  0.21214948088E+04  0.21214948088E+04  0.25500000920E-02 0. -1.
       -2   -1    0    0    0  501  0.00000000000E+00  0.00000000000E+00 -0.47071194777E+03  0.47071194778E+03  0.25500000920E-02 0.  1.
    10030    2    1    2    0    0  0.00000000000E+00  0.00000000000E+00  0.16507828611E+04  0.25922067566E+04  0.19986124723E+04 0.  0.
        4    1    3    3  502    0 -0.41177302227E+03  0.30353043867E+02 -0.35490499950E+03  0.54446074304E+03  0.12699999809E+01 0.  1.
       -4    1    3    3    0  502  0.41177302227E+03 -0.30353043867E+02  0.20056878606E+04  0.20477460136E+04  0.12699999809E+01 0. -1.
</event>
<event>
 5   0  0.6214547E-05  0.2014074E+04  0.7818609E-02  0.8600069E-01
        1   -1    0    0  501    0  0.00000000000E+00  0.00000000000E+00  0.94611731421E+03  0.94611731422E+03  0.50400001928E-02 0.  1.
       -1   -1    0    0    0  501  0.00000000000E+00  0.00000000000E+00 -0.10718793224E+04  0.10718793224E+04  0.50400001928E-02 0. -1.
    10030    2    1    2    0    0  0.00000000000E+00  0.00000000000E+00 -0.12576200818E+03  0.20179966366E+04  0.20140740658E+04 0.  0.
        3    1    3    3  502    0 -0.70256715856E+03  0.70287181477E+03 -0.22596832657E+03  0.10191619572E+04  0.10100000352E+00 0. -1.
       -3    1    3    3    0  502  0.70256715856E+03 -0.70287181477E+03  0.10020631839E+03  0.99883467937E+03  0.10100000352E+00 0.  1.
</event>
<event>
 5   0  0.1242761E-04  0.1992943E+04  0.7818609E-02  0.8609927E-01
        2   -1    0    0  501    0  0.00000000000E+00  0.00000000000E+00  0.72183178409E+03  0.72183178410E+03  0.25500000920E-02 0. -1.
       -2   -1    0    0    0  501  0.00000000000E+00  0.00000000000E+00 -0.13756046723E+04  0.13756046723E+04  0.25500000920E-02 0.  1.
    10030    2    1    2    0    0  0.00000000000E+00  0.00000000000E+00 -0.65377288825E+03  0.20974364564E+04  0.19929427236E+04 0.  0.
        4    1    3    3  502    0 -0.34391581243E+03  0.77247477947E+03 -0.88174684748E+03  0.12216687304E+04  0.12699999809E+01 0.  1.
       -4    1    3    3    0  502  0.34391581243E+03 -0.77247477947E+03  0.22797395923E+03  0.87576772602E+03  0.12699999809E+01 0. -1.
</event>
<event>
 5   0  0.6214547E-05  0.2039431E+04  0.7818609E-02  0.8588404E-01
        1   -1    0    0  501    0  0.00000000000E+00  0.00000000000E+00  0.12379408507E+04  0.12379408507E+04  0.50400001928E-02 0.  1.
       -1   -1    0    0    0  501  0.00000000000E+00  0.00000000000E+00 -0.83995917279E+03  0.83995917281E+03  0.50400001928E-02 0. -1.
    10030    2    1    2    0    0  0.00000000000E+00  0.00000000000E+00  0.39798167794E+03  0.20779000235E+04  0.20394310706E+04 0.  0.
        3    1    3    3  502    0 -0.74189065914E+03 -0.48109225754E+03 -0.31849533065E+03  0.93983551552E+03  0.10100000352E+00 0. -1.
       -3    1    3    3    0  502  0.74189065914E+03  0.48109225754E+03  0.71647700859E+03  0.11380645080E+04  0.10100000352E+00 0.  1.
</event>
<event>
 5   0  0.6214547E-05  0.1927179E+04  0.7818609E-02  0.8641445E-01
       -1   -1    0    0    0  501  0.00000000000E+00  0.00000000000E+00  0.63324054790E+03  0.63324054792E+03  0.50400001928E-02 0.  1.
        1   -1    0    0  501    0  0.00000000000E+00  0.00000000000E+00 -0.14662752189E+04  0.14662752189E+04  0.50400001928E-02 0. -1.
    10030    2    1    2    0    0  0.00000000000E+00  0.00000000000E+00 -0.83303467097E+03  0.20995157668E+04  0.19271792060E+04 0.  0.
        3    1    3    3  502    0  0.86550012480E+03 -0.42234971009E+03 -0.38146615094E+03  0.10358504613E+04  0.10100000352E+00 0.  1.
       -3    1    3    3    0  502 -0.86550012480E+03  0.42234971009E+03 -0.45156852002E+03  0.10636653055E+04  0.10100000352E+00 0. -1.
</event>
<event>
 5   0  0.1242761E-04  0.2002662E+04  0.7818609E-02  0.8605377E-01
        2   -1    0    0  501    0  0.00000000000E+00  0.00000000000E+00  0.10558492345E+04  0.10558492345E+04  0.25500000920E-02 0. -1.
       -2   -1    0    0    0  501  0.00000000000E+00  0.00000000000E+00 -0.94962760383E+03  0.94962760383E+03  0.25500000920E-02 0.  1.
    10030    2    1    2    0    0  0.00000000000E+00  0.00000000000E+00  0.10622163062E+03  0.20054768383E+04  0.20026618072E+04 0.  0.
        4    1    3    3  502    0 -0.45423582734E+03 -0.26527222616E+03  0.90634275901E+03  0.10479305084E+04  0.12699999809E+01 0. -1.
       -4    1    3    3    0  502  0.45423582734E+03  0.26527222616E+03 -0.80012112839E+03  0.95754632985E+03  0.12699999809E+01 0.  1.
</event>
<event>
 5   0  0.1274868E-04  0.2003953E+04  0.7818609E-02  0.8604775E-01
        2   -1    0    0  501    0  0.00000000000E+00  0.00000000000E+00  0.23054284326E+04  0.23054284326E+04  0.25500000920E-02 0.  1.
       -2   -1    0    0    0  501  0.00000000000E+00  0.00000000000E+00 -0.43547516145E+03  0.43547516146E+03  0.25500000920E-02 0. -1.
    10030    2    1    2    0    0  0.00000000000E+00  0.00000000000E+00  0.18699532712E+04  0.27409035941E+04  0.20039529126E+04 0.  0.
        1    1    3    3  502    0  0.28178748709E+03  0.69190143013E+03  0.18482241048E+04  0.19935054849E+04  0.50400001928E-02 0.  1.
       -1    1    3    3    0  502 -0.28178748709E+03 -0.69190143013E+03  0.21729166412E+02  0.74739810918E+03  0.50400001928E-02 0. -1.
</event>
<event>
 5   0  0.1242761E-04  0.1989263E+04  0.7818609E-02  0.8611657E-01
       -2   -1    0    0    0  501  0.00000000000E+00  0.00000000000E+00  0.14368728262E+04  0.14368728262E+04  0.25500000920E-02 0. -1.
        2   -1    0    0  501    0  0.00000000000E+00  0.00000000000E+00 -0.68850307626E+03  0.68850307626E+03  0.25500000920E-02 0.  1.
    10030    2    1    2    0    0  0.00000000000E+00  0.00000000000E+00  0.74836974992E+03  0.21253759024E+04  0.19892625377E+04 0.  0.
        4    1    3    3  502    0 -0.40481253155E+03 -0.90295413449E+03  0.26686066554E+03  0.10248978400E+04  0.12699999809E+01 0. -1.
       -4    1    3    3    0  502  0.40481253155E+03  0.90295413449E+03  0.48150908438E+03  0.11004780625E+04  0.12699999809E+01 0.  1.
</event>
<event>
 5   0  0.1242761E-04  0.2002898E+04  0.7818609E-02  0.8605267E-01
       -2   -1    0    0    0  501  0.00000000000E+00  0.00000000000E+00  0.47473862142E+03  0.47473862143E+03  0.25500000920E-02 0.  1.
        2   -1    0    0  501    0  0.00000000000E+00  0.00000000000E+00 -0.21125317763E+04  0.21125317763E+04  0.25500000920E-02 0. -1.
    10030    2    1    2    0    0  0.00000000000E+00  0.00000000000E+00 -0.16377931548E+04  0.25872703977E+04  0.20028983231E+04 0.  0.
        4    1    3    3  502    0 -0.61708940828E+03 -0.38189795712E+03  0.72563649441E+02  0.72932330525E+03  0.12699999809E+01 0.  1.
       -4    1    3    3    0  502  0.61708940828E+03  0.38189795712E+03 -0.17103568043E+04  0.18579470924E+04  0.12699999809E+01 0. -1.
</event>
<event>
 5   0  0.6256535E-05  0.1956208E+04  0.7818609E-02  0.8627373E-01
        1   -1    0    0  501    0  0.00000000000E+00  0.00000000000E+00  0.12242644616E+04  0.12242644616E+04  0.50400001928E-02 0.  1.
       -1   -1    0    0    0  501  0.00000000000E+00  0.00000000000E+00 -0.78143865820E+03  0.78143865822E+03  0.50400001928E-02 0. -1.
    10030    2    1    2    0    0  0.00000000000E+00  0.00000000000E+00  0.44282580339E+03  0.20057031198E+04  0.19562081466E+04 0.  0.
        1    1    3    3  502    0  0.70381862738E+03 -0.54950318121E+03  0.63072934784E+03  0.10932218058E+04  0.50400001928E-02 0.  1.
       -1    1    3    3    0  502 -0.70381862738E+03  0.54950318121E+03 -0.18790354445E+03  0.91248131403E+03  0.50400001928E-02 0. -1.
</event>
<event>
 5   0  0.6214547E-05  0.1998561E+04  0.7818609E-02  0.8607294E-01
       -1   -1    0    0    0  501  0.00000000000E+00  0.00000000000E+00  0.57522805431E+03  0.57522805433E+03  0.50400001928E-02 0.  1.
        1   -1    0    0  501    0  0.00000000000E+00  0.00000000000E+00 -0.17359399072E+04  0.17359399072E+04  0.50400001928E-02 0. -1.
    10030    2    1    2    0    0  0.00000000000E+00  0.00000000000E+00 -0.11607118529E+04  0.23111679615E+04  0.19985608174E+04 0.  0.
        3    1    3    3  502    0 -0.46829648109E+03  0.83817554663E+03 -0.90066750435E+03  0.13164504566E+04  0.10100000352E+00 0. -1.
       -3    1    3    3    0  502  0.46829648109E+03 -0.83817554663E+03 -0.26004434854E+03  0.99471750491E+03  0.10100000352E+00 0.  1.
</event>
<event>
 5   0  0.1281789E-04  0.1986420E+04  0.7818609E-02  0.8612996E-01
       -2   -1    0    0    0  501  0.00000000000E+00  0.00000000000E+00  0.11807521934E+04  0.11807521934E+04  0.25500000920E-02 0. -1.
        2   -1    0    0  501    0  0.00000000000E+00  0.00000000000E+00 -0.83545578688E+03  0.83545578688E+03  0.25500000920E-02 0.  1.
    10030    2    1    2    0    0  0.00000000000E+00  0.00000000000E+00  0.34529640655E+03  0.20162079803E+04  0.19864201498E+04 0.  0.
        2    1    3    3  502    0  0.18269780798E+03  0.45655438664E+03  0.10485171033E+04  0.11581055707E+04  0.25500000920E-02 0. -1.
       -2    1    3    3    0  502 -0.18269780798E+03 -0.45655438664E+03 -0.70322069676E+03  0.85810240959E+03  0.25500000920E-02 0.  1.
</event>
<event>
 5   0  0.6222733E-05  0.2005286E+04  0.7818609E-02  0.8604153E-01
       -1   -1    0    0    0  501  0.00000000000E+00  0.00000000000E+00  0.52625999387E+03  0.52625999389E+03  0.50400001928E-02 0. -1.
        1   -1    0    0  501    0  0.00000000000E+00  0.00000000000E+00 -0.19102595902E+04  0.19102595902E+04  0.50400001928E-02 0.  1.
    10030    2    1    2    0    0  0.00000000000E+00  0.00000000000E+00 -0.13839995963E+04  0.24365195841E+04  0.20052862143E+04 0.  0.
        2    1    3    3  502    0 -0.69851188255E+02 -0.95976820543E+03 -0.34992754955E+03  0.10239548264E+04  0.25500000920E-02 0. -1.
       -2    1    3    3    0  502  0.69851188255E+02  0.95976820543E+03 -0.10340720468E+04  0.14125647577E+04  0.25500000920E-02 0.  1.
</event>
<event>
 5   0  0.6028501E-05  0.1980225E+04  0.7818609E-02  0.8615922E-01
       -1   -1    0    0    0  501  0.00000000000E+00  0.00000000000E+00  0.66017223662E+03  0.66017223664E+03  0.50400001928E-02 0.  1.
        1   -1    0    0  501    0  0.00000000000E+00  0.00000000000E+00 -0.14849502388E+04  0.14849502388E+04  0.50400001928E-02 0. -1.
    10030    2    1    2    0    0  0.00000000000E+00  0.00000000000E+00 -0.82477800222E+03  0.21451224755E+04  0.19802251594E+04 0.  0.
        4    1    3    3  502    0  0.67846272598E+01 -0.14345013781E+03  0.64882913498E+03  0.66453354505E+03  0.12699999809E+01 0.  1.
       -4    1    3    3    0  502 -0.67846272598E+01  0.14345013781E+03 -0.14736071372E+04  0.14805889304E+04  0.12699999809E+01 0. -1.
</event>
<event>
 5   0  0.6028501E-05  0.1882108E+04  0.7818609E-02  0.8663814E-01
       -1   -1    0    0    0  501  0.00000000000E+00  0.00000000000E+00  0.76015878540E+03  0.76015878542E+03  0.50400001928E-02 0.  1.
        1   -1    0    0  501    0  0.00000000000E+00  0.00000000000E+00 -0.11649973065E+04  0.11649973066E+04  0.50400001928E-02 0. -1.
    10030    2    1    2    0    0  0.00000000000E+00  0.00000000000E+00 -0.40483852114E+03  0.19251560920E+04  0.18821083259E+04 0.  0.
        4    1    3    3  502    0 -0.74545944518E+03 -0.19850399581E+03 -0.75369674850E+03  0.10785054577E+04  0.12699999809E+01 0. -1.
       -4    1    3    3    0  502  0.74545944518E+03  0.19850399581E+03  0.34885822737E+03  0.84665063424E+03  0.12699999809E+01 0.  1.
</event>
<event>
 5   0  0.1281789E-04  0.1990282E+04  0.7818609E-02  0.8611178E-01
       -2   -1    0    0    0  501  0.00000000000E+00  0.00000000000E+00  0.63744517520E+03  0.63744517520E+03  0.25500000920E-02 0. -1.
        2   -1    0    0  501    0  0.00000000000E+00  0.00000000000E+00 -0.15535536755E+04  0.15535536755E+04  0.25500000920E-02 0.  1.
    10030    2    1    2    0    0  0.00000000000E+00  0.00000000000E+00 -0.91610850033E+03  0.21909988507E+04  0.19902816835E+04 0.  0.
        2    1    3    3  502    0  0.59977678683E+02  0.35497082553E+03 -0.14793568441E+04  0.15225302234E+04  0.25500000920E-02 0.  1.
       -2    1    3    3    0  502 -0.59977678683E+02 -0.35497082553E+03  0.56324834380E+03  0.66846862732E+03  0.25500000920E-02 0. -1.
</event>
<event>
 5   0  0.6256535E-05  0.2039852E+04  0.7818609E-02  0.8588212E-01
       -1   -1    0    0    0  501  0.00000000000E+00  0.00000000000E+00  0.60939186142E+03  0.60939186145E+03  0.50400001928E-02 0. -1.
        1   -1    0    0  501    0  0.00000000000E+00  0.00000000000E+00 -0.17070280975E+04  0.17070280975E+04  0.50400001928E-02 0.  1.
    10030    2    1    2    0    0  0.00000000000E+00  0.00000000000E+00 -0.10976362360E+04  0.23164199589E+04  0.20398519847E+04 0.  0.
        1    1    3    3  502    0 -0.26653090851E+03 -0.42702537769E+03  0.45850146133E+03  0.68089131912E+03  0.50400001928E-02 0. -1.
       -1    1    3    3    0  502  0.26653090851E+03  0.42702537769E+03 -0.15561376974E+04  0.16355286398E+04  0.50400001928E-02 0.  1.
</event>
<event>
 5   0  0.1281789E-04  0.1885922E+04  0.7818609E-02  0.8661896E-01
       -2   -1    0    0    0  501  0.00000000000E+00  0.00000000000E+00  0.59686734709E+03  0.59686734710E+03  0.25500000920E-02 0. -1.
        2   -1    0    0  501    0  0.00000000000E+00  0.00000000000E+00 -0.14897377734E+04  0.14897377734E+04  0.25500000920E-02 0.  1.
    10030    2    1    2    0    0  0.00000000000E+00  0.00000000000E+00 -0.89287042629E+03  0.20866051205E+04  0.18859224084E+04 0.  0.
        2    1    3    3  502    0  0.56260260228E+03 -0.60828042972E+03  0.51632911220E+02  0.83017632272E+03  0.25500000920E-02 0. -1.
       -2    1    3    3    0  502 -0.56260260228E+03  0.60828042972E+03 -0.94450333751E+03  0.12564287978E+04  0.25500000920E-02 0.  1.
</event>
<event>
 5   0  0.1281789E-04  0.2001352E+04  0.7818609E-02  0.8605989E-01
       -2   -1    0    0    0  501  0.00000000000E+00  0.00000000000E+00  0.83314777781E+03  0.83314777781E+03  0.25500000920E-02 0.  1.
        2   -1    0    0  501    0  0.00000000000E+00  0.00000000000E+00 -0.12018910393E+04  0.12018910393E+04  0.25500000920E-02 0. -1.
    10030    2    1    2    0    0  0.00000000000E+00  0.00000000000E+00 -0.36874326151E+03  0.20350388171E+04  0.20013523913E+04 0.  0.
        2    1    3    3  502    0  0.71106582706E+03 -0.25587851493E+03  0.48261457494E+03  0.89666339993E+03  0.25500000920E-02 0.  1.
       -2    1    3    3    0  502 -0.71106582706E+03  0.25587851493E+03 -0.85135783645E+03  0.11383754172E+04  0.25500000920E-02 0. -1.
</event>
<event>
 5   0  0.1281789E-04  0.2009509E+04  0.7818609E-02  0.8602188E-01
        2   -1    0    0  501    0  0.00000000000E+00  0.00000000000E+00  0.71700061148E+03  0.71700061149E+03  0.25500000920E-02 0. -1.
       -2   -1    0    0    0  501  0.00000000000E+00  0.00000000000E+00 -0.14079928047E+04  0.14079928047E+04  0.25500000920E-02 0.  1.
    10030    2    1    2    0    0  0.00000000000E+00  0.00000000000E+00 -0.69099219324E+03  0.21249934162E+04  0.20095090962E+04 0.  0.
        2    1    3    3  502    0 -0.46315976639E+03 -0.49547551483E+03  0.43840066253E+03  0.80759401677E+03  0.25500000920E-02 0. -1.
       -2    1    3    3    0  502  0.46315976639E+03  0.49547551483E+03 -0.11293928558E+04  0.13173993995E+04  0.25500000920E-02 0.  1.
</event>
<event>
 5   0  0.1274868E-04  0.1985617E+04  0.7818609E-02  0.8613375E-01
        2   -1    0    0  501    0  0.00000000000E+00  0.00000000000E+00  0.14478870647E+04  0.14478870647E+04  0.25500000920E-02 0. -1.
       -2   -1    0    0    0  501  0.00000000000E+00  0.00000000000E+00 -0.68076362864E+03  0.68076362864E+03  0.25500000920E-02 0.  1.
    10030    2    1    2    0    0  0.00000000000E+00  0.00000000000E+00  0.76712343603E+03  0.21286506933E+04  0.19856171353E+04 0.  0.
        1    1    3    3  502    0 -0.16554642109E+03 -0.90606768199E+03  0.78080029416E+03  0.12074822406E+04  0.50400001928E-02 0. -1.
       -1    1    3    3    0  502  0.16554642109E+03  0.90606768199E+03 -0.13676858128E+02  0.92116845276E+03  0.50400001928E-02 0.  1.
</event>
<event>
 5   0  0.6222733E-05  0.1994540E+04  0.7818609E-02  0.8609178E-01
       -1   -1    0    0    0  501  0.00000000000E+00  0.00000000000E+00  0.16369145053E+04  0.16369145053E+04  0.50400001928E-02 0. -1.
        1   -1    0    0  501    0  0.00000000000E+00  0.00000000000E+00 -0.60757437784E+03  0.60757437786E+03  0.50400001928E-02 0.  1.
    10030    2    1    2    0    0  0.00000000000E+00  0.00000000000E+00  0.10293401274E+04  0.22444888831E+04  0.19945398589E+04 0.  0.
        2    1    3    3  502    0 -0.59970315162E+03 -0.39250684469E+03 -0.26565553581E+03  0.76438102861E+03  0.25500000920E-02 0.  1.
       -2    1    3    3    0  502  0.59970315162E+03  0.39250684469E+03  0.12949956632E+04  0.14801078545E+04  0.25500000920E-02 0. -1.
</event>
<event>
 5   0  0.1242761E-04  0.2011930E+04  0.7818609E-02  0.8601063E-01
       -2   -1    0    0    0  501  0.00000000000E+00  0.00000000000E+00  0.87157493365E+03  0.87157493366E+03  0.25500000920E-02 0.  1.
        2   -1    0    0  501    0  0.00000000000E+00  0.00000000000E+00 -0.11610775104E+04  0.11610775104E+04  0.25500000920E-02 0. -1.
    10030    2    1    2    0    0  0.00000000000E+00  0.00000000000E+00 -0.28950257678E+03  0.20326524441E+04  0.20119304701E+04 0.  0.
        4    1    3    3  502    0 -0.61623528282E+03  0.55880904126E+03  0.42671665832E+03  0.93493432271E+03  0.12699999809E+01 0. -1.
       -4    1    3    3    0  502  0.61623528282E+03 -0.55880904126E+03 -0.71621923510E+03  0.10977181214E+04  0.12699999809E+01 0.  1.
</event>
<event>
 5   0  0.1244229E-04  0.2004227E+04  0.7818609E-02  0.8604647E-01
       -2   -1    0    0    0  501  0.00000000000E+00  0.00000000000E+00  0.37838325495E+03  0.37838325496E+03  0.25500000920E-02 0. -1.
        2   -1    0    0  501    0  0.00000000000E+00  0.00000000000E+00 -0.26540071482E+04  0.26540071482E+04  0.25500000920E-02 0.  1.
    10030    2    1    2    0    0  0.00000000000E+00  0.00000000000E+00 -0.22756238932E+04  0.30323904031E+04  0.20042273957E+04 0.  0.
        5    1    3    3  502    0  0.12117706881E+03  0.47019906481E+03  0.18849102405E+03  0.52088578278E+03  0.46999998093E+01 0. -1.
       -5    1    3    3    0  502 -0.12117706881E+03 -0.47019906481E+03 -0.24641149172E+04  0.25115046203E+04  0.46999998093E+01 0.  1.
</event>
<event>
 5   0  0.6214547E-05  0.2036517E+04  0.7818609E-02  0.8589736E-01
       -1   -1    0    0    0  501  0.00000000000E+00  0.00000000000E+00  0.10534104430E+04  0.10534104431E+04  0.50400001928E-02 0. -1.
        1   -1    0    0  501    0  0.00000000000E+00  0.00000000000E+00 -0.98427944943E+03  0.98427944944E+03  0.50400001928E-02 0.  1.
    10030    2    1    2    0    0  0.00000000000E+00  0.00000000000E+00  0.69130993617E+02  0.20376898925E+04  0.20365168803E+04 0.  0.
        3    1    3    3  502    0  0.48259584829E+03 -0.39502032632E+03  0.83995796251E+03  0.10461688200E+04  0.10100000352E+00 0. -1.
       -3    1    3    3    0  502 -0.48259584829E+03  0.39502032632E+03 -0.77082696890E+03  0.99152107248E+03  0.10100000352E+00 0.  1.
</event>
<event>
 5   0  0.1244229E-04  0.1994747E+04  0.7818609E-02  0.8609080E-01
        2   -1    0    0  501    0  0.00000000000E+00  0.00000000000E+00  0.24144721589E+04  0.24144721589E+04  0.25500000920E-02 0. -1.
       -2   -1    0    0    0  501  0.00000000000E+00  0.00000000000E+00 -0.41199654603E+03  0.41199654604E+03  0.25500000920E-02 0.  1.
    10030    2    1    2    0    0  0.00000000000E+00  0.00000000000E+00  0.20024756129E+04  0.28264687049E+04  0.19947472922E+04 0.  0.
        5    1    3    3  502    0  0.10244908005E+03 -0.18835061418E+03 -0.37893846404E+03  0.43541729111E+03  0.46999998093E+01 0.  1.
       -5    1    3    3    0  502 -0.10244908005E+03  0.18835061418E+03  0.23814140769E+04  0.23910514138E+04  0.46999998093E+01 0. -1.
</event>
<event>
 5   0  0.6168338E-05  0.1939313E+04  0.7818609E-02  0.8635531E-01
       -1   -1    0    0    0  501  0.00000000000E+00  0.00000000000E+00  0.73049339818E+03  0.73049339820E+03  0.50400001928E-02 0.  1.
        1   -1    0    0  501    0  0.00000000000E+00  0.00000000000E+00 -0.12871216983E+04  0.12871216983E+04  0.50400001928E-02 0. -1.
    10030    2    1    2    0    0  0.00000000000E+00  0.00000000000E+00 -0.55662830012E+03  0.20176150965E+04  0.19393131808E+04 0.  0.
        5    1    3    3  502    0 -0.89015560112E+03  0.27429724473E+03 -0.55862908605E+03  0.10861420342E+04  0.46999998093E+01 0. -1.
       -5    1    3    3    0  502  0.89015560112E+03 -0.27429724473E+03  0.20007859234E+01  0.93147306232E+03  0.46999998093E+01 0.  1.
</event>
<event>
 5   0  0.1244229E-04  0.2033736E+04  0.7818609E-02  0.8591009E-01
       -2   -1    0    0    0  501  0.00000000000E+00  0.00000000000E+00  0.11518098720E+04  0.11518098720E+04  0.25500000920E-02 0. -1.
        2   -1    0    0  501    0  0.00000000000E+00  0.00000000000E+00 -0.89773529420E+03  0.89773529421E+03  0.25500000920E-02 0.  1.
    10030    2    1    2    0    0  0.00000000000E+00  0.00000000000E+00  0.25407457778E+03  0.20495451662E+04  0.20337358474E+04 0.  0.
        5    1    3    3  502    0  0.78666467586E+03 -0.49374703751E+03 -0.29015032510E+03  0.97305536865E+03  0.46999998093E+01 0.  1.
       -5    1    3    3    0  502 -0.78666467586E+03  0.49374703751E+03  0.54422490287E+03  0.10764897975E+04  0.46999998093E+01 0. -1.
</event>
<event>
 5   0  0.1281789E-04  0.1993152E+04  0.7818609E-02  0.8609829E-01
        2   -1    0    0  501    0  0.00000000000E+00  0.00000000000E+00  0.13603274549E+04  0.13603274549E+04  0.25500000920E-02 0.  1.
       -2   -1    0    0    0  501  0.00000000000E+00  0.00000000000E+00 -0.73009134548E+03  0.73009134548E+03  0.25500000920E-02 0. -1.
    10030    2    1    2    0    0  0.00000000000E+00  0.00000000000E+00  0.63023610943E+03  0.20904188004E+04  0.19931515766E+04 0.  0.
        2    1    3    3  502    0 -0.17206199192E+03  0.56602304748E+03  0.11562378436E+04  0.12987968934E+04  0.25500000920E-02 0.  1.
       -2    1    3    3    0  502  0.17206199192E+03 -0.56602304748E+03 -0.52600173414E+03  0.79162190701E+03  0.25500000920E-02 0. -1.
</event>
<event>
 5   0  0.6256535E-05  0.1994521E+04  0.7818609E-02  0.8609186E-01
       -1   -1    0    0    0  501  0.00000000000E+00  0.00000000000E+00  0.38692728183E+03  0.38692728187E+03  0.50400001928E-02 0. -1.
        1   -1    0    0  501    0  0.00000000000E+00  0.00000000000E+00 -0.25703247829E+04  0.25703247829E+04  0.50400001928E-02 0.  1.
    10030    2    1    2    0    0  0.00000000000E+00  0.00000000000E+00 -0.21833975011E+04  0.29572520648E+04  0.19945212776E+04 0.  0.
        1    1    3    3  502    0 -0.51811775879E+03  0.48733122685E+02 -0.23530362643E+04  0.24098963858E+04  0.50400001928E-02 0.  1.
       -1    1    3    3    0  502  0.51811775879E+03 -0.48733122685E+02  0.16963876327E+03  0.54735567892E+03  0.50400001928E-02 0. -1.
</event>
<event>
 5   0  0.6214547E-05  0.1998283E+04  0.7818609E-02  0.8607424E-01
       -1   -1    0    0    0  501  0.00000000000E+00  0.00000000000E+00  0.99568261464E+03  0.99568261466E+03  0.50400001928E-02 0.  1.
        1   -1    0    0  501    0  0.00000000000E+00  0.00000000000E+00 -0.10026120696E+04  0.10026120696E+04  0.50400001928E-02 0. -1.
    10030    2    1    2    0    0  0.00000000000E+00  0.00000000000E+00 -0.69294549716E+01  0.19982946843E+04  0.19982826697E+04 0.  0.
        3    1    3    3  502    0 -0.65467659836E+03 -0.42174639854E+03 -0.62941730970E+03  0.10013179480E+04  0.10100000352E+00 0.  1.
       -3    1    3    3    0  502  0.65467659836E+03  0.42174639854E+03  0.62248785472E+03  0.99697673624E+03  0.10100000352E+00 0. -1.
</event>
<event>
 5   0  0.1242761E-04  0.1991929E+04  0.7818609E-02  0.8610404E-01
        2   -1    0    0  501    0  0.00000000000E+00  0.00000000000E+00  0.13327524086E+04  0.13327524086E+04  0.25500000920E-02 0. -1.
       -2   -1    0    0    0  501  0.00000000000E+00  0.00000000000E+00 -0.74428291256E+03  0.74428291257E+03  0.25500000920E-02 0.  1.
    10030    2    1    2    0    0  0.00000000000E+00  0.00000000000E+00  0.58846949605E+03  0.20770353212E+04  0.19919285574E+04 0.  0.
        4    1    3    3  502    0  0.64575207333E+03  0.55246193740E+03 -0.24731381298E+03  0.88508511877E+03  0.12699999809E+01 0.  1.
       -4    1    3    3    0  502 -0.64575207333E+03 -0.55246193740E+03  0.83578330903E+03  0.11919502024E+04  0.12699999809E+01 0. -1.
</event>
<event>
 5   0  0.1242761E-04  0.2008530E+04  0.7818609E-02  0.8602643E-01
       -2   -1    0    0    0  501  0.00000000000E+00  0.00000000000E+00  0.94775073932E+03  0.94775073932E+03  0.25500000920E-02 0. -1.
        2   -1    0    0  501    0  0.00000000000E+00  0.00000000000E+00 -0.10641496249E+04  0.10641496249E+04  0.25500000920E-02 0.  1.
    10030    2    1    2    0    0  0.00000000000E+00  0.00000000000E+00 -0.11639888558E+03  0.20119003642E+04  0.20085304018E+04 0.  0.
        4    1    3    3  502    0  0.28875288566E+02 -0.92165423925E+03 -0.45669435479E+03  0.10290051825E+04  0.12699999809E+01 0. -1.
       -4    1    3    3    0  502 -0.28875288566E+02  0.92165423925E+03  0.34029546921E+03  0.98289518173E+03  0.12699999809E+01 0.  1.
</event>
<event>
 5   0  0.1274868E-04  0.1975698E+04  0.7818609E-02  0.8618067E-01
       -2   -1    0    0    0  501  0.00000000000E+00  0.00000000000E+00  0.65766114447E+03  0.65766114447E+03  0.25500000920E-02 0.  1.
        2   -1    0    0  501    0  0.00000000000E+00  0.00000000000E+00 -0.14838129011E+04  0.14838129011E+04  0.25500000920E-02 0. -1.
    10030    2    1    2    0    0  0.00000000000E+00  0.00000000000E+00 -0.82615175664E+03  0.21414740456E+04  0.19756984494E+04 0.  0.
        1    1    3    3  502    0  0.89543140075E+03  0.15491391682E+03  0.67901139360E+01  0.90875839514E+03  0.50400001928E-02 0.  1.
       -1    1    3    3    0  502 -0.89543140075E+03 -0.15491391682E+03 -0.83294187058E+03  0.12327156504E+04  0.50400001928E-02 0. -1.
</event>
<event>
 5   0  0.1244229E-04  0.2132696E+04  0.7818609E-02  0.8546976E-01
        2   -1    0    0  501    0  0.00000000000E+00  0.00000000000E+00  0.14586414765E+04  0.14586414765E+04  0.25500000920E-02 0. -1.
       -2   -1    0    0    0  501  0.00000000000E+00  0.00000000000E+00 -0.77955992490E+03  0.77955992491E+03  0.25500000920E-02 0.  1.
    10030    2    1    2    0    0  0.00000000000E+00  0.00000000000E+00  0.67908155161E+03  0.22382014014E+04  0.21326963590E+04 0.  0.
        5    1    3    3  502    0 -0.72507254377E+02  0.77466555568E+02 -0.77399513198E+03  0.78124831104E+03  0.46999998093E+01 0.  1.
       -5    1    3    3    0  502  0.72507254377E+02 -0.77466555568E+02  0.14530766836E+04  0.14569530904E+04  0.46999998093E+01 0. -1.
</event>
<event>
 5   0  0.6214547E-05  0.1975000E+04  0.7818609E-02  0.8618399E-01
        1   -1    0    0  501    0  0.00000000000E+00  0.00000000000E+00  0.69000568647E+03  0.69000568649E+03  0.50400001928E-02 0. -1.
       -1   -1    0    0    0  501  0.00000000000E+00  0.00000000000E+00 -0.14132577328E+04  0.14132577328E+04  0.50400001928E-02 0.  1.
    10030    2    1    2    0    0  0.00000000000E+00  0.00000000000E+00 -0.72325204636E+03  0.21032634193E+04  0.19749996174E+04 0.  0.
        3    1    3    3  502    0  0.59054758463E+03  0.75978261559E+03 -0.12555466559E+03  0.97045353156E+03  0.10100000352E+00 0. -1.
       -3    1    3    3    0  502 -0.59054758463E+03 -0.75978261559E+03 -0.59769738077E+03  0.11328098878E+04  0.10100000352E+00 0.  1.
</event>
<event>
 5   0  0.6256535E-05  0.1822887E+04  0.7818609E-02  0.8694222E-01
        1   -1    0    0  501    0  0.00000000000E+00  0.00000000000E+00  0.99047161170E+03  0.99047161171E+03  0.50400001928E-02 0. -1.
       -1   -1    0    0    0  501  0.00000000000E+00  0.00000000000E+00 -0.83872086499E+03  0.83872086500E+03  0.50400001928E-02 0.  1.
    10030    2    1    2    0    0  0.00000000000E+00  0.00000000000E+00  0.15175074671E+03  0.18291924767E+04  0.18228869487E+04 0.  0.
        1    1    3    3  502    0 -0.59520401524E+03 -0.46213260781E+03 -0.43863093254E+03  0.87191253115E+03  0.50400001928E-02 0.  1.
       -1    1    3    3    0  502  0.59520401524E+03  0.46213260781E+03  0.59038167925E+03  0.95727994557E+03  0.50400001928E-02 0. -1.
</event>
<event>
 5   0  0.1281789E-04  0.2003716E+04  0.7818609E-02  0.8604885E-01
        2   -1    0    0  501    0  0.00000000000E+00  0.00000000000E+00  0.10988453408E+04  0.10988453408E+04  0.25500000920E-02 0.  1.
       -2   -1    0    0    0  501  0.00000000000E+00  0.00000000000E+00 -0.91343131630E+03  0.91343131630E+03  0.25500000920E-02 0. -1.
    10030    2    1    2    0    0  0.00000000000E+00  0.00000000000E+00  0.18541402453E+03  0.20122766571E+04  0.20037162934E+04 0.  0.
        2    1    3    3  502    0  0.83336918022E+02  0.14733453248E+03 -0.89896656604E+03  0.91476411890E+03  0.25500000920E-02 0. -1.
       -2    1    3    3    0  502 -0.83336918022E+02 -0.14733453248E+03  0.10843805906E+04  0.10975125382E+04  0.25500000920E-02 0.  1.
</event>
<event>
 5   0  0.6168338E-05  0.2028488E+04  0.7818609E-02  0.8593416E-01
       -1   -1    0    0    0  501  0.00000000000E+00  0.00000000000E+00  0.91885672076E+03  0.91885672077E+03  0.50400001928E-02 0.  1.
        1   -1    0    0  501    0  0.00000000000E+00  0.00000000000E+00 -0.11195338586E+04  0.11195338586E+04  0.50400001928E-02 0. -1.
    10030    2    1    2    0    0  0.00000000000E+00  0.00000000000E+00 -0.20067713782E+03  0.20383905794E+04  0.20284883141E+04 0.  0.
        5    1    3    3  502    0 -0.38134905533E+03 -0.74386073674E+03 -0.67752319446E+03  0.10760184323E+04  0.46999998093E+01 0. -1.
       -5    1    3    3    0  502  0.38134905533E+03  0.74386073674E+03  0.47684605665E+03  0.96237214704E+03  0.46999998093E+01 0.  1.
</event>
<event>
 5   0  0.6214547E-05  0.1969765E+04  0.7818609E-02  0.8620888E-01
        1   -1    0    0  501    0  0.00000000000E+00  0.00000000000E+00  0.50063109186E+03  0.50063109188E+03  0.50400001928E-02 0. -1.
       -1   -1    0    0    0  501  0.00000000000E+00  0.00000000000E+00 -0.19375419811E+04  0.19375419811E+04  0.50400001928E-02 0.  1.
    10030    2    1    2    0    0  0.00000000000E+00  0.00000000000E+00 -0.14369108892E+04  0.24381730729E+04  0.19697652221E+04 0.  0.
        3    1    3    3  502    0 -0.18231864447E+03 -0.15717114119E+02  0.47940298600E+03  0.51314164612E+03  0.10100000352E+00 0. -1.
       -3    1    3    3    0  502  0.18231864447E+03  0.15717114119E+02 -0.19163138752E+04  0.19250314268E+04  0.10100000352E+00 0.  1.
</event>
<event>
 5   0  0.6222733E-05  0.1877524E+04  0.7818609E-02  0.8666126E-01
        1   -1    0    0  501    0  0.00000000000E+00  0.00000000000E+00  0.14134055849E+04  0.14134055849E+04  0.50400001928E-02 0.  1.
       -1   -1    0    0    0  501  0.00000000000E+00  0.00000000000E+00 -0.62351120363E+03  0.62351120365E+03  0.50400001928E-02 0. -1.
    10030    2    1    2    0    0  0.00000000000E+00  0.00000000000E+00  0.78989438123E+03  0.20369167885E+04  0.18775241330E+04 0.  0.
        2    1    3    3  502    0 -0.55966995577E+03  0.51265475162E+03  0.99432486138E+03  0.12508905962E+04  0.25500000920E-02 0.  1.
       -2    1    3    3    0  502  0.55966995577E+03 -0.51265475162E+03 -0.20443048015E+03  0.78602619230E+03  0.25500000920E-02 0. -1.
</event>
<event>
 5   0  0.1281789E-04  0.1994938E+04  0.7818609E-02  0.8608991E-01
       -2   -1    0    0    0  501  0.00000000000E+00  0.00000000000E+00  0.65231707302E+03  0.65231707302E+03  0.25500000920E-02 0. -1.
        2   -1    0    0  501    0  0.00000000000E+00  0.00000000000E+00 -0.15252460869E+04  0.15252460869E+04  0.25500000920E-02 0.  1.
    10030    2    1    2    0    0  0.00000000000E+00  0.00000000000E+00 -0.87292901387E+03  0.21775631599E+04  0.19949376562E+04 0.  0.
        2    1    3    3  502    0  0.19614535087E+03  0.97322725822E+03 -0.54172793147E+03  0.11309789771E+04  0.25500000920E-02 0.  1.
       -2    1    3    3    0  502 -0.19614535087E+03 -0.97322725822E+03 -0.33120108240E+03  0.10465841829E+04  0.25500000920E-02 0. -1.
</event>
<event>
 5   0  0.1159914E-04  0.2020178E+04  0.7818609E-02  0.8597245E-01
        2   -1    0    0  501    0  0.00000000000E+00  0.00000000000E+00  0.11889637771E+04  0.11889637771E+04  0.25500000920E-02 0.  1.
       -2   -1    0    0    0  501  0.00000000000E+00  0.00000000000E+00 -0.85812497317E+03  0.85812497317E+03  0.25500000920E-02 0. -1.
    10030    2    1    2    0    0  0.00000000000E+00  0.00000000000E+00  0.33083880397E+03  0.20470887503E+04  0.20201777242E+04 0.  0.
        3    1    3    3  502    0  0.32560378562E+03 -0.63179965558E+03  0.89267825947E+03  0.11410798023E+04  0.10100000352E+00 0.  1.
       -3    1    3    3    0  502 -0.32560378562E+03  0.63179965558E+03 -0.56183945550E+03  0.90600894805E+03  0.10100000352E+00 0. -1.
</event>
<event>
 5   0  0.6168338E-05  0.2005020E+04  0.7818609E-02  0.8604277E-01
       -1   -1    0    0    0  501  0.00000000000E+00  0.00000000000E+00  0.41221788036E+03  0.41221788039E+03  0.50400001928E-02 0. -1.
        1   -1    0    0  501    0  0.00000000000E+00  0.00000000000E+00 -0.24380944946E+04  0.24380944946E+04  0.50400001928E-02 0.  1.
    10030    2    1    2    0    0  0.00000000000E+00  0.00000000000E+00 -0.20258766142E+04  0.28503123750E+04  0.20050198450E+04 0.  0.
        5    1    3    3  502    0 -0.17394675717E+03  0.97108790776E+03 -0.12661839882E+04  0.16051520741E+04  0.46999998093E+01 0.  1.
       -5    1    3    3    0  502  0.17394675717E+03 -0.97108790776E+03 -0.75969262599E+03  0.12451603009E+04  0.46999998093E+01 0. -1.
</event>
<event>
 5   0  0.6256535E-05  0.2101105E+04  0.7818609E-02  0.8560757E-01
       -1   -1    0    0    0  501  0.00000000000E+00  0.00000000000E+00  0.83484504676E+03  0.83484504677E+03  0.50400001928E-02 0. -1.
        1   -1    0    0  501    0  0.00000000000E+00  0.00000000000E+00 -0.13219945129E+04  0.13219945129E+04  0.50400001928E-02 0.  1.
    10030    2    1    2    0    0  0.00000000000E+00  0.00000000000E+00 -0.48714946616E+03  0.21568395597E+04  0.21011050150E+04 0.  0.
        1    1    3    3  502    0 -0.27925883625E+03 -0.53898118586E+01  0.79603139644E+03  0.84361160011E+03  0.50400001928E-02 0. -1.
       -1    1    3    3    0  502  0.27925883625E+03  0.53898118586E+01 -0.12831808626E+04  0.13132279596E+04  0.50400001928E-02 0.  1.
</event>
<event>
 5   0  0.6168338E-05  0.2012908E+04  0.7818609E-02  0.8600609E-01
        1   -1    0    0  501    0  0.00000000000E+00  0.00000000000E+00  0.10140980609E+04  0.10140980609E+04  0.50400001928E-02 0.  1.
       -1   -1    0    0    0  501  0.00000000000E+00  0.00000000000E+00 -0.99886780482E+03  0.99886780483E+03  0.50400001928E-02 0. -1.
    10030    2    1    2    0    0  0.00000000000E+00  0.00000000000E+00  0.15230256056E+02  0.20129658657E+04  0.20129082482E+04 0.  0.
        5    1    3    3  502    0  0.18768684194E+03  0.96840400302E+03  0.20735854894E+03  0.10079942071E+04  0.46999998093E+01 0.  1.
       -5    1    3    3    0  502 -0.18768684194E+03 -0.96840400302E+03 -0.19212829289E+03  0.10049716586E+04  0.46999998093E+01 0. -1.
</event>
<event>
 5   0  0.1244229E-04  0.1987625E+04  0.7818609E-02  0.8612428E-01
        2   -1    0    0  501    0  0.00000000000E+00  0.00000000000E+00  0.11834840280E+04  0.11834840280E+04  0.25500000920E-02 0. -1.
       -2   -1    0    0    0  501  0.00000000000E+00  0.00000000000E+00 -0.83453865214E+03  0.83453865215E+03  0.25500000920E-02 0.  1.
    10030    2    1    2    0    0  0.00000000000E+00  0.00000000000E+00  0.34894537582E+03  0.20180226801E+04  0.19876248796E+04 0.  0.
        5    1    3    3  502    0 -0.92479575669E+02 -0.64930220696E+03 -0.58360236235E+03  0.87792917437E+03  0.46999998093E+01 0.  1.
       -5    1    3    3    0  502  0.92479575669E+02  0.64930220696E+03  0.93254773816E+03  0.11400935057E+04  0.46999998093E+01 0. -1.
</event>
<event>
 5   0  0.4479000E-05  0.1994536E+04  0.7818609E-02  0.8609180E-01
        3   -1    0    0  501    0  0.00000000000E+00  0.00000000000E+00  0.38629434311E+03  0.38629435631E+03  0.10100000352E+00 0.  1.
       -3   -1    0    0    0  501  0.00000000000E+00  0.00000000000E+00 -0.25745741419E+04  0.25745741438E+04  0.10100000352E+00 0. -1.
    10030    2    1    2    0    0  0.00000000000E+00  0.00000000000E+00 -0.21882797988E+04  0.29608685002E+04  0.19945359855E+04 0.  0.
        5    1    3    3  502    0 -0.30881199408E+02  0.66611877784E+03  0.66406176416E+01  0.66688384481E+03  0.46999998093E+01 0.  1.
       -5    1    3    3    0  502  0.30881199408E+02 -0.66611877784E+03 -0.21949204164E+04  0.22939846553E+04  0.46999998093E+01 0. -1.
</event>
<event>
 5   0  0.1281789E-04  0.1999662E+04  0.7818609E-02  0.8606779E-01
        2   -1    0    0  501    0  0.00000000000E+00  0.00000000000E+00  0.11116275950E+04  0.11116275950E+04  0.25500000920E-02 0.  1.
       -2   -1    0    0    0  501  0.00000000000E+00  0.00000000000E+00 -0.89927769485E+03  0.89927769486E+03  0.25500000920E-02 0. -1.
    10030    2    1    2    0    0  0.00000000000E+00  0.00000000000E+00  0.21234990019E+03  0.20109052899E+04  0.19996618726E+04 0.  0.
        2    1    3    3  502    0  0.40277131791E+03  0.78898587214E+03 -0.36004635658E+03  0.95622006874E+03  0.25500000920E-02 0. -1.
       -2    1    3    3    0  502 -0.40277131791E+03 -0.78898587214E+03  0.57239625677E+03  0.10546852212E+04  0.25500000920E-02 0.  1.
</event>
<event>
 5   0  0.1281789E-04  0.1983519E+04  0.7818609E-02  0.8614365E-01
       -2   -1    0    0    0  501  0.00000000000E+00  0.00000000000E+00  0.11787870315E+04  0.11787870315E+04  0.25500000920E-02 0. -1.
        2   -1    0    0  501    0  0.00000000000E+00  0.00000000000E+00 -0.83440613428E+03  0.83440613428E+03  0.25500000920E-02 0.  1.
    10030    2    1    2    0    0  0.00000000000E+00  0.00000000000E+00  0.34438089718E+03  0.20131931657E+04  0.19835192261E+04 0.  0.
        2    1    3    3  502    0  0.35273495397E+03 -0.52694973595E+03 -0.60177191788E+03  0.87420101414E+03  0.25500000920E-02 0.  1.
       -2    1    3    3    0  502 -0.35273495397E+03  0.52694973595E+03  0.94615281505E+03  0.11389921516E+04  0.25500000920E-02 0. -1.
</event>
<event>
 5   0  0.1244229E-04  0.2008966E+04  0.7818609E-02  0.8602440E-01
        2   -1    0    0  501    0  0.00000000000E+00  0.00000000000E+00  0.60807140773E+03  0.60807140774E+03  0.25500000920E-02 0. -1.
       -2   -1    0    0    0  501  0.00000000000E+00  0.00000000000E+00 -0.16593225362E+04  0.16593225362E+04  0.25500000920E-02 0.  1.
    10030    2    1    2    0    0  0.00000000000E+00  0.00000000000E+00 -0.10512511285E+04  0.22673939440E+04  0.20089664910E+04 0.  0.
        5    1    3    3  502    0  0.59789044338E+03  0.62709657472E+03 -0.10991702059E+04  0.13996143497E+04  0.46999998093E+01 0.  1.
       -5    1    3    3    0  502 -0.59789044338E+03 -0.62709657472E+03  0.47919077384E+02  0.86777959430E+03  0.46999998093E+01 0. -1.
</event>
<event>
 5   0  0.1274868E-04  0.1846707E+04  0.7818609E-02  0.8681848E-01
       -2   -1    0    0    0  501  0.00000000000E+00  0.00000000000E+00  0.63246632692E+03  0.63246632693E+03  0.25500000920E-02 0.  1.
        2   -1    0    0  501    0  0.00000000000E+00  0.00000000000E+00 -0.13480264603E+04  0.13480264603E+04  0.25500000920E-02 0. -1.
    10030    2    1    2    0    0  0.00000000000E+00  0.00000000000E+00 -0.71556013341E+03  0.19804927873E+04  0.18467066296E+04 0.  0.
        1    1    3    3  502    0 -0.62083295297E+03 -0.47637838447E+03 -0.88340043357E+03  0.11801551791E+04  0.50400001928E-02 0. -1.
       -1    1    3    3    0  502  0.62083295297E+03  0.47637838447E+03  0.16784030016E+03  0.80033760818E+03  0.50400001928E-02 0.  1.
</event>
<event>
 5   0  0.1281789E-04  0.1996165E+04  0.7818609E-02  0.8608416E-01
        2   -1    0    0  501    0  0.00000000000E+00  0.00000000000E+00  0.13316295555E+04  0.13316295555E+04  0.25500000920E-02 0.  1.
       -2   -1    0    0    0  501  0.00000000000E+00  0.00000000000E+00 -0.74808213195E+03  0.74808213195E+03  0.25500000920E-02 0. -1.
    10030    2    1    2    0    0  0.00000000000E+00  0.00000000000E+00  0.58354742356E+03  0.20797116875E+04  0.19961645993E+04 0.  0.
        2    1    3    3  502    0 -0.92234534794E+03 -0.18662066625E+03 -0.54742640211E+02  0.94262663372E+03  0.25500000920E-02 0. -1.
       -2    1    3    3    0  502  0.92234534794E+03  0.18662066625E+03  0.63829006377E+03  0.11370850537E+04  0.25500000920E-02 0.  1.
</event>
<event>
 5   0  0.1274868E-04  0.2003230E+04  0.7818609E-02  0.8605112E-01
       -2   -1    0    0    0  501  0.00000000000E+00  0.00000000000E+00  0.65005471730E+03  0.65005471731E+03  0.25500000920E-02 0. -1.
        2   -1    0    0  501    0  0.00000000000E+00  0.00000000000E+00 -0.15433055413E+04  0.15433055413E+04  0.25500000920E-02 0.  1.
    10030    2    1    2    0    0  0.00000000000E+00  0.00000000000E+00 -0.89325082402E+03  0.21933602586E+04  0.20032304385E+04 0.  0.
        1    1    3    3  502    0 -0.20378496568E+03  0.73079994714E+02 -0.15173818168E+04  0.15327480471E+04  0.50400001928E-02 0.  1.
       -1    1    3    3    0  502  0.20378496568E+03 -0.73079994714E+02  0.62413099278E+03  0.66061221154E+03  0.50400001928E-02 0. -1.
</event>
<event>
 5   0  0.6028501E-05  0.2019416E+04  0.7818609E-02  0.8597596E-01
        1   -1    0    0  501    0  0.00000000000E+00  0.00000000000E+00  0.78045270927E+03  0.78045270928E+03  0.50400001928E-02 0. -1.
       -1   -1    0    0    0  501  0.00000000000E+00  0.00000000000E+00 -0.13063068271E+04  0.13063068271E+04  0.50400001928E-02 0.  1.
    10030    2    1    2    0    0  0.00000000000E+00  0.00000000000E+00 -0.52585411784E+03  0.20867595364E+04  0.20194164527E+04 0.  0.
        4    1    3    3  502    0  0.46601516737E+03 -0.26552770430E+02 -0.11881247812E+04  0.12765254774E+04  0.12699999809E+01 0.  1.
       -4    1    3    3    0  502 -0.46601516737E+03  0.26552770430E+02  0.66227066339E+03  0.81023405898E+03  0.12699999809E+01 0. -1.
</event>
<event>
 5   0  0.6028501E-05  0.2008246E+04  0.7818609E-02  0.8602775E-01
       -1   -1    0    0    0  501  0.00000000000E+00  0.00000000000E+00  0.73194700000E+03  0.73194700002E+03  0.50400001928E-02 0. -1.
        1   -1    0    0  501    0  0.00000000000E+00  0.00000000000E+00 -0.13775088191E+04  0.13775088191E+04  0.50400001928E-02 0.  1.
    10030    2    1    2    0    0  0.00000000000E+00  0.00000000000E+00 -0.64556181913E+03  0.21094558192E+04  0.20082464467E+04 0.  0.
        4    1    3    3  502    0 -0.29739656803E+03 -0.70876039532E+03  0.35590540027E+03  0.84702791187E+03  0.12699999809E+01 0. -1.
       -4    1    3    3    0  502  0.29739656803E+03  0.70876039532E+03 -0.10014672194E+04  0.12624279073E+04  0.12699999809E+01 0.  1.
</event>
<event>
 5   0  0.6028501E-05  0.2046150E+04  0.7818609E-02  0.8585343E-01
        1   -1    0    0  501    0  0.00000000000E+00  0.00000000000E+00  0.18114835123E+04  0.18114835123E+04  0.50400001928E-02 0. -1.
       -1   -1    0    0    0  501  0.00000000000E+00  0.00000000000E+00 -0.57780408524E+03  0.57780408526E+03  0.50400001928E-02 0.  1.
    10030    2    1    2    0    0  0.00000000000E+00  0.00000000000E+00  0.12336794271E+04  0.23892875976E+04  0.20461501155E+04 0.  0.
        4    1    3    3  502    0  0.81789865100E+03 -0.75584421800E+02  0.13290497658E+04  0.15623847480E+04  0.12699999809E+01 0. -1.
       -4    1    3    3    0  502 -0.81789865100E+03  0.75584421800E+02 -0.95370338723E+02  0.82690284951E+03  0.12699999809E+01 0.  1.
</event>
<event>
 5   0  0.1242761E-04  0.2009844E+04  0.7818609E-02  0.8602032E-01
       -2   -1    0    0    0  501  0.00000000000E+00  0.00000000000E+00  0.70745364630E+03  0.70745364630E+03  0.25500000920E-02 0. -1.
        2   -1    0    0  501    0  0.00000000000E+00  0.00000000000E+00 -0.14274697984E+04  0.14274697984E+04  0.25500000920E-02 0.  1.
    10030    2    1    2    0    0  0.00000000000E+00  0.00000000000E+00 -0.72001615211E+03  0.21349234447E+04  0.20098444854E+04 0.  0.
        4    1    3    3  502    0 -0.55418403042E+03 -0.82151394470E+03 -0.18270102925E+03  0.10076638229E+04  0.12699999809E+01 0. -1.
       -4    1    3    3    0  502  0.55418403042E+03  0.82151394470E+03 -0.53731512287E+03  0.11272596219E+04  0.12699999809E+01 0.  1.
</event>
<event>
 5   0  0.6168338E-05  0.2021696E+04  0.7818609E-02  0.8596544E-01
       -1   -1    0    0    0  501  0.00000000000E+00  0.00000000000E+00  0.87011981870E+03  0.87011981872E+03  0.50400001928E-02 0.  1.
        1   -1    0    0  501    0  0.00000000000E+00  0.00000000000E+00 -0.11743367106E+04  0.11743367107E+04  0.50400001928E-02 0. -1.
    10030    2    1    2    0    0  0.00000000000E+00  0.00000000000E+00 -0.30421689194E+03  0.20444565294E+04  0.20216959670E+04 0.  0.
        5    1    3    3  502    0 -0.36155050747E+03 -0.94092221426E+03 -0.22871198896E+03  0.10336269378E+04  0.46999998093E+01 0. -1.
       -5    1    3    3    0  502  0.36155050747E+03  0.94092221426E+03 -0.75504902979E+02  0.10108295915E+04  0.46999998093E+01 0.  1.
</event>
<event>
 5   0  0.6222733E-05  0.1971562E+04  0.7818609E-02  0.8620033E-01
        1   -1    0    0  501    0  0.00000000000E+00  0.00000000000E+00  0.16189241115E+04  0.16189241115E+04  0.50400001928E-02 0.  1.
       -1   -1    0    0    0  501  0.00000000000E+00  0.00000000000E+00 -0.60025312305E+03  0.60025312307E+03  0.50400001928E-02 0. -1.
    10030    2    1    2    0    0  0.00000000000E+00  0.00000000000E+00  0.10186709884E+04  0.22191772345E+04  0.19715620750E+04 0.  0.
        2    1    3    3  502    0 -0.38530438557E+03  0.40928493263E+03  0.14208511579E+04  0.15280024995E+04  0.25500000920E-02 0.  1.
       -2    1    3    3    0  502  0.38530438557E+03 -0.40928493263E+03 -0.40218016948E+03  0.69117473503E+03  0.25500000920E-02 0. -1.
</event>
<event>
 5   0  0.6028501E-05  0.1996757E+04  0.7818609E-02  0.8608138E-01
        1   -1    0    0  501    0  0.00000000000E+00  0.00000000000E+00  0.15073154200E+04  0.15073154200E+04  0.50400001928E-02 0. -1.
       -1   -1    0    0    0  501  0.00000000000E+00  0.00000000000E+00 -0.66128135584E+03  0.66128135586E+03  0.50400001928E-02 0.  1.
    10030    2    1    2    0    0  0.00000000000E+00  0.00000000000E+00  0.84603406412E+03  0.21685967758E+04  0.19967569553E+04 0.  0.
        4    1    3    3  502    0  0.15648132058E+03 -0.11768145814E+03  0.14862590585E+04  0.14991007074E+04  0.12699999809E+01 0. -1.
       -4    1    3    3    0  502 -0.15648132058E+03  0.11768145814E+03 -0.64022499435E+03  0.66949606838E+03  0.12699999809E+01 0.  1.
</event>
<event>
 5   0  0.6028501E-05  0.2014669E+04  0.7818609E-02  0.8599793E-01
       -1   -1    0    0    0  501  0.00000000000E+00  0.00000000000E+00  0.42554914564E+03  0.42554914567E+03  0.50400001928E-02 0. -1.
        1   -1    0    0  501    0  0.00000000000E+00  0.00000000000E+00 -0.23845015842E+04  0.23845015842E+04  0.50400001928E-02 0.  1.
    10030    2    1    2    0    0  0.00000000000E+00  0.00000000000E+00 -0.19589524386E+04  0.28100507299E+04  0.20146688184E+04 0.  0.
        4    1    3    3  502    0  0.60914647209E+03  0.28356342272E+03 -0.20262730306E+04  0.21347720362E+04  0.12699999809E+01 0.  1.
       -4    1    3    3    0  502 -0.60914647209E+03 -0.28356342272E+03  0.67320592005E+02  0.67527869370E+03  0.12699999809E+01 0. -1.
</event>
<event>
 5   0  0.1159914E-04  0.1728063E+04  0.7818609E-02  0.8745519E-01
        2   -1    0    0  501    0  0.00000000000E+00  0.00000000000E+00  0.10897718135E+04  0.10897718135E+04  0.25500000920E-02 0.  1.
       -2   -1    0    0    0  501  0.00000000000E+00  0.00000000000E+00 -0.68505208887E+03  0.68505208888E+03  0.25500000920E-02 0. -1.
    10030    2    1    2    0    0  0.00000000000E+00  0.00000000000E+00  0.40471972460E+03  0.17748239024E+04  0.17280630280E+04 0.  0.
        3    1    3    3  502    0  0.49237153099E+03  0.22702251349E+02 -0.52649465438E+03  0.72120853298E+03  0.10100000352E+00 0. -1.
       -3    1    3    3    0  502 -0.49237153099E+03 -0.22702251349E+02  0.93121437898E+03  0.10536153694E+04  0.10100000352E+00 0.  1.
</event>
<event>
 5   0  0.6222733E-05  0.2005045E+04  0.7818609E-02  0.8604265E-01
        1   -1    0    0  501    0  0.00000000000E+00  0.00000000000E+00  0.17030872496E+04  0.17030872496E+04  0.50400001928E-02 0. -1.
       -1   -1    0    0    0  501  0.00000000000E+00  0.00000000000E+00 -0.59013519342E+03  0.59013519344E+03  0.50400001928E-02 0.  1.
    10030    2    1    2    0    0  0.00000000000E+00  0.00000000000E+00  0.11129520562E+04  0.22932224431E+04  0.20050453596E+04 0.  0.
        2    1    3    3  502    0 -0.92071916561E+02  0.18662147698E+03  0.16781131679E+04  0.16909667701E+04  0.25500000920E-02 0. -1.
       -2    1    3    3    0  502  0.92071916561E+02 -0.18662147698E+03 -0.56516111165E+03  0.60225567296E+03  0.25500000920E-02 0.  1.
</event>
<event>
 5   0  0.1159914E-04  0.1970293E+04  0.7818609E-02  0.8620637E-01
       -2   -1    0    0    0  501  0.00000000000E+00  0.00000000000E+00  0.69652590416E+03  0.69652590417E+03  0.25500000920E-02 0. -1.
        2   -1    0    0  501    0  0.00000000000E+00  0.00000000000E+00 -0.13933639251E+04  0.13933639251E+04  0.25500000920E-02 0.  1.
    10030    2    1    2    0    0  0.00000000000E+00  0.00000000000E+00 -0.69683802091E+03  0.20898898292E+04  0.19702934479E+04 0.  0.
        3    1    3    3  502    0  0.15434284390E+03  0.16609319465E+03 -0.13653117274E+04  0.13840103995E+04  0.10100000352E+00 0.  1.
       -3    1    3    3    0  502 -0.15434284390E+03 -0.16609319465E+03  0.66847370652E+03  0.70587942970E+03  0.10100000352E+00 0. -1.
</event>
<event>
 5   0  0.6168338E-05  0.1998319E+04  0.7818609E-02  0.8607407E-01
        1   -1    0    0  501    0  0.00000000000E+00  0.00000000000E+00  0.17999568676E+04  0.17999568676E+04  0.50400001928E-02 0. -1.
       -1   -1    0    0    0  501  0.00000000000E+00  0.00000000000E+00 -0.55463561169E+03  0.55463561171E+03  0.50400001928E-02 0.  1.
    10030    2    1    2    0    0  0.00000000000E+00  0.00000000000E+00  0.12453212559E+04  0.23545924793E+04  0.19983194722E+04 0.  0.
        5    1    3    3  502    0 -0.11653223765E+03 -0.32347533493E+03 -0.48272142690E+03  0.59267033054E+03  0.46999998093E+01 0.  1.
       -5    1    3    3    0  502  0.11653223765E+03  0.32347533493E+03  0.17280426828E+04  0.17619221487E+04  0.46999998093E+01 0. -1.
</event>
<event>
 5   0  0.1159914E-04  0.2007234E+04  0.7818609E-02  0.8603246E-01
        2   -1    0    0  501    0  0.00000000000E+00  0.00000000000E+00  0.62092629663E+03  0.62092629663E+03  0.25500000920E-02 0. -1.
       -2   -1    0    0    0  501  0.00000000000E+00  0.00000000000E+00 -0.16221677484E+04  0.16221677484E+04  0.25500000920E-02 0.  1.
    10030    2    1    2    0    0  0.00000000000E+00  0.00000000000E+00 -0.10012414517E+04  0.22430940450E+04  0.20072335315E+04 0.  0.
        3    1    3    3  502    0 -0.76451050982E+03  0.62577300629E+03 -0.69794325860E+03  0.12096251392E+04  0.10100000352E+00 0. -1.
       -3    1    3    3    0  502  0.76451050982E+03 -0.62577300629E+03 -0.30329819313E+03  0.10334689058E+04  0.10100000352E+00 0.  1.
</event>
<event>
 5   0  0.6214547E-05  0.2000784E+04  0.7818609E-02  0.8606254E-01
       -1   -1    0    0    0  501  0.00000000000E+00  0.00000000000E+00  0.64774792699E+03  0.64774792701E+03  0.50400001928E-02 0. -1.
        1   -1    0    0  501    0  0.00000000000E+00  0.00000000000E+00 -0.15450211518E+04  0.15450211518E+04  0.50400001928E-02 0.  1.
    10030    2    1    2    0    0  0.00000000000E+00  0.00000000000E+00 -0.89727322480E+03  0.21927690788E+04  0.20007840946E+04 0.  0.
        3    1    3    3  502    0  0.65466547395E+03  0.40408825183E+03  0.25218350360E+03  0.80961146715E+03  0.10100000352E+00 0. -1.
       -3    1    3    3    0  502 -0.65466547395E+03 -0.40408825183E+03 -0.11494567284E+04  0.13831576117E+04  0.10100000352E+00 0.  1.
</event>
<event>
 5   0  0.6168338E-05  0.1970766E+04  0.7818609E-02  0.8620412E-01
        1   -1    0    0  501    0  0.00000000000E+00  0.00000000000E+00  0.63465215351E+03  0.63465215353E+03  0.50400001928E-02 0. -1.
       -1   -1    0    0    0  501  0.00000000000E+00  0.00000000000E+00 -0.15299400955E+04  0.15299400955E+04  0.50400001928E-02 0.  1.
    10030    2    1    2    0    0  0.00000000000E+00  0.00000000000E+00 -0.89528794201E+03  0.21645922490E+04  0.19707661215E+04 0.  0.
        5    1    3    3  502    0 -0.94048623054E+03  0.28526348321E+03 -0.36945188223E+03  0.10499554219E+04  0.46999998093E+01 0.  1.
       -5    1    3    3    0  502  0.94048623054E+03 -0.28526348321E+03 -0.52583605978E+03  0.11146368272E+04  0.46999998093E+01 0. -1.
</event>
<event>
 5   0  0.1244229E-04  0.2004536E+04  0.7818609E-02  0.8604503E-01
        2   -1    0    0  501    0  0.00000000000E+00  0.00000000000E+00  0.77436632760E+03  0.77436632760E+03  0.25500000920E-02 0. -1.
       -2   -1    0    0    0  501  0.00000000000E+00  0.00000000000E+00 -0.12972423494E+04  0.12972423494E+04  0.25500000920E-02 0.  1.
    10030    2    1    2    0    0  0.00000000000E+00  0.00000000000E+00 -0.52287602175E+03  0.20716086770E+04  0.20045356510E+04 0.  0.
        5    1    3    3  502    0 -0.86804980042E+03 -0.10481144712E+03  0.24487628903E+03  0.90801012240E+03  0.46999998093E+01 0. -1.
       -5    1    3    3    0  502  0.86804980042E+03  0.10481144712E+03 -0.76775231078E+03  0.11635985546E+04  0.46999998093E+01 0.  1.
</event>
<event>
 5   0  0.6214547E-05  0.2006493E+04  0.7818609E-02  0.8603591E-01
       -1   -1    0    0    0  501  0.00000000000E+00  0.00000000000E+00  0.91649517618E+03  0.91649517620E+03  0.50400001928E-02 0.  1.
        1   -1    0    0  501    0  0.00000000000E+00  0.00000000000E+00 -0.10982093366E+04  0.10982093366E+04  0.50400001928E-02 0. -1.
    10030    2    1    2    0    0  0.00000000000E+00  0.00000000000E+00 -0.18171416042E+03  0.20147045128E+04  0.20064930196E+04 0.  0.
        3    1    3    3  502    0 -0.68477211306E+03  0.26919480783E+03  0.59393460927E+03  0.94558818821E+03  0.10100000352E+00 0.  1.
       -3    1    3    3    0  502  0.68477211306E+03 -0.26919480783E+03 -0.77564876970E+03  0.10691163246E+04  0.10100000352E+00 0. -1.
</event>
<event>
 5   0  0.6222733E-05  0.2035909E+04  0.7818609E-02  0.8590014E-01
       -1   -1    0    0    0  501  0.00000000000E+00  0.00000000000E+00  0.10917404234E+04  0.10917404234E+04  0.50400001928E-02 0.  1.
        1   -1    0    0  501    0  0.00000000000E+00  0.00000000000E+00 -0.94915501933E+03  0.94915501935E+03  0.50400001928E-02 0. -1.
    10030    2    1    2    0    0  0.00000000000E+00  0.00000000000E+00  0.14258540402E+03  0.20408954427E+04  0.20359085467E+04 0.  0.
        2    1    3    3  502    0  0.13216459851E+03  0.20322441999E+03  0.10623818273E+04  0.10896893103E+04  0.25500000920E-02 0.  1.
       -2    1    3    3    0  502 -0.13216459851E+03 -0.20322441999E+03 -0.91979642330E+03  0.95120613240E+03  0.25500000920E-02 0. -1.
</event>
<event>
 5   0  0.1281789E-04  0.1820728E+04  0.7818609E-02  0.8695353E-01
        2   -1    0    0  501    0  0.00000000000E+00  0.00000000000E+00  0.95995018549E+03  0.95995018550E+03  0.25500000920E-02 0. -1.
       -2   -1    0    0    0  501  0.00000000000E+00  0.00000000000E+00 -0.86333965536E+03  0.86333965537E+03  0.25500000920E-02 0.  1.
    10030    2    1    2    0    0  0.00000000000E+00  0.00000000000E+00  0.96610530129E+02  0.18232898409E+04  0.18207284941E+04 0.  0.
        2    1    3    3  502    0 -0.31023505919E+03  0.81202991978E+03 -0.22249090127E+03  0.89729626308E+03  0.25500000920E-02 0.  1.
       -2    1    3    3    0  502  0.31023505919E+03 -0.81202991978E+03  0.31910143140E+03  0.92599357779E+03  0.25500000920E-02 0. -1.
</event>
<event>
 5   0  0.1281789E-04  0.1981329E+04  0.7818609E-02  0.8615400E-01
        2   -1    0    0  501    0  0.00000000000E+00  0.00000000000E+00  0.11388771301E+04  0.11388771301E+04  0.25500000920E-02 0.  1.
       -2   -1    0    0    0  501  0.00000000000E+00  0.00000000000E+00 -0.86173993122E+03  0.86173993122E+03  0.25500000920E-02 0. -1.
    10030    2    1    2    0    0  0.00000000000E+00  0.00000000000E+00  0.27713719885E+03  0.20006170613E+04  0.19813287458E+04 0.  0.
        2    1    3    3  502    0  0.17185328838E+03  0.63664137014E+03 -0.60793235580E+03  0.89689884387E+03  0.25500000920E-02 0. -1.
       -2    1    3    3    0  502 -0.17185328838E+03 -0.63664137014E+03  0.88506955465E+03  0.11037182174E+04  0.25500000920E-02 0.  1.
</event>
<event>
 5   0  0.1242761E-04  0.2000775E+04  0.7818609E-02  0.8606259E-01
       -2   -1    0    0    0  501  0.00000000000E+00  0.00000000000E+00  0.64107923328E+03  0.64107923329E+03  0.25500000920E-02 0. -1.
        2   -1    0    0  501    0  0.00000000000E+00  0.00000000000E+00 -0.15610782939E+04  0.15610782939E+04  0.25500000920E-02 0.  1.
    10030    2    1    2    0    0  0.00000000000E+00  0.00000000000E+00 -0.91999906058E+03  0.22021575272E+04  0.20007747257E+04 0.  0.
        4    1    3    3  502    0 -0.79136614738E+03 -0.22443799853E+03  0.16663859931E+03  0.83928709634E+03  0.12699999809E+01 0. -1.
       -4    1    3    3    0  502  0.79136614738E+03  0.22443799853E+03 -0.10866376599E+04  0.13628704308E+04  0.12699999809E+01 0.  1.
</event>
<event>
 5   0  0.1274868E-04  0.2000856E+04  0.7818609E-02  0.8606221E-01
       -2   -1    0    0    0  501  0.00000000000E+00  0.00000000000E+00  0.17278390171E+04  0.17278390171E+04  0.25500000920E-02 0. -1.
        2   -1    0    0  501    0  0.00000000000E+00  0.00000000000E+00 -0.57925321181E+03  0.57925321182E+03  0.25500000920E-02 0.  1.
    10030    2    1    2    0    0  0.00000000000E+00  0.00000000000E+00  0.11485858053E+04  0.23070922289E+04  0.20008561169E+04 0.  0.
        1    1    3    3  502    0 -0.40722199287E+02  0.64077063051E+03  0.14589262052E+04  0.15939607808E+04  0.50400001928E-02 0. -1.
       -1    1    3    3    0  502  0.40722199287E+02 -0.64077063051E+03 -0.31034039993E+03  0.71313144812E+03  0.50400001928E-02 0.  1.
</event>
<event>
 5   0  0.1244229E-04  0.2003168E+04  0.7818609E-02  0.8605141E-01
       -2   -1    0    0    0  501  0.00000000000E+00  0.00000000000E+00  0.67494672340E+03  0.67494672340E+03  0.25500000920E-02 0.  1.
        2   -1    0    0  501    0  0.00000000000E+00  0.00000000000E+00 -0.14862963506E+04  0.14862963506E+04  0.25500000920E-02 0. -1.
    10030    2    1    2    0    0  0.00000000000E+00  0.00000000000E+00 -0.81134962719E+03  0.21612430740E+04  0.20031683422E+04 0.  0.
        5    1    3    3  502    0  0.42899013287E+03 -0.64167400068E+03 -0.10942970835E+04  0.13391363837E+04  0.46999998093E+01 0. -1.
       -5    1    3    3    0  502 -0.42899013287E+03  0.64167400068E+03  0.28294745626E+03  0.82210669031E+03  0.46999998093E+01 0.  1.
</event>
<event>
 5   0  0.1242761E-04  0.2023661E+04  0.7818609E-02  0.8595638E-01
       -2   -1    0    0    0  501  0.00000000000E+00  0.00000000000E+00  0.33756763359E+03  0.33756763360E+03  0.25500000920E-02 0. -1.
        2   -1    0    0  501    0  0.00000000000E+00  0.00000000000E+00 -0.30328762053E+04  0.30328762053E+04  0.25500000920E-02 0.  1.
    10030    2    1    2    0    0  0.00000000000E+00  0.00000000000E+00 -0.26953085717E+04  0.33704438389E+04  0.20236608843E+04 0.  0.
        4    1    3    3  502    0  0.10104467949E+04  0.44534156626E+02 -0.13951497223E+04  0.17232035216E+04  0.12699999809E+01 0. -1.
       -4    1    3    3    0  502 -0.10104467949E+04 -0.44534156626E+02 -0.13001588494E+04  0.16472403173E+04  0.12699999809E+01 0.  1.
</event>
<event>
 5   0  0.1159914E-04  0.2017838E+04  0.7818609E-02  0.8598326E-01
       -2   -1    0    0    0  501  0.00000000000E+00  0.00000000000E+00  0.81293132650E+03  0.81293132650E+03  0.25500000920E-02 0.  1.
        2   -1    0    0  501    0  0.00000000000E+00  0.00000000000E+00 -0.12521574647E+04  0.12521574647E+04  0.25500000920E-02 0. -1.
    10030    2    1    2    0    0  0.00000000000E+00  0.00000000000E+00 -0.43922613818E+03  0.20650887912E+04  0.20178384759E+04 0.  0.
        3    1    3    3  502    0 -0.78035951362E+03  0.50572649708E+03 -0.62018317538E+03  0.11177421176E+04  0.10100000352E+00 0. -1.
       -3    1    3    3    0  502  0.78035951362E+03 -0.50572649708E+03  0.18095703720E+03  0.94734667353E+03  0.10100000352E+00 0.  1.
</event>
<event>
 5   0  0.6214547E-05  0.2014790E+04  0.7818609E-02  0.8599737E-01
       -1   -1    0    0    0  501  0.00000000000E+00  0.00000000000E+00  0.62707004728E+03  0.62707004730E+03  0.50400001928E-02 0. -1.
        1   -1    0    0  501    0  0.00000000000E+00  0.00000000000E+00 -0.16183909544E+04  0.16183909544E+04  0.50400001928E-02 0.  1.
    10030    2    1    2    0    0  0.00000000000E+00  0.00000000000E+00 -0.99132090711E+03  0.22454610017E+04  0.20147898077E+04 0.  0.
        3    1    3    3  502    0  0.80333654001E+03  0.51870601058E+03 -0.84886548019E+03  0.12786626356E+04  0.10100000352E+00 0.  1.
       -3    1    3    3    0  502 -0.80333654001E+03 -0.51870601058E+03 -0.14245542693E+03  0.96679836615E+03  0.10100000352E+00 0. -1.
</event>
<event>
 5   0  0.1244229E-04  0.2004390E+04  0.7818609E-02  0.8604571E-01
       -2   -1    0    0    0  501  0.00000000000E+00  0.00000000000E+00  0.16047892438E+04  0.16047892438E+04  0.25500000920E-02 0. -1.
        2   -1    0    0  501    0  0.00000000000E+00  0.00000000000E+00 -0.62587328725E+03  0.62587328726E+03  0.25500000920E-02 0.  1.
    10030    2    1    2    0    0  0.00000000000E+00  0.00000000000E+00  0.97891595650E+03  0.22306625310E+04  0.20043899015E+04 0.  0.
        5    1    3    3  502    0  0.90650900992E+03  0.42106660181E+03  0.57060702235E+03  0.11509431490E+04  0.46999998093E+01 0. -1.
       -5    1    3    3    0  502 -0.90650900992E+03 -0.42106660181E+03  0.40830893416E+03  0.10797193820E+04  0.46999998093E+01 0.  1.
</event>
<event>
 5   0  0.6028501E-05  0.1976185E+04  0.7818609E-02  0.8617837E-01
        1   -1    0    0  501    0  0.00000000000E+00  0.00000000000E+00  0.14967470099E+04  0.14967470099E+04  0.50400001928E-02 0. -1.
       -1   -1    0    0    0  501  0.00000000000E+00  0.00000000000E+00 -0.65229921533E+03  0.65229921535E+03  0.50400001928E-02 0.  1.
    10030    2    1    2    0    0  0.00000000000E+00  0.00000000000E+00  0.84444779454E+03  0.21490462252E+04  0.19761851129E+04 0.  0.
        4    1    3    3  502    0 -0.76034341684E+03 -0.45259096539E+03  0.90042063750E+03  0.12624260893E+04  0.12699999809E+01 0. -1.
       -4    1    3    3    0  502  0.76034341684E+03  0.45259096539E+03 -0.55972842953E+02  0.88662013599E+03  0.12699999809E+01 0.  1.
</event>
<event>
 5   0  0.1274868E-04  0.2007415E+04  0.7818609E-02  0.8603162E-01
       -2   -1    0    0    0  501  0.00000000000E+00  0.00000000000E+00  0.64017118512E+03  0.64017118512E+03  0.25500000920E-02 0. -1.
        2   -1    0    0  501    0  0.00000000000E+00  0.00000000000E+00 -0.15736867936E+04  0.15736867936E+04  0.25500000920E-02 0.  1.
    10030    2    1    2    0    0  0.00000000000E+00  0.00000000000E+00 -0.93351560848E+03  0.22138579787E+04  0.20074151934E+04 0.  0.
        1    1    3    3  502    0 -0.50696365408E+01 -0.88173348691E+03  0.62087427278E+02  0.88393127097E+03  0.50400001928E-02 0. -1.
       -1    1    3    3    0  502  0.50696365408E+01  0.88173348691E+03 -0.99560303575E+03  0.13299267077E+04  0.50400001928E-02 0.  1.
</event>
<event>
 5   0  0.1281789E-04  0.1983739E+04  0.7818609E-02  0.8614261E-01
        2   -1    0    0  501    0  0.00000000000E+00  0.00000000000E+00  0.20275527435E+04  0.20275527435E+04  0.25500000920E-02 0. -1.
       -2   -1    0    0    0  501  0.00000000000E+00  0.00000000000E+00 -0.48521808873E+03  0.48521808874E+03  0.25500000920E-02 0.  1.
    10030    2    1    2    0    0  0.00000000000E+00  0.00000000000E+00  0.15423346548E+04  0.25127708323E+04  0.19837391633E+04 0.  0.
        2    1    3    3  502    0  0.31604915597E+02  0.98626174477E+03  0.89843073878E+03  0.13344994913E+04  0.25500000920E-02 0. -1.
       -2    1    3    3    0  502 -0.31604915597E+02 -0.98626174477E+03  0.64390391603E+03  0.11782713410E+04  0.25500000920E-02 0.  1.
</event>
<event>
 5   0  0.6168338E-05  0.2000089E+04  0.7818609E-02  0.8606579E-01
        1   -1    0    0  501    0  0.00000000000E+00  0.00000000000E+00  0.78712647152E+03  0.78712647153E+03  0.50400001928E-02 0. -1.
       -1   -1    0    0    0  501  0.00000000000E+00  0.00000000000E+00 -0.12705567775E+04  0.12705567775E+04  0.50400001928E-02 0.  1.
    10030    2    1    2    0    0  0.00000000000E+00  0.00000000000E+00 -0.48343030597E+03  0.20576832490E+04  0.20000888712E+04 0.  0.
        5    1    3    3  502    0 -0.73165989055E+03 -0.51319001777E+03 -0.70338735271E+03  0.11373064880E+04  0.46999998093E+01 0.  1.
       -5    1    3    3    0  502  0.73165989055E+03  0.51319001777E+03  0.21995704674E+03  0.92037676100E+03  0.46999998093E+01 0. -1.
</event>
<event>
 5   0  0.1242761E-04  0.1994685E+04  0.7818609E-02  0.8609110E-01
        2   -1    0    0  501    0  0.00000000000E+00  0.00000000000E+00  0.17337117581E+04  0.17337117581E+04  0.25500000920E-02 0.  1.
       -2   -1    0    0    0  501  0.00000000000E+00  0.00000000000E+00 -0.57373543014E+03  0.57373543015E+03  0.25500000920E-02 0. -1.
    10030    2    1    2    0    0  0.00000000000E+00  0.00000000000E+00  0.11599763279E+04  0.23074471882E+04  0.19946847984E+04 0.  0.
        4    1    3    3  502    0  0.47286656528E+03 -0.87788191301E+03  0.55654176199E+03  0.11419368579E+04  0.12699999809E+01 0. -1.
       -4    1    3    3    0  502 -0.47286656528E+03  0.87788191301E+03  0.60343456595E+03  0.11655103303E+04  0.12699999809E+01 0.  1.
</event>
<event>
 5   0  0.1244229E-04  0.1993329E+04  0.7818609E-02  0.8609746E-01
       -2   -1    0    0    0  501  0.00000000000E+00  0.00000000000E+00  0.69844931172E+03  0.69844931172E+03  0.25500000920E-02 0.  1.
        2   -1    0    0  501    0  0.00000000000E+00  0.00000000000E+00 -0.14222075328E+04  0.14222075328E+04  0.25500000920E-02 0. -1.
    10030    2    1    2    0    0  0.00000000000E+00  0.00000000000E+00 -0.72375822104E+03  0.21206568445E+04  0.19933287460E+04 0.  0.
        5    1    3    3  502    0 -0.88402701869E+03 -0.37335600434E+03 -0.64817733188E+03  0.11580390405E+04  0.46999998093E+01 0. -1.
       -5    1    3    3    0  502  0.88402701869E+03  0.37335600434E+03 -0.75580889166E+02  0.96261780399E+03  0.46999998093E+01 0.  1.
</event>
<event>
 5   0  0.6028501E-05  0.2021999E+04  0.7818609E-02  0.8596404E-01
       -1   -1    0    0    0  501  0.00000000000E+00  0.00000000000E+00  0.42095393205E+03  0.42095393208E+03  0.50400001928E-02 0. -1.
        1   -1    0    0  501    0  0.00000000000E+00  0.00000000000E+00 -0.24281050920E+04  0.24281050920E+04  0.50400001928E-02 0.  1.
    10030    2    1    2    0    0  0.00000000000E+00  0.00000000000E+00 -0.20071511599E+04  0.28490590241E+04  0.20219993926E+04 0.  0.
        4    1    3    3  502    0 -0.59496800842E+03  0.25776295320E+02  0.14758381789E+03  0.61354212948E+03  0.12699999809E+01 0. -1.
       -4    1    3    3    0  502  0.59496800842E+03 -0.25776295320E+02 -0.21547349778E+04  0.22355168946E+04  0.12699999809E+01 0.  1.
</event>
<event>
 5   0  0.1159914E-04  0.2017936E+04  0.7818609E-02  0.8598281E-01
        2   -1    0    0  501    0  0.00000000000E+00  0.00000000000E+00  0.88597164937E+03  0.88597164938E+03  0.25500000920E-02 0. -1.
       -2   -1    0    0    0  501  0.00000000000E+00  0.00000000000E+00 -0.11490394685E+04  0.11490394685E+04  0.25500000920E-02 0.  1.
    10030    2    1    2    0    0  0.00000000000E+00  0.00000000000E+00 -0.26306781916E+03  0.20350111179E+04  0.20179359684E+04 0.  0.
        3    1    3    3  502    0  0.88725030064E+03 -0.94489998208E+02  0.34348786611E+03  0.95609904305E+03  0.10100000352E+00 0. -1.
       -3    1    3    3    0  502 -0.88725030064E+03  0.94489998208E+02 -0.60655568527E+03  0.10789120749E+04  0.10100000352E+00 0.  1.
</event>
<event>
 5   0  0.4479000E-05  0.1992691E+04  0.7818609E-02  0.8610045E-01
       -3   -1    0    0    0  501  0.00000000000E+00  0.00000000000E+00  0.80181860999E+03  0.80181861635E+03  0.10100000352E+00 0. -1.
        3   -1    0    0  501    0  0.00000000000E+00  0.00000000000E+00 -0.12380664339E+04  0.12380664380E+04  0.10100000352E+00 0.  1.
    10030    2    1    2    0    0  0.00000000000E+00  0.00000000000E+00 -0.43624782388E+03  0.20398850543E+04  0.19926913637E+04 0.  0.
        2    1    3    3  502    0  0.10158805364E+03  0.25762218882E+02 -0.12324081447E+04  0.12368563618E+04  0.25500000920E-02 0.  1.
       -2    1    3    3    0  502 -0.10158805364E+03 -0.25762218882E+02  0.79616032084E+03  0.80302869254E+03  0.25500000920E-02 0. -1.
</event>
<event>
 5   0  0.6214547E-05  0.1996340E+04  0.7818609E-02  0.8608334E-01
       -1   -1    0    0    0  501  0.00000000000E+00  0.00000000000E+00  0.12700580739E+04  0.12700580739E+04  0.50400001928E-02 0. -1.
        1   -1    0    0  501    0  0.00000000000E+00  0.00000000000E+00 -0.78448674657E+03  0.78448674659E+03  0.50400001928E-02 0.  1.
    10030    2    1    2    0    0  0.00000000000E+00  0.00000000000E+00  0.48557132728E+03  0.20545448205E+04  0.19963403781E+04 0.  0.
        3    1    3    3  502    0 -0.15820789664E+03 -0.85249475617E+03 -0.26616966143E+03  0.90698585806E+03  0.10100000352E+00 0.  1.
       -3    1    3    3    0  502  0.15820789664E+03  0.85249475617E+03  0.75174098871E+03  0.11475589624E+04  0.10100000352E+00 0. -1.
</event>
<event>
 5   0  0.6214547E-05  0.2005373E+04  0.7818609E-02  0.8604113E-01
       -1   -1    0    0    0  501  0.00000000000E+00  0.00000000000E+00  0.53061275019E+03  0.53061275022E+03  0.50400001928E-02 0.  1.
        1   -1    0    0  501    0  0.00000000000E+00  0.00000000000E+00 -0.18947530418E+04  0.18947530418E+04  0.50400001928E-02 0. -1.
    10030    2    1    2    0    0  0.00000000000E+00  0.00000000000E+00 -0.13641402916E+04  0.24253657920E+04  0.20053729054E+04 0.  0.
        3    1    3    3  502    0 -0.58729170974E+03 -0.58109211181E+03 -0.13692164518E+04  0.15991664381E+04  0.10100000352E+00 0. -1.
       -3    1    3    3    0  502  0.58729170974E+03  0.58109211181E+03  0.50761602166E+01  0.82619935388E+03  0.10100000352E+00 0.  1.
</event>
<event>
 5   0  0.6256535E-05  0.2008619E+04  0.7818609E-02  0.8602602E-01
       -1   -1    0    0    0  501  0.00000000000E+00  0.00000000000E+00  0.20355589010E+04  0.20355589010E+04  0.50400001928E-02 0.  1.
        1   -1    0    0  501    0  0.00000000000E+00  0.00000000000E+00 -0.49550872249E+03  0.49550872251E+03  0.50400001928E-02 0. -1.
    10030    2    1    2    0    0  0.00000000000E+00  0.00000000000E+00  0.15400501785E+04  0.25310676235E+04  0.20086186204E+04 0.  0.
        1    1    3    3  502    0 -0.54695811584E+03  0.79370454711E+03  0.41471362037E+03  0.10493414485E+04  0.50400001928E-02 0. -1.
       -1    1    3    3    0  502  0.54695811584E+03 -0.79370454711E+03  0.11253365581E+04  0.14817261750E+04  0.50400001928E-02 0.  1.
</event>
<event>
 5   0  0.1159914E-04  0.2000914E+04  0.7818609E-02  0.8606193E-01
       -2   -1    0    0    0  501  0.00000000000E+00  0.00000000000E+00  0.10096724293E+04  0.10096724293E+04  0.25500000920E-02 0.  1.
        2   -1    0    0  501    0  0.00000000000E+00  0.00000000000E+00 -0.99132578398E+03  0.99132578399E+03  0.25500000920E-02 0. -1.
    10030    2    1    2    0    0  0.00000000000E+00  0.00000000000E+00  0.18346645348E+02  0.20009982133E+04  0.20009141037E+04 0.  0.
        3    1    3    3  502    0  0.29959454147E+03 -0.79387831795E+03  0.53920940326E+03  0.10053588731E+04  0.10100000352E+00 0.  1.
       -3    1    3    3    0  502 -0.29959454147E+03  0.79387831795E+03 -0.52086275791E+03  0.99563934021E+03  0.10100000352E+00 0. -1.
</event>
<event>
 5   0  0.4479000E-05  0.1994565E+04  0.7818609E-02  0.8609166E-01
        3   -1    0    0  501    0  0.00000000000E+00  0.00000000000E+00  0.83186222015E+03  0.83186222628E+03  0.10100000352E+00 0. -1.
       -3   -1    0    0    0  501  0.00000000000E+00  0.00000000000E+00 -0.11955971235E+04  0.11955971278E+04  0.10100000352E+00 0.  1.
    10030    2    1    2    0    0  0.00000000000E+00  0.00000000000E+00 -0.36373490335E+03  0.20274593540E+04  0.19945647025E+04 0.  0.
        3    1    3    3  502    0  0.71314199559E+03  0.29368467607E+03 -0.82455250515E+03  0.11290301319E+04  0.10100000352E+00 0.  1.
       -3    1    3    3    0  502 -0.71314199559E+03 -0.29368467607E+03  0.46081760181E+03  0.89842922212E+03  0.10100000352E+00 0. -1.
</event>
<event>
 5   0  0.1159914E-04  0.1994442E+04  0.7818609E-02  0.8609224E-01
        2   -1    0    0  501    0  0.00000000000E+00  0.00000000000E+00  0.97036584593E+03  0.97036584594E+03  0.25500000920E-02 0. -1.
       -2   -1    0    0    0  501  0.00000000000E+00  0.00000000000E+00 -0.10248190580E+04  0.10248190580E+04  0.25500000920E-02 0.  1.
    10030    2    1    2    0    0  0.00000000000E+00  0.00000000000E+00 -0.54453212096E+02  0.19951849040E+04  0.19944416885E+04 0.  0.
        3    1    3    3  502    0  0.47641547933E+03  0.56541178890E+03 -0.69664500591E+03  0.10158624289E+04  0.10100000352E+00 0.  1.
       -3    1    3    3    0  502 -0.47641547933E+03 -0.56541178890E+03  0.64219179381E+03  0.97932247508E+03  0.10100000352E+00 0. -1.
</event>
<event>
 5   0  0.1244229E-04  0.2032856E+04  0.7818609E-02  0.8591411E-01
       -2   -1    0    0    0  501  0.00000000000E+00  0.00000000000E+00  0.51004526068E+03  0.51004526069E+03  0.25500000920E-02 0.  1.
        2   -1    0    0  501    0  0.00000000000E+00  0.00000000000E+00 -0.20255582042E+04  0.20255582042E+04  0.25500000920E-02 0. -1.
    10030    2    1    2    0    0  0.00000000000E+00  0.00000000000E+00 -0.15155129436E+04  0.25356034649E+04  0.20328564753E+04 0.  0.
        5    1    3    3  502    0 -0.75796942509E+03  0.67695336247E+03 -0.73541714275E+03  0.12544496675E+04  0.46999998093E+01 0.  1.
       -5    1    3    3    0  502  0.75796942509E+03 -0.67695336247E+03 -0.78009580081E+03  0.12811537975E+04  0.46999998093E+01 0. -1.
</event>
<event>
 5   0  0.6222733E-05  0.1982664E+04  0.7818609E-02  0.8614769E-01
        1   -1    0    0  501    0  0.00000000000E+00  0.00000000000E+00  0.14432643998E+04  0.14432643998E+04  0.50400001928E-02 0. -1.
       -1   -1    0    0    0  501  0.00000000000E+00  0.00000000000E+00 -0.68091434640E+03  0.68091434641E+03  0.50400001928E-02 0.  1.
    10030    2    1    2    0    0  0.00000000000E+00  0.00000000000E+00  0.76235005338E+03  0.21241787462E+04  0.19826643039E+04 0.  0.
        2    1    3    3  502    0 -0.46811110409E+03  0.86982940866E+03  0.29148461239E+03  0.10299002307E+04  0.25500000920E-02 0.  1.
       -2    1    3    3    0  502  0.46811110409E+03 -0.86982940866E+03  0.47086544099E+03  0.10942785155E+04  0.25500000920E-02 0. -1.
</event>
<event>
 5   0  0.6028501E-05  0.1994263E+04  0.7818609E-02  0.8609308E-01
       -1   -1    0    0    0  501  0.00000000000E+00  0.00000000000E+00  0.17340161507E+04  0.17340161507E+04  0.50400001928E-02 0. -1.
        1   -1    0    0  501    0  0.00000000000E+00  0.00000000000E+00 -0.57339208847E+03  0.57339208850E+03  0.50400001928E-02 0.  1.
    10030    2    1    2    0    0  0.00000000000E+00  0.00000000000E+00  0.11606240623E+04  0.23074082392E+04  0.19942629136E+04 0.  0.
        4    1    3    3  502    0 -0.72417642806E+03  0.93464250525E+02 -0.20535901325E+03  0.75851236134E+03  0.12699999809E+01 0.  1.
       -4    1    3    3    0  502  0.72417642806E+03 -0.93464250525E+02  0.13659830755E+04  0.15488958779E+04  0.12699999809E+01 0. -1.
</event>
<event>
 5   0  0.1281789E-04  0.2108021E+04  0.7818609E-02  0.8557718E-01
       -2   -1    0    0    0  501  0.00000000000E+00  0.00000000000E+00  0.79201654392E+03  0.79201654393E+03  0.25500000920E-02 0. -1.
        2   -1    0    0  501    0  0.00000000000E+00  0.00000000000E+00 -0.14026705528E+04  0.14026705528E+04  0.25500000920E-02 0.  1.
    10030    2    1    2    0    0  0.00000000000E+00  0.00000000000E+00 -0.61065400892E+03  0.21946870968E+04  0.21080211418E+04 0.  0.
        2    1    3    3  502    0 -0.76735662532E+03  0.36325153674E+02  0.44599458911E+03  0.88829436604E+03  0.25500000920E-02 0. -1.
       -2    1    3    3    0  502  0.76735662532E+03 -0.36325153674E+02 -0.10566485980E+04  0.13063927307E+04  0.25500000920E-02 0.  1.
</event>
<event>
 5   0  0.1159914E-04  0.1985816E+04  0.7818609E-02  0.8613281E-01
        2   -1    0    0  501    0  0.00000000000E+00  0.00000000000E+00  0.10765623458E+04  0.10765623458E+04  0.25500000920E-02 0.  1.
       -2   -1    0    0    0  501  0.00000000000E+00  0.00000000000E+00 -0.91575400671E+03  0.91575400672E+03  0.25500000920E-02 0. -1.
    10030    2    1    2    0    0  0.00000000000E+00  0.00000000000E+00  0.16080833909E+03  0.19923163525E+04  0.19858159851E+04 0.  0.
        3    1    3    3  502    0  0.70958472521E+03 -0.68748772633E+03  0.17929871365E+03  0.10041403762E+04  0.10100000352E+00 0.  1.
       -3    1    3    3    0  502 -0.70958472521E+03  0.68748772633E+03 -0.18490374567E+02  0.98817597636E+03  0.10100000352E+00 0. -1.
</event>
<event>
 5   0  0.6256535E-05  0.1968597E+04  0.7818609E-02  0.8621445E-01
        1   -1    0    0  501    0  0.00000000000E+00  0.00000000000E+00  0.13015437679E+04  0.13015437679E+04  0.50400001928E-02 0.  1.
       -1   -1    0    0    0  501  0.00000000000E+00  0.00000000000E+00 -0.74438059680E+03  0.74438059682E+03  0.50400001928E-02 0. -1.
    10030    2    1    2    0    0  0.00000000000E+00  0.00000000000E+00  0.55716317111E+03  0.20459243647E+04  0.19685973959E+04 0.  0.
        1    1    3    3  502    0 -0.96242884076E+03 -0.86378735663E+01  0.64328374648E+02  0.96461496266E+03  0.50400001928E-02 0. -1.
       -1    1    3    3    0  502  0.96242884076E+03  0.86378735663E+01  0.49283479646E+03  0.10813094021E+04  0.50400001928E-02 0.  1.
</event>
<event>
 5   0  0.1244229E-04  0.2015338E+04  0.7818609E-02  0.8599483E-01
        2   -1    0    0  501    0  0.00000000000E+00  0.00000000000E+00  0.61549654203E+03  0.61549654203E+03  0.25500000920E-02 0. -1.
       -2   -1    0    0    0  501  0.00000000000E+00  0.00000000000E+00 -0.16497205687E+04  0.16497205687E+04  0.25500000920E-02 0.  1.
    10030    2    1    2    0    0  0.00000000000E+00  0.00000000000E+00 -0.10342240267E+04  0.22652171107E+04  0.20153384881E+04 0.  0.
        5    1    3    3  502    0 -0.89463040597E+03  0.40644401460E+03 -0.76797785537E+03  0.12471456918E+04  0.46999998093E+01 0.  1.
       -5    1    3    3    0  502  0.89463040597E+03 -0.40644401460E+03 -0.26624617131E+03  0.10180714189E+04  0.46999998093E+01 0. -1.
</event>
<event>
 5   0  0.6028501E-05  0.2000361E+04  0.7818609E-02  0.8606452E-01
       -1   -1    0    0    0  501  0.00000000000E+00  0.00000000000E+00  0.94158582310E+03  0.94158582312E+03  0.50400001928E-02 0.  1.
        1   -1    0    0  501    0  0.00000000000E+00  0.00000000000E+00 -0.10624210029E+04  0.10624210029E+04  0.50400001928E-02 0. -1.
    10030    2    1    2    0    0  0.00000000000E+00  0.00000000000E+00 -0.12083517981E+03  0.20040068260E+04  0.20003605220E+04 0.  0.
        4    1    3    3  502    0 -0.44250005321E+03  0.36601729117E+03 -0.88080221168E+03  0.10514699727E+04  0.12699999809E+01 0. -1.
       -4    1    3    3    0  502  0.44250005321E+03 -0.36601729117E+03  0.75996703187E+03  0.95253685333E+03  0.12699999809E+01 0.  1.
</event>
<event>
 5   0  0.6168338E-05  0.2012046E+04  0.7818609E-02  0.8601009E-01
       -1   -1    0    0    0  501  0.00000000000E+00  0.00000000000E+00  0.17619537891E+04  0.17619537891E+04  0.50400001928E-02 0.  1.
        1   -1    0    0  501    0  0.00000000000E+00  0.00000000000E+00 -0.57440908475E+03  0.57440908478E+03  0.50400001928E-02 0. -1.
    10030    2    1    2    0    0  0.00000000000E+00  0.00000000000E+00  0.11875447043E+04  0.23363628739E+04  0.20120459870E+04 0.  0.
        5    1    3    3  502    0 -0.19496327111E+03  0.60962964249E+03 -0.30747770704E+03  0.71008704284E+03  0.46999998093E+01 0. -1.
       -5    1    3    3    0  502  0.19496327111E+03 -0.60962964249E+03  0.14950224114E+04  0.16262758310E+04  0.46999998093E+01 0.  1.
</event>
<event>
 5   0  0.1281789E-04  0.1983486E+04  0.7818609E-02  0.8614381E-01
       -2   -1    0    0    0  501  0.00000000000E+00  0.00000000000E+00  0.46654413571E+03  0.46654413572E+03  0.25500000920E-02 0. -1.
        2   -1    0    0  501    0  0.00000000000E+00  0.00000000000E+00 -0.21081688430E+04  0.21081688430E+04  0.25500000920E-02 0.  1.
    10030    2    1    2    0    0  0.00000000000E+00  0.00000000000E+00 -0.16416247072E+04  0.25747129787E+04  0.19834856297E+04 0.  0.
        2    1    3    3  502    0  0.65878010069E+03  0.73537882044E+03 -0.69917656655E+03  0.12098020920E+04  0.25500000920E-02 0. -1.
       -2    1    3    3    0  502 -0.65878010069E+03 -0.73537882044E+03 -0.94244814070E+03  0.13649108867E+04  0.25500000920E-02 0.  1.
</event>
<event>
 5   0  0.6256535E-05  0.2010119E+04  0.7818609E-02  0.8601904E-01
       -1   -1    0    0    0  501  0.00000000000E+00  0.00000000000E+00  0.70131508854E+03  0.70131508855E+03  0.50400001928E-02 0. -1.
        1   -1    0    0  501    0  0.00000000000E+00  0.00000000000E+00 -0.14403581752E+04  0.14403581752E+04  0.50400001928E-02 0.  1.
    10030    2    1    2    0    0  0.00000000000E+00  0.00000000000E+00 -0.73904308668E+03  0.21416732638E+04  0.20101193210E+04 0.  0.
        1    1    3    3  502    0  0.27493151412E+03 -0.51869503213E+03 -0.12387014225E+04  0.13707709831E+04  0.50400001928E-02 0.  1.
       -1    1    3    3    0  502 -0.27493151412E+03  0.51869503213E+03  0.49965833584E+03  0.77090228072E+03  0.50400001928E-02 0. -1.
</event>
<event>
 5   0  0.6222733E-05  0.1996147E+04  0.7818609E-02  0.8608424E-01
        1   -1    0    0  501    0  0.00000000000E+00  0.00000000000E+00  0.12367887964E+04  0.12367887965E+04  0.50400001928E-02 0.  1.
       -1   -1    0    0    0  501  0.00000000000E+00  0.00000000000E+00 -0.80543287131E+03  0.80543287133E+03  0.50400001928E-02 0. -1.
    10030    2    1    2    0    0  0.00000000000E+00  0.00000000000E+00  0.43135592513E+03  0.20422216678E+04  0.19961466395E+04 0.  0.
        2    1    3    3  502    0 -0.56580602329E+02 -0.17614050041E+03 -0.78773731160E+03  0.80917050894E+03  0.25500000920E-02 0. -1.
       -2    1    3    3    0  502  0.56580602329E+02  0.17614050041E+03  0.12190932367E+04  0.12330511588E+04  0.25500000920E-02 0.  1.
</event>
<event>
 5   0  0.1244229E-04  0.1995906E+04  0.7818609E-02  0.8608537E-01
       -2   -1    0    0    0  501  0.00000000000E+00  0.00000000000E+00  0.71209718943E+03  0.71209718944E+03  0.25500000920E-02 0. -1.
        2   -1    0    0  501    0  0.00000000000E+00  0.00000000000E+00 -0.13985597099E+04  0.13985597099E+04  0.25500000920E-02 0.  1.
    10030    2    1    2    0    0  0.00000000000E+00  0.00000000000E+00 -0.68646252050E+03  0.21106568994E+04  0.19959062490E+04 0.  0.
        5    1    3    3  502    0 -0.28587076873E+03 -0.85833586689E+03  0.10220532059E+03  0.91045624516E+03  0.46999998093E+01 0.  1.
       -5    1    3    3    0  502  0.28587076873E+03  0.85833586689E+03 -0.78866784109E+03  0.12002006542E+04  0.46999998093E+01 0. -1.
</event>
<event>
 5   0  0.1242761E-04  0.2040829E+04  0.7818609E-02  0.8587766E-01
        2   -1    0    0  501    0  0.00000000000E+00  0.00000000000E+00  0.15293996569E+04  0.15293996569E+04  0.25500000920E-02 0. -1.
       -2   -1    0    0    0  501  0.00000000000E+00  0.00000000000E+00 -0.68082018263E+03  0.68082018264E+03  0.25500000920E-02 0.  1.
    10030    2    1    2    0    0  0.00000000000E+00  0.00000000000E+00  0.84857947425E+03  0.22102198395E+04  0.20408293939E+04 0.  0.
        4    1    3    3  502    0  0.83189087653E+03 -0.53611032367E+03  0.69349295572E+03  0.12084663016E+04  0.12699999809E+01 0.  1.
       -4    1    3    3    0  502 -0.83189087653E+03  0.53611032367E+03  0.15508651853E+03  0.10017535379E+04  0.12699999809E+01 0. -1.
</event>
<event>
 5   0  0.6222733E-05  0.1979552E+04  0.7818609E-02  0.8616241E-01
        1   -1    0    0  501    0  0.00000000000E+00  0.00000000000E+00  0.84273979046E+03  0.84273979048E+03  0.50400001928E-02 0.  1.
       -1   -1    0    0    0  501  0.00000000000E+00  0.00000000000E+00 -0.11624658577E+04  0.11624658577E+04  0.50400001928E-02 0. -1.
    10030    2    1    2    0    0  0.00000000000E+00  0.00000000000E+00 -0.31972606723E+03  0.20052056482E+04  0.19795517001E+04 0.  0.
        2    1    3    3  502    0  0.51070652522E+03 -0.33452035455E+03 -0.94901711347E+03  0.11284318784E+04  0.25500000920E-02 0. -1.
       -2    1    3    3    0  502 -0.51070652522E+03  0.33452035455E+03  0.62929104624E+03  0.87677376979E+03  0.25500000920E-02 0.  1.
</event>
<event>
 5   0  0.6214547E-05  0.2108980E+04  0.7818609E-02  0.8557298E-01
       -1   -1    0    0    0  501  0.00000000000E+00  0.00000000000E+00  0.79667175494E+03  0.79667175495E+03  0.50400001928E-02 0.  1.
        1   -1    0    0  501    0  0.00000000000E+00  0.00000000000E+00 -0.13957438163E+04  0.13957438163E+04  0.50400001928E-02 0. -1.
    10030    2    1    2    0    0  0.00000000000E+00  0.00000000000E+00 -0.59907206135E+03  0.21924155712E+04  0.21089804888E+04 0.  0.
        3    1    3    3  502    0 -0.94697674116E+03 -0.46345133600E+03 -0.27880788134E+03  0.10905438708E+04  0.10100000352E+00 0. -1.
       -3    1    3    3    0  502  0.94697674116E+03  0.46345133600E+03 -0.32026418001E+03  0.11018717005E+04  0.10100000352E+00 0.  1.
</event>
<event>
 5   0  0.6222733E-05  0.2003323E+04  0.7818609E-02  0.8605069E-01
        1   -1    0    0  501    0  0.00000000000E+00  0.00000000000E+00  0.96166992794E+03  0.96166992795E+03  0.50400001928E-02 0. -1.
       -1   -1    0    0    0  501  0.00000000000E+00  0.00000000000E+00 -0.10433162623E+04  0.10433162623E+04  0.50400001928E-02 0.  1.
    10030    2    1    2    0    0  0.00000000000E+00  0.00000000000E+00 -0.81646334350E+02  0.20049861903E+04  0.20033231140E+04 0.  0.
        2    1    3    3  502    0 -0.14197626189E+03 -0.41546825175E+02  0.95067703942E+03  0.96211757645E+03  0.25500000920E-02 0. -1.
       -2    1    3    3    0  502  0.14197626189E+03  0.41546825175E+02 -0.10323233738E+04  0.10428686138E+04  0.25500000920E-02 0.  1.
</event>
<event>
 5   0  0.1159914E-04  0.2010272E+04  0.7818609E-02  0.8601833E-01
       -2   -1    0    0    0  501  0.00000000000E+00  0.00000000000E+00  0.39447024931E+03  0.39447024932E+03  0.25500000920E-02 0. -1.
        2   -1    0    0  501    0  0.00000000000E+00  0.00000000000E+00 -0.25611522536E+04  0.25611522536E+04  0.25500000920E-02 0.  1.
    10030    2    1    2    0    0  0.00000000000E+00  0.00000000000E+00 -0.21666820043E+04  0.29556225029E+04  0.20102719896E+04 0.  0.
        3    1    3    3  502    0  0.60640246384E+02 -0.76188050626E+03 -0.20431395393E+04  0.21814120043E+04  0.10100000352E+00 0.  1.
       -3    1    3    3    0  502 -0.60640246384E+02  0.76188050626E+03 -0.12354246499E+03  0.77421049861E+03  0.10100000352E+00 0. -1.
</event>
<event>
 5   0  0.4479000E-05  0.2021255E+04  0.7818609E-02  0.8596747E-01
        3   -1    0    0  501    0  0.00000000000E+00  0.00000000000E+00  0.89208067600E+03  0.89208068171E+03  0.10100000352E+00 0.  1.
       -3   -1    0    0    0  501  0.00000000000E+00  0.00000000000E+00 -0.11449279783E+04  0.11449279827E+04  0.10100000352E+00 0. -1.
    10030    2    1    2    0    0  0.00000000000E+00  0.00000000000E+00 -0.25284730230E+03  0.20370086645E+04  0.20212551894E+04 0.  0.
        4    1    3    3  502    0  0.64198512750E+03 -0.73756999328E+03 -0.38378060005E+03  0.10504492186E+04  0.12699999809E+01 0. -1.
       -4    1    3    3    0  502 -0.64198512750E+03  0.73756999328E+03  0.13093329775E+03  0.98655944589E+03  0.12699999809E+01 0.  1.
</event>
<event>
 5   0  0.6028501E-05  0.2016957E+04  0.7818609E-02  0.8598734E-01
        1   -1    0    0  501    0  0.00000000000E+00  0.00000000000E+00  0.81763332532E+03  0.81763332533E+03  0.50400001928E-02 0. -1.
       -1   -1    0    0    0  501  0.00000000000E+00  0.00000000000E+00 -0.12438686578E+04  0.12438686578E+04  0.50400001928E-02 0.  1.
    10030    2    1    2    0    0  0.00000000000E+00  0.00000000000E+00 -0.42623533244E+03  0.20615019831E+04  0.20169565855E+04 0.  0.
        4    1    3    3  502    0 -0.71842463045E+03  0.53546489940E+02 -0.93441291969E+03  0.11798857121E+04  0.12699999809E+01 0.  1.
       -4    1    3    3    0  502  0.71842463045E+03 -0.53546489940E+02  0.50817758725E+03  0.88161627101E+03  0.12699999809E+01 0. -1.
</event>
<event>
 5   0  0.6214547E-05  0.2032733E+04  0.7818609E-02  0.8591468E-01
        1   -1    0    0  501    0  0.00000000000E+00  0.00000000000E+00  0.16798970223E+04  0.16798970223E+04  0.50400001928E-02 0. -1.
       -1   -1    0    0    0  501  0.00000000000E+00  0.00000000000E+00 -0.61491925810E+03  0.61491925812E+03  0.50400001928E-02 0.  1.
    10030    2    1    2    0    0  0.00000000000E+00  0.00000000000E+00  0.10649777642E+04  0.22948162804E+04  0.20327331656E+04 0.  0.
        3    1    3    3  502    0  0.52857333593E+03 -0.37261826568E+03 -0.35267315441E+03  0.73662236418E+03  0.10100000352E+00 0.  1.
       -3    1    3    3    0  502 -0.52857333593E+03  0.37261826568E+03  0.14176509186E+04  0.15581939162E+04  0.10100000352E+00 0. -1.
</event>
<event>
 5   0  0.1274868E-04  0.1998574E+04  0.7818609E-02  0.8607288E-01
       -2   -1    0    0    0  501  0.00000000000E+00  0.00000000000E+00  0.99770018890E+03  0.99770018890E+03  0.25500000920E-02 0. -1.
        2   -1    0    0  501    0  0.00000000000E+00  0.00000000000E+00 -0.10008762036E+04  0.10008762036E+04  0.25500000920E-02 0.  1.
    10030    2    1    2    0    0  0.00000000000E+00  0.00000000000E+00 -0.31760146678E+01  0.19985763925E+04  0.19985738689E+04 0.  0.
        1    1    3    3  502    0 -0.37836463679E+03 -0.41547180928E+03  0.82472880780E+03  0.99797506438E+03  0.50400001928E-02 0. -1.
       -1    1    3    3    0  502  0.37836463679E+03  0.41547180928E+03 -0.82790482247E+03  0.10006013281E+04  0.50400001928E-02 0.  1.
</event>
<event>
 5   0  0.6256535E-05  0.1997898E+04  0.7818609E-02  0.8607604E-01
       -1   -1    0    0    0  501  0.00000000000E+00  0.00000000000E+00  0.88660756875E+03  0.88660756877E+03  0.50400001928E-02 0.  1.
        1   -1    0    0  501    0  0.00000000000E+00  0.00000000000E+00 -0.11255248238E+04  0.11255248238E+04  0.50400001928E-02 0. -1.
    10030    2    1    2    0    0  0.00000000000E+00  0.00000000000E+00 -0.23891725508E+03  0.20121323926E+04  0.19978977228E+04 0.  0.
        1    1    3    3  502    0 -0.53897829441E+03 -0.52530952035E+02 -0.96486881873E+03  0.11064487969E+04  0.50400001928E-02 0. -1.
       -1    1    3    3    0  502  0.53897829441E+03  0.52530952035E+02  0.72595156365E+03  0.90568359572E+03  0.50400001928E-02 0.  1.
</event>
<event>
 5   0  0.1159914E-04  0.1984989E+04  0.7818609E-02  0.8613671E-01
        2   -1    0    0  501    0  0.00000000000E+00  0.00000000000E+00  0.13642552973E+04  0.13642552973E+04  0.25500000920E-02 0.  1.
       -2   -1    0    0    0  501  0.00000000000E+00  0.00000000000E+00 -0.72203863817E+03  0.72203863817E+03  0.25500000920E-02 0. -1.
    10030    2    1    2    0    0  0.00000000000E+00  0.00000000000E+00  0.64221665914E+03  0.20862939355E+04  0.19849887022E+04 0.  0.
        3    1    3    3  502    0 -0.75383429152E+03  0.27897314717E+03  0.93301771538E+03  0.12315089213E+04  0.10100000352E+00 0.  1.
       -3    1    3    3    0  502  0.75383429152E+03 -0.27897314717E+03 -0.29080105624E+03  0.85478501415E+03  0.10100000352E+00 0. -1.
</event>
<event>
 5   0  0.1159914E-04  0.1992732E+04  0.7818609E-02  0.8610026E-01
        2   -1    0    0  501    0  0.00000000000E+00  0.00000000000E+00  0.14574953193E+04  0.14574953193E+04  0.25500000920E-02 0. -1.
       -2   -1    0    0    0  501  0.00000000000E+00  0.00000000000E+00 -0.68113088136E+03  0.68113088136E+03  0.25500000920E-02 0.  1.
    10030    2    1    2    0    0  0.00000000000E+00  0.00000000000E+00  0.77636443798E+03  0.21386262007E+04  0.19927318650E+04 0.  0.
        3    1    3    3  502    0  0.42652049520E+03  0.86970209905E+01 -0.57815657183E+03  0.71851263228E+03  0.10100000352E+00 0.  1.
       -3    1    3    3    0  502 -0.42652049520E+03 -0.86970209905E+01  0.13545210098E+04  0.14201135684E+04  0.10100000352E+00 0. -1.
</event>
<event>
 5   0  0.1242761E-04  0.1986323E+04  0.7818609E-02  0.8613042E-01
       -2   -1    0    0    0  501  0.00000000000E+00  0.00000000000E+00  0.63428352026E+03  0.63428352027E+03  0.25500000920E-02 0.  1.
        2   -1    0    0  501    0  0.00000000000E+00  0.00000000000E+00 -0.15550930925E+04  0.15550930925E+04  0.25500000920E-02 0. -1.
    10030    2    1    2    0    0  0.00000000000E+00  0.00000000000E+00 -0.92080957228E+03  0.21893766128E+04  0.19863231571E+04 0.  0.
        4    1    3    3  502    0 -0.22907177836E+03  0.89588208800E+03 -0.61025148866E+02  0.92671693463E+03  0.12699999809E+01 0. -1.
       -4    1    3    3    0  502  0.22907177836E+03 -0.89588208800E+03 -0.85978442341E+03  0.12626596782E+04  0.12699999809E+01 0.  1.
</event>
<event>
 5   0  0.6214547E-05  0.2004828E+04  0.7818609E-02  0.8604367E-01
        1   -1    0    0  501    0  0.00000000000E+00  0.00000000000E+00  0.24916282278E+04  0.24916282278E+04  0.50400001928E-02 0.  1.
       -1   -1    0    0    0  501  0.00000000000E+00  0.00000000000E+00 -0.40328399589E+03  0.40328399593E+03  0.50400001928E-02 0. -1.
    10030    2    1    2    0    0  0.00000000000E+00  0.00000000000E+00  0.20883442319E+04  0.28949122237E+04  0.20048279607E+04 0.  0.
        3    1    3    3  502    0 -0.15290330516E+03  0.65768973730E+03 -0.25632180466E+02  0.67571608694E+03  0.10100000352E+00 0. -1.
       -3    1    3    3    0  502  0.15290330516E+03 -0.65768973730E+03  0.21139764123E+04  0.22191961367E+04  0.10100000352E+00 0.  1.
</event>
<event>
 5   0  0.1242761E-04  0.1957833E+04  0.7818609E-02  0.8626593E-01
        2   -1    0    0  501    0  0.00000000000E+00  0.00000000000E+00  0.12052315078E+04  0.12052315078E+04  0.25500000920E-02 0. -1.
       -2   -1    0    0    0  501  0.00000000000E+00  0.00000000000E+00 -0.79509852694E+03  0.79509852695E+03  0.25500000920E-02 0.  1.
    10030    2    1    2    0    0  0.00000000000E+00  0.00000000000E+00  0.41013298084E+03  0.20003300347E+04  0.19578332886E+04 0.  0.
        4    1    3    3  502    0 -0.41164670399E+03  0.36103110396E+02  0.11117519933E+04  0.11860651546E+04  0.12699999809E+01 0. -1.
       -4    1    3    3    0  502  0.41164670399E+03 -0.36103110396E+02 -0.70161901244E+03  0.81426488013E+03  0.12699999809E+01 0.  1.
</event>
<event>
 5   0  0.6168338E-05  0.1998139E+04  0.7818609E-02  0.8607491E-01
        1   -1    0    0  501    0  0.00000000000E+00  0.00000000000E+00  0.96102925584E+03  0.96102925585E+03  0.50400001928E-02 0. -1.
       -1   -1    0    0    0  501  0.00000000000E+00  0.00000000000E+00 -0.10386155156E+04  0.10386155156E+04  0.50400001928E-02 0.  1.
    10030    2    1    2    0    0  0.00000000000E+00  0.00000000000E+00 -0.77586259719E+02  0.19996447714E+04  0.19981390302E+04 0.  0.
        5    1    3    3  502    0  0.59868091013E+03 -0.79980199084E+03 -0.42764664395E+02  0.99997648134E+03  0.46999998093E+01 0. -1.
       -5    1    3    3    0  502 -0.59868091013E+03  0.79980199084E+03 -0.34821595324E+02  0.99966829009E+03  0.46999998093E+01 0.  1.
</event>
<event>
 5   0  0.1274868E-04  0.1943035E+04  0.7818609E-02  0.8633727E-01
       -2   -1    0    0    0  501  0.00000000000E+00  0.00000000000E+00  0.79409395015E+03  0.79409395015E+03  0.25500000920E-02 0. -1.
        2   -1    0    0  501    0  0.00000000000E+00  0.00000000000E+00 -0.11885821973E+04  0.11885821973E+04  0.25500000920E-02 0.  1.
    10030    2    1    2    0    0  0.00000000000E+00  0.00000000000E+00 -0.39448824712E+03  0.19826761474E+04  0.19430346699E+04 0.  0.
        1    1    3    3  502    0  0.10791193973E+03  0.66243649828E+03  0.51949562143E+03  0.84873011123E+03  0.50400001928E-02 0. -1.
       -1    1    3    3    0  502 -0.10791193973E+03 -0.66243649828E+03 -0.91398386855E+03  0.11339460362E+04  0.50400001928E-02 0.  1.
</event>
<event>
 5   0  0.6222733E-05  0.2020825E+04  0.7818609E-02  0.8596946E-01
        1   -1    0    0  501    0  0.00000000000E+00  0.00000000000E+00  0.11197195628E+04  0.11197195628E+04  0.50400001928E-02 0.  1.
       -1   -1    0    0    0  501  0.00000000000E+00  0.00000000000E+00 -0.91177604908E+03  0.91177604910E+03  0.50400001928E-02 0. -1.
    10030    2    1    2    0    0  0.00000000000E+00  0.00000000000E+00  0.20794351370E+03  0.20314956119E+04  0.20208250583E+04 0.  0.
        2    1    3    3  502    0 -0.14820510690E+03  0.20038040671E+02 -0.90058809890E+03  0.91292124560E+03  0.25500000920E-02 0. -1.
       -2    1    3    3    0  502  0.14820510690E+03 -0.20038040671E+02  0.11085316126E+04  0.11185743663E+04  0.25500000920E-02 0.  1.
</event>
<event>
 5   0  0.1244229E-04  0.2006234E+04  0.7818609E-02  0.8603711E-01
        2   -1    0    0  501    0  0.00000000000E+00  0.00000000000E+00  0.72384068647E+03  0.72384068648E+03  0.25500000920E-02 0. -1.
       -2   -1    0    0    0  501  0.00000000000E+00  0.00000000000E+00 -0.13901459563E+04  0.13901459563E+04  0.25500000920E-02 0.  1.
    10030    2    1    2    0    0  0.00000000000E+00  0.00000000000E+00 -0.66630526985E+03  0.21139866428E+04  0.20062344861E+04 0.  0.
        5    1    3    3  502    0  0.26414446007E+03 -0.95179818370E+03 -0.14903974331E+03  0.99896296897E+03  0.46999998093E+01 0. -1.
       -5    1    3    3    0  502 -0.26414446007E+03  0.95179818370E+03 -0.51726552654E+03  0.11150236738E+04  0.46999998093E+01 0.  1.
</event>
<event>
 5   0  0.6214547E-05  0.2023299E+04  0.7818609E-02  0.8595805E-01
        1   -1    0    0  501    0  0.00000000000E+00  0.00000000000E+00  0.81293066976E+03  0.81293066977E+03  0.50400001928E-02 0. -1.
       -1   -1    0    0    0  501  0.00000000000E+00  0.00000000000E+00 -0.12589443780E+04  0.12589443780E+04  0.50400001928E-02 0.  1.
    10030    2    1    2    0    0  0.00000000000E+00  0.00000000000E+00 -0.44601370828E+03  0.20718750478E+04  0.20232987881E+04 0.  0.
        3    1    3    3  502    0  0.67464633233E+03 -0.43592766651E+03  0.40678238483E+03  0.90036243978E+03  0.10100000352E+00 0. -1.
       -3    1    3    3    0  502 -0.67464633233E+03  0.43592766651E+03 -0.85279609312E+03  0.11715126080E+04  0.10100000352E+00 0.  1.
</event>
<event>
 5   0  0.6214547E-05  0.1996852E+04  0.7818609E-02  0.8608094E-01
        1   -1    0    0  501    0  0.00000000000E+00  0.00000000000E+00  0.14609954815E+04  0.14609954816E+04  0.50400001928E-02 0.  1.
       -1   -1    0    0    0  501  0.00000000000E+00  0.00000000000E+00 -0.68231182434E+03  0.68231182436E+03  0.50400001928E-02 0. -1.
    10030    2    1    2    0    0  0.00000000000E+00  0.00000000000E+00  0.77868365721E+03  0.21433073059E+04  0.19968520149E+04 0.  0.
        3    1    3    3  502    0  0.36117014597E+03 -0.12851314714E+03 -0.60017046731E+03  0.71215455019E+03  0.10100000352E+00 0. -1.
       -3    1    3    3    0  502 -0.36117014597E+03  0.12851314714E+03  0.13788541245E+04  0.14311527557E+04  0.10100000352E+00 0.  1.
</event>
<event>
 5   0  0.4479000E-05  0.2183084E+04  0.7818609E-02  0.8525502E-01
        3   -1    0    0  501    0  0.00000000000E+00  0.00000000000E+00  0.66342110708E+03  0.66342111476E+03  0.10100000352E+00 0. -1.
       -3   -1    0    0    0  501  0.00000000000E+00  0.00000000000E+00 -0.17959394208E+04  0.17959394237E+04  0.10100000352E+00 0.  1.
    10030    2    1    2    0    0  0.00000000000E+00  0.00000000000E+00 -0.11325183137E+04  0.24593605384E+04  0.21830841777E+04 0.  0.
        5    1    3    3  502    0 -0.37209720365E+03 -0.60335208239E+03  0.36881530022E+03  0.79908502674E+03  0.46999998093E+01 0. -1.
       -5    1    3    3    0  502  0.37209720365E+03  0.60335208239E+03 -0.15013336140E+04  0.16602755117E+04  0.46999998093E+01 0.  1.
</event>
<event>
 5   0  0.6214547E-05  0.1997587E+04  0.7818609E-02  0.8607750E-01
       -1   -1    0    0    0  501  0.00000000000E+00  0.00000000000E+00  0.10172157169E+04  0.10172157169E+04  0.50400001928E-02 0.  1.
        1   -1    0    0  501    0  0.00000000000E+00  0.00000000000E+00 -0.98070451056E+03  0.98070451058E+03  0.50400001928E-02 0. -1.
    10030    2    1    2    0    0  0.00000000000E+00  0.00000000000E+00  0.36511206329E+02  0.19979202275E+04  0.19975865857E+04 0.  0.
        3    1    3    3  502    0 -0.65224854762E+03  0.43729539297E+03 -0.59904486033E+03  0.98767919057E+03  0.10100000352E+00 0. -1.
       -3    1    3    3    0  502  0.65224854762E+03 -0.43729539297E+03  0.63555606666E+03  0.10102410369E+04  0.10100000352E+00 0.  1.
</event>
<event>
 5   0  0.6222733E-05  0.1999548E+04  0.7818609E-02  0.8606832E-01
        1   -1    0    0  501    0  0.00000000000E+00  0.00000000000E+00  0.13430665333E+04  0.13430665333E+04  0.50400001928E-02 0. -1.
       -1   -1    0    0    0  501  0.00000000000E+00  0.00000000000E+00 -0.74422841002E+03  0.74422841004E+03  0.50400001928E-02 0.  1.
    10030    2    1    2    0    0  0.00000000000E+00  0.00000000000E+00  0.59883812332E+03  0.20872949434E+04  0.19995482197E+04 0.  0.
        2    1    3    3  502    0  0.29912773420E+03  0.36942203324E+03  0.12175606784E+04  0.13070593122E+04  0.25500000920E-02 0. -1.
       -2    1    3    3    0  502 -0.29912773420E+03 -0.36942203324E+03 -0.61872255508E+03  0.78023563119E+03  0.25500000920E-02 0.  1.
</event>
<event>
 5   0  0.6168338E-05  0.1990121E+04  0.7818609E-02  0.8611254E-01
       -1   -1    0    0    0  501  0.00000000000E+00  0.00000000000E+00  0.85754132108E+03  0.85754132109E+03  0.50400001928E-02 0. -1.
        1   -1    0    0  501    0  0.00000000000E+00  0.00000000000E+00 -0.11546324750E+04  0.11546324750E+04  0.50400001928E-02 0.  1.
    10030    2    1    2    0    0  0.00000000000E+00  0.00000000000E+00 -0.29709115389E+03  0.20121737961E+04  0.19901206576E+04 0.  0.
        5    1    3    3  502    0 -0.66667360719E+03 -0.45841902746E+03  0.43711515558E+03  0.91961592662E+03  0.46999998093E+01 0.  1.
       -5    1    3    3    0  502  0.66667360719E+03  0.45841902746E+03 -0.73420630947E+03  0.10925578695E+04  0.46999998093E+01 0. -1.
</event>
<event>
 5   0  0.1244229E-04  0.2019467E+04  0.7818609E-02  0.8597573E-01
        2   -1    0    0  501    0  0.00000000000E+00  0.00000000000E+00  0.85871595810E+03  0.85871595811E+03  0.25500000920E-02 0.  1.
       -2   -1    0    0    0  501  0.00000000000E+00  0.00000000000E+00 -0.11873099319E+04  0.11873099319E+04  0.25500000920E-02 0. -1.
    10030    2    1    2    0    0  0.00000000000E+00  0.00000000000E+00 -0.32859397383E+03  0.20460258900E+04  0.20194672424E+04 0.  0.
        5    1    3    3  502    0 -0.77317173134E+03 -0.35279079707E+02 -0.82128538836E+03  0.11285259938E+04  0.46999998093E+01 0. -1.
       -5    1    3    3    0  502  0.77317173134E+03  0.35279079707E+02  0.49269141453E+03  0.91749989621E+03  0.46999998093E+01 0.  1.
</event>
<event>
 5   0  0.4479000E-05  0.1893540E+04  0.7818609E-02  0.8658078E-01
        3   -1    0    0  501    0  0.00000000000E+00  0.00000000000E+00  0.15657818800E+04  0.15657818833E+04  0.10100000352E+00 0. -1.
       -3   -1    0    0    0  501  0.00000000000E+00  0.00000000000E+00 -0.57247673596E+03  0.57247674487E+03  0.10100000352E+00 0.  1.
    10030    2    1    2    0    0  0.00000000000E+00  0.00000000000E+00  0.99330514405E+03  0.21382586281E+04  0.18935402957E+04 0.  0.
        4    1    3    3  502    0 -0.72122798760E+03  0.94506427641E+02  0.11810035572E+04  0.13870372346E+04  0.12699999809E+01 0. -1.
       -4    1    3    3    0  502  0.72122798760E+03 -0.94506427641E+02 -0.18769841318E+03  0.75122139358E+03  0.12699999809E+01 0.  1.
</event>
<event>
 5   0  0.1274868E-04  0.2003206E+04  0.7818609E-02  0.8605123E-01
       -2   -1    0    0    0  501  0.00000000000E+00  0.00000000000E+00  0.23376815556E+04  0.23376815556E+04  0.25500000920E-02 0.  1.
        2   -1    0    0  501    0  0.00000000000E+00  0.00000000000E+00 -0.42914695286E+03  0.42914695286E+03  0.25500000920E-02 0. -1.
    10030    2    1    2    0    0  0.00000000000E+00  0.00000000000E+00  0.19085346027E+04  0.27668285084E+04  0.20032063462E+04 0.  0.
        1    1    3    3  502    0  0.36265492791E+03  0.70806985258E+03  0.11374453828E+03  0.80362885270E+03  0.50400001928E-02 0. -1.
       -1    1    3    3    0  502 -0.36265492791E+03 -0.70806985258E+03  0.17947900644E+04  0.19631996557E+04  0.50400001928E-02 0.  1.
</event>
<event>
 5   0  0.6256535E-05  0.2001266E+04  0.7818609E-02  0.8606029E-01
       -1   -1    0    0    0  501  0.00000000000E+00  0.00000000000E+00  0.11291393275E+04  0.11291393275E+04  0.50400001928E-02 0.  1.
        1   -1    0    0  501    0  0.00000000000E+00  0.00000000000E+00 -0.88675224597E+03  0.88675224598E+03  0.50400001928E-02 0. -1.
    10030    2    1    2    0    0  0.00000000000E+00  0.00000000000E+00  0.24238708152E+03  0.20158915735E+04  0.20012664337E+04 0.  0.
        1    1    3    3  502    0  0.83699232155E+03  0.34995496529E+03  0.54646627372E+03  0.10590797951E+04  0.50400001928E-02 0.  1.
       -1    1    3    3    0  502 -0.83699232155E+03 -0.34995496529E+03 -0.30407919220E+03  0.95681177837E+03  0.50400001928E-02 0. -1.
</event>
<event>
 5   0  0.1242761E-04  0.1929815E+04  0.7818609E-02  0.8640156E-01
       -2   -1    0    0    0  501  0.00000000000E+00  0.00000000000E+00  0.14422461266E+04  0.14422461266E+04  0.25500000920E-02 0.  1.
        2   -1    0    0  501    0  0.00000000000E+00  0.00000000000E+00 -0.64555285871E+03  0.64555285872E+03  0.25500000920E-02 0. -1.
    10030    2    1    2    0    0  0.00000000000E+00  0.00000000000E+00  0.79669326792E+03  0.20877989854E+04  0.19298146129E+04 0.  0.
        4    1    3    3  502    0 -0.53405187332E+03  0.79801207263E+03  0.50103737442E+03  0.10830857468E+04  0.12699999809E+01 0.  1.
       -4    1    3    3    0  502  0.53405187332E+03 -0.79801207263E+03  0.29565589350E+03  0.10047132386E+04  0.12699999809E+01 0. -1.
</event>
<event>
 5   0  0.1159914E-04  0.1977019E+04  0.7818609E-02  0.8617441E-01
       -2   -1    0    0    0  501  0.00000000000E+00  0.00000000000E+00  0.46601219882E+03  0.46601219883E+03  0.25500000920E-02 0.  1.
        2   -1    0    0  501    0  0.00000000000E+00  0.00000000000E+00 -0.20968364365E+04  0.20968364365E+04  0.25500000920E-02 0. -1.
    10030    2    1    2    0    0  0.00000000000E+00  0.00000000000E+00 -0.16308242377E+04  0.25628486354E+04  0.19770193306E+04 0.  0.
        3    1    3    3  502    0 -0.95289657627E+03 -0.15088935810E+02 -0.11557096495E+04  0.14979667437E+04  0.10100000352E+00 0. -1.
       -3    1    3    3    0  502  0.95289657627E+03  0.15088935810E+02 -0.47511458817E+03  0.10648818916E+04  0.10100000352E+00 0.  1.
</event>
<event>
 5   0  0.6214547E-05  0.2056095E+04  0.7818609E-02  0.8580834E-01
        1   -1    0    0  501    0  0.00000000000E+00  0.00000000000E+00  0.10943393300E+04  0.10943393300E+04  0.50400001928E-02 0. -1.
       -1   -1    0    0    0  501  0.00000000000E+00  0.00000000000E+00 -0.96577143058E+03  0.96577143059E+03  0.50400001928E-02 0.  1.
    10030    2    1    2    0    0  0.00000000000E+00  0.00000000000E+00  0.12856789945E+03  0.20601107606E+04  0.20560949981E+04 0.  0.
        3    1    3    3  502    0  0.36745809439E+03 -0.41059279243E+03 -0.80532231522E+03  0.97578477848E+03  0.10100000352E+00 0.  1.
       -3    1    3    3    0  502 -0.36745809439E+03  0.41059279243E+03  0.93389021467E+03  0.10843259822E+04  0.10100000352E+00 0. -1.
</event>
<event>
 5   0  0.6168338E-05  0.1998131E+04  0.7818609E-02  0.8607495E-01
       -1   -1    0    0    0  501  0.00000000000E+00  0.00000000000E+00  0.11430141336E+04  0.11430141336E+04  0.50400001928E-02 0. -1.
        1   -1    0    0  501    0  0.00000000000E+00  0.00000000000E+00 -0.87324508757E+03  0.87324508759E+03  0.50400001928E-02 0.  1.
    10030    2    1    2    0    0  0.00000000000E+00  0.00000000000E+00  0.26976904601E+03  0.20162592212E+04  0.19981306035E+04 0.  0.
        5    1    3    3  502    0  0.95797599081E+03  0.21299015435E+03  0.32373643117E+03  0.10333973929E+04  0.46999998093E+01 0. -1.
       -5    1    3    3    0  502 -0.95797599081E+03 -0.21299015435E+03 -0.53967385153E+02  0.98286182827E+03  0.46999998093E+01 0.  1.
</event>
<event>
 5   0  0.6028501E-05  0.1994319E+04  0.7818609E-02  0.8609281E-01
       -1   -1    0    0    0  501  0.00000000000E+00  0.00000000000E+00  0.10312195018E+04  0.10312195018E+04  0.50400001928E-02 0. -1.
        1   -1    0    0  501    0  0.00000000000E+00  0.00000000000E+00 -0.96422410156E+03  0.96422410158E+03  0.50400001928E-02 0.  1.
    10030    2    1    2    0    0  0.00000000000E+00  0.00000000000E+00  0.66995400271E+02  0.19954436034E+04  0.19943186282E+04 0.  0.
        4    1    3    3  502    0  0.77344494608E+03  0.57856440893E+03  0.28136960700E+03  0.10060438999E+04  0.12699999809E+01 0. -1.
       -4    1    3    3    0  502 -0.77344494608E+03 -0.57856440893E+03 -0.21437420673E+03  0.98939970351E+03  0.12699999809E+01 0.  1.
</event>
<event>
 5   0  0.1159914E-04  0.1991370E+04  0.7818609E-02  0.8610666E-01
       -2   -1    0    0    0  501  0.00000000000E+00  0.00000000000E+00  0.10358027600E+04  0.10358027600E+04  0.25500000920E-02 0. -1.
        2   -1    0    0  501    0  0.00000000000E+00  0.00000000000E+00 -0.95712145453E+03  0.95712145454E+03  0.25500000920E-02 0.  1.
    10030    2    1    2    0    0  0.00000000000E+00  0.00000000000E+00  0.78681305506E+02  0.19929242146E+04  0.19913704269E+04 0.  0.
        3    1    3    3  502    0  0.59865106869E+03  0.61151991814E+03 -0.47002535650E+03  0.97635216919E+03  0.10100000352E+00 0. -1.
       -3    1    3    3    0  502 -0.59865106869E+03 -0.61151991814E+03  0.54870666201E+03  0.10165720454E+04  0.10100000352E+00 0.  1.
</event>
<event>
 5   0  0.1281789E-04  0.1982529E+04  0.7818609E-02  0.8614833E-01
        2   -1    0    0  501    0  0.00000000000E+00  0.00000000000E+00  0.65107065747E+03  0.65107065747E+03  0.25500000920E-02 0.  1.
       -2   -1    0    0    0  501  0.00000000000E+00  0.00000000000E+00 -0.15092140282E+04  0.15092140282E+04  0.25500000920E-02 0. -1.
    10030    2    1    2    0    0  0.00000000000E+00  0.00000000000E+00 -0.85814337074E+03  0.21602846857E+04  0.19825286577E+04 0.  0.
        2    1    3    3  502    0 -0.80106570385E+03  0.32916319051E+03  0.96400783345E+02  0.87140563396E+03  0.25500000920E-02 0.  1.
       -2    1    3    3    0  502  0.80106570385E+03 -0.32916319051E+03 -0.95454415409E+03  0.12888790517E+04  0.25500000920E-02 0. -1.
</event>
<event>
 5   0  0.1159914E-04  0.1980209E+04  0.7818609E-02  0.8615930E-01
        2   -1    0    0  501    0  0.00000000000E+00  0.00000000000E+00  0.10637007856E+04  0.10637007856E+04  0.25500000920E-02 0.  1.
       -2   -1    0    0    0  501  0.00000000000E+00  0.00000000000E+00 -0.92159990613E+03  0.92159990613E+03  0.25500000920E-02 0. -1.
    10030    2    1    2    0    0  0.00000000000E+00  0.00000000000E+00  0.14210087946E+03  0.19853006917E+04  0.19802086195E+04 0.  0.
        3    1    3    3  502    0 -0.15564269437E+03  0.74374679898E+03  0.70744455182E+03  0.10382012105E+04  0.10100000352E+00 0.  1.
       -3    1    3    3    0  502  0.15564269437E+03 -0.74374679898E+03 -0.56534367236E+03  0.94709948125E+03  0.10100000352E+00 0. -1.
</event>
<event>
 5   0  0.1281789E-04  0.1995172E+04  0.7818609E-02  0.8608881E-01
       -2   -1    0    0    0  501  0.00000000000E+00  0.00000000000E+00  0.77141221725E+03  0.77141221725E+03  0.25500000920E-02 0. -1.
        2   -1    0    0  501    0  0.00000000000E+00  0.00000000000E+00 -0.12900732291E+04  0.12900732291E+04  0.25500000920E-02 0.  1.
    10030    2    1    2    0    0  0.00000000000E+00  0.00000000000E+00 -0.51866101186E+03  0.20614854464E+04  0.19951724237E+04 0.  0.
        2    1    3    3  502    0 -0.36944284192E+03 -0.47503372580E+03  0.56274759999E+03  0.82391135166E+03  0.25500000920E-02 0. -1.
       -2    1    3    3    0  502  0.36944284192E+03  0.47503372580E+03 -0.10814086119E+04  0.12375740947E+04  0.25500000920E-02 0.  1.
</event>
<event>
 5   0  0.1159914E-04  0.2000414E+04  0.7818609E-02  0.8606427E-01
        2   -1    0    0  501    0  0.00000000000E+00  0.00000000000E+00  0.70317735511E+03  0.70317735512E+03  0.25500000920E-02 0. -1.
       -2   -1    0    0    0  501  0.00000000000E+00  0.00000000000E+00 -0.14227058376E+04  0.14227058376E+04  0.25500000920E-02 0.  1.
    10030    2    1    2    0    0  0.00000000000E+00  0.00000000000E+00 -0.71952848250E+03  0.21258831927E+04  0.20004144851E+04 0.  0.
        3    1    3    3  502    0  0.71057041484E+03  0.63725176430E+03 -0.67754172531E+03  0.11704968711E+04  0.10100000352E+00 0.  1.
       -3    1    3    3    0  502 -0.71057041484E+03 -0.63725176430E+03 -0.41986757191E+02  0.95538632162E+03  0.10100000352E+00 0. -1.
</event>
<event>
 5   0  0.1244229E-04  0.1979127E+04  0.7818609E-02  0.8616442E-01
        2   -1    0    0  501    0  0.00000000000E+00  0.00000000000E+00  0.79361847089E+03  0.79361847089E+03  0.25500000920E-02 0. -1.
       -2   -1    0    0    0  501  0.00000000000E+00  0.00000000000E+00 -0.12338878900E+04  0.12338878900E+04  0.25500000920E-02 0.  1.
    10030    2    1    2    0    0  0.00000000000E+00  0.00000000000E+00 -0.44026941912E+03  0.20275063609E+04  0.19791273032E+04 0.  0.
        5    1    3    3  502    0  0.39593614740E+03  0.16030782960E+03 -0.11345627981E+04  0.12123196220E+04  0.46999998093E+01 0.  1.
       -5    1    3    3    0  502 -0.39593614740E+03 -0.16030782960E+03  0.69429337903E+03  0.81518673886E+03  0.46999998093E+01 0. -1.
</event>
<event>
 5   0  0.1242761E-04  0.2003770E+04  0.7818609E-02  0.8604860E-01
       -2   -1    0    0    0  501  0.00000000000E+00  0.00000000000E+00  0.68229911178E+03  0.68229911179E+03  0.25500000920E-02 0. -1.
        2   -1    0    0  501    0  0.00000000000E+00  0.00000000000E+00 -0.14711641463E+04  0.14711641463E+04  0.25500000920E-02 0.  1.
    10030    2    1    2    0    0  0.00000000000E+00  0.00000000000E+00 -0.78886503448E+03  0.21534632581E+04  0.20037704362E+04 0.  0.
        4    1    3    3  502    0  0.49395153678E+03 -0.44813503141E+03 -0.11979208512E+04  0.13710685999E+04  0.12699999809E+01 0.  1.
       -4    1    3    3    0  502 -0.49395153678E+03  0.44813503141E+03  0.40905581668E+03  0.78239465816E+03  0.12699999809E+01 0. -1.
</event>
<event>
 5   0  0.1242761E-04  0.2007244E+04  0.7818609E-02  0.8603241E-01
       -2   -1    0    0    0  501  0.00000000000E+00  0.00000000000E+00  0.75183409262E+03  0.75183409263E+03  0.25500000920E-02 0. -1.
        2   -1    0    0  501    0  0.00000000000E+00  0.00000000000E+00 -0.13397337014E+04  0.13397337014E+04  0.25500000920E-02 0.  1.
    10030    2    1    2    0    0  0.00000000000E+00  0.00000000000E+00 -0.58789960880E+03  0.20915677940E+04  0.20072443516E+04 0.  0.
        4    1    3    3  502    0 -0.57318445757E+03  0.38843188085E+03 -0.10509940286E+04  0.12585745149E+04  0.12699999809E+01 0.  1.
       -4    1    3    3    0  502  0.57318445757E+03 -0.38843188085E+03  0.46309441985E+03  0.83299327912E+03  0.12699999809E+01 0. -1.
</event>
<event>
 5   0  0.6256535E-05  0.2000152E+04  0.7818609E-02  0.8606550E-01
       -1   -1    0    0    0  501  0.00000000000E+00  0.00000000000E+00  0.12923082427E+04  0.12923082427E+04  0.50400001928E-02 0.  1.
        1   -1    0    0  501    0  0.00000000000E+00  0.00000000000E+00 -0.77392668654E+03  0.77392668656E+03  0.50400001928E-02 0. -1.
    10030    2    1    2    0    0  0.00000000000E+00  0.00000000000E+00  0.51838155617E+03  0.20662349293E+04  0.20001518305E+04 0.  0.
        1    1    3    3  502    0 -0.81553827771E+03  0.65321200603E+02  0.85332950692E+03  0.11821762936E+04  0.50400001928E-02 0.  1.
       -1    1    3    3    0  502  0.81553827771E+03 -0.65321200603E+02 -0.33494795075E+03  0.88405863572E+03  0.50400001928E-02 0. -1.
</event>
<event>
 5   0  0.1281789E-04  0.1928954E+04  0.7818609E-02  0.8640577E-01
        2   -1    0    0  501    0  0.00000000000E+00  0.00000000000E+00  0.21155861918E+04  0.21155861918E+04  0.25500000920E-02 0.  1.
       -2   -1    0    0    0  501  0.00000000000E+00  0.00000000000E+00 -0.43969658194E+03  0.43969658195E+03  0.25500000920E-02 0. -1.
    10030    2    1    2    0    0  0.00000000000E+00  0.00000000000E+00  0.16758896099E+04  0.25552827738E+04  0.19289541388E+04 0.  0.
        2    1    3    3  502    0 -0.92918825926E+03  0.14244157166E+03  0.11237102417E+04  0.14650614764E+04  0.25500000920E-02 0. -1.
       -2    1    3    3    0  502  0.92918825926E+03 -0.14244157166E+03  0.55217936820E+03  0.10902212973E+04  0.25500000920E-02 0.  1.
</event>
<event>
 5   0  0.6168338E-05  0.1997387E+04  0.7818609E-02  0.8607843E-01
       -1   -1    0    0    0  501  0.00000000000E+00  0.00000000000E+00  0.91746741772E+03  0.91746741773E+03  0.50400001928E-02 0.  1.
        1   -1    0    0  501    0  0.00000000000E+00  0.00000000000E+00 -0.10871107383E+04  0.10871107383E+04  0.50400001928E-02 0. -1.
    10030    2    1    2    0    0  0.00000000000E+00  0.00000000000E+00 -0.16964332057E+03  0.20045781560E+04  0.19973869749E+04 0.  0.
        5    1    3    3  502    0 -0.14240223807E+03  0.49377540505E+03 -0.94421886384E+03  0.10750180933E+04  0.46999998093E+01 0. -1.
       -5    1    3    3    0  502  0.14240223807E+03 -0.49377540505E+03  0.77457554327E+03  0.92956006276E+03  0.46999998093E+01 0.  1.
</event>
<event>
 5   0  0.6028501E-05  0.1989916E+04  0.7818609E-02  0.8611350E-01
        1   -1    0    0  501    0  0.00000000000E+00  0.00000000000E+00  0.83998417532E+03  0.83998417533E+03  0.50400001928E-02 0.  1.
       -1   -1    0    0    0  501  0.00000000000E+00  0.00000000000E+00 -0.11785240143E+04  0.11785240143E+04  0.50400001928E-02 0. -1.
    10030    2    1    2    0    0  0.00000000000E+00  0.00000000000E+00 -0.33853983900E+03  0.20185081897E+04  0.19899161010E+04 0.  0.
        4    1    3    3  502    0  0.40528153080E+03 -0.48776887704E+03 -0.94694616658E+03  0.11396842773E+04  0.12699999809E+01 0. -1.
       -4    1    3    3    0  502 -0.40528153080E+03  0.48776887704E+03  0.60840632758E+03  0.87882391237E+03  0.12699999809E+01 0.  1.
</event>
<event>
 5   0  0.6168338E-05  0.2010299E+04  0.7818609E-02  0.8601821E-01
       -1   -1    0    0    0  501  0.00000000000E+00  0.00000000000E+00  0.10167715709E+04  0.10167715710E+04  0.50400001928E-02 0.  1.
        1   -1    0    0  501    0  0.00000000000E+00  0.00000000000E+00 -0.99366021869E+03  0.99366021870E+03  0.50400001928E-02 0. -1.
    10030    2    1    2    0    0  0.00000000000E+00  0.00000000000E+00  0.23111352256E+02  0.20104317897E+04  0.20102989445E+04 0.  0.
        5    1    3    3  502    0 -0.16443552928E+03  0.98958361941E+03  0.74715122247E+02  0.10059419579E+04  0.46999998093E+01 0. -1.
       -5    1    3    3    0  502  0.16443552928E+03 -0.98958361941E+03 -0.51603769991E+02  0.10044898318E+04  0.46999998093E+01 0.  1.
</event>
<event>
 5   0  0.1274868E-04  0.2000807E+04  0.7818609E-02  0.8606244E-01
        2   -1    0    0  501    0  0.00000000000E+00  0.00000000000E+00  0.14729185013E+04  0.14729185013E+04  0.25500000920E-02 0. -1.
       -2   -1    0    0    0  501  0.00000000000E+00  0.00000000000E+00 -0.67947188539E+03  0.67947188540E+03  0.25500000920E-02 0.  1.
    10030    2    1    2    0    0  0.00000000000E+00  0.00000000000E+00  0.79344661588E+03  0.21523903867E+04  0.20008065485E+04 0.  0.
        1    1    3    3  502    0 -0.26489888862E+03  0.85749146021E+03  0.87218511012E+03  0.12514670958E+04  0.50400001928E-02 0. -1.
       -1    1    3    3    0  502  0.26489888862E+03 -0.85749146021E+03 -0.78738494239E+02  0.90092329087E+03  0.50400001928E-02 0.  1.
</event>
<event>
 5   0  0.1159914E-04  0.1987916E+04  0.7818609E-02  0.8612291E-01
        2   -1    0    0  501    0  0.00000000000E+00  0.00000000000E+00  0.21453531371E+04  0.21453531371E+04  0.25500000920E-02 0. -1.
       -2   -1    0    0    0  501  0.00000000000E+00  0.00000000000E+00 -0.46050815371E+03  0.46050815372E+03  0.25500000920E-02 0.  1.
    10030    2    1    2    0    0  0.00000000000E+00  0.00000000000E+00  0.16848449834E+04  0.26058612909E+04  0.19879161071E+04 0.  0.
        3    1    3    3  502    0 -0.91329100053E+02  0.30916280403E+02  0.21392082282E+04  0.21413800864E+04  0.10100000352E+00 0. -1.
       -3    1    3    3    0  502  0.91329100053E+02 -0.30916280403E+02 -0.45436324473E+03  0.46448120444E+03  0.10100000352E+00 0.  1.
</event>
<event>
 5   0  0.1244229E-04  0.1962193E+04  0.7818609E-02  0.8624503E-01
       -2   -1    0    0    0  501  0.00000000000E+00  0.00000000000E+00  0.66931463584E+03  0.66931463585E+03  0.25500000920E-02 0. -1.
        2   -1    0    0  501    0  0.00000000000E+00  0.00000000000E+00 -0.14381137683E+04  0.14381137683E+04  0.25500000920E-02 0.  1.
    10030    2    1    2    0    0  0.00000000000E+00  0.00000000000E+00 -0.76879913243E+03  0.21074284041E+04  0.19621932556E+04 0.  0.
        5    1    3    3  502    0  0.53727253210E+03 -0.81994958426E+03 -0.42667558081E+03  0.10691366778E+04  0.46999998093E+01 0. -1.
       -5    1    3    3    0  502 -0.53727253210E+03  0.81994958426E+03 -0.34212355162E+03  0.10382917264E+04  0.46999998093E+01 0.  1.
</event>
<event>
 5   0  0.6168338E-05  0.2022350E+04  0.7818609E-02  0.8596242E-01
        1   -1    0    0  501    0  0.00000000000E+00  0.00000000000E+00  0.89407436015E+03  0.89407436017E+03  0.50400001928E-02 0.  1.
       -1   -1    0    0    0  501  0.00000000000E+00  0.00000000000E+00 -0.11436124426E+04  0.11436124426E+04  0.50400001928E-02 0. -1.
    10030    2    1    2    0    0  0.00000000000E+00  0.00000000000E+00 -0.24953808245E+03  0.20376868028E+04  0.20223496858E+04 0.  0.
        5    1    3    3  502    0 -0.50052361130E+03  0.34321592163E+03  0.69014853620E+03  0.91904741246E+03  0.46999998093E+01 0.  1.
       -5    1    3    3    0  502  0.50052361130E+03 -0.34321592163E+03 -0.93968661865E+03  0.11186393903E+04  0.46999998093E+01 0. -1.
</event>
<event>
 5   0  0.1159914E-04  0.1998921E+04  0.7818609E-02  0.8607125E-01
       -2   -1    0    0    0  501  0.00000000000E+00  0.00000000000E+00  0.78372408813E+03  0.78372408813E+03  0.25500000920E-02 0. -1.
        2   -1    0    0  501    0  0.00000000000E+00  0.00000000000E+00 -0.12745830355E+04  0.12745830355E+04  0.25500000920E-02 0.  1.
    10030    2    1    2    0    0  0.00000000000E+00  0.00000000000E+00 -0.49085894740E+03  0.20583071237E+04  0.19989211363E+04 0.  0.
        3    1    3    3  502    0 -0.86196102028E+03 -0.39275688267E+03 -0.57378662713E+03  0.11074591970E+04  0.10100000352E+00 0. -1.
       -3    1    3    3    0  502  0.86196102028E+03  0.39275688267E+03  0.82927679735E+02  0.95084792666E+03  0.10100000352E+00 0.  1.
</event>
<event>
 5   0  0.1242761E-04  0.2361091E+04  0.7818609E-02  0.8454216E-01
       -2   -1    0    0    0  501  0.00000000000E+00  0.00000000000E+00  0.87461320813E+03  0.87461320814E+03  0.25500000920E-02 0. -1.
        2   -1    0    0  501    0  0.00000000000E+00  0.00000000000E+00 -0.15934901003E+04  0.15934901003E+04  0.25500000920E-02 0.  1.
    10030    2    1    2    0    0  0.00000000000E+00  0.00000000000E+00 -0.71887689213E+03  0.24681033084E+04  0.23610908400E+04 0.  0.
        4    1    3    3  502    0  0.63867386358E+03 -0.95975761478E+03 -0.62521977296E+03  0.13114649673E+04  0.12699999809E+01 0.  1.
       -4    1    3    3    0  502 -0.63867386358E+03  0.95975761478E+03 -0.93657119174E+02  0.11566383411E+04  0.12699999809E+01 0. -1.
</event>
<event>
 5   0  0.1244229E-04  0.1986673E+04  0.7818609E-02  0.8612877E-01
       -2   -1    0    0    0  501  0.00000000000E+00  0.00000000000E+00  0.61164374201E+03  0.61164374201E+03  0.25500000920E-02 0. -1.
        2   -1    0    0  501    0  0.00000000000E+00  0.00000000000E+00 -0.16132216540E+04  0.16132216540E+04  0.25500000920E-02 0.  1.
    10030    2    1    2    0    0  0.00000000000E+00  0.00000000000E+00 -0.10015779120E+04  0.22248653961E+04  0.19866725238E+04 0.  0.
        5    1    3    3  502    0  0.27137014573E+03 -0.75815414984E+03 -0.11521170405E+04  0.14056440645E+04  0.46999998093E+01 0.  1.
       -5    1    3    3    0  502 -0.27137014573E+03  0.75815414984E+03  0.15053912850E+03  0.81922133158E+03  0.46999998093E+01 0. -1.
</event>
<event>
 5   0  0.6168338E-05  0.2015758E+04  0.7818609E-02  0.8599289E-01
       -1   -1    0    0    0  501  0.00000000000E+00  0.00000000000E+00  0.76272216265E+03  0.76272216267E+03  0.50400001928E-02 0.  1.
        1   -1    0    0  501    0  0.00000000000E+00  0.00000000000E+00 -0.13318344883E+04  0.13318344883E+04  0.50400001928E-02 0. -1.
    10030    2    1    2    0    0  0.00000000000E+00  0.00000000000E+00 -0.56911232561E+03  0.20945566509E+04  0.20157576057E+04 0.  0.
        5    1    3    3  502    0  0.65062630010E+03  0.32766165357E+03 -0.10082898269E+04  0.12439241161E+04  0.46999998093E+01 0. -1.
       -5    1    3    3    0  502 -0.65062630010E+03 -0.32766165357E+03  0.43917750132E+03  0.85063253481E+03  0.46999998093E+01 0.  1.
</event>
<event>
 5   0  0.1159914E-04  0.2022971E+04  0.7818609E-02  0.8595956E-01
        2   -1    0    0  501    0  0.00000000000E+00  0.00000000000E+00  0.13329065473E+04  0.13329065473E+04  0.25500000920E-02 0.  1.
       -2   -1    0    0    0  501  0.00000000000E+00  0.00000000000E+00 -0.76757284703E+03  0.76757284703E+03  0.25500000920E-02 0. -1.
    10030    2    1    2    0    0  0.00000000000E+00  0.00000000000E+00  0.56533370026E+03  0.21004793943E+04  0.20229709571E+04 0.  0.
        3    1    3    3  502    0 -0.29465277349E+02  0.45970327648E+03  0.12176729664E+04  0.13018919956E+04  0.10100000352E+00 0.  1.
       -3    1    3    3    0  502  0.29465277349E+02 -0.45970327648E+03 -0.65233926615E+03  0.79858739868E+03  0.10100000352E+00 0. -1.
</event>
<event>
 5   0  0.1274868E-04  0.1967741E+04  0.7818609E-02  0.8621853E-01
        2   -1    0    0  501    0  0.00000000000E+00  0.00000000000E+00  0.16828846289E+04  0.16828846290E+04  0.25500000920E-02 0. -1.
       -2   -1    0    0    0  501  0.00000000000E+00  0.00000000000E+00 -0.57520337045E+03  0.57520337045E+03  0.25500000920E-02 0.  1.
    10030    2    1    2    0    0  0.00000000000E+00  0.00000000000E+00  0.11076812585E+04  0.22580879994E+04  0.19677407458E+04 0.  0.
        1    1    3    3  502    0  0.20864086549E+03 -0.75837440674E+03  0.12321003047E+04  0.14617571318E+04  0.50400001928E-02 0. -1.
       -1    1    3    3    0  502 -0.20864086549E+03  0.75837440674E+03 -0.12441904622E+03  0.79633086757E+03  0.50400001928E-02 0.  1.
</event>
<event>
 5   0  0.1242761E-04  0.1979784E+04  0.7818609E-02  0.8616131E-01
        2   -1    0    0  501    0  0.00000000000E+00  0.00000000000E+00  0.11890156307E+04  0.11890156307E+04  0.25500000920E-02 0. -1.
       -2   -1    0    0    0  501  0.00000000000E+00  0.00000000000E+00 -0.82411538840E+03  0.82411538841E+03  0.25500000920E-02 0.  1.
    10030    2    1    2    0    0  0.00000000000E+00  0.00000000000E+00  0.36490024234E+03  0.20131310192E+04  0.19797839057E+04 0.  0.
        4    1    3    3  502    0  0.73415965398E+03  0.63758056889E+03  0.37100566650E+03  0.10407430984E+04  0.12699999809E+01 0.  1.
       -4    1    3    3    0  502 -0.73415965398E+03 -0.63758056889E+03 -0.61054241546E+01  0.97238792077E+03  0.12699999809E+01 0. -1.
</event>
<event>
 5   0  0.1274868E-04  0.1951996E+04  0.7818609E-02  0.8629399E-01
        2   -1    0    0  501    0  0.00000000000E+00  0.00000000000E+00  0.17497745192E+04  0.17497745192E+04  0.25500000920E-02 0.  1.
       -2   -1    0    0    0  501  0.00000000000E+00  0.00000000000E+00 -0.54439727235E+03  0.54439727235E+03  0.25500000920E-02 0. -1.
    10030    2    1    2    0    0  0.00000000000E+00  0.00000000000E+00  0.12053772468E+04  0.22941717915E+04  0.19519963888E+04 0.  0.
        1    1    3    3  502    0  0.32916342595E+03 -0.76849135110E+03  0.10772674139E+02  0.83608825386E+03  0.50400001928E-02 0. -1.
       -1    1    3    3    0  502 -0.32916342595E+03  0.76849135110E+03  0.11946045727E+04  0.14580835376E+04  0.50400001928E-02 0.  1.
</event>
<event>
 5   0  0.1159914E-04  0.1995607E+04  0.7818609E-02  0.8608677E-01
        2   -1    0    0  501    0  0.00000000000E+00  0.00000000000E+00  0.14898725861E+04  0.14898725861E+04  0.25500000920E-02 0.  1.
       -2   -1    0    0    0  501  0.00000000000E+00  0.00000000000E+00 -0.66825272325E+03  0.66825272326E+03  0.25500000920E-02 0. -1.
    10030    2    1    2    0    0  0.00000000000E+00  0.00000000000E+00  0.82161986283E+03  0.21581253093E+04  0.19956065874E+04 0.  0.
        3    1    3    3  502    0  0.21293728422E+03 -0.73484380876E+03 -0.28187950415E+03  0.81534886726E+03  0.10100000352E+00 0. -1.
       -3    1    3    3    0  502 -0.21293728422E+03  0.73484380876E+03  0.11034993670E+04  0.13427764421E+04  0.10100000352E+00 0.  1.
</event>
<event>
 5   0  0.1281789E-04  0.2002628E+04  0.7818609E-02  0.8605393E-01
        2   -1    0    0  501    0  0.00000000000E+00  0.00000000000E+00  0.10012038550E+04  0.10012038550E+04  0.25500000920E-02 0. -1.
       -2   -1    0    0    0  501  0.00000000000E+00  0.00000000000E+00 -0.10014237098E+04  0.10014237098E+04  0.25500000920E-02 0.  1.
    10030    2    1    2    0    0  0.00000000000E+00  0.00000000000E+00 -0.21985477617E+00  0.20026275648E+04  0.20026275527E+04 0.  0.
        2    1    3    3  502    0  0.68842726121E+03 -0.37751617388E+02  0.72602505078E+03  0.10012340650E+04  0.25500000920E-02 0. -1.
       -2    1    3    3    0  502 -0.68842726121E+03  0.37751617388E+02 -0.72624490555E+03  0.10013934998E+04  0.25500000920E-02 0.  1.
</event>
<event>
 5   0  0.1274868E-04  0.2045677E+04  0.7818609E-02  0.8585558E-01
        2   -1    0    0  501    0  0.00000000000E+00  0.00000000000E+00  0.20623119993E+04  0.20623119993E+04  0.25500000920E-02 0. -1.
       -2   -1    0    0    0  501  0.00000000000E+00  0.00000000000E+00 -0.50729395570E+03  0.50729395570E+03  0.25500000920E-02 0.  1.
    10030    2    1    2    0    0  0.00000000000E+00  0.00000000000E+00  0.15550180436E+04  0.25696059550E+04  0.20456768191E+04 0.  0.
        1    1    3    3  502    0  0.39653721742E+02  0.34747175078E+03 -0.42985851037E+03  0.55415464828E+03  0.50400001928E-02 0.  1.
       -1    1    3    3    0  502 -0.39653721742E+02 -0.34747175078E+03  0.19848765540E+04  0.20154513067E+04  0.50400001928E-02 0. -1.
</event>
<event>
 5   0  0.1281789E-04  0.1996401E+04  0.7818609E-02  0.8608305E-01
        2   -1    0    0  501    0  0.00000000000E+00  0.00000000000E+00  0.58986941143E+03  0.58986941143E+03  0.25500000920E-02 0. -1.
       -2   -1    0    0    0  501  0.00000000000E+00  0.00000000000E+00 -0.16891948929E+04  0.16891948929E+04  0.25500000920E-02 0.  1.
    10030    2    1    2    0    0  0.00000000000E+00  0.00000000000E+00 -0.10993254815E+04  0.22790643043E+04  0.19964011594E+04 0.  0.
        2    1    3    3  502    0 -0.88538075676E+03  0.26165464854E+03 -0.98292770840E+03  0.13485210860E+04  0.25500000920E-02 0.  1.
       -2    1    3    3    0  502  0.88538075676E+03 -0.26165464854E+03 -0.11639777307E+03  0.93054321830E+03  0.25500000920E-02 0. -1.
</event>
<event>
 5   0  0.6256535E-05  0.1992017E+04  0.7818609E-02  0.8610362E-01
        1   -1    0    0  501    0  0.00000000000E+00  0.00000000000E+00  0.83148691842E+03  0.83148691843E+03  0.50400001928E-02 0. -1.
       -1   -1    0    0    0  501  0.00000000000E+00  0.00000000000E+00 -0.11930829156E+04  0.11930829156E+04  0.50400001928E-02 0.  1.
    10030    2    1    2    0    0  0.00000000000E+00  0.00000000000E+00 -0.36159599721E+03  0.20245698341E+04  0.19920169045E+04 0.  0.
        1    1    3    3  502    0 -0.70099116985E+03  0.70212941774E+03 -0.91855048818E+02  0.99639936244E+03  0.50400001928E-02 0.  1.
       -1    1    3    3    0  502  0.70099116985E+03 -0.70212941774E+03 -0.26974094840E+03  0.10281704716E+04  0.50400001928E-02 0. -1.
</event>
<event>
 5   0  0.6222733E-05  0.1997246E+04  0.7818609E-02  0.8607909E-01
        1   -1    0    0  501    0  0.00000000000E+00  0.00000000000E+00  0.88462962468E+03  0.88462962470E+03  0.50400001928E-02 0. -1.
       -1   -1    0    0    0  501  0.00000000000E+00  0.00000000000E+00 -0.11273059664E+04  0.11273059664E+04  0.50400001928E-02 0.  1.
    10030    2    1    2    0    0  0.00000000000E+00  0.00000000000E+00 -0.24267634167E+03  0.20119355911E+04  0.19972463583E+04 0.  0.
        2    1    3    3  502    0 -0.75327501992E+03  0.49902581720E+02  0.53717813115E+03  0.92653864889E+03  0.25500000920E-02 0. -1.
       -2    1    3    3    0  502  0.75327501992E+03 -0.49902581720E+02 -0.77985447282E+03  0.10853969422E+04  0.25500000920E-02 0.  1.
</event>
<event>
 5   0  0.6028501E-05  0.2035514E+04  0.7818609E-02  0.8590195E-01
        1   -1    0    0  501    0  0.00000000000E+00  0.00000000000E+00  0.59280694088E+03  0.59280694091E+03  0.50400001928E-02 0.  1.
       -1   -1    0    0    0  501  0.00000000000E+00  0.00000000000E+00 -0.17473291875E+04  0.17473291875E+04  0.50400001928E-02 0. -1.
    10030    2    1    2    0    0  0.00000000000E+00  0.00000000000E+00 -0.11545222466E+04  0.23401361284E+04  0.20355135670E+04 0.  0.
        4    1    3    3  502    0 -0.64066708644E+03  0.65957597301E+03 -0.75700341409E+02  0.92261960439E+03  0.12699999809E+01 0.  1.
       -4    1    3    3    0  502  0.64066708644E+03 -0.65957597301E+03 -0.10788219052E+04  0.14175165240E+04  0.12699999809E+01 0. -1.
</event>
<event>
 5   0  0.4479000E-05  0.1721429E+04  0.7818609E-02  0.8749236E-01
        3   -1    0    0  501    0  0.00000000000E+00  0.00000000000E+00  0.10478417410E+04  0.10478417459E+04  0.10100000352E+00 0. -1.
       -3   -1    0    0    0  501  0.00000000000E+00  0.00000000000E+00 -0.70700511847E+03  0.70700512568E+03  0.10100000352E+00 0.  1.
    10030    2    1    2    0    0  0.00000000000E+00  0.00000000000E+00  0.34083662257E+03  0.17548468716E+04  0.17214290399E+04 0.  0.
        2    1    3    3  502    0 -0.60635419662E+03 -0.22982110577E+03  0.74739727430E+03  0.98948766443E+03  0.25500000920E-02 0. -1.
       -2    1    3    3    0  502  0.60635419662E+03  0.22982110577E+03 -0.40656065174E+03  0.76535920715E+03  0.25500000920E-02 0.  1.
</event>
<event>
 5   0  0.1159914E-04  0.1998020E+04  0.7818609E-02  0.8607547E-01
       -2   -1    0    0    0  501  0.00000000000E+00  0.00000000000E+00  0.49906792848E+03  0.49906792849E+03  0.25500000920E-02 0. -1.
        2   -1    0    0  501    0  0.00000000000E+00  0.00000000000E+00 -0.19997696585E+04  0.19997696585E+04  0.25500000920E-02 0.  1.
    10030    2    1    2    0    0  0.00000000000E+00  0.00000000000E+00 -0.15007017300E+04  0.24988375870E+04  0.19980199207E+04 0.  0.
        3    1    3    3  502    0 -0.15557095176E+03 -0.48106630647E+03  0.32724366402E+03  0.60225869698E+03  0.10100000352E+00 0. -1.
       -3    1    3    3    0  502  0.15557095176E+03  0.48106630647E+03 -0.18279453940E+04  0.18965788900E+04  0.10100000352E+00 0.  1.
</event>
<event>
 5   0  0.1159914E-04  0.2028880E+04  0.7818609E-02  0.8593236E-01
       -2   -1    0    0    0  501  0.00000000000E+00  0.00000000000E+00  0.46013695838E+03  0.46013695839E+03  0.25500000920E-02 0. -1.
        2   -1    0    0  501    0  0.00000000000E+00  0.00000000000E+00 -0.22364838754E+04  0.22364838754E+04  0.25500000920E-02 0.  1.
    10030    2    1    2    0    0  0.00000000000E+00  0.00000000000E+00 -0.17763469171E+04  0.26966208338E+04  0.20288803690E+04 0.  0.
        3    1    3    3  502    0 -0.19004121141E+03  0.29646919670E+03  0.37629134463E+03  0.51536863784E+03  0.10100000352E+00 0. -1.
       -3    1    3    3    0  502  0.19004121141E+03 -0.29646919670E+03 -0.21526382617E+04  0.21812521960E+04  0.10100000352E+00 0.  1.
</event>
<event>
 5   0  0.6214547E-05  0.1958431E+04  0.7818609E-02  0.8626306E-01
       -1   -1    0    0    0  501  0.00000000000E+00  0.00000000000E+00  0.62891300835E+03  0.62891300838E+03  0.50400001928E-02 0.  1.
        1   -1    0    0  501    0  0.00000000000E+00  0.00000000000E+00 -0.15246356949E+04  0.15246356949E+04  0.50400001928E-02 0. -1.
    10030    2    1    2    0    0  0.00000000000E+00  0.00000000000E+00 -0.89572268656E+03  0.21535487033E+04  0.19584312309E+04 0.  0.
        3    1    3    3  502    0 -0.32153270499E+03  0.89196849195E+03 -0.17879537965E+03  0.96486209843E+03  0.10100000352E+00 0.  1.
       -3    1    3    3    0  502  0.32153270499E+03 -0.89196849195E+03 -0.71692730691E+03  0.11886866049E+04  0.10100000352E+00 0. -1.
</event>
<event>
 5   0  0.6028501E-05  0.1993968E+04  0.7818609E-02  0.8609446E-01
        1   -1    0    0  501    0  0.00000000000E+00  0.00000000000E+00  0.13410820525E+04  0.13410820526E+04  0.50400001928E-02 0.  1.
       -1   -1    0    0    0  501  0.00000000000E+00  0.00000000000E+00 -0.74117574199E+03  0.74117574201E+03  0.50400001928E-02 0. -1.
    10030    2    1    2    0    0  0.00000000000E+00  0.00000000000E+00  0.59990631056E+03  0.20822577946E+04  0.19939683903E+04 0.  0.
        4    1    3    3  502    0 -0.30861247752E+03  0.24520267512E+03 -0.65635136618E+03  0.76561396405E+03  0.12699999809E+01 0. -1.
       -4    1    3    3    0  502  0.30861247752E+03 -0.24520267512E+03  0.12562576767E+04  0.13166438305E+04  0.12699999809E+01 0.  1.
</event>
<event>
 5   0  0.6168338E-05  0.2007868E+04  0.7818609E-02  0.8602951E-01
       -1   -1    0    0    0  501  0.00000000000E+00  0.00000000000E+00  0.10044177037E+04  0.10044177037E+04  0.50400001928E-02 0.  1.
        1   -1    0    0  501    0  0.00000000000E+00  0.00000000000E+00 -0.10034500699E+04  0.10034500699E+04  0.50400001928E-02 0. -1.
    10030    2    1    2    0    0  0.00000000000E+00  0.00000000000E+00  0.96763373410E+00  0.20078677736E+04  0.20078675404E+04 0.  0.
        5    1    3    3  502    0  0.71961833765E+03  0.63244642799E+02 -0.69666078875E+03  0.10035979181E+04  0.46999998093E+01 0. -1.
       -5    1    3    3    0  502 -0.71961833765E+03 -0.63244642799E+02  0.69762842248E+03  0.10042698555E+04  0.46999998093E+01 0.  1.
</event>
<event>
 5   0  0.1242761E-04  0.2009924E+04  0.7818609E-02  0.8601995E-01
        2   -1    0    0  501    0  0.00000000000E+00  0.00000000000E+00  0.14856967611E+04  0.14856967611E+04  0.25500000920E-02 0. -1.
       -2   -1    0    0    0  501  0.00000000000E+00  0.00000000000E+00 -0.67978106914E+03  0.67978106915E+03  0.25500000920E-02 0.  1.
    10030    2    1    2    0    0  0.00000000000E+00  0.00000000000E+00  0.80591569191E+03  0.21654778302E+04  0.20099239117E+04 0.  0.
        4    1    3    3  502    0 -0.72824624704E+03 -0.32615329292E+03  0.10611632430E+04  0.13277001198E+04  0.12699999809E+01 0. -1.
       -4    1    3    3    0  502  0.72824624704E+03  0.32615329292E+03 -0.25524755113E+03  0.83777771042E+03  0.12699999809E+01 0.  1.
</event>
<event>
 5   0  0.1242761E-04  0.1996375E+04  0.7818609E-02  0.8608318E-01
       -2   -1    0    0    0  501  0.00000000000E+00  0.00000000000E+00  0.11823336031E+04  0.11823336031E+04  0.25500000920E-02 0. -1.
        2   -1    0    0  501    0  0.00000000000E+00  0.00000000000E+00 -0.84272145531E+03  0.84272145531E+03  0.25500000920E-02 0.  1.
    10030    2    1    2    0    0  0.00000000000E+00  0.00000000000E+00  0.33961214779E+03  0.20250550584E+04  0.19963746088E+04 0.  0.
        4    1    3    3  502    0 -0.83209396721E+03  0.16928105048E+03 -0.36246065970E+03  0.92326366063E+03  0.12699999809E+01 0.  1.
       -4    1    3    3    0  502  0.83209396721E+03 -0.16928105048E+03  0.70207280749E+03  0.11017913978E+04  0.12699999809E+01 0. -1.
</event>
<event>
 5   0  0.1159914E-04  0.1965889E+04  0.7818609E-02  0.8622737E-01
       -2   -1    0    0    0  501  0.00000000000E+00  0.00000000000E+00  0.34913435116E+03  0.34913435117E+03  0.25500000920E-02 0. -1.
        2   -1    0    0  501    0  0.00000000000E+00  0.00000000000E+00 -0.27673570922E+04  0.27673570922E+04  0.25500000920E-02 0.  1.
    10030    2    1    2    0    0  0.00000000000E+00  0.00000000000E+00 -0.24182227410E+04  0.31164914434E+04  0.19658885246E+04 0.  0.
        3    1    3    3  502    0 -0.85073066904E+03 -0.49226181784E+03 -0.12261149039E+04  0.15714395109E+04  0.10100000352E+00 0.  1.
       -3    1    3    3    0  502  0.85073066904E+03  0.49226181784E+03 -0.11921078371E+04  0.15450519325E+04  0.10100000352E+00 0. -1.
</event>
<event>
 5   0  0.6256535E-05  0.1987714E+04  0.7818609E-02  0.8612386E-01
        1   -1    0    0  501    0  0.00000000000E+00  0.00000000000E+00  0.11402625133E+04  0.11402625133E+04  0.50400001928E-02 0.  1.
       -1   -1    0    0    0  501  0.00000000000E+00  0.00000000000E+00 -0.86624946485E+03  0.86624946487E+03  0.50400001928E-02 0. -1.
    10030    2    1    2    0    0  0.00000000000E+00  0.00000000000E+00  0.27401304843E+03  0.20065119782E+04  0.19877140558E+04 0.  0.
        1    1    3    3  502    0 -0.33102287200E+03  0.92977756695E+03  0.25511440658E+03  0.10193850236E+04  0.50400001928E-02 0. -1.
       -1    1    3    3    0  502  0.33102287200E+03 -0.92977756695E+03  0.18898641857E+02  0.98712695460E+03  0.50400001928E-02 0.  1.
</event>
<event>
 5   0  0.1242761E-04  0.1994872E+04  0.7818609E-02  0.8609022E-01
       -2   -1    0    0    0  501  0.00000000000E+00  0.00000000000E+00  0.74813499247E+03  0.74813499247E+03  0.25500000920E-02 0. -1.
        2   -1    0    0  501    0  0.00000000000E+00  0.00000000000E+00 -0.13298121480E+04  0.13298121480E+04  0.25500000920E-02 0.  1.
    10030    2    1    2    0    0  0.00000000000E+00  0.00000000000E+00 -0.58167715551E+03  0.20779471405E+04  0.19948724283E+04 0.  0.
        4    1    3    3  502    0 -0.85934707204E+03 -0.44729404629E+03 -0.53805747558E+03  0.11081772485E+04  0.12699999809E+01 0.  1.
       -4    1    3    3    0  502  0.85934707204E+03  0.44729404629E+03 -0.43619679933E+02  0.96976989201E+03  0.12699999809E+01 0. -1.
</event>
<event>
 5   0  0.6028501E-05  0.1977385E+04  0.7818609E-02  0.8617268E-01
        1   -1    0    0  501    0  0.00000000000E+00  0.00000000000E+00  0.70820590598E+03  0.70820590599E+03  0.50400001928E-02 0. -1.
       -1   -1    0    0    0  501  0.00000000000E+00  0.00000000000E+00 -0.13802658110E+04  0.13802658110E+04  0.50400001928E-02 0.  1.
    10030    2    1    2    0    0  0.00000000000E+00  0.00000000000E+00 -0.67205990506E+03  0.20884717170E+04  0.19773845344E+04 0.  0.
        4    1    3    3  502    0 -0.44027235171E+03  0.20286294932E+03 -0.12461336121E+04  0.13371027305E+04  0.12699999809E+01 0.  1.
       -4    1    3    3    0  502  0.44027235171E+03 -0.20286294932E+03  0.57407370703E+03  0.75136898651E+03  0.12699999809E+01 0. -1.
</event>
<event>
 5   0  0.1274868E-04  0.1890494E+04  0.7818609E-02  0.8659602E-01
        2   -1    0    0  501    0  0.00000000000E+00  0.00000000000E+00  0.22402560541E+04  0.22402560541E+04  0.25500000920E-02 0.  1.
       -2   -1    0    0    0  501  0.00000000000E+00  0.00000000000E+00 -0.39883483083E+03  0.39883483084E+03  0.25500000920E-02 0. -1.
    10030    2    1    2    0    0  0.00000000000E+00  0.00000000000E+00  0.18414212232E+04  0.26390908849E+04  0.18904942680E+04 0.  0.
        1    1    3    3  502    0 -0.12410393800E+02  0.79246018073E+03  0.16398025608E+04  0.18212906397E+04  0.50400001928E-02 0. -1.
       -1    1    3    3    0  502  0.12410393800E+02 -0.79246018073E+03  0.20161866241E+03  0.81780024516E+03  0.50400001928E-02 0.  1.
</event>
<event>
 5   0  0.1244229E-04  0.1999457E+04  0.7818609E-02  0.8606874E-01
       -2   -1    0    0    0  501  0.00000000000E+00  0.00000000000E+00  0.52168629506E+03  0.52168629506E+03  0.25500000920E-02 0. -1.
        2   -1    0    0  501    0  0.00000000000E+00  0.00000000000E+00 -0.19158203870E+04  0.19158203870E+04  0.25500000920E-02 0.  1.
    10030    2    1    2    0    0  0.00000000000E+00  0.00000000000E+00 -0.13941340920E+04  0.24375066821E+04  0.19994571661E+04 0.  0.
        5    1    3    3  502    0 -0.83830521493E+02 -0.73562491290E+03  0.12186686079E+03  0.75036337236E+03  0.46999998093E+01 0. -1.
       -5    1    3    3    0  502  0.83830521493E+02  0.73562491290E+03 -0.15160009528E+04  0.16871433098E+04  0.46999998093E+01 0.  1.
</event>
<event>
 5   0  0.6256535E-05  0.1992791E+04  0.7818609E-02  0.8609999E-01
        1   -1    0    0  501    0  0.00000000000E+00  0.00000000000E+00  0.16795546772E+04  0.16795546772E+04  0.50400001928E-02 0.  1.
       -1   -1    0    0    0  501  0.00000000000E+00  0.00000000000E+00 -0.59111125153E+03  0.59111125155E+03  0.50400001928E-02 0. -1.
    10030    2    1    2    0    0  0.00000000000E+00  0.00000000000E+00  0.10884434256E+04  0.22706659287E+04  0.19927906737E+04 0.  0.
        1    1    3    3  502    0  0.57401232169E+03 -0.74577708217E+03  0.17127460236E+03  0.95656081416E+03  0.50400001928E-02 0. -1.
       -1    1    3    3    0  502 -0.57401232169E+03  0.74577708217E+03  0.91716882328E+03  0.13141051146E+04  0.50400001928E-02 0.  1.
</event>
<event>
 5   0  0.6256535E-05  0.2015307E+04  0.7818609E-02  0.8599497E-01
        1   -1    0    0  501    0  0.00000000000E+00  0.00000000000E+00  0.67439999359E+03  0.67439999361E+03  0.50400001928E-02 0. -1.
       -1   -1    0    0    0  501  0.00000000000E+00  0.00000000000E+00 -0.15055840155E+04  0.15055840155E+04  0.50400001928E-02 0.  1.
    10030    2    1    2    0    0  0.00000000000E+00  0.00000000000E+00 -0.83118402191E+03  0.21799840091E+04  0.20153072723E+04 0.  0.
        1    1    3    3  502    0 -0.81405210219E+03 -0.12715823525E+02 -0.10578447569E+04  0.13348700487E+04  0.50400001928E-02 0.  1.
       -1    1    3    3    0  502  0.81405210219E+03  0.12715823525E+02  0.22666073498E+03  0.84511396040E+03  0.50400001928E-02 0. -1.
</event>
<event>
 5   0  0.6028501E-05  0.1840051E+04  0.7818609E-02  0.8685286E-01
        1   -1    0    0  501    0  0.00000000000E+00  0.00000000000E+00  0.70537118888E+03  0.70537118889E+03  0.50400001928E-02 0. -1.
       -1   -1    0    0    0  501  0.00000000000E+00  0.00000000000E+00 -0.12000022501E+04  0.12000022501E+04  0.50400001928E-02 0.  1.
    10030    2    1    2    0    0  0.00000000000E+00  0.00000000000E+00 -0.49463106126E+03  0.19053734390E+04  0.18400511013E+04 0.  0.
        4    1    3    3  502    0  0.17716694920E+02 -0.27391134099E+03 -0.11566145608E+04  0.11887388944E+04  0.12699999809E+01 0.  1.
       -4    1    3    3    0  502 -0.17716694920E+02  0.27391134099E+03  0.66198349952E+03  0.71663454462E+03  0.12699999809E+01 0. -1.
</event>
<event>
 5   0  0.1242761E-04  0.1979100E+04  0.7818609E-02  0.8616455E-01
       -2   -1    0    0    0  501  0.00000000000E+00  0.00000000000E+00  0.10412601337E+04  0.10412601337E+04  0.25500000920E-02 0.  1.
        2   -1    0    0  501    0  0.00000000000E+00  0.00000000000E+00 -0.94040777444E+03  0.94040777444E+03  0.25500000920E-02 0. -1.
    10030    2    1    2    0    0  0.00000000000E+00  0.00000000000E+00  0.10085235923E+03  0.19816679081E+04  0.19790999216E+04 0.  0.
        4    1    3    3  502    0  0.27463212897E+03 -0.75327548938E+03 -0.53029251369E+03  0.96127963265E+03  0.12699999809E+01 0. -1.
       -4    1    3    3    0  502 -0.27463212897E+03  0.75327548938E+03  0.63114487292E+03  0.10203882755E+04  0.12699999809E+01 0.  1.
</event>
<event>
 5   0  0.6256535E-05  0.1917606E+04  0.7818609E-02  0.8646142E-01
       -1   -1    0    0    0  501  0.00000000000E+00  0.00000000000E+00  0.76243095384E+03  0.76243095386E+03  0.50400001928E-02 0.  1.
        1   -1    0    0  501    0  0.00000000000E+00  0.00000000000E+00 -0.12057531860E+04  0.12057531860E+04  0.50400001928E-02 0. -1.
    10030    2    1    2    0    0  0.00000000000E+00  0.00000000000E+00 -0.44332223218E+03  0.19681841399E+04  0.19176063744E+04 0.  0.
        1    1    3    3  502    0  0.31889981032E+03  0.33446408006E+03 -0.10839021840E+04  0.11783069440E+04  0.50400001928E-02 0. -1.
       -1    1    3    3    0  502 -0.31889981032E+03 -0.33446408006E+03  0.64057995181E+03  0.78987719587E+03  0.50400001928E-02 0.  1.
</event>
<event>
 5   0  0.1274868E-04  0.1998931E+04  0.7818609E-02  0.8607121E-01
       -2   -1    0    0    0  501  0.00000000000E+00  0.00000000000E+00  0.81141605195E+03  0.81141605196E+03  0.25500000920E-02 0. -1.
        2   -1    0    0  501    0  0.00000000000E+00  0.00000000000E+00 -0.12310958080E+04  0.12310958080E+04  0.25500000920E-02 0.  1.
    10030    2    1    2    0    0  0.00000000000E+00  0.00000000000E+00 -0.41967975607E+03  0.20425118600E+04  0.19989306142E+04 0.  0.
        1    1    3    3  502    0 -0.76783518500E+03 -0.33881904451E+03  0.34472836258E+03  0.90730747833E+03  0.50400001928E-02 0. -1.
       -1    1    3    3    0  502  0.76783518500E+03  0.33881904451E+03 -0.76440811865E+03  0.11352043817E+04  0.50400001928E-02 0.  1.
</event>
<event>
 5   0  0.4479000E-05  0.2040633E+04  0.7818609E-02  0.8587855E-01
        3   -1    0    0  501    0  0.00000000000E+00  0.00000000000E+00  0.90410218891E+03  0.90410219455E+03  0.10100000352E+00 0. -1.
       -3   -1    0    0    0  501  0.00000000000E+00  0.00000000000E+00 -0.11514694402E+04  0.11514694446E+04  0.10100000352E+00 0.  1.
    10030    2    1    2    0    0  0.00000000000E+00  0.00000000000E+00 -0.24736725131E+03  0.20555716392E+04  0.20406332857E+04 0.  0.
        2    1    3    3  502    0  0.10094344495E+04 -0.22117973763E+02  0.24358005345E+02  0.10099705070E+04  0.25500000920E-02 0. -1.
       -2    1    3    3    0  502 -0.10094344495E+04  0.22117973763E+02 -0.27172525665E+03  0.10456011322E+04  0.25500000920E-02 0.  1.
</event>
<event>
 5   0  0.1159914E-04  0.1958755E+04  0.7818609E-02  0.8626151E-01
       -2   -1    0    0    0  501  0.00000000000E+00  0.00000000000E+00  0.60572576540E+03  0.60572576540E+03  0.25500000920E-02 0.  1.
        2   -1    0    0  501    0  0.00000000000E+00  0.00000000000E+00 -0.15835221755E+04  0.15835221755E+04  0.25500000920E-02 0. -1.
    10030    2    1    2    0    0  0.00000000000E+00  0.00000000000E+00 -0.97779641009E+03  0.21892479409E+04  0.19587548920E+04 0.  0.
        3    1    3    3  502    0  0.92903971758E+03  0.28042551569E+03 -0.63644337128E+03  0.11605229174E+04  0.10100000352E+00 0. -1.
       -3    1    3    3    0  502 -0.92903971758E+03 -0.28042551569E+03 -0.34135303882E+03  0.10287250235E+04  0.10100000352E+00 0.  1.
</event>
<event>
 5   0  0.6256535E-05  0.2001123E+04  0.7818609E-02  0.8606096E-01
       -1   -1    0    0    0  501  0.00000000000E+00  0.00000000000E+00  0.91455892733E+03  0.91455892735E+03  0.50400001928E-02 0. -1.
        1   -1    0    0  501    0  0.00000000000E+00  0.00000000000E+00 -0.10946519048E+04  0.10946519048E+04  0.50400001928E-02 0.  1.
    10030    2    1    2    0    0  0.00000000000E+00  0.00000000000E+00 -0.18009297745E+03  0.20092108321E+04  0.20011233564E+04 0.  0.
        1    1    3    3  502    0  0.88788421863E+03 -0.27846158088E+03  0.27919572880E+03  0.97150887424E+03  0.50400001928E-02 0. -1.
       -1    1    3    3    0  502 -0.88788421863E+03  0.27846158088E+03 -0.45928870626E+03  0.10377019579E+04  0.50400001928E-02 0.  1.
</event>
<event>
 5   0  0.4479000E-05  0.1997890E+04  0.7818609E-02  0.8607608E-01
        3   -1    0    0  501    0  0.00000000000E+00  0.00000000000E+00  0.10219262071E+04  0.10219262121E+04  0.10100000352E+00 0.  1.
       -3   -1    0    0    0  501  0.00000000000E+00  0.00000000000E+00 -0.97648103648E+03  0.97648104170E+03  0.10100000352E+00 0. -1.
    10030    2    1    2    0    0  0.00000000000E+00  0.00000000000E+00  0.45445170608E+02  0.19984072538E+04  0.19978904596E+04 0.  0.
        2    1    3    3  502    0 -0.75529839254E+03  0.54182606762E+03 -0.34321412061E+03  0.99088197173E+03  0.25500000920E-02 0.  1.
       -2    1    3    3    0  502  0.75529839254E+03 -0.54182606762E+03  0.38865929121E+03  0.10075252821E+04  0.25500000920E-02 0. -1.
</event>
<event>
 5   0  0.1244229E-04  0.1942357E+04  0.7818609E-02  0.8634055E-01
        2   -1    0    0  501    0  0.00000000000E+00  0.00000000000E+00  0.12091091899E+04  0.12091091899E+04  0.25500000920E-02 0.  1.
       -2   -1    0    0    0  501  0.00000000000E+00  0.00000000000E+00 -0.78006786351E+03  0.78006786351E+03  0.25500000920E-02 0. -1.
    10030    2    1    2    0    0  0.00000000000E+00  0.00000000000E+00  0.42904132634E+03  0.19891770534E+04  0.19423565301E+04 0.  0.
        5    1    3    3  502    0  0.65972909041E+03  0.78950543667E+02 -0.51085333562E+03  0.83813416682E+03  0.46999998093E+01 0. -1.
       -5    1    3    3    0  502 -0.65972909041E+03 -0.78950543667E+02  0.93989466196E+03  0.11510428865E+04  0.46999998093E+01 0.  1.
</event>
<event>
 5   0  0.6256535E-05  0.2006185E+04  0.7818609E-02  0.8603735E-01
        1   -1    0    0  501    0  0.00000000000E+00  0.00000000000E+00  0.83169409848E+03  0.83169409849E+03  0.50400001928E-02 0. -1.
       -1   -1    0    0    0  501  0.00000000000E+00  0.00000000000E+00 -0.12098128505E+04  0.12098128505E+04  0.50400001928E-02 0.  1.
    10030    2    1    2    0    0  0.00000000000E+00  0.00000000000E+00 -0.37811875205E+03  0.20415069490E+04  0.20061846456E+04 0.  0.
        1    1    3    3  502    0  0.22436323847E+03 -0.51639640725E+03 -0.10338507568E+04  0.11772219415E+04  0.50400001928E-02 0.  1.
       -1    1    3    3    0  502 -0.22436323847E+03  0.51639640725E+03  0.65573200474E+03  0.86428500754E+03  0.50400001928E-02 0. -1.
</event>
<event>
 5   0  0.6168338E-05  0.2026741E+04  0.7818609E-02  0.8594220E-01
        1   -1    0    0  501    0  0.00000000000E+00  0.00000000000E+00  0.18881079711E+04  0.18881079711E+04  0.50400001928E-02 0.  1.
       -1   -1    0    0    0  501  0.00000000000E+00  0.00000000000E+00 -0.54388813858E+03  0.54388813861E+03  0.50400001928E-02 0. -1.
    10030    2    1    2    0    0  0.00000000000E+00  0.00000000000E+00  0.13442198325E+04  0.24319961097E+04  0.20267407628E+04 0.  0.
        5    1    3    3  502    0  0.81937946660E+03 -0.36270181258E+03  0.12399838875E+04  0.15298749774E+04  0.46999998093E+01 0.  1.
       -5    1    3    3    0  502 -0.81937946660E+03  0.36270181258E+03  0.10423594498E+03  0.90212113231E+03  0.46999998093E+01 0. -1.
</event>
<event>
 5   0  0.6214547E-05  0.2007207E+04  0.7818609E-02  0.8603259E-01
       -1   -1    0    0    0  501  0.00000000000E+00  0.00000000000E+00  0.48589260510E+03  0.48589260513E+03  0.50400001928E-02 0.  1.
        1   -1    0    0  501    0  0.00000000000E+00  0.00000000000E+00 -0.20729271340E+04  0.20729271340E+04  0.50400001928E-02 0. -1.
    10030    2    1    2    0    0  0.00000000000E+00  0.00000000000E+00 -0.15870345289E+04  0.25588197391E+04  0.20072069802E+04 0.  0.
        3    1    3    3  502    0  0.54674284439E+03  0.73998480018E+03 -0.28245319134E+03  0.96243704100E+03  0.10100000352E+00 0.  1.
       -3    1    3    3    0  502 -0.54674284439E+03 -0.73998480018E+03 -0.13045813376E+04  0.15963826981E+04  0.10100000352E+00 0. -1.
</event>
<event>
 5   0  0.1242761E-04  0.2000956E+04  0.7818609E-02  0.8606174E-01
       -2   -1    0    0    0  501  0.00000000000E+00  0.00000000000E+00  0.82421329200E+03  0.82421329200E+03  0.25500000920E-02 0. -1.
        2   -1    0    0  501    0  0.00000000000E+00  0.00000000000E+00 -0.12144382866E+04  0.12144382866E+04  0.25500000920E-02 0.  1.
    10030    2    1    2    0    0  0.00000000000E+00  0.00000000000E+00 -0.39022499464E+03  0.20386515786E+04  0.20009559497E+04 0.  0.
        4    1    3    3  502    0 -0.41384049564E+03 -0.70015581043E+03  0.39850644069E+03  0.90569923865E+03  0.12699999809E+01 0.  1.
       -4    1    3    3    0  502  0.41384049564E+03  0.70015581043E+03 -0.78873143533E+03  0.11329523400E+04  0.12699999809E+01 0. -1.
</event>
<event>
 5   0  0.6222733E-05  0.1859943E+04  0.7818609E-02  0.8675056E-01
        1   -1    0    0  501    0  0.00000000000E+00  0.00000000000E+00  0.81193116073E+03  0.81193116074E+03  0.50400001928E-02 0. -1.
       -1   -1    0    0    0  501  0.00000000000E+00  0.00000000000E+00 -0.10651728969E+04  0.10651728969E+04  0.50400001928E-02 0.  1.
    10030    2    1    2    0    0  0.00000000000E+00  0.00000000000E+00 -0.25324173620E+03  0.18771040577E+04  0.18599430815E+04 0.  0.
        2    1    3    3  502    0  0.40664234479E+03 -0.39311161924E+03 -0.87164089866E+03  0.10390633272E+04  0.25500000920E-02 0.  1.
       -2    1    3    3    0  502 -0.40664234479E+03  0.39311161924E+03  0.61839916246E+03  0.83804073046E+03  0.25500000920E-02 0. -1.
</event>
<event>
 5   0  0.4479000E-05  0.1886486E+04  0.7818609E-02  0.8661612E-01
        3   -1    0    0  501    0  0.00000000000E+00  0.00000000000E+00  0.19249300212E+04  0.19249300238E+04  0.10100000352E+00 0.  1.
       -3   -1    0    0    0  501  0.00000000000E+00  0.00000000000E+00 -0.46220257843E+03  0.46220258947E+03  0.10100000352E+00 0. -1.
    10030    2    1    2    0    0  0.00000000000E+00  0.00000000000E+00  0.14627274428E+04  0.23871326133E+04  0.18864862951E+04 0.  0.
        5    1    3    3  502    0 -0.61768837057E+03 -0.47055865880E+03  0.14089315426E+04  0.16087493765E+04  0.46999998093E+01 0. -1.
       -5    1    3    3    0  502  0.61768837057E+03  0.47055865880E+03  0.53795900122E+02  0.77838323683E+03  0.46999998093E+01 0.  1.
</event>
<event>
 5   0  0.1274868E-04  0.1996596E+04  0.7818609E-02  0.8608214E-01
       -2   -1    0    0    0  501  0.00000000000E+00  0.00000000000E+00  0.78508807830E+03  0.78508807831E+03  0.25500000920E-02 0.  1.
        2   -1    0    0  501    0  0.00000000000E+00  0.00000000000E+00 -0.12694097392E+04  0.12694097392E+04  0.25500000920E-02 0. -1.
    10030    2    1    2    0    0  0.00000000000E+00  0.00000000000E+00 -0.48432166093E+03  0.20544978175E+04  0.19965955552E+04 0.  0.
        1    1    3    3  502    0 -0.42176332149E+03 -0.42745809405E+03 -0.10627806500E+04  0.12206995664E+04  0.50400001928E-02 0. -1.
       -1    1    3    3    0  502  0.42176332149E+03  0.42745809405E+03  0.57845898904E+03  0.83379825111E+03  0.50400001928E-02 0.  1.
</event>
<event>
 5   0  0.1242761E-04  0.2011917E+04  0.7818609E-02  0.8601069E-01
       -2   -1    0    0    0  501  0.00000000000E+00  0.00000000000E+00  0.13212586437E+04  0.13212586437E+04  0.25500000920E-02 0.  1.
        2   -1    0    0  501    0  0.00000000000E+00  0.00000000000E+00 -0.76590031517E+03  0.76590031517E+03  0.25500000920E-02 0. -1.
    10030    2    1    2    0    0  0.00000000000E+00  0.00000000000E+00  0.55535832852E+03  0.20871589589E+04  0.20119169085E+04 0.  0.
        4    1    3    3  502    0  0.44342680787E+03  0.49216306589E+03 -0.50766551208E+03  0.83461230666E+03  0.12699999809E+01 0. -1.
       -4    1    3    3    0  502 -0.44342680787E+03 -0.49216306589E+03  0.10630238406E+04  0.12525466522E+04  0.12699999809E+01 0.  1.
</event>
<event>
 5   0  0.1242761E-04  0.1972789E+04  0.7818609E-02  0.8619449E-01
       -2   -1    0    0    0  501  0.00000000000E+00  0.00000000000E+00  0.16806096441E+04  0.16806096441E+04  0.25500000920E-02 0.  1.
        2   -1    0    0  501    0  0.00000000000E+00  0.00000000000E+00 -0.57894138746E+03  0.57894138746E+03  0.25500000920E-02 0. -1.
    10030    2    1    2    0    0  0.00000000000E+00  0.00000000000E+00  0.11016682567E+04  0.22595510316E+04  0.19727893746E+04 0.  0.
        4    1    3    3  502    0 -0.76774298394E+03 -0.36396389220E+03  0.11247420054E+04  0.14095904355E+04  0.12699999809E+01 0.  1.
       -4    1    3    3    0  502  0.76774298394E+03  0.36396389220E+03 -0.23073748683E+02  0.84996059614E+03  0.12699999809E+01 0. -1.
</event>
<event>
 5   0  0.1242761E-04  0.1979621E+04  0.7818609E-02  0.8616208E-01
        2   -1    0    0  501    0  0.00000000000E+00  0.00000000000E+00  0.12746996824E+04  0.12746996824E+04  0.25500000920E-02 0.  1.
       -2   -1    0    0    0  501  0.00000000000E+00  0.00000000000E+00 -0.76859251347E+03  0.76859251348E+03  0.25500000920E-02 0. -1.
    10030    2    1    2    0    0  0.00000000000E+00  0.00000000000E+00  0.50610716897E+03  0.20432921959E+04  0.19796208050E+04 0.  0.
        4    1    3    3  502    0 -0.47770063827E+03 -0.18589692189E+03 -0.62091976149E+03  0.80516987554E+03  0.12699999809E+01 0. -1.
       -4    1    3    3    0  502  0.47770063827E+03  0.18589692189E+03  0.11270269305E+04  0.12381223204E+04  0.12699999809E+01 0.  1.
</event>
<event>
 5   0  0.1159914E-04  0.1983411E+04  0.7818609E-02  0.8614416E-01
        2   -1    0    0  501    0  0.00000000000E+00  0.00000000000E+00  0.12821216663E+04  0.12821216664E+04  0.25500000920E-02 0.  1.
       -2   -1    0    0    0  501  0.00000000000E+00  0.00000000000E+00 -0.76707249545E+03  0.76707249545E+03  0.25500000920E-02 0. -1.
    10030    2    1    2    0    0  0.00000000000E+00  0.00000000000E+00  0.51504917090E+03  0.20491941618E+04  0.19834114713E+04 0.  0.
        3    1    3    3  502    0  0.28969722256E+03  0.66792531233E+03 -0.43818206982E+03  0.84973657101E+03  0.10100000352E+00 0. -1.
       -3    1    3    3    0  502 -0.28969722256E+03 -0.66792531233E+03  0.95323124072E+03  0.11994575908E+04  0.10100000352E+00 0.  1.
</event>
<event>
 5   0  0.6214547E-05  0.1988184E+04  0.7818609E-02  0.8612165E-01
       -1   -1    0    0    0  501  0.00000000000E+00  0.00000000000E+00  0.17956019845E+04  0.17956019845E+04  0.50400001928E-02 0.  1.
        1   -1    0    0  501    0  0.00000000000E+00  0.00000000000E+00 -0.55035522315E+03  0.55035522317E+03  0.50400001928E-02 0. -1.
    10030    2    1    2    0    0  0.00000000000E+00  0.00000000000E+00  0.12452467613E+04  0.23459572076E+04  0.19881840266E+04 0.  0.
        3    1    3    3  502    0 -0.75352889758E+03 -0.24551650763E+03 -0.85478959581E+02  0.79711405566E+03  0.10100000352E+00 0. -1.
       -3    1    3    3    0  502  0.75352889758E+03  0.24551650763E+03  0.13307257209E+04  0.15488431520E+04  0.10100000352E+00 0.  1.
</event>
<event>
 5   0  0.6028501E-05  0.1992373E+04  0.7818609E-02  0.8610195E-01
       -1   -1    0    0    0  501  0.00000000000E+00  0.00000000000E+00  0.70703572010E+03  0.70703572012E+03  0.50400001928E-02 0.  1.
        1   -1    0    0  501    0  0.00000000000E+00  0.00000000000E+00 -0.14035888644E+04  0.14035888644E+04  0.50400001928E-02 0. -1.
    10030    2    1    2    0    0  0.00000000000E+00  0.00000000000E+00 -0.69655314433E+03  0.21106245846E+04  0.19923729204E+04 0.  0.
        4    1    3    3  502    0  0.84134678209E+03 -0.28743085394E+03  0.12773097901E+03  0.89821919343E+03  0.12699999809E+01 0.  1.
       -4    1    3    3    0  502 -0.84134678209E+03  0.28743085394E+03 -0.82428412334E+03  0.12124053911E+04  0.12699999809E+01 0. -1.
</event>
<event>
 5   0  0.1159914E-04  0.1974380E+04  0.7818609E-02  0.8618693E-01
        2   -1    0    0  501    0  0.00000000000E+00  0.00000000000E+00  0.17221223512E+04  0.17221223512E+04  0.25500000920E-02 0.  1.
       -2   -1    0    0    0  501  0.00000000000E+00  0.00000000000E+00 -0.56589733966E+03  0.56589733967E+03  0.25500000920E-02 0. -1.
    10030    2    1    2    0    0  0.00000000000E+00  0.00000000000E+00  0.11562250116E+04  0.22880196909E+04  0.19743803657E+04 0.  0.
        3    1    3    3  502    0 -0.59034871281E+03 -0.44347108933E+03  0.13374640487E+04  0.15277396053E+04  0.10100000352E+00 0.  1.
       -3    1    3    3    0  502  0.59034871281E+03  0.44347108933E+03 -0.18123903714E+03  0.76028008561E+03  0.10100000352E+00 0. -1.
</event>
<event>
 5   0  0.1281789E-04  0.1977504E+04  0.7818609E-02  0.8617211E-01
        2   -1    0    0  501    0  0.00000000000E+00  0.00000000000E+00  0.15224700564E+04  0.15224700564E+04  0.25500000920E-02 0. -1.
       -2   -1    0    0    0  501  0.00000000000E+00  0.00000000000E+00 -0.64213426171E+03  0.64213426171E+03  0.25500000920E-02 0.  1.
    10030    2    1    2    0    0  0.00000000000E+00  0.00000000000E+00  0.88033579467E+03  0.21646043181E+04  0.19775036643E+04 0.  0.
        2    1    3    3  502    0  0.55329779121E+02  0.21292405519E+02 -0.64018697743E+03  0.64292621433E+03  0.25500000920E-02 0.  1.
       -2    1    3    3    0  502 -0.55329779121E+02 -0.21292405519E+02  0.15205227721E+04  0.15216781038E+04  0.25500000920E-02 0. -1.
</event>
<event>
 5   0  0.6256535E-05  0.1810077E+04  0.7818609E-02  0.8700959E-01
       -1   -1    0    0    0  501  0.00000000000E+00  0.00000000000E+00  0.49200064394E+03  0.49200064397E+03  0.50400001928E-02 0. -1.
        1   -1    0    0  501    0  0.00000000000E+00  0.00000000000E+00 -0.16648244463E+04  0.16648244463E+04  0.50400001928E-02 0.  1.
    10030    2    1    2    0    0  0.00000000000E+00  0.00000000000E+00 -0.11728238024E+04  0.21568250903E+04  0.18100770146E+04 0.  0.
        1    1    3    3  502    0  0.42527342271E+03 -0.78352964141E+03 -0.77222931593E+03  0.11794550858E+04  0.50400001928E-02 0.  1.
       -1    1    3    3    0  502 -0.42527342271E+03  0.78352964141E+03 -0.40059448643E+03  0.97737000446E+03  0.50400001928E-02 0. -1.
</event>
<event>
 5   0  0.1274868E-04  0.2003978E+04  0.7818609E-02  0.8604763E-01
        2   -1    0    0  501    0  0.00000000000E+00  0.00000000000E+00  0.72810966275E+03  0.72810966275E+03  0.25500000920E-02 0.  1.
       -2   -1    0    0    0  501  0.00000000000E+00  0.00000000000E+00 -0.13788877211E+04  0.13788877211E+04  0.25500000920E-02 0. -1.
    10030    2    1    2    0    0  0.00000000000E+00  0.00000000000E+00 -0.65077805838E+03  0.21069973839E+04  0.20039775184E+04 0.  0.
        1    1    3    3  502    0  0.94270209011E+03 -0.31931504961E+03 -0.44678970823E+03  0.10909951306E+04  0.50400001928E-02 0. -1.
       -1    1    3    3    0  502 -0.94270209011E+03  0.31931504961E+03 -0.20398835014E+03  0.10160022533E+04  0.50400001928E-02 0.  1.
</event>
<event>
 5   0  0.6222733E-05  0.1981664E+04  0.7818609E-02  0.8615242E-01
        1   -1    0    0  501    0  0.00000000000E+00  0.00000000000E+00  0.86756831309E+03  0.86756831311E+03  0.50400001928E-02 0. -1.
       -1   -1    0    0    0  501  0.00000000000E+00  0.00000000000E+00 -0.11316091827E+04  0.11316091827E+04  0.50400001928E-02 0.  1.
    10030    2    1    2    0    0  0.00000000000E+00  0.00000000000E+00 -0.26404086957E+03  0.19991774958E+04  0.19816642195E+04 0.  0.
        2    1    3    3  502    0 -0.10938926679E+03  0.43386293661E+03  0.75984296017E+03  0.88179611225E+03  0.25500000920E-02 0. -1.
       -2    1    3    3    0  502  0.10938926679E+03 -0.43386293661E+03 -0.10238838297E+04  0.11173813835E+04  0.25500000920E-02 0.  1.
</event>
<event>
 5   0  0.1244229E-04  0.2046699E+04  0.7818609E-02  0.8585093E-01
       -2   -1    0    0    0  501  0.00000000000E+00  0.00000000000E+00  0.92003851883E+03  0.92003851883E+03  0.25500000920E-02 0.  1.
        2   -1    0    0  501    0  0.00000000000E+00  0.00000000000E+00 -0.11382613084E+04  0.11382613084E+04  0.25500000920E-02 0. -1.
    10030    2    1    2    0    0  0.00000000000E+00  0.00000000000E+00 -0.21822278953E+03  0.20582998272E+04  0.20466990479E+04 0.  0.
        5    1    3    3  502    0 -0.42401214517E+03  0.89500061183E+03  0.15005018450E+03  0.10016733711E+04  0.46999998093E+01 0.  1.
       -5    1    3    3    0  502  0.42401214517E+03 -0.89500061183E+03 -0.36827297404E+03  0.10566264561E+04  0.46999998093E+01 0. -1.
</event>
<event>
 5   0  0.6222733E-05  0.2001850E+04  0.7818609E-02  0.8605756E-01
       -1   -1    0    0    0  501  0.00000000000E+00  0.00000000000E+00  0.99881916035E+03  0.99881916036E+03  0.50400001928E-02 0.  1.
        1   -1    0    0  501    0  0.00000000000E+00  0.00000000000E+00 -0.10030349552E+04  0.10030349552E+04  0.50400001928E-02 0. -1.
    10030    2    1    2    0    0  0.00000000000E+00  0.00000000000E+00 -0.42157948721E+01  0.20018541156E+04  0.20018496765E+04 0.  0.
        2    1    3    3  502    0 -0.65581184348E+03  0.58382126673E+03  0.47842837629E+03  0.99991507479E+03  0.25500000920E-02 0.  1.
       -2    1    3    3    0  502  0.65581184348E+03 -0.58382126673E+03 -0.48264417116E+03  0.10019390408E+04  0.25500000920E-02 0. -1.
</event>
<event>
 5   0  0.6214547E-05  0.1995390E+04  0.7818609E-02  0.8608779E-01
        1   -1    0    0  501    0  0.00000000000E+00  0.00000000000E+00  0.18372123689E+04  0.18372123689E+04  0.50400001928E-02 0. -1.
       -1   -1    0    0    0  501  0.00000000000E+00  0.00000000000E+00 -0.54179647820E+03  0.54179647822E+03  0.50400001928E-02 0.  1.
    10030    2    1    2    0    0  0.00000000000E+00  0.00000000000E+00  0.12954158907E+04  0.23790088471E+04  0.19953898779E+04 0.  0.
        3    1    3    3  502    0 -0.16175047449E+03  0.77521058139E+03  0.13712398158E+04  0.15834813873E+04  0.10100000352E+00 0. -1.
       -3    1    3    3    0  502  0.16175047449E+03 -0.77521058139E+03 -0.75823925058E+02  0.79552745981E+03  0.10100000352E+00 0.  1.
</event>
<event>
 5   0  0.6168338E-05  0.1979024E+04  0.7818609E-02  0.8616491E-01
       -1   -1    0    0    0  501  0.00000000000E+00  0.00000000000E+00  0.46239344630E+03  0.46239344632E+03  0.50400001928E-02 0.  1.
        1   -1    0    0  501    0  0.00000000000E+00  0.00000000000E+00 -0.21175351330E+04  0.21175351330E+04  0.50400001928E-02 0. -1.
    10030    2    1    2    0    0  0.00000000000E+00  0.00000000000E+00 -0.16551416867E+04  0.25799285794E+04  0.19790243736E+04 0.  0.
        5    1    3    3  502    0  0.16708495550E+03 -0.18064442734E+03  0.42185617458E+03  0.48839995240E+03  0.46999998093E+01 0.  1.
       -5    1    3    3    0  502 -0.16708495550E+03  0.18064442734E+03 -0.20769978613E+04  0.20915286270E+04  0.46999998093E+01 0. -1.
</event>
<event>
 5   0  0.1274868E-04  0.1999952E+04  0.7818609E-02  0.8606643E-01
       -2   -1    0    0    0  501  0.00000000000E+00  0.00000000000E+00  0.74433861877E+03  0.74433861877E+03  0.25500000920E-02 0. -1.
        2   -1    0    0  501    0  0.00000000000E+00  0.00000000000E+00 -0.13434102630E+04  0.13434102630E+04  0.25500000920E-02 0.  1.
    10030    2    1    2    0    0  0.00000000000E+00  0.00000000000E+00 -0.59907164426E+03  0.20877488818E+04  0.19999521391E+04 0.  0.
        1    1    3    3  502    0 -0.10260466772E+03 -0.60281366187E+02 -0.13359921054E+04  0.13412816508E+04  0.50400001928E-02 0.  1.
       -1    1    3    3    0  502  0.10260466772E+03  0.60281366187E+02  0.73692046114E+03  0.74646723104E+03  0.50400001928E-02 0. -1.
</event>
<event>
 5   0  0.6214547E-05  0.2004791E+04  0.7818609E-02  0.8604384E-01
        1   -1    0    0  501    0  0.00000000000E+00  0.00000000000E+00  0.10546307235E+04  0.10546307235E+04  0.50400001928E-02 0.  1.
       -1   -1    0    0    0  501  0.00000000000E+00  0.00000000000E+00 -0.95274766371E+03  0.95274766372E+03  0.50400001928E-02 0. -1.
    10030    2    1    2    0    0  0.00000000000E+00  0.00000000000E+00  0.10188305978E+03  0.20073783872E+04  0.20047912190E+04 0.  0.
        3    1    3    3  502    0 -0.69291404119E+03 -0.13460304314E+03 -0.66169957146E+03  0.96751960227E+03  0.10100000352E+00 0. -1.
       -3    1    3    3    0  502  0.69291404119E+03  0.13460304314E+03  0.76358263125E+03  0.10398587850E+04  0.10100000352E+00 0.  1.
</event>
<event>
 5   0  0.1281789E-04  0.2036734E+04  0.7818609E-02  0.8589636E-01
        2   -1    0    0  501    0  0.00000000000E+00  0.00000000000E+00  0.17908122895E+04  0.17908122895E+04  0.25500000920E-02 0. -1.
       -2   -1    0    0    0  501  0.00000000000E+00  0.00000000000E+00 -0.57910661733E+03  0.57910661734E+03  0.25500000920E-02 0.  1.
    10030    2    1    2    0    0  0.00000000000E+00  0.00000000000E+00  0.12117056722E+04  0.23699189069E+04  0.20367339024E+04 0.  0.
        2    1    3    3  502    0  0.65493050529E+02  0.99360476370E+03  0.35756520648E+03  0.10580135363E+04  0.25500000920E-02 0.  1.
       -2    1    3    3    0  502 -0.65493050529E+02 -0.99360476370E+03  0.85414046571E+03  0.13119053706E+04  0.25500000920E-02 0. -1.
</event>
<event>
 5   0  0.6028501E-05  0.2001770E+04  0.7818609E-02  0.8605793E-01
       -1   -1    0    0    0  501  0.00000000000E+00  0.00000000000E+00  0.92170986838E+03  0.92170986839E+03  0.50400001928E-02 0.  1.
        1   -1    0    0  501    0  0.00000000000E+00  0.00000000000E+00 -0.10868617186E+04  0.10868617186E+04  0.50400001928E-02 0. -1.
    10030    2    1    2    0    0  0.00000000000E+00  0.00000000000E+00 -0.16515185025E+03  0.20085715870E+04  0.20017703881E+04 0.  0.
        4    1    3    3  502    0 -0.81863907584E+03 -0.57461456975E+03 -0.12035645582E+03  0.10073922422E+04  0.12699999809E+01 0.  1.
       -4    1    3    3    0  502  0.81863907584E+03  0.57461456975E+03 -0.44795394421E+02  0.10011793448E+04  0.12699999809E+01 0. -1.
</event>
<event>
 5   0  0.6168338E-05  0.2037233E+04  0.7818609E-02  0.8589408E-01
       -1   -1    0    0    0  501  0.00000000000E+00  0.00000000000E+00  0.77173210615E+03  0.77173210617E+03  0.50400001928E-02 0. -1.
        1   -1    0    0  501    0  0.00000000000E+00  0.00000000000E+00 -0.13444815561E+04  0.13444815561E+04  0.50400001928E-02 0.  1.
    10030    2    1    2    0    0  0.00000000000E+00  0.00000000000E+00 -0.57274944990E+03  0.21162136622E+04  0.20372330087E+04 0.  0.
        5    1    3    3  502    0 -0.63338981014E+03  0.81734746316E+02  0.53792220272E+03  0.83501233915E+03  0.46999998093E+01 0. -1.
       -5    1    3    3    0  502  0.63338981014E+03 -0.81734746316E+02 -0.11106716526E+04  0.12812013231E+04  0.46999998093E+01 0.  1.
</event>
<event>
 5   0  0.1244229E-04  0.2008979E+04  0.7818609E-02  0.8602434E-01
        2   -1    0    0  501    0  0.00000000000E+00  0.00000000000E+00  0.12280427844E+04  0.12280427844E+04  0.25500000920E-02 0. -1.
       -2   -1    0    0    0  501  0.00000000000E+00  0.00000000000E+00 -0.82163206296E+03  0.82163206297E+03  0.25500000920E-02 0.  1.
    10030    2    1    2    0    0  0.00000000000E+00  0.00000000000E+00  0.40641072139E+03  0.20496748473E+04  0.20089791699E+04 0.  0.
        5    1    3    3  502    0 -0.42022994674E+03  0.86526927333E+03  0.49836325161E+03  0.10833615020E+04  0.46999998093E+01 0. -1.
       -5    1    3    3    0  502  0.42022994674E+03 -0.86526927333E+03 -0.91952530218E+02  0.96631334530E+03  0.46999998093E+01 0.  1.
</event>
<event>
 5   0  0.6168338E-05  0.1980076E+04  0.7818609E-02  0.8615993E-01
        1   -1    0    0  501    0  0.00000000000E+00  0.00000000000E+00  0.16855351104E+04  0.16855351104E+04  0.50400001928E-02 0.  1.
       -1   -1    0    0    0  501  0.00000000000E+00  0.00000000000E+00 -0.58152192724E+03  0.58152192726E+03  0.50400001928E-02 0. -1.
    10030    2    1    2    0    0  0.00000000000E+00  0.00000000000E+00  0.11040131832E+04  0.22670570377E+04  0.19800763883E+04 0.  0.
        5    1    3    3  502    0 -0.96637997436E+03  0.24967935033E+01  0.79825274452E+03  0.12534456602E+04  0.46999998093E+01 0.  1.
       -5    1    3    3    0  502  0.96637997436E+03 -0.24967935033E+01  0.30576043867E+03  0.10136113775E+04  0.46999998093E+01 0. -1.
</event>
<event>
 5   0  0.6222733E-05  0.1948311E+04  0.7818609E-02  0.8631176E-01
       -1   -1    0    0    0  501  0.00000000000E+00  0.00000000000E+00  0.38128670008E+03  0.38128670011E+03  0.50400001928E-02 0. -1.
        1   -1    0    0  501    0  0.00000000000E+00  0.00000000000E+00 -0.24888853181E+04  0.24888853181E+04  0.50400001928E-02 0.  1.
    10030    2    1    2    0    0  0.00000000000E+00  0.00000000000E+00 -0.21075986180E+04  0.28701720182E+04  0.19483109299E+04 0.  0.
        2    1    3    3  502    0  0.16410982865E+03  0.43001237156E+03  0.21100555561E+03  0.50632600176E+03  0.25500000920E-02 0. -1.
       -2    1    3    3    0  502 -0.16410982865E+03 -0.43001237156E+03 -0.23186041736E+04  0.23638460164E+04  0.25500000920E-02 0.  1.
</event>
<event>
 5   0  0.1274868E-04  0.1980508E+04  0.7818609E-02  0.8615788E-01
        2   -1    0    0  501    0  0.00000000000E+00  0.00000000000E+00  0.18477478149E+04  0.18477478150E+04  0.25500000920E-02 0. -1.
       -2   -1    0    0    0  501  0.00000000000E+00  0.00000000000E+00 -0.53070195152E+03  0.53070195152E+03  0.25500000920E-02 0.  1.
    10030    2    1    2    0    0  0.00000000000E+00  0.00000000000E+00  0.13170458634E+04  0.23784497665E+04  0.19805083906E+04 0.  0.
        1    1    3    3  502    0 -0.12644824934E+03 -0.80370976916E+03 -0.19406292860E+02  0.81382747375E+03  0.50400001928E-02 0.  1.
       -1    1    3    3    0  502  0.12644824934E+03  0.80370976916E+03  0.13364521563E+04  0.15646222927E+04  0.50400001928E-02 0. -1.
</event>
<event>
 5   0  0.6028501E-05  0.1988465E+04  0.7818609E-02  0.8612033E-01
        1   -1    0    0  501    0  0.00000000000E+00  0.00000000000E+00  0.93523511619E+03  0.93523511620E+03  0.50400001928E-02 0.  1.
       -1   -1    0    0    0  501  0.00000000000E+00  0.00000000000E+00 -0.10569511319E+04  0.10569511320E+04  0.50400001928E-02 0. -1.
    10030    2    1    2    0    0  0.00000000000E+00  0.00000000000E+00 -0.12171601576E+03  0.19921862482E+04  0.19884645481E+04 0.  0.
        4    1    3    3  502    0  0.47805653528E+03 -0.71300930220E+03  0.44165416983E+03  0.96539128574E+03  0.12699999809E+01 0. -1.
       -4    1    3    3    0  502 -0.47805653528E+03  0.71300930220E+03 -0.56337018559E+03  0.10267949624E+04  0.12699999809E+01 0.  1.
</event>
<event>
 5   0  0.1274868E-04  0.2008216E+04  0.7818609E-02  0.8602789E-01
        2   -1    0    0  501    0  0.00000000000E+00  0.00000000000E+00  0.18300038478E+04  0.18300038478E+04  0.25500000920E-02 0. -1.
       -2   -1    0    0    0  501  0.00000000000E+00  0.00000000000E+00 -0.55094603585E+03  0.55094603585E+03  0.25500000920E-02 0.  1.
    10030    2    1    2    0    0  0.00000000000E+00  0.00000000000E+00  0.12790578119E+04  0.23809498836E+04  0.20082164879E+04 0.  0.
        1    1    3    3  502    0 -0.74531617143E+03 -0.29314763862E+03  0.13575800118E+04  0.15762154745E+04  0.50400001928E-02 0. -1.
       -1    1    3    3    0  502  0.74531617143E+03  0.29314763862E+03 -0.78522199882E+02  0.80473440918E+03  0.50400001928E-02 0.  1.
</event>
<event>
 5   0  0.1274868E-04  0.1999399E+04  0.7818609E-02  0.8606902E-01
        2   -1    0    0  501    0  0.00000000000E+00  0.00000000000E+00  0.18436427228E+04  0.18436427228E+04  0.25500000920E-02 0.  1.
       -2   -1    0    0    0  501  0.00000000000E+00  0.00000000000E+00 -0.54207872849E+03  0.54207872850E+03  0.25500000920E-02 0. -1.
    10030    2    1    2    0    0  0.00000000000E+00  0.00000000000E+00  0.13015639943E+04  0.23857214513E+04  0.19993994128E+04 0.  0.
        1    1    3    3  502    0  0.23315775720E+03  0.91152578927E+03  0.10539376725E+04  0.14128079919E+04  0.50400001928E-02 0.  1.
       -1    1    3    3    0  502 -0.23315775720E+03 -0.91152578927E+03  0.24762632173E+03  0.97291345940E+03  0.50400001928E-02 0. -1.
</event>
<event>
 5   0  0.6028501E-05  0.2007331E+04  0.7818609E-02  0.8603201E-01
        1   -1    0    0  501    0  0.00000000000E+00  0.00000000000E+00  0.14025011759E+04  0.14025011759E+04  0.50400001928E-02 0.  1.
       -1   -1    0    0    0  501  0.00000000000E+00  0.00000000000E+00 -0.71824850634E+03  0.71824850636E+03  0.50400001928E-02 0. -1.
    10030    2    1    2    0    0  0.00000000000E+00  0.00000000000E+00  0.68425266955E+03  0.21207496823E+04  0.20073309391E+04 0.  0.
        4    1    3    3  502    0 -0.13882649609E+03  0.73356792212E+03 -0.36655603468E+03  0.83172088578E+03  0.12699999809E+01 0.  1.
       -4    1    3    3    0  502  0.13882649609E+03 -0.73356792212E+03  0.10508087042E+04  0.12890287965E+04  0.12699999809E+01 0. -1.
</event>
<event>
 5   0  0.6214547E-05  0.1994145E+04  0.7818609E-02  0.8609363E-01
       -1   -1    0    0    0  501  0.00000000000E+00  0.00000000000E+00  0.64759330236E+03  0.64759330238E+03  0.50400001928E-02 0. -1.
        1   -1    0    0  501    0  0.00000000000E+00  0.00000000000E+00 -0.15351518690E+04  0.15351518690E+04  0.50400001928E-02 0.  1.
    10030    2    1    2    0    0  0.00000000000E+00  0.00000000000E+00 -0.88755856663E+03  0.21827451714E+04  0.19941454997E+04 0.  0.
        3    1    3    3  502    0 -0.52301501665E+03 -0.18844257076E+03 -0.13497679822E+04  0.14597701620E+04  0.10100000352E+00 0.  1.
       -3    1    3    3    0  502  0.52301501665E+03  0.18844257076E+03  0.46220941553E+03  0.72297500934E+03  0.10100000352E+00 0. -1.
</event>
<event>
 5   0  0.1242761E-04  0.1995822E+04  0.7818609E-02  0.8608577E-01
       -2   -1    0    0    0  501  0.00000000000E+00  0.00000000000E+00  0.12563907260E+04  0.12563907260E+04  0.25500000920E-02 0.  1.
        2   -1    0    0  501    0  0.00000000000E+00  0.00000000000E+00 -0.79260880957E+03  0.79260880957E+03  0.25500000920E-02 0. -1.
    10030    2    1    2    0    0  0.00000000000E+00  0.00000000000E+00  0.46378191639E+03  0.20489995355E+04  0.19958219937E+04 0.  0.
        4    1    3    3  502    0 -0.67830380843E+03 -0.64626036244E+03 -0.12088688353E+03  0.94465007495E+03  0.12699999809E+01 0.  1.
       -4    1    3    3    0  502  0.67830380843E+03  0.64626036244E+03  0.58466879992E+03  0.11043494606E+04  0.12699999809E+01 0. -1.
</event>
<event>
 5   0  0.6028501E-05  0.1955861E+04  0.7818609E-02  0.8627540E-01
        1   -1    0    0  501    0  0.00000000000E+00  0.00000000000E+00  0.14734496876E+04  0.14734496876E+04  0.50400001928E-02 0. -1.
       -1   -1    0    0    0  501  0.00000000000E+00  0.00000000000E+00 -0.64905397184E+03  0.64905397186E+03  0.50400001928E-02 0.  1.
    10030    2    1    2    0    0  0.00000000000E+00  0.00000000000E+00  0.82439571580E+03  0.21225036595E+04  0.19558613162E+04 0.  0.
        4    1    3    3  502    0  0.47653152979E+03 -0.78485325386E+03  0.77742875947E+03  0.12031101437E+04  0.12699999809E+01 0.  1.
       -4    1    3    3    0  502 -0.47653152979E+03  0.78485325386E+03  0.46966956327E+02  0.91939351578E+03  0.12699999809E+01 0. -1.
</event>
<event>
 5   0  0.6256535E-05  0.1987268E+04  0.7818609E-02  0.8612596E-01
       -1   -1    0    0    0  501  0.00000000000E+00  0.00000000000E+00  0.89485443811E+03  0.89485443812E+03  0.50400001928E-02 0.  1.
        1   -1    0    0  501    0  0.00000000000E+00  0.00000000000E+00 -0.11033174923E+04  0.11033174924E+04  0.50400001928E-02 0. -1.
    10030    2    1    2    0    0  0.00000000000E+00  0.00000000000E+00 -0.20846305424E+03  0.19981719305E+04  0.19872680289E+04 0.  0.
        1    1    3    3  502    0  0.13901443387E+03 -0.97618138130E+03 -0.22759723880E+03  0.10119563257E+04  0.50400001928E-02 0. -1.
       -1    1    3    3    0  502 -0.13901443387E+03  0.97618138130E+03  0.19134184565E+02  0.98621560476E+03  0.50400001928E-02 0.  1.
</event>
<event>
 5   0  0.6168338E-05  0.1991492E+04  0.7818609E-02  0.8610609E-01
        1   -1    0    0  501    0  0.00000000000E+00  0.00000000000E+00  0.11339672044E+04  0.11339672044E+04  0.50400001928E-02 0.  1.
       -1   -1    0    0    0  501  0.00000000000E+00  0.00000000000E+00 -0.87437254822E+03  0.87437254823E+03  0.50400001928E-02 0. -1.
    10030    2    1    2    0    0  0.00000000000E+00  0.00000000000E+00  0.25959465619E+03  0.20083397526E+04  0.19914916963E+04 0.  0.
        5    1    3    3  502    0  0.50688399802E+03 -0.55032340719E+03  0.79239505638E+03  0.10898161567E+04  0.46999998093E+01 0.  1.
       -5    1    3    3    0  502 -0.50688399802E+03  0.55032340719E+03 -0.53280040019E+03  0.91852359599E+03  0.46999998093E+01 0. -1.
</event>
<event>
 5   0  0.1242761E-04  0.1669498E+04  0.7818609E-02  0.8778955E-01
       -2   -1    0    0    0  501  0.00000000000E+00  0.00000000000E+00  0.61335656128E+03  0.61335656129E+03  0.25500000920E-02 0. -1.
        2   -1    0    0  501    0  0.00000000000E+00  0.00000000000E+00 -0.11360533282E+04  0.11360533282E+04  0.25500000920E-02 0.  1.
    10030    2    1    2    0    0  0.00000000000E+00  0.00000000000E+00 -0.52269676692E+03  0.17494098895E+04  0.16694978441E+04 0.  0.
        4    1    3    3  502    0  0.30184518441E+02  0.26757358655E+03  0.56659661126E+03  0.62732771513E+03  0.12699999809E+01 0. -1.
       -4    1    3    3    0  502 -0.30184518441E+02 -0.26757358655E+03 -0.10892933782E+04  0.11220821744E+04  0.12699999809E+01 0.  1.
</event>
<event>
 5   0  0.1281789E-04  0.2005385E+04  0.7818609E-02  0.8604107E-01
        2   -1    0    0  501    0  0.00000000000E+00  0.00000000000E+00  0.70317898451E+03  0.70317898451E+03  0.25500000920E-02 0. -1.
       -2   -1    0    0    0  501  0.00000000000E+00  0.00000000000E+00 -0.14297819048E+04  0.14297819048E+04  0.25500000920E-02 0.  1.
    10030    2    1    2    0    0  0.00000000000E+00  0.00000000000E+00 -0.72660292026E+03  0.21329608893E+04  0.20053853374E+04 0.  0.
        2    1    3    3  502    0  0.75605323251E+02 -0.90640321429E+03  0.85576999178E+02  0.91356793648E+03  0.25500000920E-02 0. -1.
       -2    1    3    3    0  502 -0.75605323251E+02  0.90640321429E+03 -0.81217991944E+03  0.12193929528E+04  0.25500000920E-02 0.  1.
</event>
<event>
 5   0  0.6168338E-05  0.2050422E+04  0.7818609E-02  0.8583403E-01
        1   -1    0    0  501    0  0.00000000000E+00  0.00000000000E+00  0.18842785111E+04  0.18842785111E+04  0.50400001928E-02 0. -1.
       -1   -1    0    0    0  501  0.00000000000E+00  0.00000000000E+00 -0.55780390211E+03  0.55780390213E+03  0.50400001928E-02 0.  1.
    10030    2    1    2    0    0  0.00000000000E+00  0.00000000000E+00  0.13264746090E+04  0.24420824133E+04  0.20504223040E+04 0.  0.
        5    1    3    3  502    0  0.18880547692E+02  0.82136651446E+03  0.13935888222E+04  0.16177488438E+04  0.46999998093E+01 0. -1.
       -5    1    3    3    0  502 -0.18880547692E+02 -0.82136651446E+03 -0.67114213206E+02  0.82433356948E+03  0.46999998093E+01 0.  1.
</event>
<event>
 5   0  0.6256535E-05  0.2010704E+04  0.7818609E-02  0.8601632E-01
       -1   -1    0    0    0  501  0.00000000000E+00  0.00000000000E+00  0.72440610555E+03  0.72440610557E+03  0.50400001928E-02 0.  1.
        1   -1    0    0  501    0  0.00000000000E+00  0.00000000000E+00 -0.13952571604E+04  0.13952571604E+04  0.50400001928E-02 0. -1.
    10030    2    1    2    0    0  0.00000000000E+00  0.00000000000E+00 -0.67085105481E+03  0.21196632659E+04  0.20107041610E+04 0.  0.
        1    1    3    3  502    0 -0.16572271101E+03 -0.41927101445E+03 -0.12827194406E+04  0.13596401597E+04  0.50400001928E-02 0. -1.
       -1    1    3    3    0  502  0.16572271101E+03  0.41927101445E+03  0.61186838578E+03  0.76002310626E+03  0.50400001928E-02 0.  1.
</event>
<event>
 5   0  0.1159914E-04  0.1990753E+04  0.7818609E-02  0.8610956E-01
        2   -1    0    0  501    0  0.00000000000E+00  0.00000000000E+00  0.38380565540E+03  0.38380565541E+03  0.25500000920E-02 0. -1.
       -2   -1    0    0    0  501  0.00000000000E+00  0.00000000000E+00 -0.25814484929E+04  0.25814484929E+04  0.25500000920E-02 0.  1.
    10030    2    1    2    0    0  0.00000000000E+00  0.00000000000E+00 -0.21976428375E+04  0.29652541484E+04  0.19907531547E+04 0.  0.
        3    1    3    3  502    0 -0.36160018200E+03 -0.14264333610E+02  0.28234929527E+03  0.45899814550E+03  0.10100000352E+00 0. -1.
       -3    1    3    3    0  502  0.36160018200E+03  0.14264333610E+02 -0.24799921328E+04  0.25062560029E+04  0.10100000352E+00 0.  1.
</event>
<event>
 5   0  0.1242761E-04  0.1989055E+04  0.7818609E-02  0.8611755E-01
        2   -1    0    0  501    0  0.00000000000E+00  0.00000000000E+00  0.98600121212E+03  0.98600121212E+03  0.25500000920E-02 0. -1.
       -2   -1    0    0    0  501  0.00000000000E+00  0.00000000000E+00 -0.10031270322E+04  0.10031270322E+04  0.25500000920E-02 0.  1.
    10030    2    1    2    0    0  0.00000000000E+00  0.00000000000E+00 -0.17125820088E+02  0.19891282443E+04  0.19890545188E+04 0.  0.
        4    1    3    3  502    0  0.26705134235E+03  0.40046272769E+03 -0.87888020208E+03  0.10020573029E+04  0.12699999809E+01 0.  1.
       -4    1    3    3    0  502 -0.26705134235E+03 -0.40046272769E+03  0.86175438199E+03  0.98707094147E+03  0.12699999809E+01 0. -1.
</event>
<event>
 5   0  0.1242761E-04  0.2102124E+04  0.7818609E-02  0.8560308E-01
        2   -1    0    0  501    0  0.00000000000E+00  0.00000000000E+00  0.22133875667E+04  0.22133875667E+04  0.25500000920E-02 0. -1.
       -2   -1    0    0    0  501  0.00000000000E+00  0.00000000000E+00 -0.49911349811E+03  0.49911349812E+03  0.25500000920E-02 0.  1.
    10030    2    1    2    0    0  0.00000000000E+00  0.00000000000E+00  0.17142740686E+04  0.27125010648E+04  0.21021242695E+04 0.  0.
        4    1    3    3  502    0  0.17459289023E+03  0.17504654138E+02  0.21943535254E+04  0.22013582393E+04  0.12699999809E+01 0. -1.
       -4    1    3    3    0  502 -0.17459289023E+03 -0.17504654138E+02 -0.48007945687E+03  0.51114282549E+03  0.12699999809E+01 0.  1.
</event>
<event>
 5   0  0.6214547E-05  0.1882177E+04  0.7818609E-02  0.8663779E-01
       -1   -1    0    0    0  501  0.00000000000E+00  0.00000000000E+00  0.87017801082E+03  0.87017801084E+03  0.50400001928E-02 0. -1.
        1   -1    0    0  501    0  0.00000000000E+00  0.00000000000E+00 -0.10177778377E+04  0.10177778378E+04  0.50400001928E-02 0.  1.
    10030    2    1    2    0    0  0.00000000000E+00  0.00000000000E+00 -0.14759982692E+03  0.18879558486E+04  0.18821773501E+04 0.  0.
        3    1    3    3  502    0  0.25568660455E+02 -0.35084326249E+03 -0.94935035334E+03  0.10124281974E+04  0.10100000352E+00 0.  1.
       -3    1    3    3    0  502 -0.25568660455E+02  0.35084326249E+03  0.80175052643E+03  0.87552765122E+03  0.10100000352E+00 0. -1.
</event>
<event>
 5   0  0.6214547E-05  0.2000303E+04  0.7818609E-02  0.8606479E-01
       -1   -1    0    0    0  501  0.00000000000E+00  0.00000000000E+00  0.15214415252E+04  0.15214415252E+04  0.50400001928E-02 0. -1.
        1   -1    0    0  501    0  0.00000000000E+00  0.00000000000E+00 -0.65747063815E+03  0.65747063817E+03  0.50400001928E-02 0.  1.
    10030    2    1    2    0    0  0.00000000000E+00  0.00000000000E+00  0.86397088701E+03  0.21789121633E+04  0.20003031075E+04 0.  0.
        3    1    3    3  502    0 -0.52065873020E+03 -0.34463681924E+03  0.12830578253E+04  0.14269188638E+04  0.10100000352E+00 0. -1.
       -3    1    3    3    0  502  0.52065873020E+03  0.34463681924E+03 -0.41908693831E+03  0.75199329956E+03  0.10100000352E+00 0.  1.
</event>
<event>
 5   0  0.6256535E-05  0.1990098E+04  0.7818609E-02  0.8611264E-01
       -1   -1    0    0    0  501  0.00000000000E+00  0.00000000000E+00  0.90629879563E+03  0.90629879564E+03  0.50400001928E-02 0. -1.
        1   -1    0    0  501    0  0.00000000000E+00  0.00000000000E+00 -0.10924903841E+04  0.10924903841E+04  0.50400001928E-02 0.  1.
    10030    2    1    2    0    0  0.00000000000E+00  0.00000000000E+00 -0.18619158850E+03  0.19987891798E+04  0.19900982080E+04 0.  0.
        1    1    3    3  502    0 -0.74333213681E+03  0.12912639548E+03  0.55851048404E+03  0.93869603836E+03  0.50400001928E-02 0. -1.
       -1    1    3    3    0  502  0.74333213681E+03 -0.12912639548E+03 -0.74470207254E+03  0.10600931414E+04  0.50400001928E-02 0.  1.
</event>
<event>
 5   0  0.6222733E-05  0.1997839E+04  0.7818609E-02  0.8607632E-01
        1   -1    0    0  501    0  0.00000000000E+00  0.00000000000E+00  0.10392154612E+04  0.10392154612E+04  0.50400001928E-02 0.  1.
       -1   -1    0    0    0  501  0.00000000000E+00  0.00000000000E+00 -0.96018584026E+03  0.96018584027E+03  0.50400001928E-02 0. -1.
    10030    2    1    2    0    0  0.00000000000E+00  0.00000000000E+00  0.79029620913E+02  0.19994013015E+04  0.19978388031E+04 0.  0.
        2    1    3    3  502    0 -0.50702380628E+03 -0.98060627352E+02  0.89525720700E+03  0.10335252747E+04  0.25500000920E-02 0.  1.
       -2    1    3    3    0  502  0.50702380628E+03  0.98060627352E+02 -0.81622758608E+03  0.96587602676E+03  0.25500000920E-02 0. -1.
</event>
<event>
 5   0  0.1159914E-04  0.2004482E+04  0.7818609E-02  0.8604528E-01
       -2   -1    0    0    0  501  0.00000000000E+00  0.00000000000E+00  0.95618419317E+03  0.95618419317E+03  0.25500000920E-02 0.  1.
        2   -1    0    0  501    0  0.00000000000E+00  0.00000000000E+00 -0.10505157429E+04  0.10505157429E+04  0.25500000920E-02 0. -1.
    10030    2    1    2    0    0  0.00000000000E+00  0.00000000000E+00 -0.94331549731E+02  0.20066999361E+04  0.20044815270E+04 0.  0.
        3    1    3    3  502    0  0.26281073845E+03 -0.35463807381E+03  0.85363497924E+03  0.96100485723E+03  0.10100000352E+00 0.  1.
       -3    1    3    3    0  502 -0.26281073845E+03  0.35463807381E+03 -0.94796652897E+03  0.10456950788E+04  0.10100000352E+00 0. -1.
</event>
<event>
 5   0  0.1159914E-04  0.1992640E+04  0.7818609E-02  0.8610070E-01
        2   -1    0    0  501    0  0.00000000000E+00  0.00000000000E+00  0.70347693522E+03  0.70347693522E+03  0.25500000920E-02 0. -1.
       -2   -1    0    0    0  501  0.00000000000E+00  0.00000000000E+00 -0.14110671865E+04  0.14110671865E+04  0.25500000920E-02 0.  1.
    10030    2    1    2    0    0  0.00000000000E+00  0.00000000000E+00 -0.70759025126E+03  0.21145441217E+04  0.19926396761E+04 0.  0.
        3    1    3    3  502    0  0.42654338409E+03 -0.24647579334E+03 -0.12727794015E+04  0.13647919220E+04  0.10100000352E+00 0.  1.
       -3    1    3    3    0  502 -0.42654338409E+03  0.24647579334E+03  0.56518915025E+03  0.74975219972E+03  0.10100000352E+00 0. -1.
</event>
<event>
 5   0  0.6214547E-05  0.1993271E+04  0.7818609E-02  0.8609773E-01
       -1   -1    0    0    0  501  0.00000000000E+00  0.00000000000E+00  0.55694028089E+03  0.55694028092E+03  0.50400001928E-02 0.  1.
        1   -1    0    0  501    0  0.00000000000E+00  0.00000000000E+00 -0.17834630503E+04  0.17834630503E+04  0.50400001928E-02 0. -1.
    10030    2    1    2    0    0  0.00000000000E+00  0.00000000000E+00 -0.12265227694E+04  0.23404033312E+04  0.19932710927E+04 0.  0.
        3    1    3    3  502    0  0.70327238807E+03  0.53139302719E+03 -0.11593516636E+04  0.14563883037E+04  0.10100000352E+00 0. -1.
       -3    1    3    3    0  502 -0.70327238807E+03 -0.53139302719E+03 -0.67171105813E+02  0.88401502749E+03  0.10100000352E+00 0.  1.
</event>
<event>
 5   0  0.1281789E-04  0.1964325E+04  0.7818609E-02  0.8623484E-01
        2   -1    0    0  501    0  0.00000000000E+00  0.00000000000E+00  0.98369619457E+03  0.98369619457E+03  0.25500000920E-02 0.  1.
       -2   -1    0    0    0  501  0.00000000000E+00  0.00000000000E+00 -0.98063138171E+03  0.98063138171E+03  0.25500000920E-02 0. -1.
    10030    2    1    2    0    0  0.00000000000E+00  0.00000000000E+00  0.30648128561E+01  0.19643275763E+04  0.19643251854E+04 0.  0.
        2    1    3    3  502    0 -0.12178838884E+03  0.30228614005E+03 -0.92498587513E+03  0.98071820179E+03  0.25500000920E-02 0. -1.
       -2    1    3    3    0  502  0.12178838884E+03 -0.30228614005E+03  0.92805068798E+03  0.98360937450E+03  0.25500000920E-02 0.  1.
</event>
<event>
 5   0  0.1274868E-04  0.1790524E+04  0.7818609E-02  0.8711355E-01
       -2   -1    0    0    0  501  0.00000000000E+00  0.00000000000E+00  0.10261588841E+04  0.10261588841E+04  0.25500000920E-02 0. -1.
        2   -1    0    0  501    0  0.00000000000E+00  0.00000000000E+00 -0.78106266166E+03  0.78106266166E+03  0.25500000920E-02 0.  1.
    10030    2    1    2    0    0  0.00000000000E+00  0.00000000000E+00  0.24509622241E+03  0.18072215457E+04  0.17905243805E+04 0.  0.
        1    1    3    3  502    0 -0.13818384080E+03  0.58173633532E+03 -0.54998560099E+03  0.81240143957E+03  0.50400001928E-02 0.  1.
       -1    1    3    3    0  502  0.13818384080E+03 -0.58173633532E+03  0.79508182341E+03  0.99482010616E+03  0.50400001928E-02 0. -1.
</event>
<event>
 5   0  0.1242761E-04  0.2024723E+04  0.7818609E-02  0.8595148E-01
        2   -1    0    0  501    0  0.00000000000E+00  0.00000000000E+00  0.13122541619E+04  0.13122541619E+04  0.25500000920E-02 0.  1.
       -2   -1    0    0    0  501  0.00000000000E+00  0.00000000000E+00 -0.78100412974E+03  0.78100412975E+03  0.25500000920E-02 0. -1.
    10030    2    1    2    0    0  0.00000000000E+00  0.00000000000E+00  0.53125003213E+03  0.20932582916E+04  0.20247231116E+04 0.  0.
        4    1    3    3  502    0  0.61555269756E+03 -0.16991366012E+03 -0.54652159492E+03  0.84051367745E+03  0.12699999809E+01 0. -1.
       -4    1    3    3    0  502 -0.61555269756E+03  0.16991366012E+03  0.10777716270E+04  0.12527446142E+04  0.12699999809E+01 0.  1.
</event>
<event>
 5   0  0.6168338E-05  0.1983890E+04  0.7818609E-02  0.8614190E-01
        1   -1    0    0  501    0  0.00000000000E+00  0.00000000000E+00  0.14826134862E+04  0.14826134862E+04  0.50400001928E-02 0.  1.
       -1   -1    0    0    0  501  0.00000000000E+00  0.00000000000E+00 -0.66366263258E+03  0.66366263260E+03  0.50400001928E-02 0. -1.
    10030    2    1    2    0    0  0.00000000000E+00  0.00000000000E+00  0.81895085358E+03  0.21462761188E+04  0.19838902887E+04 0.  0.
        5    1    3    3  502    0 -0.62328929704E+03 -0.73730392615E+03  0.65576367014E+03  0.11671138369E+04  0.46999998093E+01 0.  1.
       -5    1    3    3    0  502  0.62328929704E+03  0.73730392615E+03  0.16318718345E+03  0.97916228183E+03  0.46999998093E+01 0. -1.
</event>
<event>
 5   0  0.1274868E-04  0.1913676E+04  0.7818609E-02  0.8648079E-01
       -2   -1    0    0    0  501  0.00000000000E+00  0.00000000000E+00  0.43829653733E+03  0.43829653734E+03  0.25500000920E-02 0.  1.
        2   -1    0    0  501    0  0.00000000000E+00  0.00000000000E+00 -0.20888577475E+04  0.20888577475E+04  0.25500000920E-02 0. -1.
    10030    2    1    2    0    0  0.00000000000E+00  0.00000000000E+00 -0.16505612101E+04  0.25271542848E+04  0.19136761667E+04 0.  0.
        1    1    3    3  502    0  0.39113430543E+03  0.73504529187E+03 -0.14478609719E+04  0.16702032870E+04  0.50400001928E-02 0. -1.
       -1    1    3    3    0  502 -0.39113430543E+03 -0.73504529187E+03 -0.20270023822E+03  0.85695099778E+03  0.50400001928E-02 0.  1.
</event>
<event>
 5   0  0.1159914E-04  0.2003413E+04  0.7818609E-02  0.8605027E-01
        2   -1    0    0  501    0  0.00000000000E+00  0.00000000000E+00  0.13225825658E+04  0.13225825658E+04  0.25500000920E-02 0.  1.
       -2   -1    0    0    0  501  0.00000000000E+00  0.00000000000E+00 -0.75867925958E+03  0.75867925958E+03  0.25500000920E-02 0. -1.
    10030    2    1    2    0    0  0.00000000000E+00  0.00000000000E+00  0.56390330617E+03  0.20812618253E+04  0.20034130495E+04 0.  0.
        3    1    3    3  502    0  0.82755000911E+03  0.52786215407E+03  0.74339875161E+02  0.98437995638E+03  0.10100000352E+00 0. -1.
       -3    1    3    3    0  502 -0.82755000911E+03 -0.52786215407E+03  0.48956343101E+03  0.10968818690E+04  0.10100000352E+00 0.  1.
</event>
<event>
 5   0  0.6028501E-05  0.2032071E+04  0.7818609E-02  0.8591772E-01
        1   -1    0    0  501    0  0.00000000000E+00  0.00000000000E+00  0.14152232877E+04  0.14152232877E+04  0.50400001928E-02 0.  1.
       -1   -1    0    0    0  501  0.00000000000E+00  0.00000000000E+00 -0.72944516934E+03  0.72944516936E+03  0.50400001928E-02 0. -1.
    10030    2    1    2    0    0  0.00000000000E+00  0.00000000000E+00  0.68577811834E+03  0.21446684571E+04  0.20320706590E+04 0.  0.
        4    1    3    3  502    0  0.10050742079E+04  0.11553519417E+03  0.44191576588E+03  0.11039989590E+04  0.12699999809E+01 0. -1.
       -4    1    3    3    0  502 -0.10050742079E+04 -0.11553519417E+03  0.24386235247E+03  0.10406694981E+04  0.12699999809E+01 0.  1.
</event>
<event>
 5   0  0.1244229E-04  0.2008832E+04  0.7818609E-02  0.8602503E-01
        2   -1    0    0  501    0  0.00000000000E+00  0.00000000000E+00  0.94256277775E+03  0.94256277775E+03  0.25500000920E-02 0. -1.
       -2   -1    0    0    0  501  0.00000000000E+00  0.00000000000E+00 -0.10703276913E+04  0.10703276913E+04  0.25500000920E-02 0.  1.
    10030    2    1    2    0    0  0.00000000000E+00  0.00000000000E+00 -0.12776491357E+03  0.20128904691E+04  0.20088315428E+04 0.  0.
        5    1    3    3  502    0  0.92798737063E+03 -0.35371660706E+03 -0.21436230293E+03  0.10159966954E+04  0.46999998093E+01 0.  1.
       -5    1    3    3    0  502 -0.92798737063E+03  0.35371660706E+03  0.86597389353E+02  0.99689377368E+03  0.46999998093E+01 0. -1.
</event>
<event>
 5   0  0.1281789E-04  0.1997851E+04  0.7818609E-02  0.8607626E-01
       -2   -1    0    0    0  501  0.00000000000E+00  0.00000000000E+00  0.70559041261E+03  0.70559041261E+03  0.25500000920E-02 0. -1.
        2   -1    0    0  501    0  0.00000000000E+00  0.00000000000E+00 -0.14142080896E+04  0.14142080896E+04  0.25500000920E-02 0.  1.
    10030    2    1    2    0    0  0.00000000000E+00  0.00000000000E+00 -0.70861767701E+03  0.21197985022E+04  0.19978505144E+04 0.  0.
        2    1    3    3  502    0 -0.47128781030E+03 -0.36530704403E+03 -0.12046579262E+04  0.13441585307E+04  0.25500000920E-02 0.  1.
       -2    1    3    3    0  502  0.47128781030E+03  0.36530704403E+03  0.49604024920E+03  0.77563997150E+03  0.25500000920E-02 0. -1.
</event>
<event>
 5   0  0.1281789E-04  0.2051010E+04  0.7818609E-02  0.8583136E-01
        2   -1    0    0  501    0  0.00000000000E+00  0.00000000000E+00  0.14612395102E+04  0.14612395102E+04  0.25500000920E-02 0.  1.
       -2   -1    0    0    0  501  0.00000000000E+00  0.00000000000E+00 -0.71970448342E+03  0.71970448342E+03  0.25500000920E-02 0. -1.
    10030    2    1    2    0    0  0.00000000000E+00  0.00000000000E+00  0.74153502679E+03  0.21809439936E+04  0.20510101188E+04 0.  0.
        2    1    3    3  502    0  0.96197163993E+03  0.11353108027E+03  0.72882152663E+03  0.12122126711E+04  0.25500000920E-02 0. -1.
       -2    1    3    3    0  502 -0.96197163993E+03 -0.11353108027E+03  0.12713500158E+02  0.96873132256E+03  0.25500000920E-02 0.  1.
</event>
<event>
 5   0  0.6214547E-05  0.2101005E+04  0.7818609E-02  0.8560801E-01
        1   -1    0    0  501    0  0.00000000000E+00  0.00000000000E+00  0.73083155799E+03  0.73083155801E+03  0.50400001928E-02 0.  1.
       -1   -1    0    0    0  501  0.00000000000E+00  0.00000000000E+00 -0.15099991315E+04  0.15099991315E+04  0.50400001928E-02 0. -1.
    10030    2    1    2    0    0  0.00000000000E+00  0.00000000000E+00 -0.77916757349E+03  0.22408306895E+04  0.21010045386E+04 0.  0.
        3    1    3    3  502    0 -0.59338378852E+03 -0.10571499743E+03  0.52806945350E+03  0.80133472350E+03  0.10100000352E+00 0.  1.
       -3    1    3    3    0  502  0.59338378852E+03  0.10571499743E+03 -0.13072370270E+04  0.14394959660E+04  0.10100000352E+00 0. -1.
</event>
<event>
 5   0  0.6222733E-05  0.1963361E+04  0.7818609E-02  0.8623945E-01
        1   -1    0    0  501    0  0.00000000000E+00  0.00000000000E+00  0.64457740070E+03  0.64457740072E+03  0.50400001928E-02 0.  1.
       -1   -1    0    0    0  501  0.00000000000E+00  0.00000000000E+00 -0.14950821738E+04  0.14950821738E+04  0.50400001928E-02 0. -1.
    10030    2    1    2    0    0  0.00000000000E+00  0.00000000000E+00 -0.85050477309E+03  0.21396595745E+04  0.19633605695E+04 0.  0.
        2    1    3    3  502    0  0.34598713518E+03 -0.84402213530E+02 -0.14222001651E+04  0.14661119128E+04  0.25500000920E-02 0. -1.
       -2    1    3    3    0  502 -0.34598713518E+03  0.84402213530E+02  0.57169539198E+03  0.67354766170E+03  0.25500000920E-02 0.  1.
</event>
<event>
 5   0  0.1274868E-04  0.2002431E+04  0.7818609E-02  0.8605485E-01
        2   -1    0    0  501    0  0.00000000000E+00  0.00000000000E+00  0.10768443302E+04  0.10768443302E+04  0.25500000920E-02 0.  1.
       -2   -1    0    0    0  501  0.00000000000E+00  0.00000000000E+00 -0.93089806278E+03  0.93089806279E+03  0.25500000920E-02 0. -1.
    10030    2    1    2    0    0  0.00000000000E+00  0.00000000000E+00  0.14594626738E+03  0.20077423930E+04  0.20024308237E+04 0.  0.
        1    1    3    3  502    0  0.62408222276E+03 -0.65480580026E+03 -0.35733077447E+03  0.97259166109E+03  0.50400001928E-02 0. -1.
       -1    1    3    3    0  502 -0.62408222276E+03  0.65480580026E+03  0.50327704185E+03  0.10351507319E+04  0.50400001928E-02 0.  1.
</event>
<event>
 5   0  0.4479000E-05  0.1964567E+04  0.7818609E-02  0.8623368E-01
       -4   -1    0    0    0  501  0.00000000000E+00  0.00000000000E+00  0.17593108780E+04  0.17593113364E+04  0.12699999809E+01 0. -1.
        4   -1    0    0  501    0  0.00000000000E+00  0.00000000000E+00 -0.54844148069E+03  0.54844295113E+03  0.12699999809E+01 0.  1.
    10030    2    1    2    0    0  0.00000000000E+00  0.00000000000E+00  0.12108693973E+04  0.23077542875E+04  0.19645674216E+04 0.  0.
        5    1    3    3  502    0 -0.26237530725E+03  0.90634876205E+03  0.92617045552E+03  0.13221659060E+04  0.46999998093E+01 0. -1.
       -5    1    3    3    0  502  0.26237530725E+03 -0.90634876205E+03  0.28469894179E+03  0.98558838151E+03  0.46999998093E+01 0.  1.
</event>
<event>
 5   0  0.6168338E-05  0.1995660E+04  0.7818609E-02  0.8608653E-01
        1   -1    0    0  501    0  0.00000000000E+00  0.00000000000E+00  0.18649577315E+04  0.18649577315E+04  0.50400001928E-02 0. -1.
       -1   -1    0    0    0  501  0.00000000000E+00  0.00000000000E+00 -0.53388036652E+03  0.53388036655E+03  0.50400001928E-02 0.  1.
    10030    2    1    2    0    0  0.00000000000E+00  0.00000000000E+00  0.13310773649E+04  0.23988380980E+04  0.19956596075E+04 0.  0.
        5    1    3    3  502    0  0.94503298803E+03 -0.31332225458E+03  0.74512747244E+03  0.12435816113E+04  0.46999998093E+01 0.  1.
       -5    1    3    3    0  502 -0.94503298803E+03  0.31332225458E+03  0.58594989251E+03  0.11552564868E+04  0.46999998093E+01 0. -1.
</event>
<event>
 5   0  0.1244229E-04  0.1966251E+04  0.7818609E-02  0.8622564E-01
        2   -1    0    0  501    0  0.00000000000E+00  0.00000000000E+00  0.96703021593E+03  0.96703021594E+03  0.25500000920E-02 0.  1.
       -2   -1    0    0    0  501  0.00000000000E+00  0.00000000000E+00 -0.99948818882E+03  0.99948818883E+03  0.25500000920E-02 0. -1.
    10030    2    1    2    0    0  0.00000000000E+00  0.00000000000E+00 -0.32457972892E+02  0.19665184048E+04  0.19662505223E+04 0.  0.
        5    1    3    3  502    0 -0.43735015644E+03  0.84124156169E+02 -0.89279642784E+03  0.99772720949E+03  0.46999998093E+01 0. -1.
       -5    1    3    3    0  502  0.43735015644E+03 -0.84124156169E+02  0.86033845495E+03  0.96879119528E+03  0.46999998093E+01 0.  1.
</event>
<event>
 5   0  0.6222733E-05  0.1989786E+04  0.7818609E-02  0.8611411E-01
        1   -1    0    0  501    0  0.00000000000E+00  0.00000000000E+00  0.12749550253E+04  0.12749550253E+04  0.50400001928E-02 0. -1.
       -1   -1    0    0    0  501  0.00000000000E+00  0.00000000000E+00 -0.77635028907E+03  0.77635028908E+03  0.50400001928E-02 0.  1.
    10030    2    1    2    0    0  0.00000000000E+00  0.00000000000E+00  0.49860473627E+03  0.20513053144E+04  0.19897856191E+04 0.  0.
        2    1    3    3  502    0 -0.54002799813E+03  0.72812128102E+03  0.67187914284E+03  0.11283671482E+04  0.25500000920E-02 0. -1.
       -2    1    3    3    0  502  0.54002799813E+03 -0.72812128102E+03 -0.17327440658E+03  0.92293816619E+03  0.25500000920E-02 0.  1.
</event>
<event>
 5   0  0.6214547E-05  0.1991388E+04  0.7818609E-02  0.8610657E-01
        1   -1    0    0  501    0  0.00000000000E+00  0.00000000000E+00  0.18245049859E+04  0.18245049859E+04  0.50400001928E-02 0. -1.
       -1   -1    0    0    0  501  0.00000000000E+00  0.00000000000E+00 -0.54338410244E+03  0.54338410246E+03  0.50400001928E-02 0.  1.
    10030    2    1    2    0    0  0.00000000000E+00  0.00000000000E+00  0.12811208835E+04  0.23678890884E+04  0.19913884646E+04 0.  0.
        3    1    3    3  502    0  0.61377708289E+03 -0.10668188013E+03  0.15641379546E+04  0.16836362084E+04  0.10100000352E+00 0. -1.
       -3    1    3    3    0  502 -0.61377708289E+03  0.10668188013E+03 -0.28301707112E+03  0.68425287999E+03  0.10100000352E+00 0.  1.
</event>
<event>
 5   0  0.6168338E-05  0.1997432E+04  0.7818609E-02  0.8607822E-01
        1   -1    0    0  501    0  0.00000000000E+00  0.00000000000E+00  0.50825936873E+03  0.50825936875E+03  0.50400001928E-02 0.  1.
       -1   -1    0    0    0  501  0.00000000000E+00  0.00000000000E+00 -0.19624498579E+04  0.19624498579E+04  0.50400001928E-02 0. -1.
    10030    2    1    2    0    0  0.00000000000E+00  0.00000000000E+00 -0.14541904892E+04  0.24707092267E+04  0.19974318772E+04 0.  0.
        5    1    3    3  502    0 -0.83600310421E+03 -0.48456827587E+03 -0.41489557553E+03  0.10516026021E+04  0.46999998093E+01 0.  1.
       -5    1    3    3    0  502  0.83600310421E+03  0.48456827587E+03 -0.10392949136E+04  0.14191066245E+04  0.46999998093E+01 0. -1.
</event>
<event>
 5   0  0.1281789E-04  0.2001668E+04  0.7818609E-02  0.8605841E-01
       -2   -1    0    0    0  501  0.00000000000E+00  0.00000000000E+00  0.40995781909E+03  0.40995781910E+03  0.25500000920E-02 0. -1.
        2   -1    0    0  501    0  0.00000000000E+00  0.00000000000E+00 -0.24433468995E+04  0.24433468995E+04  0.25500000920E-02 0.  1.
    10030    2    1    2    0    0  0.00000000000E+00  0.00000000000E+00 -0.20333890804E+04  0.28533047186E+04  0.20016684703E+04 0.  0.
        2    1    3    3  502    0 -0.77711368927E+03  0.31038726328E+03 -0.17993026856E+04  0.19843729724E+04  0.25500000920E-02 0.  1.
       -2    1    3    3    0  502  0.77711368927E+03 -0.31038726328E+03 -0.23408639480E+03  0.86893174617E+03  0.25500000920E-02 0. -1.
</event>
<event>
 5   0  0.1159914E-04  0.2012777E+04  0.7818609E-02  0.8600670E-01
       -2   -1    0    0    0  501  0.00000000000E+00  0.00000000000E+00  0.20294226901E+04  0.20294226901E+04  0.25500000920E-02 0. -1.
        2   -1    0    0  501    0  0.00000000000E+00  0.00000000000E+00 -0.49906679850E+03  0.49906679850E+03  0.25500000920E-02 0.  1.
    10030    2    1    2    0    0  0.00000000000E+00  0.00000000000E+00  0.15303558916E+04  0.25284894886E+04  0.20127766739E+04 0.  0.
        3    1    3    3  502    0 -0.91830167890E+03 -0.14361046240E+03  0.12499477570E+04  0.15576493006E+04  0.10100000352E+00 0.  1.
       -3    1    3    3    0  502  0.91830167890E+03  0.14361046240E+03  0.28040813459E+03  0.97084018794E+03  0.10100000352E+00 0. -1.
</event>
<event>
 5   0  0.6214547E-05  0.1888367E+04  0.7818609E-02  0.8660669E-01
       -1   -1    0    0    0  501  0.00000000000E+00  0.00000000000E+00  0.10531550648E+04  0.10531550648E+04  0.50400001928E-02 0.  1.
        1   -1    0    0  501    0  0.00000000000E+00  0.00000000000E+00 -0.84648753562E+03  0.84648753563E+03  0.50400001928E-02 0. -1.
    10030    2    1    2    0    0  0.00000000000E+00  0.00000000000E+00  0.20666752922E+03  0.18996426005E+04  0.18883671629E+04 0.  0.
        3    1    3    3  502    0  0.17645161253E+03 -0.76812926718E+03 -0.41969849006E+03  0.89291913151E+03  0.10100000352E+00 0. -1.
       -3    1    3    3    0  502 -0.17645161253E+03  0.76812926718E+03  0.62636601928E+03  0.10067234690E+04  0.10100000352E+00 0.  1.
</event>
<event>
 5   0  0.1274868E-04  0.1931398E+04  0.7818609E-02  0.8639383E-01
       -2   -1    0    0    0  501  0.00000000000E+00  0.00000000000E+00  0.56017871432E+03  0.56017871433E+03  0.25500000920E-02 0.  1.
        2   -1    0    0  501    0  0.00000000000E+00  0.00000000000E+00 -0.16647811239E+04  0.16647811239E+04  0.25500000920E-02 0. -1.
    10030    2    1    2    0    0  0.00000000000E+00  0.00000000000E+00 -0.11046024096E+04  0.22249598382E+04  0.19313984049E+04 0.  0.
        1    1    3    3  502    0  0.98931010961E+02  0.42288093415E+03 -0.15459316779E+04  0.16057771895E+04  0.50400001928E-02 0. -1.
       -1    1    3    3    0  502 -0.98931010961E+02 -0.42288093415E+03  0.44132926835E+03  0.61918264876E+03  0.50400001928E-02 0.  1.
</event>
<event>
 5   0  0.1274868E-04  0.2065370E+04  0.7818609E-02  0.8576654E-01
        2   -1    0    0  501    0  0.00000000000E+00  0.00000000000E+00  0.80296860250E+03  0.80296860251E+03  0.25500000920E-02 0.  1.
       -2   -1    0    0    0  501  0.00000000000E+00  0.00000000000E+00 -0.13281192128E+04  0.13281192128E+04  0.25500000920E-02 0. -1.
    10030    2    1    2    0    0  0.00000000000E+00  0.00000000000E+00 -0.52515061027E+03  0.21310878153E+04  0.20653697279E+04 0.  0.
        1    1    3    3  502    0 -0.48689017456E+03  0.73924605769E+03 -0.81137428801E+03  0.12007810005E+04  0.50400001928E-02 0. -1.
       -1    1    3    3    0  502  0.48689017456E+03 -0.73924605769E+03  0.28622367775E+03  0.93030681478E+03  0.50400001928E-02 0.  1.
</event>
<event>
 5   0  0.1244229E-04  0.1997880E+04  0.7818609E-02  0.8607612E-01
       -2   -1    0    0    0  501  0.00000000000E+00  0.00000000000E+00  0.55507803009E+03  0.55507803009E+03  0.25500000920E-02 0.  1.
        2   -1    0    0  501    0  0.00000000000E+00  0.00000000000E+00 -0.17977313299E+04  0.17977313299E+04  0.25500000920E-02 0. -1.
    10030    2    1    2    0    0  0.00000000000E+00  0.00000000000E+00 -0.12426532998E+04  0.23528093600E+04  0.19978800417E+04 0.  0.
        5    1    3    3  502    0 -0.43855560541E+03  0.63296769588E+03  0.12801602677E+03  0.78063391943E+03  0.46999998093E+01 0.  1.
       -5    1    3    3    0  502  0.43855560541E+03 -0.63296769588E+03 -0.13706693266E+04  0.15721754406E+04  0.46999998093E+01 0. -1.
</event>
<event>
 5   0  0.1159914E-04  0.2016491E+04  0.7818609E-02  0.8598949E-01
       -2   -1    0    0    0  501  0.00000000000E+00  0.00000000000E+00  0.69655771698E+03  0.69655771698E+03  0.25500000920E-02 0. -1.
        2   -1    0    0  501    0  0.00000000000E+00  0.00000000000E+00 -0.14594034145E+04  0.14594034145E+04  0.25500000920E-02 0.  1.
    10030    2    1    2    0    0  0.00000000000E+00  0.00000000000E+00 -0.76284569750E+03  0.21559611315E+04  0.20164907246E+04 0.  0.
        3    1    3    3  502    0 -0.94343894527E+03 -0.35413248266E+03 -0.34641946662E+03  0.10655952870E+04  0.10100000352E+00 0. -1.
       -3    1    3    3    0  502  0.94343894527E+03  0.35413248266E+03 -0.41642623088E+03  0.10903658444E+04  0.10100000352E+00 0.  1.
</event>
<event>
 5   0  0.6256535E-05  0.2005707E+04  0.7818609E-02  0.8603957E-01
        1   -1    0    0  501    0  0.00000000000E+00  0.00000000000E+00  0.17283616186E+04  0.17283616186E+04  0.50400001928E-02 0.  1.
       -1   -1    0    0    0  501  0.00000000000E+00  0.00000000000E+00 -0.58188937681E+03  0.58188937683E+03  0.50400001928E-02 0. -1.
    10030    2    1    2    0    0  0.00000000000E+00  0.00000000000E+00  0.11464722418E+04  0.23102509954E+04  0.20057071224E+04 0.  0.
        1    1    3    3  502    0 -0.66362927314E+03  0.44139348987E+03 -0.12785736575E+03  0.80720476403E+03  0.50400001928E-02 0. -1.
       -1    1    3    3    0  502  0.66362927314E+03 -0.44139348987E+03  0.12743296075E+04  0.15030462314E+04  0.50400001928E-02 0.  1.
</event>
<event>
 5   0  0.6256535E-05  0.2006444E+04  0.7818609E-02  0.8603614E-01
       -1   -1    0    0    0  501  0.00000000000E+00  0.00000000000E+00  0.11388644653E+04  0.11388644653E+04  0.50400001928E-02 0.  1.
        1   -1    0    0  501    0  0.00000000000E+00  0.00000000000E+00 -0.88373493139E+03  0.88373493140E+03  0.50400001928E-02 0. -1.
    10030    2    1    2    0    0  0.00000000000E+00  0.00000000000E+00  0.25512953390E+03  0.20225993967E+04  0.20064439291E+04 0.  0.
        1    1    3    3  502    0 -0.73291370970E+03  0.64360765269E+02 -0.55994539709E+03  0.92457755852E+03  0.50400001928E-02 0. -1.
       -1    1    3    3    0  502  0.73291370970E+03 -0.64360765269E+02  0.81507493098E+03  0.10980218382E+04  0.50400001928E-02 0.  1.
</event>
<event>
 5   0  0.6256535E-05  0.2053812E+04  0.7818609E-02  0.8581867E-01
       -1   -1    0    0    0  501  0.00000000000E+00  0.00000000000E+00  0.45738377502E+03  0.45738377505E+03  0.50400001928E-02 0.  1.
        1   -1    0    0  501    0  0.00000000000E+00  0.00000000000E+00 -0.23055814410E+04  0.23055814410E+04  0.50400001928E-02 0. -1.
    10030    2    1    2    0    0  0.00000000000E+00  0.00000000000E+00 -0.18481976660E+04  0.27629652160E+04  0.20538116205E+04 0.  0.
        1    1    3    3  502    0  0.54448409462E+03  0.22875578956E+03  0.20605672235E+03  0.62550100991E+03  0.50400001928E-02 0.  1.
       -1    1    3    3    0  502 -0.54448409462E+03 -0.22875578956E+03 -0.20542543883E+04  0.21374642061E+04  0.50400001928E-02 0. -1.
</event>
<event>
 5   0  0.1244229E-04  0.2008328E+04  0.7818609E-02  0.8602737E-01
        2   -1    0    0  501    0  0.00000000000E+00  0.00000000000E+00  0.18950049592E+04  0.18950049592E+04  0.25500000920E-02 0.  1.
       -2   -1    0    0    0  501  0.00000000000E+00  0.00000000000E+00 -0.53210717913E+03  0.53210717914E+03  0.25500000920E-02 0. -1.
    10030    2    1    2    0    0  0.00000000000E+00  0.00000000000E+00  0.13628977801E+04  0.24271121383E+04  0.20083284027E+04 0.  0.
        5    1    3    3  502    0  0.39375406170E+03  0.66427445451E+03  0.14571862435E+04  0.16491563450E+04  0.46999998093E+01 0.  1.
       -5    1    3    3    0  502 -0.39375406170E+03 -0.66427445451E+03 -0.94288463447E+02  0.77795579332E+03  0.46999998093E+01 0. -1.
</event>
<event>
 5   0  0.1274868E-04  0.2023537E+04  0.7818609E-02  0.8595695E-01
       -2   -1    0    0    0  501  0.00000000000E+00  0.00000000000E+00  0.11586680191E+04  0.11586680191E+04  0.25500000920E-02 0. -1.
        2   -1    0    0  501    0  0.00000000000E+00  0.00000000000E+00 -0.88349331496E+03  0.88349331496E+03  0.25500000920E-02 0.  1.
    10030    2    1    2    0    0  0.00000000000E+00  0.00000000000E+00  0.27517470414E+03  0.20421613341E+04  0.20235369521E+04 0.  0.
        1    1    3    3  502    0 -0.14158488536E+03  0.25616885959E+03 -0.83983412191E+03  0.88937625150E+03  0.50400001928E-02 0.  1.
       -1    1    3    3    0  502  0.14158488536E+03 -0.25616885959E+03  0.11150088261E+04  0.11527850826E+04  0.50400001928E-02 0. -1.
</event>
<event>
 5   0  0.6168338E-05  0.1969775E+04  0.7818609E-02  0.8620883E-01
        1   -1    0    0  501    0  0.00000000000E+00  0.00000000000E+00  0.10510074088E+04  0.10510074088E+04  0.50400001928E-02 0. -1.
       -1   -1    0    0    0  501  0.00000000000E+00  0.00000000000E+00 -0.92292767515E+03  0.92292767516E+03  0.50400001928E-02 0.  1.
    10030    2    1    2    0    0  0.00000000000E+00  0.00000000000E+00  0.12807973360E+03  0.19739350839E+04  0.19697754434E+04 0.  0.
        5    1    3    3  502    0 -0.40434583453E+03  0.82091462861E+03 -0.30085178023E+03  0.96329137079E+03  0.46999998093E+01 0. -1.
       -5    1    3    3    0  502  0.40434583453E+03 -0.82091462861E+03  0.42893151383E+03  0.10106437131E+04  0.46999998093E+01 0.  1.
</event>
<event>
 5   0  0.6168338E-05  0.2016157E+04  0.7818609E-02  0.8599104E-01
       -1   -1    0    0    0  501  0.00000000000E+00  0.00000000000E+00  0.72163660261E+03  0.72163660263E+03  0.50400001928E-02 0. -1.
        1   -1    0    0  501    0  0.00000000000E+00  0.00000000000E+00 -0.14082183725E+04  0.14082183725E+04  0.50400001928E-02 0.  1.
    10030    2    1    2    0    0  0.00000000000E+00  0.00000000000E+00 -0.68658176985E+03  0.21298549751E+04  0.20161566626E+04 0.  0.
        5    1    3    3  502    0 -0.19129227668E+03 -0.61217373743E+03 -0.11648706755E+04  0.13297726123E+04  0.46999998093E+01 0.  1.
       -5    1    3    3    0  502  0.19129227668E+03  0.61217373743E+03  0.47828890565E+03  0.80008236275E+03  0.46999998093E+01 0. -1.
</event>
<event>
 5   0  0.1274868E-04  0.1997157E+04  0.7818609E-02  0.8607951E-01
       -2   -1    0    0    0  501  0.00000000000E+00  0.00000000000E+00  0.75262877931E+03  0.75262877931E+03  0.25500000920E-02 0.  1.
        2   -1    0    0  501    0  0.00000000000E+00  0.00000000000E+00 -0.13249014566E+04  0.13249014566E+04  0.25500000920E-02 0. -1.
    10030    2    1    2    0    0  0.00000000000E+00  0.00000000000E+00 -0.57227267727E+03  0.20775302359E+04  0.19971569452E+04 0.  0.
        1    1    3    3  502    0  0.46712424135E+03  0.64812035274E+03 -0.90932308320E+03  0.12104269983E+04  0.50400001928E-02 0. -1.
       -1    1    3    3    0  502 -0.46712424135E+03 -0.64812035274E+03  0.33705040594E+03  0.86710323760E+03  0.50400001928E-02 0.  1.
</event>
<event>
 5   0  0.6214547E-05  0.2031793E+04  0.7818609E-02  0.8591899E-01
        1   -1    0    0  501    0  0.00000000000E+00  0.00000000000E+00  0.66298236518E+03  0.66298236520E+03  0.50400001928E-02 0. -1.
       -1   -1    0    0    0  501  0.00000000000E+00  0.00000000000E+00 -0.15566716287E+04  0.15566716287E+04  0.50400001928E-02 0.  1.
    10030    2    1    2    0    0  0.00000000000E+00  0.00000000000E+00 -0.89368926355E+03  0.22196539939E+04  0.20317931374E+04 0.  0.
        3    1    3    3  502    0 -0.11647286253E+03  0.91759853551E+03  0.12109540706E+02  0.92504035115E+03  0.10100000352E+00 0. -1.
       -3    1    3    3    0  502  0.11647286253E+03 -0.91759853551E+03 -0.90579880426E+03  0.12946136428E+04  0.10100000352E+00 0.  1.
</event>
<event>
 5   0  0.6222733E-05  0.2007890E+04  0.7818609E-02  0.8602941E-01
        1   -1    0    0  501    0  0.00000000000E+00  0.00000000000E+00  0.16965309110E+04  0.16965309110E+04  0.50400001928E-02 0.  1.
       -1   -1    0    0    0  501  0.00000000000E+00  0.00000000000E+00 -0.59409806681E+03  0.59409806683E+03  0.50400001928E-02 0. -1.
    10030    2    1    2    0    0  0.00000000000E+00  0.00000000000E+00  0.11024328442E+04  0.22906289778E+04  0.20078901708E+04 0.  0.
        2    1    3    3  502    0 -0.41238195621E+02  0.50499127314E+03  0.15399730211E+04  0.16211828029E+04  0.25500000920E-02 0.  1.
       -2    1    3    3    0  502  0.41238195621E+02 -0.50499127314E+03 -0.43754017691E+03  0.66944617494E+03  0.25500000920E-02 0. -1.
</event>
<event>
 5   0  0.6028501E-05  0.2011274E+04  0.7818609E-02  0.8601368E-01
        1   -1    0    0  501    0  0.00000000000E+00  0.00000000000E+00  0.17928169594E+04  0.17928169594E+04  0.50400001928E-02 0. -1.
       -1   -1    0    0    0  501  0.00000000000E+00  0.00000000000E+00 -0.56408752475E+03  0.56408752477E+03  0.50400001928E-02 0.  1.
    10030    2    1    2    0    0  0.00000000000E+00  0.00000000000E+00  0.12287294347E+04  0.23569044842E+04  0.20112739058E+04 0.  0.
        4    1    3    3  502    0  0.89245878907E+03  0.34002088578E+03  0.24526619600E+03  0.98602941779E+03  0.12699999809E+01 0.  1.
       -4    1    3    3    0  502 -0.89245878907E+03 -0.34002088578E+03  0.98346323866E+03  0.13708750664E+04  0.12699999809E+01 0. -1.
</event>
<event>
 5   0  0.6028501E-05  0.2014944E+04  0.7818609E-02  0.8599666E-01
       -1   -1    0    0    0  501  0.00000000000E+00  0.00000000000E+00  0.11095227663E+04  0.11095227663E+04  0.50400001928E-02 0.  1.
        1   -1    0    0  501    0  0.00000000000E+00  0.00000000000E+00 -0.91480764426E+03  0.91480764428E+03  0.50400001928E-02 0. -1.
    10030    2    1    2    0    0  0.00000000000E+00  0.00000000000E+00  0.19471512206E+03  0.20243304106E+04  0.20149440768E+04 0.  0.
        4    1    3    3  502    0  0.94403489718E+03  0.32549781023E+03 -0.36859620760E+02  0.99925520069E+03  0.12699999809E+01 0. -1.
       -4    1    3    3    0  502 -0.94403489718E+03 -0.32549781023E+03  0.23157474282E+03  0.10250752099E+04  0.12699999809E+01 0.  1.
</event>
<event>
 5   0  0.6256535E-05  0.1900359E+04  0.7818609E-02  0.8654678E-01
       -1   -1    0    0    0  501  0.00000000000E+00  0.00000000000E+00  0.67208578802E+03  0.67208578803E+03  0.50400001928E-02 0. -1.
        1   -1    0    0  501    0  0.00000000000E+00  0.00000000000E+00 -0.13433425615E+04  0.13433425615E+04  0.50400001928E-02 0.  1.
    10030    2    1    2    0    0  0.00000000000E+00  0.00000000000E+00 -0.67125677351E+03  0.20154283496E+04  0.19003593808E+04 0.  0.
        1    1    3    3  502    0 -0.45659378318E+03  0.78043087762E+03 -0.64535872940E+03  0.11108726872E+04  0.50400001928E-02 0. -1.
       -1    1    3    3    0  502  0.45659378318E+03 -0.78043087762E+03 -0.25898044112E+02  0.90455566235E+03  0.50400001928E-02 0.  1.
</event>
<event>
 5   0  0.6214547E-05  0.1714350E+04  0.7818609E-02  0.8753222E-01
        1   -1    0    0  501    0  0.00000000000E+00  0.00000000000E+00  0.11069168713E+04  0.11069168713E+04  0.50400001928E-02 0. -1.
       -1   -1    0    0    0  501  0.00000000000E+00  0.00000000000E+00 -0.66377994255E+03  0.66377994257E+03  0.50400001928E-02 0.  1.
    10030    2    1    2    0    0  0.00000000000E+00  0.00000000000E+00  0.44313692878E+03  0.17706968139E+04  0.17143502761E+04 0.  0.
        3    1    3    3  502    0  0.22005853627E+03  0.15163958918E+02 -0.63396361213E+03  0.67124181689E+03  0.10100000352E+00 0.  1.
       -3    1    3    3    0  502 -0.22005853627E+03 -0.15163958918E+02  0.10771005409E+04  0.10994549970E+04  0.10100000352E+00 0. -1.
</event>
<event>
 5   0  0.6028501E-05  0.2149871E+04  0.7818609E-02  0.8539587E-01
       -1   -1    0    0    0  501  0.00000000000E+00  0.00000000000E+00  0.11821677854E+04  0.11821677854E+04  0.50400001928E-02 0.  1.
        1   -1    0    0  501    0  0.00000000000E+00  0.00000000000E+00 -0.97743025984E+03  0.97743025985E+03  0.50400001928E-02 0. -1.
    10030    2    1    2    0    0  0.00000000000E+00  0.00000000000E+00  0.20473752560E+03  0.21595980453E+04  0.21498712201E+04 0.  0.
        4    1    3    3  502    0  0.89155198595E+03  0.58750699466E+03 -0.22514022706E+02  0.10679596933E+04  0.12699999809E+01 0. -1.
       -4    1    3    3    0  502 -0.89155198595E+03 -0.58750699466E+03  0.22725154830E+03  0.10916383520E+04  0.12699999809E+01 0.  1.
</event>
<event>
 5   0  0.1159914E-04  0.1873613E+04  0.7818609E-02  0.8668104E-01
        2   -1    0    0  501    0  0.00000000000E+00  0.00000000000E+00  0.17317148470E+04  0.17317148470E+04  0.25500000920E-02 0. -1.
       -2   -1    0    0    0  501  0.00000000000E+00  0.00000000000E+00 -0.50678435391E+03  0.50678435392E+03  0.25500000920E-02 0.  1.
    10030    2    1    2    0    0  0.00000000000E+00  0.00000000000E+00  0.12249304930E+04  0.22384992009E+04  0.18736125425E+04 0.  0.
        3    1    3    3  502    0 -0.78164147762E+03  0.44348457728E+03  0.92848519996E+03  0.12921790691E+04  0.10100000352E+00 0.  1.
       -3    1    3    3    0  502  0.78164147762E+03 -0.44348457728E+03  0.29644529308E+03  0.94632013178E+03  0.10100000352E+00 0. -1.
</event>
<event>
 5   0  0.6222733E-05  0.1864804E+04  0.7818609E-02  0.8672577E-01
        1   -1    0    0  501    0  0.00000000000E+00  0.00000000000E+00  0.10967408879E+04  0.10967408879E+04  0.50400001928E-02 0.  1.
       -1   -1    0    0    0  501  0.00000000000E+00  0.00000000000E+00 -0.79268845945E+03  0.79268845947E+03  0.50400001928E-02 0. -1.
    10030    2    1    2    0    0  0.00000000000E+00  0.00000000000E+00  0.30405242844E+03  0.18894293474E+04  0.18648043810E+04 0.  0.
        2    1    3    3  502    0 -0.89560365491E+03 -0.12246981426E+03  0.38366955268E+03  0.98199138884E+03  0.25500000920E-02 0.  1.
       -2    1    3    3    0  502  0.89560365491E+03  0.12246981426E+03 -0.79617124238E+02  0.90743795853E+03  0.25500000920E-02 0. -1.
</event>
<event>
 5   0  0.6214547E-05  0.1983044E+04  0.7818609E-02  0.8614589E-01
       -1   -1    0    0    0  501  0.00000000000E+00  0.00000000000E+00  0.92786724578E+03  0.92786724580E+03  0.50400001928E-02 0. -1.
        1   -1    0    0  501    0  0.00000000000E+00  0.00000000000E+00 -0.10595441463E+04  0.10595441463E+04  0.50400001928E-02 0.  1.
    10030    2    1    2    0    0  0.00000000000E+00  0.00000000000E+00 -0.13167690049E+03  0.19874113921E+04  0.19830444360E+04 0.  0.
        3    1    3    3  502    0  0.12465019057E+03 -0.23720300364E+03  0.89089112265E+03  0.93031711667E+03  0.10100000352E+00 0. -1.
       -3    1    3    3    0  502 -0.12465019057E+03  0.23720300364E+03 -0.10225680231E+04  0.10570942754E+04  0.10100000352E+00 0.  1.
</event>
<event>
 5   0  0.6222733E-05  0.1977366E+04  0.7818609E-02  0.8617276E-01
        1   -1    0    0  501    0  0.00000000000E+00  0.00000000000E+00  0.72705099033E+03  0.72705099035E+03  0.50400001928E-02 0.  1.
       -1   -1    0    0    0  501  0.00000000000E+00  0.00000000000E+00 -0.13444648065E+04  0.13444648065E+04  0.50400001928E-02 0. -1.
    10030    2    1    2    0    0  0.00000000000E+00  0.00000000000E+00 -0.61741381619E+03  0.20715157969E+04  0.19773663991E+04 0.  0.
        2    1    3    3  502    0  0.61395747779E+03  0.66647100776E+03  0.10555381895E+03  0.91228778213E+03  0.25500000920E-02 0.  1.
       -2    1    3    3    0  502 -0.61395747779E+03 -0.66647100776E+03 -0.72296763514E+03  0.11592280148E+04  0.25500000920E-02 0. -1.
</event>
<event>
 5   0  0.1274868E-04  0.1962716E+04  0.7818609E-02  0.8624253E-01
        2   -1    0    0  501    0  0.00000000000E+00  0.00000000000E+00  0.19908010735E+04  0.19908010735E+04  0.25500000920E-02 0. -1.
       -2   -1    0    0    0  501  0.00000000000E+00  0.00000000000E+00 -0.48375688625E+03  0.48375688625E+03  0.25500000920E-02 0.  1.
    10030    2    1    2    0    0  0.00000000000E+00  0.00000000000E+00  0.15070441873E+04  0.24745579598E+04  0.19627162082E+04 0.  0.
        1    1    3    3  502    0  0.94617535717E+02  0.97512565981E+03  0.82530034935E+03  0.12809930512E+04  0.50400001928E-02 0. -1.
       -1    1    3    3    0  502 -0.94617535717E+02 -0.97512565981E+03  0.68174383792E+03  0.11935649086E+04  0.50400001928E-02 0.  1.
</event>
<event>
 5   0  0.6256535E-05  0.1999689E+04  0.7818609E-02  0.8606766E-01
        1   -1    0    0  501    0  0.00000000000E+00  0.00000000000E+00  0.76833502735E+03  0.76833502737E+03  0.50400001928E-02 0. -1.
       -1   -1    0    0    0  501  0.00000000000E+00  0.00000000000E+00 -0.13011102509E+04  0.13011102509E+04  0.50400001928E-02 0.  1.
    10030    2    1    2    0    0  0.00000000000E+00  0.00000000000E+00 -0.53277522353E+03  0.20694452783E+04  0.19996885560E+04 0.  0.
        1    1    3    3  502    0 -0.32277025376E+03  0.63201643971E+03 -0.99527439448E+03  0.12223733215E+04  0.50400001928E-02 0.  1.
       -1    1    3    3    0  502  0.32277025376E+03 -0.63201643971E+03  0.46249917095E+03  0.84707195676E+03  0.50400001928E-02 0. -1.
</event>
<event>
 5   0  0.1281789E-04  0.1992337E+04  0.7818609E-02  0.8610212E-01
        2   -1    0    0  501    0  0.00000000000E+00  0.00000000000E+00  0.19400723048E+04  0.19400723048E+04  0.25500000920E-02 0.  1.
       -2   -1    0    0    0  501  0.00000000000E+00  0.00000000000E+00 -0.51150238037E+03  0.51150238038E+03  0.25500000920E-02 0. -1.
    10030    2    1    2    0    0  0.00000000000E+00  0.00000000000E+00  0.14285699244E+04  0.24515746852E+04  0.19923369213E+04 0.  0.
        2    1    3    3  502    0  0.21355361925E+03 -0.38653788514E+03  0.18130446988E+04  0.18660513833E+04  0.25500000920E-02 0.  1.
       -2    1    3    3    0  502 -0.21355361925E+03  0.38653788514E+03 -0.38447477441E+03  0.58552330193E+03  0.25500000920E-02 0. -1.
</event>
<event>
 5   0  0.4479000E-05  0.2002881E+04  0.7818609E-02  0.8605275E-01
        3   -1    0    0  501    0  0.00000000000E+00  0.00000000000E+00  0.99378543044E+03  0.99378543557E+03  0.10100000352E+00 0.  1.
       -3   -1    0    0    0  501  0.00000000000E+00  0.00000000000E+00 -0.10091542597E+04  0.10091542648E+04  0.10100000352E+00 0. -1.
    10030    2    1    2    0    0  0.00000000000E+00  0.00000000000E+00 -0.15368829293E+02  0.20029397004E+04  0.20028807359E+04 0.  0.
        4    1    3    3  502    0 -0.53691250602E+03  0.11600007161E+03  0.82968732240E+03  0.99504458272E+03  0.12699999809E+01 0.  1.
       -4    1    3    3    0  502  0.53691250602E+03 -0.11600007161E+03 -0.84505615170E+03  0.10078951176E+04  0.12699999809E+01 0. -1.
</event>
<event>
 5   0  0.6256535E-05  0.2022183E+04  0.7818609E-02  0.8596319E-01
        1   -1    0    0  501    0  0.00000000000E+00  0.00000000000E+00  0.14275494953E+04  0.14275494954E+04  0.50400001928E-02 0. -1.
       -1   -1    0    0    0  501  0.00000000000E+00  0.00000000000E+00 -0.71612620959E+03  0.71612620961E+03  0.50400001928E-02 0.  1.
    10030    2    1    2    0    0  0.00000000000E+00  0.00000000000E+00  0.71142328575E+03  0.21436757050E+04  0.20221825923E+04 0.  0.
        1    1    3    3  502    0  0.56662133777E+03  0.11230339538E+03  0.12354081977E+04  0.13637834169E+04  0.50400001928E-02 0. -1.
       -1    1    3    3    0  502 -0.56662133777E+03 -0.11230339538E+03 -0.52398491199E+03  0.77989228811E+03  0.50400001928E-02 0.  1.
</event>
<event>
 5   0  0.6214547E-05  0.1992950E+04  0.7818609E-02  0.8609924E-01
        1   -1    0    0  501    0  0.00000000000E+00  0.00000000000E+00  0.60390878213E+03  0.60390878215E+03  0.50400001928E-02 0. -1.
       -1   -1    0    0    0  501  0.00000000000E+00  0.00000000000E+00 -0.16442264153E+04  0.16442264153E+04  0.50400001928E-02 0.  1.
    10030    2    1    2    0    0  0.00000000000E+00  0.00000000000E+00 -0.10403176331E+04  0.22481351974E+04  0.19929503476E+04 0.  0.
        3    1    3    3  502    0 -0.42594071504E+03 -0.88806326484E+03 -0.34952599908E+03  0.10451077884E+04  0.10100000352E+00 0. -1.
       -3    1    3    3    0  502  0.42594071504E+03  0.88806326484E+03 -0.69079163407E+03  0.12030274091E+04  0.10100000352E+00 0.  1.
</event>
<event>
 5   0  0.1159914E-04  0.2015825E+04  0.7818609E-02  0.8599257E-01
       -2   -1    0    0    0  501  0.00000000000E+00  0.00000000000E+00  0.17725943741E+04  0.17725943741E+04  0.25500000920E-02 0.  1.
        2   -1    0    0  501    0  0.00000000000E+00  0.00000000000E+00 -0.57310790385E+03  0.57310790386E+03  0.25500000920E-02 0. -1.
    10030    2    1    2    0    0  0.00000000000E+00  0.00000000000E+00  0.11994864702E+04  0.23457022779E+04  0.20158252366E+04 0.  0.
        3    1    3    3  502    0 -0.10032538020E+04 -0.13138851326E+02  0.71133790884E+03  0.12299156277E+04  0.10100000352E+00 0. -1.
       -3    1    3    3    0  502  0.10032538020E+04  0.13138851326E+02  0.48814856137E+03  0.11157866502E+04  0.10100000352E+00 0.  1.
</event>
<event>
 5   0  0.1242761E-04  0.2004195E+04  0.7818609E-02  0.8604662E-01
       -2   -1    0    0    0  501  0.00000000000E+00  0.00000000000E+00  0.15485159275E+04  0.15485159275E+04  0.25500000920E-02 0.  1.
        2   -1    0    0  501    0  0.00000000000E+00  0.00000000000E+00 -0.64849150719E+03  0.64849150720E+03  0.25500000920E-02 0. -1.
    10030    2    1    2    0    0  0.00000000000E+00  0.00000000000E+00  0.90002442031E+03  0.21970074347E+04  0.20041950282E+04 0.  0.
        4    1    3    3  502    0 -0.23768880577E+03  0.83037506673E+03 -0.10698379865E+03  0.87032514953E+03  0.12699999809E+01 0. -1.
       -4    1    3    3    0  502  0.23768880577E+03 -0.83037506673E+03  0.10070082190E+04  0.13266822852E+04  0.12699999809E+01 0.  1.
</event>
<event>
 5   0  0.6256535E-05  0.1998771E+04  0.7818609E-02  0.8607196E-01
        1   -1    0    0  501    0  0.00000000000E+00  0.00000000000E+00  0.81258561827E+03  0.81258561829E+03  0.50400001928E-02 0. -1.
       -1   -1    0    0    0  501  0.00000000000E+00  0.00000000000E+00 -0.12291270160E+04  0.12291270161E+04  0.50400001928E-02 0.  1.
    10030    2    1    2    0    0  0.00000000000E+00  0.00000000000E+00 -0.41654139777E+03  0.20417126343E+04  0.19987705584E+04 0.  0.
        1    1    3    3  502    0  0.49730930639E+03  0.84542250280E+03 -0.12541997770E+02  0.98092459251E+03  0.50400001928E-02 0. -1.
       -1    1    3    3    0  502 -0.49730930639E+03 -0.84542250280E+03 -0.40399940000E+03  0.10607880418E+04  0.50400001928E-02 0.  1.
</event>
<event>
 5   0  0.6168338E-05  0.1996057E+04  0.7818609E-02  0.8608466E-01
        1   -1    0    0  501    0  0.00000000000E+00  0.00000000000E+00  0.58164364586E+03  0.58164364588E+03  0.50400001928E-02 0.  1.
       -1   -1    0    0    0  501  0.00000000000E+00  0.00000000000E+00 -0.17124930159E+04  0.17124930160E+04  0.50400001928E-02 0. -1.
    10030    2    1    2    0    0  0.00000000000E+00  0.00000000000E+00 -0.11308493701E+04  0.22941366618E+04  0.19960567941E+04 0.  0.
        5    1    3    3  502    0  0.10718132443E+03  0.98347625687E+03 -0.71670611110E+03  0.12216395229E+04  0.46999998093E+01 0.  1.
       -5    1    3    3    0  502 -0.10718132443E+03 -0.98347625687E+03 -0.41414325899E+03  0.10724971390E+04  0.46999998093E+01 0. -1.
</event>
<event>
 5   0  0.1159914E-04  0.2073118E+04  0.7818609E-02  0.8573179E-01
        2   -1    0    0  501    0  0.00000000000E+00  0.00000000000E+00  0.24296563246E+04  0.24296563246E+04  0.25500000920E-02 0.  1.
       -2   -1    0    0    0  501  0.00000000000E+00  0.00000000000E+00 -0.44222472094E+03  0.44222472094E+03  0.25500000920E-02 0. -1.
    10030    2    1    2    0    0  0.00000000000E+00  0.00000000000E+00  0.19874316037E+04  0.28718810456E+04  0.20731175462E+04 0.  0.
        3    1    3    3  502    0  0.45577663009E+02  0.99753895278E+03  0.60858165669E+03  0.11694156356E+04  0.10100000352E+00 0. -1.
       -3    1    3    3    0  502 -0.45577663009E+02 -0.99753895278E+03  0.13788499470E+04  0.17024654100E+04  0.10100000352E+00 0.  1.
</event>
<event>
 5   0  0.6028501E-05  0.1990831E+04  0.7818609E-02  0.8610919E-01
       -1   -1    0    0    0  501  0.00000000000E+00  0.00000000000E+00  0.12919301899E+04  0.12919301899E+04  0.50400001928E-02 0.  1.
        1   -1    0    0  501    0  0.00000000000E+00  0.00000000000E+00 -0.76695512043E+03  0.76695512045E+03  0.50400001928E-02 0. -1.
    10030    2    1    2    0    0  0.00000000000E+00  0.00000000000E+00  0.52497506945E+03  0.20588853103E+04  0.19908314589E+04 0.  0.
        4    1    3    3  502    0  0.66860274692E+02 -0.99315981916E+03  0.25859884309E+03  0.10284511156E+04  0.12699999809E+01 0.  1.
       -4    1    3    3    0  502 -0.66860274692E+02  0.99315981916E+03  0.26637622636E+03  0.10304341947E+04  0.12699999809E+01 0. -1.
</event>
<event>
 5   0  0.1159914E-04  0.1942750E+04  0.7818609E-02  0.8633865E-01
        2   -1    0    0  501    0  0.00000000000E+00  0.00000000000E+00  0.11486863922E+04  0.11486863922E+04  0.25500000920E-02 0.  1.
       -2   -1    0    0    0  501  0.00000000000E+00  0.00000000000E+00 -0.82143335108E+03  0.82143335108E+03  0.25500000920E-02 0. -1.
    10030    2    1    2    0    0  0.00000000000E+00  0.00000000000E+00  0.32725304114E+03  0.19701197433E+04  0.19427499196E+04 0.  0.
        3    1    3    3  502    0  0.83946873808E+03  0.12352214785E+03 -0.31590298222E+03  0.90540608988E+03  0.10100000352E+00 0. -1.
       -3    1    3    3    0  502 -0.83946873808E+03 -0.12352214785E+03  0.64315602336E+03  0.10647136534E+04  0.10100000352E+00 0.  1.
</event>
<event>
 5   0  0.4479000E-05  0.1946268E+04  0.7818609E-02  0.8632162E-01
        3   -1    0    0  501    0  0.00000000000E+00  0.00000000000E+00  0.12703519916E+04  0.12703519957E+04  0.10100000352E+00 0. -1.
       -3   -1    0    0    0  501  0.00000000000E+00  0.00000000000E+00 -0.74545495751E+03  0.74545496435E+03  0.10100000352E+00 0.  1.
    10030    2    1    2    0    0  0.00000000000E+00  0.00000000000E+00  0.52489703414E+03  0.20158069600E+04  0.19462684305E+04 0.  0.
        4    1    3    3  502    0  0.15472878470E+03 -0.94174874351E+03  0.45939206970E+03  0.10591857152E+04  0.12699999809E+01 0. -1.
       -4    1    3    3    0  502 -0.15472878470E+03  0.94174874351E+03  0.65504964438E+02  0.95662124480E+03  0.12699999809E+01 0.  1.
</event>
<event>
 5   0  0.6222733E-05  0.1996581E+04  0.7818609E-02  0.8608221E-01
       -1   -1    0    0    0  501  0.00000000000E+00  0.00000000000E+00  0.88947956767E+03  0.88947956769E+03  0.50400001928E-02 0. -1.
        1   -1    0    0  501    0  0.00000000000E+00  0.00000000000E+00 -0.11204128659E+04  0.11204128659E+04  0.50400001928E-02 0.  1.
    10030    2    1    2    0    0  0.00000000000E+00  0.00000000000E+00 -0.23093329826E+03  0.20098924336E+04  0.19965814300E+04 0.  0.
        2    1    3    3  502    0  0.21236911673E+03  0.74691638966E+03 -0.74702447532E+03  0.10775111608E+04  0.25500000920E-02 0.  1.
       -2    1    3    3    0  502 -0.21236911673E+03 -0.74691638966E+03  0.51609117707E+03  0.93238127284E+03  0.25500000920E-02 0. -1.
</event>
<event>
 5   0  0.1244229E-04  0.2054184E+04  0.7818609E-02  0.8581699E-01
       -2   -1    0    0    0  501  0.00000000000E+00  0.00000000000E+00  0.66110623349E+03  0.66110623350E+03  0.25500000920E-02 0.  1.
        2   -1    0    0  501    0  0.00000000000E+00  0.00000000000E+00 -0.15956859387E+04  0.15956859387E+04  0.25500000920E-02 0. -1.
    10030    2    1    2    0    0  0.00000000000E+00  0.00000000000E+00 -0.93457970522E+03  0.22567921722E+04  0.20541839458E+04 0.  0.
        5    1    3    3  502    0  0.11538231850E+02 -0.12035286415E+03 -0.15878287058E+04  0.15924321121E+04  0.46999998093E+01 0. -1.
       -5    1    3    3    0  502 -0.11538231850E+02  0.12035286415E+03  0.65324900058E+03  0.66436006010E+03  0.46999998093E+01 0.  1.
</event>
<event>
 5   0  0.6256535E-05  0.2221159E+04  0.7818609E-02  0.8509673E-01
        1   -1    0    0  501    0  0.00000000000E+00  0.00000000000E+00  0.13960503189E+04  0.13960503189E+04  0.50400001928E-02 0. -1.
       -1   -1    0    0    0  501  0.00000000000E+00  0.00000000000E+00 -0.88348293697E+03  0.88348293699E+03  0.50400001928E-02 0.  1.
    10030    2    1    2    0    0  0.00000000000E+00  0.00000000000E+00  0.51256738196E+03  0.22795332559E+04  0.22211588290E+04 0.  0.
        1    1    3    3  502    0 -0.41483778755E+03  0.81811688064E+02  0.13102114371E+04  0.13767489068E+04  0.50400001928E-02 0. -1.
       -1    1    3    3    0  502  0.41483778755E+03 -0.81811688064E+02 -0.79764405518E+03  0.90278434915E+03  0.50400001928E-02 0.  1.
</event>
<event>
 5   0  0.6256535E-05  0.2000178E+04  0.7818609E-02  0.8606537E-01
        1   -1    0    0  501    0  0.00000000000E+00  0.00000000000E+00  0.80822894088E+03  0.80822894089E+03  0.50400001928E-02 0.  1.
       -1   -1    0    0    0  501  0.00000000000E+00  0.00000000000E+00 -0.12374939829E+04  0.12374939829E+04  0.50400001928E-02 0. -1.
    10030    2    1    2    0    0  0.00000000000E+00  0.00000000000E+00 -0.42926504199E+03  0.20457229238E+04  0.20001784432E+04 0.  0.
        1    1    3    3  502    0  0.67573932248E+03  0.73432693223E+03 -0.28184631292E+03  0.10369652933E+04  0.50400001928E-02 0. -1.
       -1    1    3    3    0  502 -0.67573932248E+03 -0.73432693223E+03 -0.14741872907E+03  0.10087576305E+04  0.50400001928E-02 0.  1.
</event>
<event>
 5   0  0.1159914E-04  0.1710604E+04  0.7818609E-02  0.8755340E-01
        2   -1    0    0  501    0  0.00000000000E+00  0.00000000000E+00  0.18536277806E+04  0.18536277806E+04  0.25500000920E-02 0.  1.
       -2   -1    0    0    0  501  0.00000000000E+00  0.00000000000E+00 -0.39465379499E+03  0.39465379499E+03  0.25500000920E-02 0. -1.
    10030    2    1    2    0    0  0.00000000000E+00  0.00000000000E+00  0.14589739856E+04  0.22482815756E+04  0.17106036807E+04 0.  0.
        3    1    3    3  502    0  0.51197690580E+03 -0.61594473297E+03  0.11238553560E+04  0.13800576574E+04  0.10100000352E+00 0.  1.
       -3    1    3    3    0  502 -0.51197690580E+03  0.61594473297E+03  0.33511862962E+03  0.86822391828E+03  0.10100000352E+00 0. -1.
</event>
<event>
 5   0  0.6028501E-05  0.1987856E+04  0.7818609E-02  0.8612320E-01
        1   -1    0    0  501    0  0.00000000000E+00  0.00000000000E+00  0.99992209972E+03  0.99992209974E+03  0.50400001928E-02 0.  1.
       -1   -1    0    0    0  501  0.00000000000E+00  0.00000000000E+00 -0.98796950865E+03  0.98796950866E+03  0.50400001928E-02 0. -1.
    10030    2    1    2    0    0  0.00000000000E+00  0.00000000000E+00  0.11952591074E+02  0.19878916084E+04  0.19878556744E+04 0.  0.
        4    1    3    3  502    0  0.63688323918E+03  0.62553864099E+03 -0.43103512918E+03  0.99131818666E+03  0.12699999809E+01 0. -1.
       -4    1    3    3    0  502 -0.63688323918E+03 -0.62553864099E+03  0.44298772025E+03  0.99657342174E+03  0.12699999809E+01 0.  1.
</event>
<event>
 5   0  0.6256535E-05  0.1976147E+04  0.7818609E-02  0.8617855E-01
       -1   -1    0    0    0  501  0.00000000000E+00  0.00000000000E+00  0.70927618998E+03  0.70927619000E+03  0.50400001928E-02 0.  1.
        1   -1    0    0  501    0  0.00000000000E+00  0.00000000000E+00 -0.13764587480E+04  0.13764587480E+04  0.50400001928E-02 0. -1.
    10030    2    1    2    0    0  0.00000000000E+00  0.00000000000E+00 -0.66718255802E+03  0.20857349380E+04  0.19761471772E+04 0.  0.
        1    1    3    3  502    0 -0.81109918097E+03 -0.15974003895E+03  0.23761449305E+03  0.86015080582E+03  0.50400001928E-02 0.  1.
       -1    1    3    3    0  502  0.81109918097E+03  0.15974003895E+03 -0.90479705107E+03  0.12255841322E+04  0.50400001928E-02 0. -1.
</event>
<event>
 5   0  0.1244229E-04  0.1994288E+04  0.7818609E-02  0.8609296E-01
        2   -1    0    0  501    0  0.00000000000E+00  0.00000000000E+00  0.85807895128E+03  0.85807895128E+03  0.25500000920E-02 0. -1.
       -2   -1    0    0    0  501  0.00000000000E+00  0.00000000000E+00 -0.11587466147E+04  0.11587466147E+04  0.25500000920E-02 0.  1.
    10030    2    1    2    0    0  0.00000000000E+00  0.00000000000E+00 -0.30066766345E+03  0.20168255660E+04  0.19942879230E+04 0.  0.
        5    1    3    3  502    0 -0.21464938792E+02 -0.71278785564E+03 -0.85516551285E+03  0.11134888482E+04  0.46999998093E+01 0.  1.
       -5    1    3    3    0  502  0.21464938792E+02  0.71278785564E+03  0.55449784939E+03  0.90333671780E+03  0.46999998093E+01 0. -1.
</event>
<event>
 5   0  0.6168338E-05  0.2020624E+04  0.7818609E-02  0.8597038E-01
       -1   -1    0    0    0  501  0.00000000000E+00  0.00000000000E+00  0.10528975084E+04  0.10528975084E+04  0.50400001928E-02 0.  1.
        1   -1    0    0  501    0  0.00000000000E+00  0.00000000000E+00 -0.96944928875E+03  0.96944928876E+03  0.50400001928E-02 0. -1.
    10030    2    1    2    0    0  0.00000000000E+00  0.00000000000E+00  0.83448219686E+02  0.20223467972E+04  0.20206243992E+04 0.  0.
        5    1    3    3  502    0 -0.35565264521E+03  0.21255109309E+03 -0.88049601458E+03  0.97311977316E+03  0.46999998093E+01 0. -1.
       -5    1    3    3    0  502  0.35565264521E+03 -0.21255109309E+03  0.96394423427E+03  0.10492270240E+04  0.46999998093E+01 0.  1.
</event>
<event>
 5   0  0.1159914E-04  0.2002679E+04  0.7818609E-02  0.8605369E-01
       -2   -1    0    0    0  501  0.00000000000E+00  0.00000000000E+00  0.79789740897E+03  0.79789740898E+03  0.25500000920E-02 0. -1.
        2   -1    0    0  501    0  0.00000000000E+00  0.00000000000E+00 -0.12566532785E+04  0.12566532785E+04  0.25500000920E-02 0.  1.
    10030    2    1    2    0    0  0.00000000000E+00  0.00000000000E+00 -0.45875586949E+03  0.20545506874E+04  0.20026786011E+04 0.  0.
        3    1    3    3  502    0 -0.12145490487E+03  0.81450895038E+03  0.35502959691E+03  0.89678433809E+03  0.10100000352E+00 0. -1.
       -3    1    3    3    0  502  0.12145490487E+03 -0.81450895038E+03 -0.81378546641E+03  0.11577663494E+04  0.10100000352E+00 0.  1.
</event>
<event>
 5   0  0.6222733E-05  0.2094593E+04  0.7818609E-02  0.8563629E-01
       -1   -1    0    0    0  501  0.00000000000E+00  0.00000000000E+00  0.61495362636E+03  0.61495362638E+03  0.50400001928E-02 0.  1.
        1   -1    0    0  501    0  0.00000000000E+00  0.00000000000E+00 -0.17835980414E+04  0.17835980414E+04  0.50400001928E-02 0. -1.
    10030    2    1    2    0    0  0.00000000000E+00  0.00000000000E+00 -0.11686444150E+04  0.23985516678E+04  0.20945931190E+04 0.  0.
        2    1    3    3  502    0 -0.77260850262E+03 -0.54117148622E+03 -0.63276138534E+02  0.94540697350E+03  0.25500000920E-02 0.  1.
       -2    1    3    3    0  502  0.77260850262E+03  0.54117148622E+03 -0.11053682765E+04  0.14531446943E+04  0.25500000920E-02 0. -1.
</event>
<event>
 5   0  0.6028501E-05  0.1981665E+04  0.7818609E-02  0.8615241E-01
        1   -1    0    0  501    0  0.00000000000E+00  0.00000000000E+00  0.10652026186E+04  0.10652026186E+04  0.50400001928E-02 0. -1.
       -1   -1    0    0    0  501  0.00000000000E+00  0.00000000000E+00 -0.92165517696E+03  0.92165517697E+03  0.50400001928E-02 0.  1.
    10030    2    1    2    0    0  0.00000000000E+00  0.00000000000E+00  0.14354744161E+03  0.19868577955E+04  0.19816654692E+04 0.  0.
        4    1    3    3  502    0  0.14910513308E+03 -0.43603987557E+03  0.95121781871E+03  0.10569673909E+04  0.12699999809E+01 0. -1.
       -4    1    3    3    0  502 -0.14910513308E+03  0.43603987557E+03 -0.80767037710E+03  0.92989040469E+03  0.12699999809E+01 0.  1.
</event>
<event>
 5   0  0.6256535E-05  0.1995510E+04  0.7818609E-02  0.8608723E-01
       -1   -1    0    0    0  501  0.00000000000E+00  0.00000000000E+00  0.16392617632E+04  0.16392617632E+04  0.50400001928E-02 0. -1.
        1   -1    0    0  501    0  0.00000000000E+00  0.00000000000E+00 -0.60729470743E+03  0.60729470745E+03  0.50400001928E-02 0.  1.
    10030    2    1    2    0    0  0.00000000000E+00  0.00000000000E+00  0.10319670557E+04  0.22465564706E+04  0.19955099528E+04 0.  0.
        1    1    3    3  502    0  0.16134170006E+03  0.76737538248E+03 -0.17857460323E+03  0.80422945156E+03  0.50400001928E-02 0.  1.
       -1    1    3    3    0  502 -0.16134170006E+03 -0.76737538248E+03  0.12105416590E+04  0.14423270191E+04  0.50400001928E-02 0. -1.
</event>
<event>
 5   0  0.6028501E-05  0.1996406E+04  0.7818609E-02  0.8608303E-01
       -1   -1    0    0    0  501  0.00000000000E+00  0.00000000000E+00  0.13701054271E+04  0.13701054271E+04  0.50400001928E-02 0.  1.
        1   -1    0    0  501    0  0.00000000000E+00  0.00000000000E+00 -0.72725036058E+03  0.72725036059E+03  0.50400001928E-02 0. -1.
    10030    2    1    2    0    0  0.00000000000E+00  0.00000000000E+00  0.64285506653E+03  0.20973557877E+04  0.19964064375E+04 0.  0.
        4    1    3    3  502    0 -0.13673758861E+03  0.71280090020E+03 -0.39851710785E+03  0.82800953473E+03  0.12699999809E+01 0.  1.
       -4    1    3    3    0  502  0.13673758861E+03 -0.71280090020E+03  0.10413721744E+04  0.12693462530E+04  0.12699999809E+01 0. -1.
</event>
<event>
 5   0  0.1281789E-04  0.1983654E+04  0.7818609E-02  0.8614301E-01
       -2   -1    0    0    0  501  0.00000000000E+00  0.00000000000E+00  0.10999111929E+04  0.10999111929E+04  0.25500000920E-02 0.  1.
        2   -1    0    0  501    0  0.00000000000E+00  0.00000000000E+00 -0.89436374250E+03  0.89436374251E+03  0.25500000920E-02 0. -1.
    10030    2    1    2    0    0  0.00000000000E+00  0.00000000000E+00  0.20554745035E+03  0.19942749354E+04  0.19836538921E+04 0.  0.
        2    1    3    3  502    0  0.77521197746E+03 -0.52067275337E+03 -0.23318156800E+03  0.96251097124E+03  0.25500000920E-02 0. -1.
       -2    1    3    3    0  502 -0.77521197746E+03  0.52067275337E+03  0.43872901835E+03  0.10317639641E+04  0.25500000920E-02 0.  1.
</event>
<event>
 5   0  0.1274868E-04  0.1992607E+04  0.7818609E-02  0.8610085E-01
        2   -1    0    0  501    0  0.00000000000E+00  0.00000000000E+00  0.10886997153E+04  0.10886997153E+04  0.25500000920E-02 0. -1.
       -2   -1    0    0    0  501  0.00000000000E+00  0.00000000000E+00 -0.91174895426E+03  0.91174895426E+03  0.25500000920E-02 0.  1.
    10030    2    1    2    0    0  0.00000000000E+00  0.00000000000E+00  0.17695076102E+03  0.20004486695E+04  0.19926071634E+04 0.  0.
        1    1    3    3  502    0 -0.85756352516E+03 -0.43225125876E+03 -0.17783154166E+03  0.97666801300E+03  0.50400001928E-02 0.  1.
       -1    1    3    3    0  502  0.85756352516E+03  0.43225125876E+03  0.35478230268E+03  0.10237806565E+04  0.50400001928E-02 0. -1.
</event>
<event>
 5   0  0.1159914E-04  0.1992639E+04  0.7818609E-02  0.8610070E-01
       -2   -1    0    0    0  501  0.00000000000E+00  0.00000000000E+00  0.93520438642E+03  0.93520438643E+03  0.25500000920E-02 0.  1.
        2   -1    0    0  501    0  0.00000000000E+00  0.00000000000E+00 -0.10614279605E+04  0.10614279606E+04  0.25500000920E-02 0. -1.
    10030    2    1    2    0    0  0.00000000000E+00  0.00000000000E+00 -0.12622357412E+03  0.19966323470E+04  0.19926385368E+04 0.  0.
        3    1    3    3  502    0 -0.84293245573E+03 -0.50778481512E+02 -0.59288548058E+03  0.10318075317E+04  0.10100000352E+00 0. -1.
       -3    1    3    3    0  502  0.84293245573E+03  0.50778481512E+02  0.46666190646E+03  0.96482481532E+03  0.10100000352E+00 0.  1.
</event>
<event>
 5   0  0.1274868E-04  0.1994004E+04  0.7818609E-02  0.8609429E-01
       -2   -1    0    0    0  501  0.00000000000E+00  0.00000000000E+00  0.53165165229E+03  0.53165165229E+03  0.25500000920E-02 0.  1.
        2   -1    0    0  501    0  0.00000000000E+00  0.00000000000E+00 -0.18696696732E+04  0.18696696732E+04  0.25500000920E-02 0. -1.
    10030    2    1    2    0    0  0.00000000000E+00  0.00000000000E+00 -0.13380180209E+04  0.24013213255E+04  0.19940039830E+04 0.  0.
        1    1    3    3  502    0 -0.47522445335E+03  0.76100939281E+03 -0.14540807419E+03  0.90890983330E+03  0.50400001928E-02 0.  1.
       -1    1    3    3    0  502  0.47522445335E+03 -0.76100939281E+03 -0.11926099468E+04  0.14924114922E+04  0.50400001928E-02 0. -1.
</event>
<event>
 5   0  0.1242761E-04  0.1942914E+04  0.7818609E-02  0.8633785E-01
        2   -1    0    0  501    0  0.00000000000E+00  0.00000000000E+00  0.87883779835E+03  0.87883779835E+03  0.25500000920E-02 0. -1.
       -2   -1    0    0    0  501  0.00000000000E+00  0.00000000000E+00 -0.10738371971E+04  0.10738371971E+04  0.25500000920E-02 0.  1.
    10030    2    1    2    0    0  0.00000000000E+00  0.00000000000E+00 -0.19499939874E+03  0.19526749954E+04  0.19429140157E+04 0.  0.
        4    1    3    3  502    0  0.20434888402E+03 -0.85393308199E+03  0.32024090646E+03  0.93462079261E+03  0.12699999809E+01 0. -1.
       -4    1    3    3    0  502 -0.20434888402E+03  0.85393308199E+03 -0.51524030520E+03  0.10180542028E+04  0.12699999809E+01 0.  1.
</event>
<event>
 5   0  0.6214547E-05  0.2013323E+04  0.7818609E-02  0.8600417E-01
       -1   -1    0    0    0  501  0.00000000000E+00  0.00000000000E+00  0.80043239141E+03  0.80043239143E+03  0.50400001928E-02 0. -1.
        1   -1    0    0  501    0  0.00000000000E+00  0.00000000000E+00 -0.12660245688E+04  0.12660245688E+04  0.50400001928E-02 0.  1.
    10030    2    1    2    0    0  0.00000000000E+00  0.00000000000E+00 -0.46559217739E+03  0.20664569602E+04  0.20133226996E+04 0.  0.
        3    1    3    3  502    0  0.15823514363E+03  0.14941953118E+03 -0.12415891833E+04  0.12605190468E+04  0.10100000352E+00 0.  1.
       -3    1    3    3    0  502 -0.15823514363E+03 -0.14941953118E+03  0.77599700592E+03  0.80593791347E+03  0.10100000352E+00 0. -1.
</event>
<event>
 5   0  0.6256535E-05  0.2016647E+04  0.7818609E-02  0.8598877E-01
        1   -1    0    0  501    0  0.00000000000E+00  0.00000000000E+00  0.99763908123E+03  0.99763908124E+03  0.50400001928E-02 0. -1.
       -1   -1    0    0    0  501  0.00000000000E+00  0.00000000000E+00 -0.10191218487E+04  0.10191218487E+04  0.50400001928E-02 0.  1.
    10030    2    1    2    0    0  0.00000000000E+00  0.00000000000E+00 -0.21482767473E+02  0.20167609300E+04  0.20166465083E+04 0.  0.
        1    1    3    3  502    0  0.84182677241E+03 -0.15776140926E+03 -0.54289450110E+03  0.10140490207E+04  0.50400001928E-02 0.  1.
       -1    1    3    3    0  502 -0.84182677241E+03  0.15776140926E+03  0.52141173363E+03  0.10027119093E+04  0.50400001928E-02 0. -1.
</event>
<event>
 5   0  0.4479000E-05  0.2012821E+04  0.7818609E-02  0.8600650E-01
       -3   -1    0    0    0  501  0.00000000000E+00  0.00000000000E+00  0.13038895565E+04  0.13038895604E+04  0.10100000352E+00 0. -1.
        3   -1    0    0  501    0  0.00000000000E+00  0.00000000000E+00 -0.77680087712E+03  0.77680088368E+03  0.10100000352E+00 0.  1.
    10030    2    1    2    0    0  0.00000000000E+00  0.00000000000E+00  0.52708867940E+03  0.20806904441E+04  0.20128214646E+04 0.  0.
        1    1    3    3  502    0  0.60379069269E+03  0.12595917813E+03  0.10856160462E+04  0.12485956571E+04  0.50400001928E-02 0. -1.
       -1    1    3    3    0  502 -0.60379069269E+03 -0.12595917813E+03 -0.55852736678E+03  0.83209478703E+03  0.50400001928E-02 0.  1.
</event>
<event>
 5   0  0.6256535E-05  0.1994634E+04  0.7818609E-02  0.8609134E-01
       -1   -1    0    0    0  501  0.00000000000E+00  0.00000000000E+00  0.15061165806E+04  0.15061165806E+04  0.50400001928E-02 0.  1.
        1   -1    0    0  501    0  0.00000000000E+00  0.00000000000E+00 -0.66040111862E+03  0.66040111864E+03  0.50400001928E-02 0. -1.
    10030    2    1    2    0    0  0.00000000000E+00  0.00000000000E+00  0.84571546199E+03  0.21665176993E+04  0.19946338758E+04 0.  0.
        1    1    3    3  502    0  0.22531537519E+03 -0.55175724102E+03  0.12914146268E+04  0.14223061589E+04  0.50400001928E-02 0.  1.
       -1    1    3    3    0  502 -0.22531537519E+03  0.55175724102E+03 -0.44569916479E+03  0.74421154038E+03  0.50400001928E-02 0. -1.
</event>
<event>
 5   0  0.6028501E-05  0.2007986E+04  0.7818609E-02  0.8602896E-01
        1   -1    0    0  501    0  0.00000000000E+00  0.00000000000E+00  0.16019343876E+04  0.16019343876E+04  0.50400001928E-02 0. -1.
       -1   -1    0    0    0  501  0.00000000000E+00  0.00000000000E+00 -0.62924036838E+03  0.62924036840E+03  0.50400001928E-02 0.  1.
    10030    2    1    2    0    0  0.00000000000E+00  0.00000000000E+00  0.97269401917E+03  0.22311747560E+04  0.20079858408E+04 0.  0.
        4    1    3    3  502    0  0.71434582050E+03  0.40356803606E+03 -0.15662725850E+03  0.83527888875E+03  0.12699999809E+01 0.  1.
       -4    1    3    3    0  502 -0.71434582050E+03 -0.40356803606E+03  0.11293212777E+04  0.13958958672E+04  0.12699999809E+01 0. -1.
</event>
<event>
 5   0  0.6214547E-05  0.1976211E+04  0.7818609E-02  0.8617824E-01
       -1   -1    0    0    0  501  0.00000000000E+00  0.00000000000E+00  0.66415115816E+03  0.66415115818E+03  0.50400001928E-02 0. -1.
        1   -1    0    0  501    0  0.00000000000E+00  0.00000000000E+00 -0.14700756836E+04  0.14700756836E+04  0.50400001928E-02 0.  1.
    10030    2    1    2    0    0  0.00000000000E+00  0.00000000000E+00 -0.80592452540E+03  0.21342268418E+04  0.19762109886E+04 0.  0.
        3    1    3    3  502    0  0.36768498928E+03 -0.20993214790E+03 -0.13671477580E+04  0.14312081471E+04  0.10100000352E+00 0.  1.
       -3    1    3    3    0  502 -0.36768498928E+03  0.20993214790E+03  0.56122323255E+03  0.70301869465E+03  0.10100000352E+00 0. -1.
</event>
<event>
 5   0  0.1242761E-04  0.1999685E+04  0.7818609E-02  0.8606768E-01
        2   -1    0    0  501    0  0.00000000000E+00  0.00000000000E+00  0.21933831024E+04  0.21933831024E+04  0.25500000920E-02 0. -1.
       -2   -1    0    0    0  501  0.00000000000E+00  0.00000000000E+00 -0.45577292628E+03  0.45577292628E+03  0.25500000920E-02 0.  1.
    10030    2    1    2    0    0  0.00000000000E+00  0.00000000000E+00  0.17376101761E+04  0.26491560286E+04  0.19996846102E+04 0.  0.
        4    1    3    3  502    0 -0.81825349732E+03  0.50246392533E+03  0.12380245116E+04  0.15667530394E+04  0.12699999809E+01 0. -1.
       -4    1    3    3    0  502  0.81825349732E+03 -0.50246392533E+03  0.49958566447E+03  0.10824029893E+04  0.12699999809E+01 0.  1.
</event>
<event>
 5   0  0.6222733E-05  0.1748367E+04  0.7818609E-02  0.8734250E-01
        1   -1    0    0  501    0  0.00000000000E+00  0.00000000000E+00  0.69508259550E+03  0.69508259552E+03  0.50400001928E-02 0. -1.
       -1   -1    0    0    0  501  0.00000000000E+00  0.00000000000E+00 -0.10994328010E+04  0.10994328010E+04  0.50400001928E-02 0.  1.
    10030    2    1    2    0    0  0.00000000000E+00  0.00000000000E+00 -0.40435020553E+03  0.17945153966E+04  0.17483667864E+04 0.  0.
        2    1    3    3  502    0  0.75469009171E+01  0.87352925296E+03 -0.16834617594E+03  0.88963517605E+03  0.25500000920E-02 0.  1.
       -2    1    3    3    0  502 -0.75469009171E+01 -0.87352925296E+03 -0.23600402958E+03  0.90488022052E+03  0.25500000920E-02 0. -1.
</event>
<event>
 5   0  0.6214547E-05  0.1987143E+04  0.7818609E-02  0.8612655E-01
        1   -1    0    0  501    0  0.00000000000E+00  0.00000000000E+00  0.87880007797E+03  0.87880007799E+03  0.50400001928E-02 0.  1.
       -1   -1    0    0    0  501  0.00000000000E+00  0.00000000000E+00 -0.11233324516E+04  0.11233324516E+04  0.50400001928E-02 0. -1.
    10030    2    1    2    0    0  0.00000000000E+00  0.00000000000E+00 -0.24453237364E+03  0.20021325296E+04  0.19871433226E+04 0.  0.
        3    1    3    3  502    0 -0.17042728363E+03 -0.69286282887E+03  0.57438285485E+03  0.91598036703E+03  0.10100000352E+00 0.  1.
       -3    1    3    3    0  502  0.17042728363E+03  0.69286282887E+03 -0.81891522849E+03  0.10861521626E+04  0.10100000352E+00 0. -1.
</event>
<event>
 5   0  0.1244229E-04  0.2005217E+04  0.7818609E-02  0.8604185E-01
       -2   -1    0    0    0  501  0.00000000000E+00  0.00000000000E+00  0.90211052596E+03  0.90211052596E+03  0.25500000920E-02 0. -1.
        2   -1    0    0  501    0  0.00000000000E+00  0.00000000000E+00 -0.11143024107E+04  0.11143024107E+04  0.25500000920E-02 0.  1.
    10030    2    1    2    0    0  0.00000000000E+00  0.00000000000E+00 -0.21219188479E+03  0.20164129367E+04  0.20052171292E+04 0.  0.
        5    1    3    3  502    0 -0.40030625723E+03  0.51312952021E+02  0.81681030515E+03  0.91108686920E+03  0.46999998093E+01 0. -1.
       -5    1    3    3    0  502  0.40030625723E+03 -0.51312952021E+02 -0.10290021899E+04  0.11053260675E+04  0.46999998093E+01 0.  1.
</event>
<event>
 5   0  0.6222733E-05  0.2113778E+04  0.7818609E-02  0.8555198E-01
       -1   -1    0    0    0  501  0.00000000000E+00  0.00000000000E+00  0.75989523061E+03  0.75989523063E+03  0.50400001928E-02 0.  1.
        1   -1    0    0  501    0  0.00000000000E+00  0.00000000000E+00 -0.14699588424E+04  0.14699588424E+04  0.50400001928E-02 0. -1.
    10030    2    1    2    0    0  0.00000000000E+00  0.00000000000E+00 -0.71006361176E+03  0.22298540730E+04  0.21137783361E+04 0.  0.
        2    1    3    3  502    0 -0.37771186478E+03  0.16904995505E+03 -0.13809433076E+04  0.14416131794E+04  0.25500000920E-02 0. -1.
       -2    1    3    3    0  502  0.37771186478E+03 -0.16904995505E+03  0.67087969585E+03  0.78824089364E+03  0.25500000920E-02 0.  1.
</event>
<event>
 5   0  0.6168338E-05  0.1991824E+04  0.7818609E-02  0.8610453E-01
        1   -1    0    0  501    0  0.00000000000E+00  0.00000000000E+00  0.21600742351E+04  0.21600742351E+04  0.50400001928E-02 0.  1.
       -1   -1    0    0    0  501  0.00000000000E+00  0.00000000000E+00 -0.45916955340E+03  0.45916955342E+03  0.50400001928E-02 0. -1.
    10030    2    1    2    0    0  0.00000000000E+00  0.00000000000E+00  0.17009046817E+04  0.26192437885E+04  0.19918236085E+04 0.  0.
        5    1    3    3  502    0  0.83807855123E+03  0.32411865558E+03  0.28578412642E+03  0.94293330508E+03  0.46999998093E+01 0. -1.
       -5    1    3    3    0  502 -0.83807855123E+03 -0.32411865558E+03  0.14151205553E+04  0.16763104834E+04  0.46999998093E+01 0.  1.
</event>
<event>
 5   0  0.6168338E-05  0.2074951E+04  0.7818609E-02  0.8572359E-01
        1   -1    0    0  501    0  0.00000000000E+00  0.00000000000E+00  0.89590343789E+03  0.89590343791E+03  0.50400001928E-02 0.  1.
       -1   -1    0    0    0  501  0.00000000000E+00  0.00000000000E+00 -0.12014187288E+04  0.12014187289E+04  0.50400001928E-02 0. -1.
    10030    2    1    2    0    0  0.00000000000E+00  0.00000000000E+00 -0.30551529095E+03  0.20973221668E+04  0.20749507652E+04 0.  0.
        5    1    3    3  502    0 -0.69131034466E+03 -0.30139966006E+03 -0.87288643110E+03  0.11535616842E+04  0.46999998093E+01 0. -1.
       -5    1    3    3    0  502  0.69131034466E+03  0.30139966006E+03  0.56737114015E+03  0.94376048253E+03  0.46999998093E+01 0.  1.
</event>
<event>
 5   0  0.1281789E-04  0.1866844E+04  0.7818609E-02  0.8671538E-01
        2   -1    0    0  501    0  0.00000000000E+00  0.00000000000E+00  0.93852900834E+03  0.93852900834E+03  0.25500000920E-02 0. -1.
       -2   -1    0    0    0  501  0.00000000000E+00  0.00000000000E+00 -0.92834322776E+03  0.92834322776E+03  0.25500000920E-02 0.  1.
    10030    2    1    2    0    0  0.00000000000E+00  0.00000000000E+00  0.10185780580E+02  0.18668722361E+04  0.18668444487E+04 0.  0.
        2    1    3    3  502    0 -0.84709924745E+01  0.41700226883E+03 -0.82997306984E+03  0.92887994197E+03  0.25500000920E-02 0.  1.
       -2    1    3    3    0  502  0.84709924745E+01 -0.41700226883E+03  0.84015885042E+03  0.93799229414E+03  0.25500000920E-02 0. -1.
</event>
<event>
 5   0  0.1281789E-04  0.1993168E+04  0.7818609E-02  0.8609822E-01
        2   -1    0    0  501    0  0.00000000000E+00  0.00000000000E+00  0.15391423618E+04  0.15391423618E+04  0.25500000920E-02 0. -1.
       -2   -1    0    0    0  501  0.00000000000E+00  0.00000000000E+00 -0.64528110274E+03  0.64528110275E+03  0.25500000920E-02 0.  1.
    10030    2    1    2    0    0  0.00000000000E+00  0.00000000000E+00  0.89386125903E+03  0.21844234645E+04  0.19931678108E+04 0.  0.
        2    1    3    3  502    0 -0.93439343849E+03 -0.28042014605E+03  0.22379416135E+03  0.10009047821E+04  0.25500000920E-02 0. -1.
       -2    1    3    3    0  502  0.93439343849E+03  0.28042014605E+03  0.67006709768E+03  0.11835186824E+04  0.25500000920E-02 0.  1.
</event>
<event>
 5   0  0.1159914E-04  0.1977015E+04  0.7818609E-02  0.8617443E-01
       -2   -1    0    0    0  501  0.00000000000E+00  0.00000000000E+00  0.78025709699E+03  0.78025709700E+03  0.25500000920E-02 0.  1.
        2   -1    0    0  501    0  0.00000000000E+00  0.00000000000E+00 -0.12523395096E+04  0.12523395096E+04  0.25500000920E-02 0. -1.
    10030    2    1    2    0    0  0.00000000000E+00  0.00000000000E+00 -0.47208241260E+03  0.20325966066E+04  0.19770147093E+04 0.  0.
        3    1    3    3  502    0 -0.49566074464E+03 -0.68197790421E+03 -0.76666494757E+03  0.11395387609E+04  0.10100000352E+00 0. -1.
       -3    1    3    3    0  502  0.49566074464E+03  0.68197790421E+03  0.29458253497E+03  0.89305784567E+03  0.10100000352E+00 0.  1.
</event>
<event>
 5   0  0.1242761E-04  0.2065383E+04  0.7818609E-02  0.8576648E-01
        2   -1    0    0  501    0  0.00000000000E+00  0.00000000000E+00  0.65660199845E+03  0.65660199845E+03  0.25500000920E-02 0.  1.
       -2   -1    0    0    0  501  0.00000000000E+00  0.00000000000E+00 -0.16241980790E+04  0.16241980790E+04  0.25500000920E-02 0. -1.
    10030    2    1    2    0    0  0.00000000000E+00  0.00000000000E+00 -0.96759608056E+03  0.22808000775E+04  0.20653829713E+04 0.  0.
        4    1    3    3  502    0  0.18894624170E+02 -0.19629145778E+03 -0.16032122175E+04  0.16152951341E+04  0.12699999809E+01 0. -1.
       -4    1    3    3    0  502 -0.18894624170E+02  0.19629145778E+03  0.63561613690E+03  0.66550494334E+03  0.12699999809E+01 0.  1.
</event>
<event>
 5   0  0.6256535E-05  0.2009555E+04  0.7818609E-02  0.8602166E-01
        1   -1    0    0  501    0  0.00000000000E+00  0.00000000000E+00  0.12171173911E+04  0.12171173911E+04  0.50400001928E-02 0.  1.
       -1   -1    0    0    0  501  0.00000000000E+00  0.00000000000E+00 -0.82948293420E+03  0.82948293421E+03  0.50400001928E-02 0. -1.
    10030    2    1    2    0    0  0.00000000000E+00  0.00000000000E+00  0.38763445691E+03  0.20466003253E+04  0.20095552790E+04 0.  0.
        1    1    3    3  502    0 -0.27964959438E+03 -0.82428453209E+03 -0.31736100407E+03  0.92648091853E+03  0.50400001928E-02 0. -1.
       -1    1    3    3    0  502  0.27964959438E+03  0.82428453209E+03  0.70499546098E+03  0.11201194068E+04  0.50400001928E-02 0.  1.
</event>
<event>
 5   0  0.1242761E-04  0.1998335E+04  0.7818609E-02  0.8607400E-01
       -2   -1    0    0    0  501  0.00000000000E+00  0.00000000000E+00  0.77350756451E+03  0.77350756452E+03  0.25500000920E-02 0.  1.
        2   -1    0    0  501    0  0.00000000000E+00  0.00000000000E+00 -0.12906599580E+04  0.12906599580E+04  0.25500000920E-02 0. -1.
    10030    2    1    2    0    0  0.00000000000E+00  0.00000000000E+00 -0.51715239352E+03  0.20641675226E+04  0.19983345473E+04 0.  0.
        4    1    3    3  502    0  0.82004851019E+03 -0.33808005707E+03  0.21652853951E+03  0.91305197299E+03  0.12699999809E+01 0.  1.
       -4    1    3    3    0  502 -0.82004851019E+03  0.33808005707E+03 -0.73368093304E+03  0.11511155496E+04  0.12699999809E+01 0. -1.
</event>
<event>
 5   0  0.6028501E-05  0.1997421E+04  0.7818609E-02  0.8607828E-01
        1   -1    0    0  501    0  0.00000000000E+00  0.00000000000E+00  0.13229626602E+04  0.13229626602E+04  0.50400001928E-02 0. -1.
       -1   -1    0    0    0  501  0.00000000000E+00  0.00000000000E+00 -0.75393084459E+03  0.75393084460E+03  0.50400001928E-02 0.  1.
    10030    2    1    2    0    0  0.00000000000E+00  0.00000000000E+00  0.56903181563E+03  0.20768935048E+04  0.19974206926E+04 0.  0.
        4    1    3    3  502    0 -0.82265456670E+03 -0.44786699945E+03  0.64482201856E+03  0.11371642071E+04  0.12699999809E+01 0. -1.
       -4    1    3    3    0  502  0.82265456670E+03  0.44786699945E+03 -0.75790202933E+02  0.93972929776E+03  0.12699999809E+01 0.  1.
</event>
<event>
 5   0  0.1274868E-04  0.2023938E+04  0.7818609E-02  0.8595510E-01
        2   -1    0    0  501    0  0.00000000000E+00  0.00000000000E+00  0.94893414126E+03  0.94893414126E+03  0.25500000920E-02 0. -1.
       -2   -1    0    0    0  501  0.00000000000E+00  0.00000000000E+00 -0.10791907425E+04  0.10791907425E+04  0.25500000920E-02 0.  1.
    10030    2    1    2    0    0  0.00000000000E+00  0.00000000000E+00 -0.13025660124E+03  0.20281248838E+04  0.20239376873E+04 0.  0.
        1    1    3    3  502    0 -0.30043566183E+03  0.76381066757E+03  0.52805296207E+03  0.97596529322E+03  0.50400001928E-02 0. -1.
       -1    1    3    3    0  502  0.30043566183E+03 -0.76381066757E+03 -0.65830956331E+03  0.10521595905E+04  0.50400001928E-02 0.  1.
</event>
<event>
 5   0  0.6214547E-05  0.2008563E+04  0.7818609E-02  0.8602628E-01
       -1   -1    0    0    0  501  0.00000000000E+00  0.00000000000E+00  0.93593597374E+03  0.93593597375E+03  0.50400001928E-02 0. -1.
        1   -1    0    0  501    0  0.00000000000E+00  0.00000000000E+00 -0.10776177580E+04  0.10776177581E+04  0.50400001928E-02 0.  1.
    10030    2    1    2    0    0  0.00000000000E+00  0.00000000000E+00 -0.14168178431E+03  0.20135537318E+04  0.20085628949E+04 0.  0.
        3    1    3    3  502    0  0.47523401880E+02  0.11601468360E+03 -0.10697420679E+04  0.10770635926E+04  0.10100000352E+00 0.  1.
       -3    1    3    3    0  502 -0.47523401880E+02 -0.11601468360E+03  0.92806028361E+03  0.93649013916E+03  0.10100000352E+00 0. -1.
</event>
<event>
 5   0  0.1159914E-04  0.2016259E+04  0.7818609E-02  0.8599057E-01
        2   -1    0    0  501    0  0.00000000000E+00  0.00000000000E+00  0.98734949620E+03  0.98734949620E+03  0.25500000920E-02 0.  1.
       -2   -1    0    0    0  501  0.00000000000E+00  0.00000000000E+00 -0.10293466136E+04  0.10293466136E+04  0.25500000920E-02 0. -1.
    10030    2    1    2    0    0  0.00000000000E+00  0.00000000000E+00 -0.41997117390E+02  0.20166961098E+04  0.20162587734E+04 0.  0.
        3    1    3    3  502    0 -0.15688845680E+03 -0.36679110870E+02  0.97438839215E+03  0.98761940747E+03  0.10100000352E+00 0.  1.
       -3    1    3    3    0  502  0.15688845680E+03  0.36679110870E+02 -0.10163855095E+04  0.10290767023E+04  0.10100000352E+00 0. -1.
</event>
<event>
 5   0  0.6168338E-05  0.1995511E+04  0.7818609E-02  0.8608722E-01
       -1   -1    0    0    0  501  0.00000000000E+00  0.00000000000E+00  0.83600139587E+03  0.83600139588E+03  0.50400001928E-02 0. -1.
        1   -1    0    0  501    0  0.00000000000E+00  0.00000000000E+00 -0.11908063821E+04  0.11908063821E+04  0.50400001928E-02 0.  1.
    10030    2    1    2    0    0  0.00000000000E+00  0.00000000000E+00 -0.35480498621E+03  0.20268077780E+04  0.19955107593E+04 0.  0.
        5    1    3    3  502    0 -0.48558725555E+03 -0.37740611236E+03  0.62058068206E+03  0.87371209752E+03  0.46999998093E+01 0. -1.
       -5    1    3    3    0  502  0.48558725555E+03  0.37740611236E+03 -0.97538566827E+03  0.11530956804E+04  0.46999998093E+01 0.  1.
</event>
<event>
 5   0  0.1274868E-04  0.1985701E+04  0.7818609E-02  0.8613335E-01
       -2   -1    0    0    0  501  0.00000000000E+00  0.00000000000E+00  0.12376146317E+04  0.12376146317E+04  0.25500000920E-02 0. -1.
        2   -1    0    0  501    0  0.00000000000E+00  0.00000000000E+00 -0.79649387149E+03  0.79649387149E+03  0.25500000920E-02 0.  1.
    10030    2    1    2    0    0  0.00000000000E+00  0.00000000000E+00  0.44112076019E+03  0.20341085032E+04  0.19857013566E+04 0.  0.
        1    1    3    3  502    0  0.63199926186E+03  0.65093084087E+03 -0.19253000037E+03  0.92747066135E+03  0.50400001928E-02 0.  1.
       -1    1    3    3    0  502 -0.63199926186E+03 -0.65093084087E+03  0.63365076056E+03  0.11066378418E+04  0.50400001928E-02 0. -1.
</event>
<event>
 5   0  0.1159914E-04  0.1976687E+04  0.7818609E-02  0.8617598E-01
        2   -1    0    0  501    0  0.00000000000E+00  0.00000000000E+00  0.20202165696E+04  0.20202165696E+04  0.25500000920E-02 0. -1.
       -2   -1    0    0    0  501  0.00000000000E+00  0.00000000000E+00 -0.48352406946E+03  0.48352406946E+03  0.25500000920E-02 0.  1.
    10030    2    1    2    0    0  0.00000000000E+00  0.00000000000E+00  0.15366925001E+04  0.25037406390E+04  0.19766874684E+04 0.  0.
        3    1    3    3  502    0  0.16660673900E+03 -0.17332269773E+03  0.19826153306E+04  0.19971384835E+04  0.10100000352E+00 0. -1.
       -3    1    3    3    0  502 -0.16660673900E+03  0.17332269773E+03 -0.44592283048E+03  0.50660215552E+03  0.10100000352E+00 0.  1.
</event>
<event>
 5   0  0.4479000E-05  0.2019886E+04  0.7818609E-02  0.8597379E-01
        3   -1    0    0  501    0  0.00000000000E+00  0.00000000000E+00  0.13493745455E+04  0.13493745493E+04  0.10100000352E+00 0. -1.
       -3   -1    0    0    0  501  0.00000000000E+00  0.00000000000E+00 -0.75589483861E+03  0.75589484536E+03  0.10100000352E+00 0.  1.
    10030    2    1    2    0    0  0.00000000000E+00  0.00000000000E+00  0.59347970692E+03  0.21052693947E+04  0.20198863982E+04 0.  0.
        1    1    3    3  502    0  0.98066938731E+03 -0.18121482084E+03  0.46296170843E+03  0.10994929750E+04  0.50400001928E-02 0.  1.
       -1    1    3    3    0  502 -0.98066938731E+03  0.18121482084E+03  0.13051799849E+03  0.10057764197E+04  0.50400001928E-02 0. -1.
</event>
<event>
 5   0  0.6028501E-05  0.2001206E+04  0.7818609E-02  0.8606057E-01
        1   -1    0    0  501    0  0.00000000000E+00  0.00000000000E+00  0.97095754551E+03  0.97095754553E+03  0.50400001928E-02 0.  1.
       -1   -1    0    0    0  501  0.00000000000E+00  0.00000000000E+00 -0.10311536708E+04  0.10311536708E+04  0.50400001928E-02 0. -1.
    10030    2    1    2    0    0  0.00000000000E+00  0.00000000000E+00 -0.60196125311E+02  0.20021112164E+04  0.20012060736E+04 0.  0.
        4    1    3    3  502    0 -0.97461030282E+03 -0.21664655870E+03 -0.96489592585E+02  0.10030517575E+04  0.12699999809E+01 0. -1.
       -4    1    3    3    0  502  0.97461030282E+03  0.21664655870E+03  0.36293467274E+02  0.99905945891E+03  0.12699999809E+01 0.  1.
</event>
<event>
 5   0  0.6222733E-05  0.2001308E+04  0.7818609E-02  0.8606009E-01
       -1   -1    0    0    0  501  0.00000000000E+00  0.00000000000E+00  0.10149715584E+04  0.10149715584E+04  0.50400001928E-02 0. -1.
        1   -1    0    0  501    0  0.00000000000E+00  0.00000000000E+00 -0.98653815140E+03  0.98653815141E+03  0.50400001928E-02 0.  1.
    10030    2    1    2    0    0  0.00000000000E+00  0.00000000000E+00  0.28433407021E+02  0.20015097098E+04  0.20013077375E+04 0.  0.
        2    1    3    3  502    0 -0.44979125002E+03 -0.85056275893E+03 -0.26065460656E+03  0.99685003857E+03  0.25500000920E-02 0.  1.
       -2    1    3    3    0  502  0.44979125002E+03  0.85056275893E+03  0.28908801359E+03  0.10046596713E+04  0.25500000920E-02 0. -1.
</event>
<event>
 5   0  0.1242761E-04  0.2000819E+04  0.7818609E-02  0.8606238E-01
        2   -1    0    0  501    0  0.00000000000E+00  0.00000000000E+00  0.69922244937E+03  0.69922244937E+03  0.25500000920E-02 0.  1.
       -2   -1    0    0    0  501  0.00000000000E+00  0.00000000000E+00 -0.14313314997E+04  0.14313314997E+04  0.25500000920E-02 0. -1.
    10030    2    1    2    0    0  0.00000000000E+00  0.00000000000E+00 -0.73210905035E+03  0.21305539491E+04  0.20008189494E+04 0.  0.
        4    1    3    3  502    0  0.89198735725E+03  0.24842204923E+03 -0.76937847161E+03  0.12038686828E+04  0.12699999809E+01 0. -1.
       -4    1    3    3    0  502 -0.89198735725E+03 -0.24842204923E+03  0.37269421261E+02  0.92668526626E+03  0.12699999809E+01 0.  1.
</event>
<event>
 5   0  0.1274868E-04  0.2022353E+04  0.7818609E-02  0.8596241E-01
       -2   -1    0    0    0  501  0.00000000000E+00  0.00000000000E+00  0.10625660493E+04  0.10625660493E+04  0.25500000920E-02 0. -1.
        2   -1    0    0  501    0  0.00000000000E+00  0.00000000000E+00 -0.96227255748E+03  0.96227255748E+03  0.25500000920E-02 0.  1.
    10030    2    1    2    0    0  0.00000000000E+00  0.00000000000E+00  0.10029349184E+03  0.20248386068E+04  0.20223532330E+04 0.  0.
        1    1    3    3  502    0  0.46728445674E+03 -0.33341635585E+03 -0.78331662292E+03  0.97113653089E+03  0.50400001928E-02 0.  1.
       -1    1    3    3    0  502 -0.46728445674E+03  0.33341635585E+03  0.88361011476E+03  0.10537020759E+04  0.50400001928E-02 0. -1.
</event>
<event>
 5   0  0.6256535E-05  0.1994611E+04  0.7818609E-02  0.8609145E-01
       -1   -1    0    0    0  501  0.00000000000E+00  0.00000000000E+00  0.10351338324E+04  0.10351338324E+04  0.50400001928E-02 0.  1.
        1   -1    0    0  501    0  0.00000000000E+00  0.00000000000E+00 -0.96085913323E+03  0.96085913325E+03  0.50400001928E-02 0. -1.
    10030    2    1    2    0    0  0.00000000000E+00  0.00000000000E+00  0.74274699136E+02  0.19959929656E+04  0.19946105354E+04 0.  0.
        1    1    3    3  502    0 -0.71548817680E+03 -0.75896320169E+02  0.72822023409E+03  0.10237129929E+04  0.50400001928E-02 0.  1.
       -1    1    3    3    0  502  0.71548817680E+03  0.75896320169E+02 -0.65394553496E+03  0.97227997268E+03  0.50400001928E-02 0. -1.
</event>
<event>
 5   0  0.1244229E-04  0.2035852E+04  0.7818609E-02  0.8590040E-01
       -2   -1    0    0    0  501  0.00000000000E+00  0.00000000000E+00  0.11318035781E+04  0.11318035781E+04  0.25500000920E-02 0.  1.
        2   -1    0    0  501    0  0.00000000000E+00  0.00000000000E+00 -0.91550676783E+03  0.91550676783E+03  0.25500000920E-02 0. -1.
    10030    2    1    2    0    0  0.00000000000E+00  0.00000000000E+00  0.21629681027E+03  0.20473103459E+04  0.20358524854E+04 0.  0.
        5    1    3    3  502    0  0.20760461556E+03 -0.16133734713E+03  0.10970558031E+04  0.11281325016E+04  0.46999998093E+01 0.  1.
       -5    1    3    3    0  502 -0.20760461556E+03  0.16133734713E+03 -0.88075899287E+03  0.91917784433E+03  0.46999998093E+01 0. -1.
</event>
<event>
 5   0  0.6028501E-05  0.2003979E+04  0.7818609E-02  0.8604763E-01
        1   -1    0    0  501    0  0.00000000000E+00  0.00000000000E+00  0.10367678293E+04  0.10367678293E+04  0.50400001928E-02 0.  1.
       -1   -1    0    0    0  501  0.00000000000E+00  0.00000000000E+00 -0.96837765477E+03  0.96837765478E+03  0.50400001928E-02 0. -1.
    10030    2    1    2    0    0  0.00000000000E+00  0.00000000000E+00  0.68390174516E+02  0.20051454841E+04  0.20039788413E+04 0.  0.
        4    1    3    3  502    0  0.49369073358E+03  0.41517440120E+03 -0.73298516980E+03  0.97640626580E+03  0.12699999809E+01 0. -1.
       -4    1    3    3    0  502 -0.49369073358E+03 -0.41517440120E+03  0.80137534432E+03  0.10287392183E+04  0.12699999809E+01 0.  1.
</event>
<event>
 5   0  0.6214547E-05  0.2012764E+04  0.7818609E-02  0.8600676E-01
       -1   -1    0    0    0  501  0.00000000000E+00  0.00000000000E+00  0.14692471134E+04  0.14692471134E+04  0.50400001928E-02 0.  1.
        1   -1    0    0  501    0  0.00000000000E+00  0.00000000000E+00 -0.68933581303E+03  0.68933581305E+03  0.50400001928E-02 0. -1.
    10030    2    1    2    0    0  0.00000000000E+00  0.00000000000E+00  0.77991130037E+03  0.21585829265E+04  0.20127639241E+04 0.  0.
        3    1    3    3  502    0 -0.15943096790E+03  0.97652850322E+03  0.19285138257E+03  0.10080762953E+04  0.10100000352E+00 0. -1.
       -3    1    3    3    0  502  0.15943096790E+03 -0.97652850322E+03  0.58705991780E+03  0.11505066312E+04  0.10100000352E+00 0.  1.
</event>
<event>
 5   0  0.6222733E-05  0.1980362E+04  0.7818609E-02  0.8615857E-01
       -1   -1    0    0    0  501  0.00000000000E+00  0.00000000000E+00  0.80894872309E+03  0.80894872311E+03  0.50400001928E-02 0.  1.
        1   -1    0    0  501    0  0.00000000000E+00  0.00000000000E+00 -0.12120160770E+04  0.12120160770E+04  0.50400001928E-02 0. -1.
    10030    2    1    2    0    0  0.00000000000E+00  0.00000000000E+00 -0.40306735387E+03  0.20209648001E+04  0.19803624495E+04 0.  0.
        2    1    3    3  502    0 -0.74568027605E+03  0.57422616546E+03 -0.51555025875E+03  0.10731108202E+04  0.25500000920E-02 0. -1.
       -2    1    3    3    0  502  0.74568027605E+03 -0.57422616546E+03  0.11248290488E+03  0.94785397984E+03  0.25500000920E-02 0.  1.
</event>
<event>
 5   0  0.1242761E-04  0.1997491E+04  0.7818609E-02  0.8607795E-01
        2   -1    0    0  501    0  0.00000000000E+00  0.00000000000E+00  0.13880085967E+04  0.13880085967E+04  0.25500000920E-02 0.  1.
       -2   -1    0    0    0  501  0.00000000000E+00  0.00000000000E+00 -0.71865008562E+03  0.71865008563E+03  0.25500000920E-02 0. -1.
    10030    2    1    2    0    0  0.00000000000E+00  0.00000000000E+00  0.66935851109E+03  0.21066586823E+04  0.19974909230E+04 0.  0.
        4    1    3    3  502    0 -0.53493984001E+03  0.37153527554E+03  0.11332202651E+04  0.13070535091E+04  0.12699999809E+01 0.  1.
       -4    1    3    3    0  502  0.53493984001E+03 -0.37153527554E+03 -0.46386175401E+03  0.79960517328E+03  0.12699999809E+01 0. -1.
</event>
<event>
 5   0  0.6256535E-05  0.1994230E+04  0.7818609E-02  0.8609323E-01
        1   -1    0    0  501    0  0.00000000000E+00  0.00000000000E+00  0.10342461893E+04  0.10342461893E+04  0.50400001928E-02 0. -1.
       -1   -1    0    0    0  501  0.00000000000E+00  0.00000000000E+00 -0.96131654535E+03  0.96131654537E+03  0.50400001928E-02 0.  1.
    10030    2    1    2    0    0  0.00000000000E+00  0.00000000000E+00  0.72929643970E+02  0.19955627347E+04  0.19942296496E+04 0.  0.
        1    1    3    3  502    0  0.74848636536E+03  0.65812695213E+03  0.66065832260E+02  0.99886316303E+03  0.50400001928E-02 0.  1.
       -1    1    3    3    0  502 -0.74848636536E+03 -0.65812695213E+03  0.68638117097E+01  0.99669957167E+03  0.50400001928E-02 0. -1.
</event>
<event>
 5   0  0.6214547E-05  0.2046817E+04  0.7818609E-02  0.8585039E-01
        1   -1    0    0  501    0  0.00000000000E+00  0.00000000000E+00  0.14748425051E+04  0.14748425051E+04  0.50400001928E-02 0.  1.
       -1   -1    0    0    0  501  0.00000000000E+00  0.00000000000E+00 -0.71015404345E+03  0.71015404347E+03  0.50400001928E-02 0. -1.
    10030    2    1    2    0    0  0.00000000000E+00  0.00000000000E+00  0.76468846163E+03  0.21849965486E+04  0.20468174012E+04 0.  0.
        3    1    3    3  502    0  0.28492373478E+03  0.30934820391E+03  0.13783295281E+04  0.14410656280E+04  0.10100000352E+00 0.  1.
       -3    1    3    3    0  502 -0.28492373478E+03 -0.30934820391E+03 -0.61364106649E+03  0.74393092057E+03  0.10100000352E+00 0. -1.
</event>
<event>
 5   0  0.1281789E-04  0.1857630E+04  0.7818609E-02  0.8676239E-01
       -2   -1    0    0    0  501  0.00000000000E+00  0.00000000000E+00  0.36430310426E+03  0.36430310427E+03  0.25500000920E-02 0. -1.
        2   -1    0    0  501    0  0.00000000000E+00  0.00000000000E+00 -0.23680767293E+04  0.23680767293E+04  0.25500000920E-02 0.  1.
    10030    2    1    2    0    0  0.00000000000E+00  0.00000000000E+00 -0.20037736250E+04  0.27323798335E+04  0.18576304300E+04 0.  0.
        2    1    3    3  502    0  0.31960715738E+02  0.41616022957E+03  0.21859015757E+03  0.47116078044E+03  0.25500000920E-02 0. -1.
       -2    1    3    3    0  502 -0.31960715738E+02 -0.41616022957E+03 -0.22223637826E+04  0.22612190531E+04  0.25500000920E-02 0.  1.
</event>
<event>
 5   0  0.1242761E-04  0.1993498E+04  0.7818609E-02  0.8609667E-01
        2   -1    0    0  501    0  0.00000000000E+00  0.00000000000E+00  0.16880441405E+04  0.16880441405E+04  0.25500000920E-02 0.  1.
       -2   -1    0    0    0  501  0.00000000000E+00  0.00000000000E+00 -0.58855611536E+03  0.58855611537E+03  0.25500000920E-02 0. -1.
    10030    2    1    2    0    0  0.00000000000E+00  0.00000000000E+00  0.10994880251E+04  0.22766002558E+04  0.19934981333E+04 0.  0.
        4    1    3    3  502    0  0.27295707034E+03  0.52634336530E+03  0.14647550819E+04  0.15802063040E+04  0.12699999809E+01 0.  1.
       -4    1    3    3    0  502 -0.27295707034E+03 -0.52634336530E+03 -0.36526705679E+03  0.69639395181E+03  0.12699999809E+01 0. -1.
</event>
<event>
 5   0  0.6168338E-05  0.2007515E+04  0.7818609E-02  0.8603115E-01
        1   -1    0    0  501    0  0.00000000000E+00  0.00000000000E+00  0.98024858954E+03  0.98024858955E+03  0.50400001928E-02 0. -1.
       -1   -1    0    0    0  501  0.00000000000E+00  0.00000000000E+00 -0.10278299962E+04  0.10278299962E+04  0.50400001928E-02 0.  1.
    10030    2    1    2    0    0  0.00000000000E+00  0.00000000000E+00 -0.47581406681E+02  0.20080785858E+04  0.20075147861E+04 0.  0.
        5    1    3    3  502    0  0.39271759088E+03  0.22151944053E+03 -0.92081947893E+03  0.10252943828E+04  0.46999998093E+01 0.  1.
       -5    1    3    3    0  502 -0.39271759088E+03 -0.22151944053E+03  0.87323807225E+03  0.98278420294E+03  0.46999998093E+01 0. -1.
</event>
<event>
 5   0  0.1242761E-04  0.2014454E+04  0.7818609E-02  0.8599893E-01
       -2   -1    0    0    0  501  0.00000000000E+00  0.00000000000E+00  0.81309225984E+03  0.81309225984E+03  0.25500000920E-02 0.  1.
        2   -1    0    0  501    0  0.00000000000E+00  0.00000000000E+00 -0.12477135823E+04  0.12477135823E+04  0.25500000920E-02 0. -1.
    10030    2    1    2    0    0  0.00000000000E+00  0.00000000000E+00 -0.43462132249E+03  0.20608058422E+04  0.20144540266E+04 0.  0.
        4    1    3    3  502    0 -0.63796950027E+03  0.69783821654E+03  0.13783929940E+03  0.95550224756E+03  0.12699999809E+01 0.  1.
       -4    1    3    3    0  502  0.63796950027E+03 -0.69783821654E+03 -0.57246062188E+03  0.11053035946E+04  0.12699999809E+01 0. -1.
</event>
<event>
 5   0  0.6222733E-05  0.1990012E+04  0.7818609E-02  0.8611305E-01
        1   -1    0    0  501    0  0.00000000000E+00  0.00000000000E+00  0.20977785906E+04  0.20977785906E+04  0.50400001928E-02 0.  1.
       -1   -1    0    0    0  501  0.00000000000E+00  0.00000000000E+00 -0.47194528954E+03  0.47194528957E+03  0.50400001928E-02 0. -1.
    10030    2    1    2    0    0  0.00000000000E+00  0.00000000000E+00  0.16258333010E+04  0.25697238801E+04  0.19900117832E+04 0.  0.
        2    1    3    3  502    0  0.84939101413E+03  0.77136501575E+02  0.14746698127E+04  0.17035451832E+04  0.25500000920E-02 0.  1.
       -2    1    3    3    0  502 -0.84939101413E+03 -0.77136501575E+02  0.15116348829E+03  0.86617869690E+03  0.25500000920E-02 0. -1.
</event>
<event>
 5   0  0.1244229E-04  0.1712708E+04  0.7818609E-02  0.8754149E-01
        2   -1    0    0  501    0  0.00000000000E+00  0.00000000000E+00  0.19662817006E+04  0.19662817006E+04  0.25500000920E-02 0. -1.
       -2   -1    0    0    0  501  0.00000000000E+00  0.00000000000E+00 -0.37295903281E+03  0.37295903282E+03  0.25500000920E-02 0.  1.
    10030    2    1    2    0    0  0.00000000000E+00  0.00000000000E+00  0.15933226678E+04  0.23392407334E+04  0.17127084064E+04 0.  0.
        5    1    3    3  502    0 -0.44046949563E+03 -0.69236490423E+03  0.46227984402E+03  0.94186372760E+03  0.46999998093E+01 0.  1.
       -5    1    3    3    0  502  0.44046949563E+03  0.69236490423E+03  0.11310428238E+04  0.13973770058E+04  0.46999998093E+01 0. -1.
</event>
<event>
 5   0  0.6028501E-05  0.1982540E+04  0.7818609E-02  0.8614827E-01
        1   -1    0    0  501    0  0.00000000000E+00  0.00000000000E+00  0.10578652369E+04  0.10578652369E+04  0.50400001928E-02 0.  1.
       -1   -1    0    0    0  501  0.00000000000E+00  0.00000000000E+00 -0.92886734883E+03  0.92886734885E+03  0.50400001928E-02 0. -1.
    10030    2    1    2    0    0  0.00000000000E+00  0.00000000000E+00  0.12899788807E+03  0.19867325858E+04  0.19825402675E+04 0.  0.
        4    1    3    3  502    0 -0.96881532997E+03  0.15590430329E+03  0.20517231562E+03  0.10025001683E+04  0.12699999809E+01 0.  1.
       -4    1    3    3    0  502  0.96881532997E+03 -0.15590430329E+03 -0.76174427542E+02  0.98423241751E+03  0.12699999809E+01 0. -1.
</event>
<event>
 5   0  0.1159914E-04  0.1992928E+04  0.7818609E-02  0.8609934E-01
       -2   -1    0    0    0  501  0.00000000000E+00  0.00000000000E+00  0.50510883445E+03  0.50510883446E+03  0.25500000920E-02 0.  1.
        2   -1    0    0  501    0  0.00000000000E+00  0.00000000000E+00 -0.19657953956E+04  0.19657953956E+04  0.25500000920E-02 0. -1.
    10030    2    1    2    0    0  0.00000000000E+00  0.00000000000E+00 -0.14606865611E+04  0.24709042300E+04  0.19929281182E+04 0.  0.
        3    1    3    3  502    0  0.97022260785E+03  0.11426292647E+03 -0.97378308867E+03  0.13793626931E+04  0.10100000352E+00 0. -1.
       -3    1    3    3    0  502 -0.97022260785E+03 -0.11426292647E+03 -0.48690347244E+03  0.10915415369E+04  0.10100000352E+00 0.  1.
</event>
<event>
 5   0  0.4479000E-05  0.2012622E+04  0.7818609E-02  0.8600742E-01
       -4   -1    0    0    0  501  0.00000000000E+00  0.00000000000E+00  0.14758889303E+04  0.14758894767E+04  0.12699999809E+01 0.  1.
        4   -1    0    0  501    0  0.00000000000E+00  0.00000000000E+00 -0.68613594049E+03  0.68613711584E+03  0.12699999809E+01 0. -1.
    10030    2    1    2    0    0  0.00000000000E+00  0.00000000000E+00  0.78975298981E+03  0.21620265926E+04  0.20126224688E+04 0.  0.
        4    1    3    3  502    0 -0.36698028240E+02 -0.10054954063E+04  0.41326222158E+03  0.10877293018E+04  0.12699999809E+01 0.  1.
       -4    1    3    3    0  502  0.36698028240E+02  0.10054954063E+04  0.37649076823E+03  0.10742972907E+04  0.12699999809E+01 0. -1.
</event>
<event>
 5   0  0.1281789E-04  0.1997844E+04  0.7818609E-02  0.8607629E-01
       -2   -1    0    0    0  501  0.00000000000E+00  0.00000000000E+00  0.95971420438E+03  0.95971420439E+03  0.25500000920E-02 0.  1.
        2   -1    0    0  501    0  0.00000000000E+00  0.00000000000E+00 -0.10397317184E+04  0.10397317184E+04  0.25500000920E-02 0. -1.
    10030    2    1    2    0    0  0.00000000000E+00  0.00000000000E+00 -0.80017514055E+02  0.19994459228E+04  0.19978441370E+04 0.  0.
        2    1    3    3  502    0  0.16210473279E+03 -0.30989235668E+03  0.89644122885E+03  0.96224637900E+03  0.25500000920E-02 0.  1.
       -2    1    3    3    0  502 -0.16210473279E+03  0.30989235668E+03 -0.97645874290E+03  0.10371995438E+04  0.25500000920E-02 0. -1.
</event>
<event>
 5   0  0.4479000E-05  0.2004432E+04  0.7818609E-02  0.8604551E-01
        3   -1    0    0  501    0  0.00000000000E+00  0.00000000000E+00  0.80507982561E+03  0.80507983195E+03  0.10100000352E+00 0.  1.
       -3   -1    0    0    0  501  0.00000000000E+00  0.00000000000E+00 -0.12476236261E+04  0.12476236302E+04  0.10100000352E+00 0. -1.
    10030    2    1    2    0    0  0.00000000000E+00  0.00000000000E+00 -0.44254380046E+03  0.20527034621E+04  0.20044317120E+04 0.  0.
        5    1    3    3  502    0  0.52858603511E+03 -0.33595163408E+03 -0.10225127976E+04  0.11990918264E+04  0.46999998093E+01 0. -1.
       -5    1    3    3    0  502 -0.52858603511E+03  0.33595163408E+03  0.57996899713E+03  0.85361163569E+03  0.46999998093E+01 0.  1.
</event>
<event>
 5   0  0.1242761E-04  0.2002120E+04  0.7818609E-02  0.8605630E-01
        2   -1    0    0  501    0  0.00000000000E+00  0.00000000000E+00  0.22195022204E+04  0.22195022204E+04  0.25500000920E-02 0. -1.
       -2   -1    0    0    0  501  0.00000000000E+00  0.00000000000E+00 -0.45150723369E+03  0.45150723370E+03  0.25500000920E-02 0.  1.
    10030    2    1    2    0    0  0.00000000000E+00  0.00000000000E+00  0.17679949867E+04  0.26710094541E+04  0.20021201839E+04 0.  0.
        4    1    3    3  502    0  0.45983870033E+03 -0.60552123200E+03  0.15288320173E+02  0.76048861816E+03  0.12699999809E+01 0.  1.
       -4    1    3    3    0  502 -0.45983870033E+03  0.60552123200E+03  0.17527066665E+04  0.19105208359E+04  0.12699999809E+01 0. -1.
</event>
<event>
 5   0  0.1244229E-04  0.1998145E+04  0.7818609E-02  0.8607489E-01
        2   -1    0    0  501    0  0.00000000000E+00  0.00000000000E+00  0.97662372157E+03  0.97662372157E+03  0.25500000920E-02 0.  1.
       -2   -1    0    0    0  501  0.00000000000E+00  0.00000000000E+00 -0.10220369892E+04  0.10220369892E+04  0.25500000920E-02 0. -1.
    10030    2    1    2    0    0  0.00000000000E+00  0.00000000000E+00 -0.45413267630E+02  0.19986607108E+04  0.19981447075E+04 0.  0.
        5    1    3    3  502    0 -0.59705982086E+03 -0.71946746090E+03  0.32953430371E+03  0.99132678986E+03  0.46999998093E+01 0. -1.
       -5    1    3    3    0  502  0.59705982086E+03  0.71946746090E+03 -0.37494757134E+03  0.10073339209E+04  0.46999998093E+01 0.  1.
</event>
<event>
 5   0  0.6028501E-05  0.1991347E+04  0.7818609E-02  0.8610677E-01
       -1   -1    0    0    0  501  0.00000000000E+00  0.00000000000E+00  0.80814976786E+03  0.80814976788E+03  0.50400001928E-02 0. -1.
        1   -1    0    0  501    0  0.00000000000E+00  0.00000000000E+00 -0.12267109399E+04  0.12267109399E+04  0.50400001928E-02 0.  1.
    10030    2    1    2    0    0  0.00000000000E+00  0.00000000000E+00 -0.41856117201E+03  0.20348607078E+04  0.19913474446E+04 0.  0.
        4    1    3    3  502    0 -0.17921745848E+03  0.84428427688E+03  0.29798357337E+03  0.91308852829E+03  0.12699999809E+01 0. -1.
       -4    1    3    3    0  502  0.17921745848E+03 -0.84428427688E+03 -0.71654474537E+03  0.11217721795E+04  0.12699999809E+01 0.  1.
</event>
<event>
 5   0  0.4479000E-05  0.1961495E+04  0.7818609E-02  0.8624837E-01
        4   -1    0    0  501    0  0.00000000000E+00  0.00000000000E+00  0.20532777410E+04  0.20532781337E+04  0.12699999809E+01 0. -1.
       -4   -1    0    0    0  501  0.00000000000E+00  0.00000000000E+00 -0.46845259849E+03  0.46845432001E+03  0.12699999809E+01 0.  1.
    10030    2    1    2    0    0  0.00000000000E+00  0.00000000000E+00  0.15848251425E+04  0.25217324537E+04  0.19614953061E+04 0.  0.
        5    1    3    3  502    0 -0.93774710093E+03  0.12147395726E+03  0.45785964980E+03  0.10506108207E+04  0.46999998093E+01 0.  1.
       -5    1    3    3    0  502  0.93774710093E+03 -0.12147395726E+03  0.11269654927E+04  0.14711216331E+04  0.46999998093E+01 0. -1.
</event>
<event>
 5   0  0.1244229E-04  0.2008548E+04  0.7818609E-02  0.8602634E-01
       -2   -1    0    0    0  501  0.00000000000E+00  0.00000000000E+00  0.30918334450E+03  0.30918334451E+03  0.25500000920E-02 0. -1.
        2   -1    0    0  501    0  0.00000000000E+00  0.00000000000E+00 -0.32620341122E+04  0.32620341122E+04  0.25500000920E-02 0.  1.
    10030    2    1    2    0    0  0.00000000000E+00  0.00000000000E+00 -0.29528507677E+04  0.35712174567E+04  0.20085483481E+04 0.  0.
        5    1    3    3  502    0  0.84010745516E+03  0.31769120393E+02 -0.49972572294E+03  0.97802745431E+03  0.46999998093E+01 0. -1.
       -5    1    3    3    0  502 -0.84010745516E+03 -0.31769120393E+02 -0.24531250447E+04  0.25931900024E+04  0.46999998093E+01 0.  1.
</event>
<event>
 5   0  0.6214547E-05  0.1988338E+04  0.7818609E-02  0.8612093E-01
       -1   -1    0    0    0  501  0.00000000000E+00  0.00000000000E+00  0.78192722939E+03  0.78192722941E+03  0.50400001928E-02 0. -1.
        1   -1    0    0  501    0  0.00000000000E+00  0.00000000000E+00 -0.12640200229E+04  0.12640200229E+04  0.50400001928E-02 0.  1.
    10030    2    1    2    0    0  0.00000000000E+00  0.00000000000E+00 -0.48209279349E+03  0.20459472523E+04  0.19883376719E+04 0.  0.
        3    1    3    3  502    0 -0.74220258245E+03  0.14151800696E+03  0.42380095671E+03  0.86631361573E+03  0.10100000352E+00 0. -1.
       -3    1    3    3    0  502  0.74220258245E+03 -0.14151800696E+03 -0.90589375020E+03  0.11796336366E+04  0.10100000352E+00 0.  1.
</event>
<event>
 5   0  0.1274868E-04  0.2003261E+04  0.7818609E-02  0.8605098E-01
        2   -1    0    0  501    0  0.00000000000E+00  0.00000000000E+00  0.65338031407E+03  0.65338031407E+03  0.25500000920E-02 0. -1.
       -2   -1    0    0    0  501  0.00000000000E+00  0.00000000000E+00 -0.15354966760E+04  0.15354966760E+04  0.25500000920E-02 0.  1.
    10030    2    1    2    0    0  0.00000000000E+00  0.00000000000E+00 -0.88211636192E+03  0.21888769901E+04  0.20032606425E+04 0.  0.
        1    1    3    3  502    0  0.39434823154E+01 -0.54111652721E+03  0.47991673074E+03  0.72328605375E+03  0.50400001928E-02 0. -1.
       -1    1    3    3    0  502 -0.39434823154E+01  0.54111652721E+03 -0.13620330927E+04  0.14655909363E+04  0.50400001928E-02 0.  1.
</event>
<event>
 5   0  0.6256535E-05  0.2007489E+04  0.7818609E-02  0.8603127E-01
        1   -1    0    0  501    0  0.00000000000E+00  0.00000000000E+00  0.70754766741E+03  0.70754766743E+03  0.50400001928E-02 0. -1.
       -1   -1    0    0    0  501  0.00000000000E+00  0.00000000000E+00 -0.14239362819E+04  0.14239362819E+04  0.50400001928E-02 0.  1.
    10030    2    1    2    0    0  0.00000000000E+00  0.00000000000E+00 -0.71638861453E+03  0.21314839494E+04  0.20074887744E+04 0.  0.
        1    1    3    3  502    0  0.35098074687E+03 -0.15081506221E+03  0.62734569680E+03  0.73450343157E+03  0.50400001928E-02 0. -1.
       -1    1    3    3    0  502 -0.35098074687E+03  0.15081506221E+03 -0.13437343113E+04  0.13969805178E+04  0.50400001928E-02 0.  1.
</event>
<event>
 5   0  0.1274868E-04  0.2121622E+04  0.7818609E-02  0.8551778E-01
       -2   -1    0    0    0  501  0.00000000000E+00  0.00000000000E+00  0.11406436449E+04  0.11406436449E+04  0.25500000920E-02 0. -1.
        2   -1    0    0  501    0  0.00000000000E+00  0.00000000000E+00 -0.98656580307E+03  0.98656580307E+03  0.25500000920E-02 0.  1.
    10030    2    1    2    0    0  0.00000000000E+00  0.00000000000E+00  0.15407784179E+03  0.21272094479E+04  0.21216220337E+04 0.  0.
        1    1    3    3  502    0 -0.69664749542E+03 -0.67377863048E+03 -0.35540268347E+03  0.10322821529E+04  0.50400001928E-02 0.  1.
       -1    1    3    3    0  502  0.69664749542E+03  0.67377863048E+03  0.50948052526E+03  0.10949272950E+04  0.50400001928E-02 0. -1.
</event>
<event>
 5   0  0.1274868E-04  0.1986862E+04  0.7818609E-02  0.8612788E-01
        2   -1    0    0  501    0  0.00000000000E+00  0.00000000000E+00  0.14931149979E+04  0.14931149979E+04  0.25500000920E-02 0.  1.
       -2   -1    0    0    0  501  0.00000000000E+00  0.00000000000E+00 -0.66097060208E+03  0.66097060208E+03  0.25500000920E-02 0. -1.
    10030    2    1    2    0    0  0.00000000000E+00  0.00000000000E+00  0.83214439582E+03  0.21540856000E+04  0.19868619672E+04 0.  0.
        1    1    3    3  502    0  0.97128012095E+03  0.38293190740E+02  0.19374261670E+03  0.99115470203E+03  0.50400001928E-02 0. -1.
       -1    1    3    3    0  502 -0.97128012095E+03 -0.38293190740E+02  0.63840177911E+03  0.11629308980E+04  0.50400001928E-02 0.  1.
</event>
<event>
 5   0  0.1244229E-04  0.1976837E+04  0.7818609E-02  0.8617528E-01
        2   -1    0    0  501    0  0.00000000000E+00  0.00000000000E+00  0.16474005091E+04  0.16474005091E+04  0.25500000920E-02 0.  1.
       -2   -1    0    0    0  501  0.00000000000E+00  0.00000000000E+00 -0.59303771937E+03  0.59303771938E+03  0.25500000920E-02 0. -1.
    10030    2    1    2    0    0  0.00000000000E+00  0.00000000000E+00  0.10543627897E+04  0.22404382285E+04  0.19768365039E+04 0.  0.
        5    1    3    3  502    0  0.72204124034E+03 -0.98880727013E+02 -0.22955687509E+03  0.76409384229E+03  0.46999998093E+01 0. -1.
       -5    1    3    3    0  502 -0.72204124034E+03  0.98880727013E+02  0.12839196648E+04  0.14763443862E+04  0.46999998093E+01 0.  1.
</event>
<event>
 5   0  0.1159914E-04  0.1884458E+04  0.7818609E-02  0.8662631E-01
       -2   -1    0    0    0  501  0.00000000000E+00  0.00000000000E+00  0.46003000687E+03  0.46003000688E+03  0.25500000920E-02 0. -1.
        2   -1    0    0  501    0  0.00000000000E+00  0.00000000000E+00 -0.19298648732E+04  0.19298648732E+04  0.25500000920E-02 0.  1.
    10030    2    1    2    0    0  0.00000000000E+00  0.00000000000E+00 -0.14698348663E+04  0.23898948801E+04  0.18844582785E+04 0.  0.
        3    1    3    3  502    0  0.38693056918E+03  0.46878156133E+03 -0.16479642921E+04  0.17564901752E+04  0.10100000352E+00 0.  1.
       -3    1    3    3    0  502 -0.38693056918E+03 -0.46878156133E+03  0.17812942572E+03  0.63340470484E+03  0.10100000352E+00 0. -1.
</event>
<event>
 5   0  0.6222733E-05  0.1967849E+04  0.7818609E-02  0.8621801E-01
       -1   -1    0    0    0  501  0.00000000000E+00  0.00000000000E+00  0.10426371468E+04  0.10426371468E+04  0.50400001928E-02 0.  1.
        1   -1    0    0  501    0  0.00000000000E+00  0.00000000000E+00 -0.92851841511E+03  0.92851841512E+03  0.50400001928E-02 0. -1.
    10030    2    1    2    0    0  0.00000000000E+00  0.00000000000E+00  0.11411873170E+03  0.19711555619E+04  0.19678493754E+04 0.  0.
        2    1    3    3  502    0  0.49230360102E+03 -0.41585580210E+01 -0.79626841559E+03  0.93617494031E+03  0.25500000920E-02 0. -1.
       -2    1    3    3    0  502 -0.49230360102E+03  0.41585580210E+01  0.91038714729E+03  0.10349806216E+04  0.25500000920E-02 0.  1.
</event>
<event>
 5   0  0.6214547E-05  0.1968668E+04  0.7818609E-02  0.8621411E-01
       -1   -1    0    0    0  501  0.00000000000E+00  0.00000000000E+00  0.60954849722E+03  0.60954849724E+03  0.50400001928E-02 0.  1.
        1   -1    0    0  501    0  0.00000000000E+00  0.00000000000E+00 -0.15895594402E+04  0.15895594402E+04  0.50400001928E-02 0. -1.
    10030    2    1    2    0    0  0.00000000000E+00  0.00000000000E+00 -0.98001094294E+03  0.21991079374E+04  0.19686681468E+04 0.  0.
        3    1    3    3  502    0  0.35385569511E+03  0.80093907829E+03  0.12291582855E+02  0.87571019938E+03  0.10100000352E+00 0.  1.
       -3    1    3    3    0  502 -0.35385569511E+03 -0.80093907829E+03 -0.99230252579E+03  0.13233977380E+04  0.10100000352E+00 0. -1.
</event>
<event>
 5   0  0.6222733E-05  0.2030346E+04  0.7818609E-02  0.8592563E-01
        1   -1    0    0  501    0  0.00000000000E+00  0.00000000000E+00  0.14539361692E+04  0.14539361692E+04  0.50400001928E-02 0.  1.
       -1   -1    0    0    0  501  0.00000000000E+00  0.00000000000E+00 -0.70881808594E+03  0.70881808596E+03  0.50400001928E-02 0. -1.
    10030    2    1    2    0    0  0.00000000000E+00  0.00000000000E+00  0.74511808330E+03  0.21627542552E+04  0.20303460322E+04 0.  0.
        2    1    3    3  502    0 -0.59864914998E+03 -0.81739531903E+03  0.44043536776E+03  0.11047620674E+04  0.25500000920E-02 0.  1.
       -2    1    3    3    0  502  0.59864914998E+03  0.81739531903E+03  0.30468271554E+03  0.10579921878E+04  0.25500000920E-02 0. -1.
</event>
<event>
 5   0  0.6256535E-05  0.2011314E+04  0.7818609E-02  0.8601349E-01
       -1   -1    0    0    0  501  0.00000000000E+00  0.00000000000E+00  0.81794968612E+03  0.81794968613E+03  0.50400001928E-02 0.  1.
        1   -1    0    0  501    0  0.00000000000E+00  0.00000000000E+00 -0.12364405828E+04  0.12364405829E+04  0.50400001928E-02 0. -1.
    10030    2    1    2    0    0  0.00000000000E+00  0.00000000000E+00 -0.41849089673E+03  0.20543902690E+04  0.20113141840E+04 0.  0.
        1    1    3    3  502    0 -0.51614875541E+03  0.21156031550E+03 -0.10639333115E+04  0.12012998777E+04  0.50400001928E-02 0. -1.
       -1    1    3    3    0  502  0.51614875541E+03 -0.21156031550E+03  0.64544241481E+03  0.85309039126E+03  0.50400001928E-02 0.  1.
</event>
<event>
 5   0  0.1274868E-04  0.1719415E+04  0.7818609E-02  0.8750368E-01
        2   -1    0    0  501    0  0.00000000000E+00  0.00000000000E+00  0.16196044728E+04  0.16196044729E+04  0.25500000920E-02 0. -1.
       -2   -1    0    0    0  501  0.00000000000E+00  0.00000000000E+00 -0.45634387148E+03  0.45634387149E+03  0.25500000920E-02 0.  1.
    10030    2    1    2    0    0  0.00000000000E+00  0.00000000000E+00  0.11632606014E+04  0.20759483443E+04  0.17194145229E+04 0.  0.
        1    1    3    3  502    0  0.75844081540E+03  0.20367050610E+03  0.10040026585E+04  0.12746511224E+04  0.50400001928E-02 0. -1.
       -1    1    3    3    0  502 -0.75844081540E+03 -0.20367050610E+03  0.15925794289E+03  0.80129722196E+03  0.50400001928E-02 0.  1.
</event>
<event>
 5   0  0.6214547E-05  0.2002536E+04  0.7818609E-02  0.8605436E-01
        1   -1    0    0  501    0  0.00000000000E+00  0.00000000000E+00  0.11123739281E+04  0.11123739281E+04  0.50400001928E-02 0. -1.
       -1   -1    0    0    0  501  0.00000000000E+00  0.00000000000E+00 -0.90125939902E+03  0.90125939903E+03  0.50400001928E-02 0.  1.
    10030    2    1    2    0    0  0.00000000000E+00  0.00000000000E+00  0.21111452908E+03  0.20136333271E+04  0.20025358503E+04 0.  0.
        3    1    3    3  502    0 -0.88510775805E+03 -0.15781096698E+03 -0.33758600961E+03  0.96035637590E+03  0.10100000352E+00 0. -1.
       -3    1    3    3    0  502  0.88510775805E+03  0.15781096698E+03  0.54870053869E+03  0.10532769512E+04  0.10100000352E+00 0.  1.
</event>
<event>
 5   0  0.1281789E-04  0.2010354E+04  0.7818609E-02  0.8601795E-01
       -2   -1    0    0    0  501  0.00000000000E+00  0.00000000000E+00  0.79116310327E+03  0.79116310327E+03  0.25500000920E-02 0.  1.
        2   -1    0    0  501    0  0.00000000000E+00  0.00000000000E+00 -0.12770826572E+04  0.12770826572E+04  0.25500000920E-02 0. -1.
    10030    2    1    2    0    0  0.00000000000E+00  0.00000000000E+00 -0.48591955392E+03  0.20682457605E+04  0.20103538775E+04 0.  0.
        2    1    3    3  502    0 -0.57785760794E+03  0.35628004985E+02 -0.10883227959E+04  0.12327348774E+04  0.25500000920E-02 0. -1.
       -2    1    3    3    0  502  0.57785760794E+03 -0.35628004985E+02  0.60240324199E+03  0.83551088309E+03  0.25500000920E-02 0.  1.
</event>
<event>
 5   0  0.6168338E-05  0.2005314E+04  0.7818609E-02  0.8604140E-01
       -1   -1    0    0    0  501  0.00000000000E+00  0.00000000000E+00  0.11696052305E+04  0.11696052305E+04  0.50400001928E-02 0.  1.
        1   -1    0    0  501    0  0.00000000000E+00  0.00000000000E+00 -0.85953890926E+03  0.85953890928E+03  0.50400001928E-02 0. -1.
    10030    2    1    2    0    0  0.00000000000E+00  0.00000000000E+00  0.31006632120E+03  0.20291441397E+04  0.20053141441E+04 0.  0.
        5    1    3    3  502    0 -0.89073785788E+03 -0.25572899487E+02  0.62009373528E+03  0.10856363273E+04  0.46999998093E+01 0.  1.
       -5    1    3    3    0  502  0.89073785788E+03  0.25572899487E+02 -0.31002741408E+03  0.94350781244E+03  0.46999998093E+01 0. -1.
</event>
<event>
 5   0  0.1242761E-04  0.1980344E+04  0.7818609E-02  0.8615866E-01
        2   -1    0    0  501    0  0.00000000000E+00  0.00000000000E+00  0.22342111693E+04  0.22342111693E+04  0.25500000920E-02 0. -1.
       -2   -1    0    0    0  501  0.00000000000E+00  0.00000000000E+00 -0.43883064609E+03  0.43883064610E+03  0.25500000920E-02 0.  1.
    10030    2    1    2    0    0  0.00000000000E+00  0.00000000000E+00  0.17953805232E+04  0.26730418154E+04  0.19803437388E+04 0.  0.
        4    1    3    3  502    0 -0.10978220770E+03  0.21633161584E+03  0.21934765919E+04  0.22068513029E+04  0.12699999809E+01 0. -1.
       -4    1    3    3    0  502  0.10978220770E+03 -0.21633161584E+03 -0.39809606867E+03  0.46619051249E+03  0.12699999809E+01 0.  1.
</event>
<event>
 5   0  0.1274868E-04  0.2016094E+04  0.7818609E-02  0.8599133E-01
       -2   -1    0    0    0  501  0.00000000000E+00  0.00000000000E+00  0.60228190077E+03  0.60228190077E+03  0.25500000920E-02 0. -1.
        2   -1    0    0  501    0  0.00000000000E+00  0.00000000000E+00 -0.16871819508E+04  0.16871819508E+04  0.25500000920E-02 0.  1.
    10030    2    1    2    0    0  0.00000000000E+00  0.00000000000E+00 -0.10849000500E+04  0.22894638516E+04  0.20160943949E+04 0.  0.
        1    1    3    3  502    0  0.79799210274E+03 -0.98782267053E+02 -0.12328403224E+04  0.14718847077E+04  0.50400001928E-02 0.  1.
       -1    1    3    3    0  502 -0.79799210274E+03  0.98782267053E+02  0.14794027231E+03  0.81757914389E+03  0.50400001928E-02 0. -1.
</event>
<event>
 5   0  0.1274868E-04  0.2022252E+04  0.7818609E-02  0.8596287E-01
       -2   -1    0    0    0  501  0.00000000000E+00  0.00000000000E+00  0.16145829199E+04  0.16145829199E+04  0.25500000920E-02 0.  1.
        2   -1    0    0  501    0  0.00000000000E+00  0.00000000000E+00 -0.63321375604E+03  0.63321375605E+03  0.25500000920E-02 0. -1.
    10030    2    1    2    0    0  0.00000000000E+00  0.00000000000E+00  0.98136916388E+03  0.22477966760E+04  0.20222523237E+04 0.  0.
        1    1    3    3  502    0  0.66070166879E+03  0.76881956981E+02  0.13371567512E+04  0.14934609830E+04  0.50400001928E-02 0.  1.
       -1    1    3    3    0  502 -0.66070166879E+03 -0.76881956981E+02 -0.35578758728E+03  0.75433569300E+03  0.50400001928E-02 0. -1.
</event>
<event>
 5   0  0.6028501E-05  0.1997870E+04  0.7818609E-02  0.8607617E-01
       -1   -1    0    0    0  501  0.00000000000E+00  0.00000000000E+00  0.11222974317E+04  0.11222974317E+04  0.50400001928E-02 0.  1.
        1   -1    0    0  501    0  0.00000000000E+00  0.00000000000E+00 -0.88913213525E+03  0.88913213527E+03  0.50400001928E-02 0. -1.
    10030    2    1    2    0    0  0.00000000000E+00  0.00000000000E+00  0.23316529640E+03  0.20114295669E+04  0.19978695771E+04 0.  0.
        4    1    3    3  502    0  0.10762014857E+02 -0.46197523482E+03  0.10082188795E+04  0.11090734243E+04  0.12699999809E+01 0.  1.
       -4    1    3    3    0  502 -0.10762014857E+02  0.46197523482E+03 -0.77505358312E+03  0.90235614264E+03  0.12699999809E+01 0. -1.
</event>
<event>
 5   0  0.1242761E-04  0.1994031E+04  0.7818609E-02  0.8609417E-01
       -2   -1    0    0    0  501  0.00000000000E+00  0.00000000000E+00  0.89403034397E+03  0.89403034397E+03  0.25500000920E-02 0. -1.
        2   -1    0    0  501    0  0.00000000000E+00  0.00000000000E+00 -0.11118634551E+04  0.11118634551E+04  0.25500000920E-02 0.  1.
    10030    2    1    2    0    0  0.00000000000E+00  0.00000000000E+00 -0.21783311110E+03  0.20058937990E+04  0.19940307592E+04 0.  0.
        4    1    3    3  502    0 -0.44504880071E+03  0.80141853510E+03 -0.50329223175E+03  0.10457747305E+04  0.12699999809E+01 0.  1.
       -4    1    3    3    0  502  0.44504880071E+03 -0.80141853510E+03  0.28545912065E+03  0.96011906859E+03  0.12699999809E+01 0. -1.
</event>
<event>
 5   0  0.1242761E-04  0.2028596E+04  0.7818609E-02  0.8593366E-01
       -2   -1    0    0    0  501  0.00000000000E+00  0.00000000000E+00  0.78920288856E+03  0.78920288856E+03  0.25500000920E-02 0. -1.
        2   -1    0    0  501    0  0.00000000000E+00  0.00000000000E+00 -0.13035949922E+04  0.13035949922E+04  0.25500000920E-02 0.  1.
    10030    2    1    2    0    0  0.00000000000E+00  0.00000000000E+00 -0.51439210363E+03  0.20927978808E+04  0.20285964935E+04 0.  0.
        4    1    3    3  502    0  0.21537186366E+03  0.44771983926E+03  0.65507569713E+03  0.82217022325E+03  0.12699999809E+01 0. -1.
       -4    1    3    3    0  502 -0.21537186366E+03 -0.44771983926E+03 -0.11694678008E+04  0.12706276575E+04  0.12699999809E+01 0.  1.
</event>
<event>
 5   0  0.6222733E-05  0.2035168E+04  0.7818609E-02  0.8590353E-01
       -1   -1    0    0    0  501  0.00000000000E+00  0.00000000000E+00  0.14139266795E+04  0.14139266795E+04  0.50400001928E-02 0. -1.
        1   -1    0    0  501    0  0.00000000000E+00  0.00000000000E+00 -0.73234170069E+03  0.73234170071E+03  0.50400001928E-02 0.  1.
    10030    2    1    2    0    0  0.00000000000E+00  0.00000000000E+00  0.68158497878E+03  0.21462683802E+04  0.20351682674E+04 0.  0.
        2    1    3    3  502    0  0.59493280242E+03 -0.73529361768E+03  0.73661618366E+03  0.11988349118E+04  0.25500000920E-02 0. -1.
       -2    1    3    3    0  502 -0.59493280242E+03  0.73529361768E+03 -0.55031204879E+02  0.94743346844E+03  0.25500000920E-02 0.  1.
</event>
<event>
 5   0  0.1274868E-04  0.1983956E+04  0.7818609E-02  0.8614159E-01
       -2   -1    0    0    0  501  0.00000000000E+00  0.00000000000E+00  0.12664222553E+04  0.12664222553E+04  0.25500000920E-02 0.  1.
        2   -1    0    0  501    0  0.00000000000E+00  0.00000000000E+00 -0.77700809642E+03  0.77700809643E+03  0.25500000920E-02 0. -1.
    10030    2    1    2    0    0  0.00000000000E+00  0.00000000000E+00  0.48941415890E+03  0.20434303518E+04  0.19839559933E+04 0.  0.
        1    1    3    3  502    0  0.79120505492E+03 -0.11905155811E+03  0.84866549310E+03  0.11663669370E+04  0.50400001928E-02 0.  1.
       -1    1    3    3    0  502 -0.79120505492E+03  0.11905155811E+03 -0.35925133420E+03  0.87706341480E+03  0.50400001928E-02 0. -1.
</event>
<event>
 5   0  0.6168338E-05  0.1995074E+04  0.7818609E-02  0.8608927E-01
        1   -1    0    0  501    0  0.00000000000E+00  0.00000000000E+00  0.92667112230E+03  0.92667112232E+03  0.50400001928E-02 0.  1.
       -1   -1    0    0    0  501  0.00000000000E+00  0.00000000000E+00 -0.10738223903E+04  0.10738223903E+04  0.50400001928E-02 0. -1.
    10030    2    1    2    0    0  0.00000000000E+00  0.00000000000E+00 -0.14715126796E+03  0.20004935126E+04  0.19950741335E+04 0.  0.
        5    1    3    3  502    0  0.53049882912E+03  0.25792802525E+03 -0.88018741255E+03  0.10595790887E+04  0.46999998093E+01 0. -1.
       -5    1    3    3    0  502 -0.53049882912E+03 -0.25792802525E+03  0.73303614459E+03  0.94091442394E+03  0.46999998093E+01 0.  1.
</event>
<event>
 5   0  0.6168338E-05  0.1933322E+04  0.7818609E-02  0.8638445E-01
        1   -1    0    0  501    0  0.00000000000E+00  0.00000000000E+00  0.81508375211E+03  0.81508375213E+03  0.50400001928E-02 0.  1.
       -1   -1    0    0    0  501  0.00000000000E+00  0.00000000000E+00 -0.11464264639E+04  0.11464264639E+04  0.50400001928E-02 0. -1.
    10030    2    1    2    0    0  0.00000000000E+00  0.00000000000E+00 -0.33134271178E+03  0.19615102160E+04  0.19333220981E+04 0.  0.
        5    1    3    3  502    0 -0.53357197034E+03 -0.17196069311E+03 -0.96464401932E+03  0.11157193650E+04  0.46999998093E+01 0. -1.
       -5    1    3    3    0  502  0.53357197034E+03  0.17196069311E+03  0.63330130754E+03  0.84579085100E+03  0.46999998093E+01 0.  1.
</event>
<event>
 5   0  0.6168338E-05  0.1962344E+04  0.7818609E-02  0.8624431E-01
        1   -1    0    0  501    0  0.00000000000E+00  0.00000000000E+00  0.72360930429E+03  0.72360930431E+03  0.50400001928E-02 0. -1.
       -1   -1    0    0    0  501  0.00000000000E+00  0.00000000000E+00 -0.13304116593E+04  0.13304116593E+04  0.50400001928E-02 0.  1.
    10030    2    1    2    0    0  0.00000000000E+00  0.00000000000E+00 -0.60680235500E+03  0.20540209636E+04  0.19623437571E+04 0.  0.
        5    1    3    3  502    0 -0.64622327097E+03  0.72623974068E+03 -0.44245125510E+03  0.10680888914E+04  0.46999998093E+01 0.  1.
       -5    1    3    3    0  502  0.64622327097E+03 -0.72623974068E+03 -0.16435109990E+03  0.98593207217E+03  0.46999998093E+01 0. -1.
</event>
<event>
 5   0  0.6222733E-05  0.1990197E+04  0.7818609E-02  0.8611218E-01
        1   -1    0    0  501    0  0.00000000000E+00  0.00000000000E+00  0.68787566384E+03  0.68787566385E+03  0.50400001928E-02 0. -1.
       -1   -1    0    0    0  501  0.00000000000E+00  0.00000000000E+00 -0.14395343395E+04  0.14395343395E+04  0.50400001928E-02 0.  1.
    10030    2    1    2    0    0  0.00000000000E+00  0.00000000000E+00 -0.75165867569E+03  0.21274100034E+04  0.19901966128E+04 0.  0.
        2    1    3    3  502    0 -0.63445604561E+03 -0.63391673082E+03 -0.83663715688E+03  0.12265180911E+04  0.25500000920E-02 0.  1.
       -2    1    3    3    0  502  0.63445604561E+03  0.63391673082E+03  0.84978481192E+02  0.90089191233E+03  0.25500000920E-02 0. -1.
</event>
<event>
 5   0  0.1159914E-04  0.1990999E+04  0.7818609E-02  0.8610841E-01
        2   -1    0    0  501    0  0.00000000000E+00  0.00000000000E+00  0.25155814515E+04  0.25155814515E+04  0.25500000920E-02 0.  1.
       -2   -1    0    0    0  501  0.00000000000E+00  0.00000000000E+00 -0.39395234577E+03  0.39395234578E+03  0.25500000920E-02 0. -1.
    10030    2    1    2    0    0  0.00000000000E+00  0.00000000000E+00  0.21216291058E+04  0.29095337973E+04  0.19909989591E+04 0.  0.
        3    1    3    3  502    0  0.21441780847E+03 -0.60187020724E+03 -0.54791408163E+02  0.64126815885E+03  0.10100000352E+00 0. -1.
       -3    1    3    3    0  502 -0.21441780847E+03  0.60187020724E+03  0.21764205139E+04  0.22682656384E+04  0.10100000352E+00 0.  1.
</event>
<event>
 5   0  0.1244229E-04  0.1983925E+04  0.7818609E-02  0.8614174E-01
       -2   -1    0    0    0  501  0.00000000000E+00  0.00000000000E+00  0.59870850667E+03  0.59870850668E+03  0.25500000920E-02 0. -1.
        2   -1    0    0  501    0  0.00000000000E+00  0.00000000000E+00 -0.16435195773E+04  0.16435195773E+04  0.25500000920E-02 0.  1.
    10030    2    1    2    0    0  0.00000000000E+00  0.00000000000E+00 -0.10448110707E+04  0.22422280840E+04  0.19839245468E+04 0.  0.
        5    1    3    3  502    0 -0.49230323943E+03 -0.56090577984E+03 -0.12609270081E+04  0.14652429092E+04  0.46999998093E+01 0.  1.
       -5    1    3    3    0  502  0.49230323943E+03  0.56090577984E+03  0.21611593741E+03  0.77698517477E+03  0.46999998093E+01 0. -1.
</event>
<event>
 5   0  0.1281789E-04  0.1982940E+04  0.7818609E-02  0.8614638E-01
        2   -1    0    0  501    0  0.00000000000E+00  0.00000000000E+00  0.14267970814E+04  0.14267970814E+04  0.25500000920E-02 0.  1.
       -2   -1    0    0    0  501  0.00000000000E+00  0.00000000000E+00 -0.68896497272E+03  0.68896497272E+03  0.25500000920E-02 0. -1.
    10030    2    1    2    0    0  0.00000000000E+00  0.00000000000E+00  0.73783210864E+03  0.21157620541E+04  0.19829404552E+04 0.  0.
        2    1    3    3  502    0  0.20397772754E+03  0.98320923457E+02 -0.66100599637E+03  0.69871513836E+03  0.25500000920E-02 0. -1.
       -2    1    3    3    0  502 -0.20397772754E+03 -0.98320923457E+02  0.13988381050E+04  0.14170469157E+04  0.25500000920E-02 0.  1.
</event>
<event>
 5   0  0.6222733E-05  0.1931025E+04  0.7818609E-02  0.8639566E-01
        1   -1    0    0  501    0  0.00000000000E+00  0.00000000000E+00  0.10565309548E+04  0.10565309548E+04  0.50400001928E-02 0.  1.
       -1   -1    0    0    0  501  0.00000000000E+00  0.00000000000E+00 -0.88233515627E+03  0.88233515628E+03  0.50400001928E-02 0. -1.
    10030    2    1    2    0    0  0.00000000000E+00  0.00000000000E+00  0.17419579854E+03  0.19388661111E+04  0.19310250181E+04 0.  0.
        2    1    3    3  502    0  0.46158237197E+03  0.60022331810E+03 -0.51440737645E+03  0.91539131887E+03  0.25500000920E-02 0. -1.
       -2    1    3    3    0  502 -0.46158237197E+03 -0.60022331810E+03  0.68860317499E+03  0.10234747922E+04  0.25500000920E-02 0.  1.
</event>
<event>
 5   0  0.1274868E-04  0.1950077E+04  0.7818609E-02  0.8630324E-01
        2   -1    0    0  501    0  0.00000000000E+00  0.00000000000E+00  0.15634870705E+04  0.15634870705E+04  0.25500000920E-02 0.  1.
       -2   -1    0    0    0  501  0.00000000000E+00  0.00000000000E+00 -0.60806397048E+03  0.60806397049E+03  0.25500000920E-02 0. -1.
    10030    2    1    2    0    0  0.00000000000E+00  0.00000000000E+00  0.95542309997E+03  0.21715510409E+04  0.19500770814E+04 0.  0.
        1    1    3    3  502    0 -0.70785336087E+03  0.30938565826E+03  0.11401925818E+04  0.13772490660E+04  0.50400001928E-02 0.  1.
       -1    1    3    3    0  502  0.70785336087E+03 -0.30938565826E+03 -0.18476948185E+03  0.79430197499E+03  0.50400001928E-02 0. -1.
</event>
<event>
 5   0  0.4479000E-05  0.2013554E+04  0.7818609E-02  0.8600310E-01
        4   -1    0    0  501    0  0.00000000000E+00  0.00000000000E+00  0.16521301510E+04  0.16521306391E+04  0.12699999809E+01 0.  1.
       -4   -1    0    0    0  501  0.00000000000E+00  0.00000000000E+00 -0.61350982226E+03  0.61351113674E+03  0.12699999809E+01 0. -1.
    10030    2    1    2    0    0  0.00000000000E+00  0.00000000000E+00  0.10386203288E+04  0.22656417759E+04  0.20135541883E+04 0.  0.
        3    1    3    3  502    0  0.69698571953E+00  0.73819064977E+03 -0.25099611669E+03  0.77969544181E+03  0.10100000352E+00 0. -1.
       -3    1    3    3    0  502 -0.69698571953E+00 -0.73819064977E+03  0.12896164454E+04  0.14859463341E+04  0.10100000352E+00 0.  1.
</event>
<event>
 5   0  0.6256535E-05  0.1969032E+04  0.7818609E-02  0.8621238E-01
       -1   -1    0    0    0  501  0.00000000000E+00  0.00000000000E+00  0.67797629820E+03  0.67797629822E+03  0.50400001928E-02 0.  1.
        1   -1    0    0  501    0  0.00000000000E+00  0.00000000000E+00 -0.14296545156E+04  0.14296545156E+04  0.50400001928E-02 0. -1.
    10030    2    1    2    0    0  0.00000000000E+00  0.00000000000E+00 -0.75167821739E+03  0.21076308138E+04  0.19690321239E+04 0.  0.
        1    1    3    3  502    0 -0.14650013427E+03 -0.79396598201E+03 -0.97890405426E+03  0.12688961413E+04  0.50400001928E-02 0. -1.
       -1    1    3    3    0  502  0.14650013427E+03  0.79396598201E+03  0.22722583687E+03  0.83873467252E+03  0.50400001928E-02 0.  1.
</event>
<event>
 5   0  0.6214547E-05  0.1966058E+04  0.7818609E-02  0.8622656E-01
        1   -1    0    0  501    0  0.00000000000E+00  0.00000000000E+00  0.16298230280E+04  0.16298230280E+04  0.50400001928E-02 0.  1.
       -1   -1    0    0    0  501  0.00000000000E+00  0.00000000000E+00 -0.59291443817E+03  0.59291443819E+03  0.50400001928E-02 0. -1.
    10030    2    1    2    0    0  0.00000000000E+00  0.00000000000E+00  0.10369085898E+04  0.22227374662E+04  0.19660575831E+04 0.  0.
        3    1    3    3  502    0 -0.36518509438E+03 -0.52156478255E+03 -0.32829762070E+03  0.71635836947E+03  0.10100000352E+00 0. -1.
       -3    1    3    3    0  502  0.36518509438E+03  0.52156478255E+03  0.13652062105E+04  0.15063790967E+04  0.10100000352E+00 0.  1.
</event>
<event>
 5   0  0.6222733E-05  0.2009346E+04  0.7818609E-02  0.8602263E-01
        1   -1    0    0  501    0  0.00000000000E+00  0.00000000000E+00  0.80319445748E+03  0.80319445750E+03  0.50400001928E-02 0.  1.
       -1   -1    0    0    0  501  0.00000000000E+00  0.00000000000E+00 -0.12566923516E+04  0.12566923516E+04  0.50400001928E-02 0. -1.
    10030    2    1    2    0    0  0.00000000000E+00  0.00000000000E+00 -0.45349789409E+03  0.20598868091E+04  0.20093464923E+04 0.  0.
        2    1    3    3  502    0  0.12735627039E+03  0.22065202589E+03  0.76952925635E+03  0.81060607728E+03  0.25500000920E-02 0.  1.
       -2    1    3    3    0  502 -0.12735627039E+03 -0.22065202589E+03 -0.12230271504E+04  0.12492807318E+04  0.25500000920E-02 0. -1.
</event>
<event>
 5   0  0.6214547E-05  0.2007045E+04  0.7818609E-02  0.8603334E-01
        1   -1    0    0  501    0  0.00000000000E+00  0.00000000000E+00  0.15354440631E+04  0.15354440631E+04  0.50400001928E-02 0.  1.
       -1   -1    0    0    0  501  0.00000000000E+00  0.00000000000E+00 -0.65587393218E+03  0.65587393220E+03  0.50400001928E-02 0. -1.
    10030    2    1    2    0    0  0.00000000000E+00  0.00000000000E+00  0.87957013089E+03  0.21913179953E+04  0.20070453262E+04 0.  0.
        3    1    3    3  502    0 -0.66543634257E+03  0.63491371777E+03  0.15112225809E+01  0.91974085971E+03  0.10100000352E+00 0. -1.
       -3    1    3    3    0  502  0.66543634257E+03 -0.63491371777E+03  0.87805890831E+03  0.12715771356E+04  0.10100000352E+00 0.  1.
</event>
<event>
 5   0  0.6028501E-05  0.2003242E+04  0.7818609E-02  0.8605106E-01
       -1   -1    0    0    0  501  0.00000000000E+00  0.00000000000E+00  0.92441920371E+03  0.92441920372E+03  0.50400001928E-02 0.  1.
        1   -1    0    0  501    0  0.00000000000E+00  0.00000000000E+00 -0.10852704000E+04  0.10852704000E+04  0.50400001928E-02 0. -1.
    10030    2    1    2    0    0  0.00000000000E+00  0.00000000000E+00 -0.16085119632E+03  0.20096896038E+04  0.20032421711E+04 0.  0.
        4    1    3    3  502    0 -0.17877839101E+02 -0.14589521089E+03  0.91353975715E+03  0.92528997103E+03  0.12699999809E+01 0.  1.
       -4    1    3    3    0  502  0.17877839101E+02  0.14589521089E+03 -0.10743909535E+04  0.10843996327E+04  0.12699999809E+01 0. -1.
</event>
<event>
 5   0  0.6222733E-05  0.1978167E+04  0.7818609E-02  0.8616897E-01
       -1   -1    0    0    0  501  0.00000000000E+00  0.00000000000E+00  0.74907527487E+03  0.74907527489E+03  0.50400001928E-02 0.  1.
        1   -1    0    0  501    0  0.00000000000E+00  0.00000000000E+00 -0.13059923627E+04  0.13059923627E+04  0.50400001928E-02 0. -1.
    10030    2    1    2    0    0  0.00000000000E+00  0.00000000000E+00 -0.55691708779E+03  0.20550676376E+04  0.19781674227E+04 0.  0.
        2    1    3    3  502    0  0.35821208176E+03  0.84835456743E+03  0.96494871738E+02  0.92592258201E+03  0.25500000920E-02 0.  1.
       -2    1    3    3    0  502 -0.35821208176E+03 -0.84835456743E+03 -0.65341195953E+03  0.11291450555E+04  0.25500000920E-02 0. -1.
</event>
<event>
 5   0  0.1281789E-04  0.1726119E+04  0.7818609E-02  0.8746606E-01
        2   -1    0    0  501    0  0.00000000000E+00  0.00000000000E+00  0.13203123523E+04  0.13203123523E+04  0.25500000920E-02 0. -1.
       -2   -1    0    0    0  501  0.00000000000E+00  0.00000000000E+00 -0.56416327224E+03  0.56416327224E+03  0.25500000920E-02 0.  1.
    10030    2    1    2    0    0  0.00000000000E+00  0.00000000000E+00  0.75614908011E+03  0.18844756246E+04  0.17261190423E+04 0.  0.
        2    1    3    3  502    0 -0.97998168093E+00 -0.42534981306E+03  0.11979340368E+04  0.12712078431E+04  0.25500000920E-02 0. -1.
       -2    1    3    3    0  502  0.97998168093E+00  0.42534981306E+03 -0.44178495670E+03  0.61326778148E+03  0.25500000920E-02 0.  1.
</event>
<event>
 5   0  0.6222733E-05  0.1996370E+04  0.7818609E-02  0.8608319E-01
       -1   -1    0    0    0  501  0.00000000000E+00  0.00000000000E+00  0.16416343183E+04  0.16416343183E+04  0.50400001928E-02 0.  1.
        1   -1    0    0  501    0  0.00000000000E+00  0.00000000000E+00 -0.60694015294E+03  0.60694015296E+03  0.50400001928E-02 0. -1.
    10030    2    1    2    0    0  0.00000000000E+00  0.00000000000E+00  0.10346941654E+04  0.22485744713E+04  0.19963704909E+04 0.  0.
        2    1    3    3  502    0 -0.53060148709E+03  0.77946765369E+03  0.14845679300E+03  0.95454029807E+03  0.25500000920E-02 0. -1.
       -2    1    3    3    0  502  0.53060148709E+03 -0.77946765369E+03  0.88623737239E+03  0.12940341732E+04  0.25500000920E-02 0.  1.
</event>
<event>
 5   0  0.6168338E-05  0.2005354E+04  0.7818609E-02  0.8604121E-01
        1   -1    0    0  501    0  0.00000000000E+00  0.00000000000E+00  0.13007007044E+04  0.13007007044E+04  0.50400001928E-02 0.  1.
       -1   -1    0    0    0  501  0.00000000000E+00  0.00000000000E+00 -0.77293836086E+03  0.77293836087E+03  0.50400001928E-02 0. -1.
    10030    2    1    2    0    0  0.00000000000E+00  0.00000000000E+00  0.52776234356E+03  0.20736390653E+04  0.20053543033E+04 0.  0.
        5    1    3    3  502    0  0.94925120418E+03 -0.28641284864E+03  0.41805266727E+03  0.10760577545E+04  0.46999998093E+01 0. -1.
       -5    1    3    3    0  502 -0.94925120418E+03  0.28641284864E+03  0.10970967629E+03  0.99758131076E+03  0.46999998093E+01 0.  1.
</event>
<event>
 5   0  0.1159914E-04  0.1997330E+04  0.7818609E-02  0.8607870E-01
        2   -1    0    0  501    0  0.00000000000E+00  0.00000000000E+00  0.96747836657E+03  0.96747836657E+03  0.25500000920E-02 0.  1.
       -2   -1    0    0    0  501  0.00000000000E+00  0.00000000000E+00 -0.10308564392E+04  0.10308564392E+04  0.25500000920E-02 0. -1.
    10030    2    1    2    0    0  0.00000000000E+00  0.00000000000E+00 -0.63378072678E+02  0.19983348058E+04  0.19973295211E+04 0.  0.
        3    1    3    3  502    0  0.67936578816E+03  0.45992787270E+03 -0.60141376193E+03  0.10172364747E+04  0.10100000352E+00 0. -1.
       -3    1    3    3    0  502 -0.67936578816E+03 -0.45992787270E+03  0.53803568926E+03  0.98109833112E+03  0.10100000352E+00 0.  1.
</event>
<event>
 5   0  0.1159914E-04  0.1661145E+04  0.7818609E-02  0.8783840E-01
       -2   -1    0    0    0  501  0.00000000000E+00  0.00000000000E+00  0.86958763383E+03  0.86958763383E+03  0.25500000920E-02 0.  1.
        2   -1    0    0  501    0  0.00000000000E+00  0.00000000000E+00 -0.79330773211E+03  0.79330773211E+03  0.25500000920E-02 0. -1.
    10030    2    1    2    0    0  0.00000000000E+00  0.00000000000E+00  0.76279901721E+02  0.16628953659E+04  0.16611448988E+04 0.  0.
        3    1    3    3  502    0 -0.17909435173E+03 -0.54625559938E+03 -0.56197539303E+03  0.80391934873E+03  0.10100000352E+00 0.  1.
       -3    1    3    3    0  502  0.17909435173E+03  0.54625559938E+03  0.63825529475E+03  0.85897601722E+03  0.10100000352E+00 0. -1.
</event>
<event>
 5   0  0.1242761E-04  0.1991335E+04  0.7818609E-02  0.8610682E-01
       -2   -1    0    0    0  501  0.00000000000E+00  0.00000000000E+00  0.62073301294E+03  0.62073301295E+03  0.25500000920E-02 0.  1.
        2   -1    0    0  501    0  0.00000000000E+00  0.00000000000E+00 -0.15970699389E+04  0.15970699389E+04  0.25500000920E-02 0. -1.
    10030    2    1    2    0    0  0.00000000000E+00  0.00000000000E+00 -0.97633692592E+03  0.22178029518E+04  0.19913352656E+04 0.  0.
        4    1    3    3  502    0 -0.62482027367E+03 -0.45125721751E+02  0.37374056020E+03  0.72946578014E+03  0.12699999809E+01 0.  1.
       -4    1    3    3    0  502  0.62482027367E+03  0.45125721751E+02 -0.13500774861E+04  0.14883371717E+04  0.12699999809E+01 0. -1.
</event>
<event>
 5   0  0.1159914E-04  0.2015073E+04  0.7818609E-02  0.8599606E-01
        2   -1    0    0  501    0  0.00000000000E+00  0.00000000000E+00  0.18416304062E+04  0.18416304062E+04  0.25500000920E-02 0. -1.
       -2   -1    0    0    0  501  0.00000000000E+00  0.00000000000E+00 -0.55121232050E+03  0.55121232050E+03  0.25500000920E-02 0.  1.
    10030    2    1    2    0    0  0.00000000000E+00  0.00000000000E+00  0.12904180857E+04  0.23928427267E+04  0.20150725741E+04 0.  0.
        3    1    3    3  502    0  0.98536509045E+03  0.41346990706E+02  0.40047615993E+03  0.10644412149E+04  0.10100000352E+00 0.  1.
       -3    1    3    3    0  502 -0.98536509045E+03 -0.41346990706E+02  0.88994192580E+03  0.13284015118E+04  0.10100000352E+00 0. -1.
</event>
<event>
 5   0  0.1274868E-04  0.2048596E+04  0.7818609E-02  0.8584232E-01
        2   -1    0    0  501    0  0.00000000000E+00  0.00000000000E+00  0.14460384195E+04  0.14460384195E+04  0.25500000920E-02 0.  1.
       -2   -1    0    0    0  501  0.00000000000E+00  0.00000000000E+00 -0.72555904107E+03  0.72555904108E+03  0.25500000920E-02 0. -1.
    10030    2    1    2    0    0  0.00000000000E+00  0.00000000000E+00  0.72047937845E+03  0.21715974606E+04  0.20485958596E+04 0.  0.
        1    1    3    3  502    0  0.29368866642E+03 -0.95138249126E+03  0.10537825206E+03  0.10012423550E+04  0.50400001928E-02 0. -1.
       -1    1    3    3    0  502 -0.29368866642E+03  0.95138249126E+03  0.61510112639E+03  0.11703551056E+04  0.50400001928E-02 0.  1.
</event>
<event>
 5   0  0.1159914E-04  0.2105062E+04  0.7818609E-02  0.8559017E-01
       -2   -1    0    0    0  501  0.00000000000E+00  0.00000000000E+00  0.79161190947E+03  0.79161190947E+03  0.25500000920E-02 0. -1.
        2   -1    0    0  501    0  0.00000000000E+00  0.00000000000E+00 -0.13994501615E+04  0.13994501615E+04  0.25500000920E-02 0.  1.
    10030    2    1    2    0    0  0.00000000000E+00  0.00000000000E+00 -0.60783825201E+03  0.21910620709E+04  0.21050619131E+04 0.  0.
        3    1    3    3  502    0  0.71902645563E+03  0.35493448520E+03 -0.10135677454E+04  0.12923997514E+04  0.10100000352E+00 0.  1.
       -3    1    3    3    0  502 -0.71902645563E+03 -0.35493448520E+03  0.40572949334E+03  0.89866231959E+03  0.10100000352E+00 0. -1.
</event>
<event>
 5   0  0.1244229E-04  0.2001374E+04  0.7818609E-02  0.8605978E-01
       -2   -1    0    0    0  501  0.00000000000E+00  0.00000000000E+00  0.62456390848E+03  0.62456390849E+03  0.25500000920E-02 0. -1.
        2   -1    0    0  501    0  0.00000000000E+00  0.00000000000E+00 -0.16033186173E+04  0.16033186173E+04  0.25500000920E-02 0.  1.
    10030    2    1    2    0    0  0.00000000000E+00  0.00000000000E+00 -0.97875470881E+03  0.22278825258E+04  0.20013744699E+04 0.  0.
        5    1    3    3  502    0  0.17288009279E+03  0.26331505161E+03  0.56792358220E+03  0.64944717114E+03  0.46999998093E+01 0. -1.
       -5    1    3    3    0  502 -0.17288009279E+03 -0.26331505161E+03 -0.15466782910E+04  0.15784353546E+04  0.46999998093E+01 0.  1.
</event>
<event>
 5   0  0.6214547E-05  0.1989944E+04  0.7818609E-02  0.8611337E-01
       -1   -1    0    0    0  501  0.00000000000E+00  0.00000000000E+00  0.91581601331E+03  0.91581601333E+03  0.50400001928E-02 0. -1.
        1   -1    0    0  501    0  0.00000000000E+00  0.00000000000E+00 -0.10809695530E+04  0.10809695530E+04  0.50400001928E-02 0.  1.
    10030    2    1    2    0    0  0.00000000000E+00  0.00000000000E+00 -0.16515353968E+03  0.19967855663E+04  0.19899439455E+04 0.  0.
        3    1    3    3  502    0 -0.85887599888E+03 -0.35355316728E+03  0.27544312727E+03  0.96878106407E+03  0.10100000352E+00 0.  1.
       -3    1    3    3    0  502  0.85887599888E+03  0.35355316728E+03 -0.44059666695E+03  0.10280045023E+04  0.10100000352E+00 0. -1.
</event>
<event>
 5   0  0.6256535E-05  0.2002326E+04  0.7818609E-02  0.8605534E-01
       -1   -1    0    0    0  501  0.00000000000E+00  0.00000000000E+00  0.92166935976E+03  0.92166935978E+03  0.50400001928E-02 0. -1.
        1   -1    0    0  501    0  0.00000000000E+00  0.00000000000E+00 -0.10875130920E+04  0.10875130920E+04  0.50400001928E-02 0.  1.
    10030    2    1    2    0    0  0.00000000000E+00  0.00000000000E+00 -0.16584373228E+03  0.20091824518E+04  0.20023261426E+04 0.  0.
        1    1    3    3  502    0  0.44337175408E+02  0.98905870719E+03 -0.23217453799E+03  0.10169109732E+04  0.50400001928E-02 0.  1.
       -1    1    3    3    0  502 -0.44337175408E+02 -0.98905870719E+03  0.66330805710E+02  0.99227147858E+03  0.50400001928E-02 0. -1.
</event>
<event>
 5   0  0.6214547E-05  0.1969146E+04  0.7818609E-02  0.8621183E-01
        1   -1    0    0  501    0  0.00000000000E+00  0.00000000000E+00  0.93893651227E+03  0.93893651228E+03  0.50400001928E-02 0. -1.
       -1   -1    0    0    0  501  0.00000000000E+00  0.00000000000E+00 -0.10324276393E+04  0.10324276393E+04  0.50400001928E-02 0.  1.
    10030    2    1    2    0    0  0.00000000000E+00  0.00000000000E+00 -0.93491127020E+02  0.19713641516E+04  0.19691460147E+04 0.  0.
        3    1    3    3  502    0  0.52150994914E+03  0.27355950327E+03  0.74317845538E+03  0.94822025692E+03  0.10100000352E+00 0. -1.
       -3    1    3    3    0  502 -0.52150994914E+03 -0.27355950327E+03 -0.83666958240E+03  0.10231438947E+04  0.10100000352E+00 0.  1.
</event>
<event>
 5   0  0.6256535E-05  0.1972464E+04  0.7818609E-02  0.8619604E-01
        1   -1    0    0  501    0  0.00000000000E+00  0.00000000000E+00  0.10530799792E+04  0.10530799793E+04  0.50400001928E-02 0. -1.
       -1   -1    0    0    0  501  0.00000000000E+00  0.00000000000E+00 -0.92362719120E+03  0.92362719122E+03  0.50400001928E-02 0.  1.
    10030    2    1    2    0    0  0.00000000000E+00  0.00000000000E+00  0.12945278804E+03  0.19767071705E+04  0.19724637420E+04 0.  0.
        1    1    3    3  502    0  0.23720036596E+03 -0.31917219656E+03 -0.83972193001E+03  0.92912207187E+03  0.50400001928E-02 0.  1.
       -1    1    3    3    0  502 -0.23720036596E+03  0.31917219656E+03  0.96917471805E+03  0.10475850986E+04  0.50400001928E-02 0. -1.
</event>
<event>
 5   0  0.6028501E-05  0.2011779E+04  0.7818609E-02  0.8601133E-01
       -1   -1    0    0    0  501  0.00000000000E+00  0.00000000000E+00  0.48903854197E+03  0.48903854199E+03  0.50400001928E-02 0.  1.
        1   -1    0    0  501    0  0.00000000000E+00  0.00000000000E+00 -0.20689858737E+04  0.20689858737E+04  0.50400001928E-02 0. -1.
    10030    2    1    2    0    0  0.00000000000E+00  0.00000000000E+00 -0.15799473318E+04  0.25580244157E+04  0.20117791480E+04 0.  0.
        4    1    3    3  502    0  0.39676791633E+03 -0.42402038469E+03 -0.18343227022E+04  0.19240476748E+04  0.12699999809E+01 0. -1.
       -4    1    3    3    0  502 -0.39676791633E+03  0.42402038469E+03  0.25437537046E+03  0.63397674094E+03  0.12699999809E+01 0.  1.
</event>
<event>
 5   0  0.1242761E-04  0.1955817E+04  0.7818609E-02  0.8627561E-01
        2   -1    0    0  501    0  0.00000000000E+00  0.00000000000E+00  0.95330729593E+03  0.95330729593E+03  0.25500000920E-02 0. -1.
       -2   -1    0    0    0  501  0.00000000000E+00  0.00000000000E+00 -0.10031444110E+04  0.10031444110E+04  0.25500000920E-02 0.  1.
    10030    2    1    2    0    0  0.00000000000E+00  0.00000000000E+00 -0.49837115095E+02  0.19564517070E+04  0.19558168482E+04 0.  0.
        4    1    3    3  502    0 -0.33862341898E+03  0.36180742128E+03 -0.86824193925E+03  0.99970801135E+03  0.12699999809E+01 0.  1.
       -4    1    3    3    0  502  0.33862341898E+03 -0.36180742128E+03  0.81840482416E+03  0.95674369561E+03  0.12699999809E+01 0. -1.
</event>
<event>
 5   0  0.1244229E-04  0.1995874E+04  0.7818609E-02  0.8608552E-01
       -2   -1    0    0    0  501  0.00000000000E+00  0.00000000000E+00  0.88776897059E+03  0.88776897060E+03  0.25500000920E-02 0.  1.
        2   -1    0    0  501    0  0.00000000000E+00  0.00000000000E+00 -0.11217761034E+04  0.11217761034E+04  0.25500000920E-02 0. -1.
    10030    2    1    2    0    0  0.00000000000E+00  0.00000000000E+00 -0.23400713283E+03  0.20095450740E+04  0.19958737601E+04 0.  0.
        5    1    3    3  502    0 -0.23209415929E+03  0.29554642338E+03 -0.10478036810E+04  0.11131621765E+04  0.46999998093E+01 0. -1.
       -5    1    3    3    0  502  0.23209415929E+03 -0.29554642338E+03  0.81379654821E+03  0.89638289755E+03  0.46999998093E+01 0.  1.
</event>
<event>
 5   0  0.6256535E-05  0.2009415E+04  0.7818609E-02  0.8602232E-01
       -1   -1    0    0    0  501  0.00000000000E+00  0.00000000000E+00  0.63331617985E+03  0.63331617987E+03  0.50400001928E-02 0. -1.
        1   -1    0    0  501    0  0.00000000000E+00  0.00000000000E+00 -0.15938911691E+04  0.15938911691E+04  0.50400001928E-02 0.  1.
    10030    2    1    2    0    0  0.00000000000E+00  0.00000000000E+00 -0.96057498921E+03  0.22272073489E+04  0.20094149062E+04 0.  0.
        1    1    3    3  502    0  0.20659940540E+03 -0.61381020726E+03 -0.13316482840E+04  0.14807881135E+04  0.50400001928E-02 0.  1.
       -1    1    3    3    0  502 -0.20659940540E+03  0.61381020726E+03  0.37107329480E+03  0.74641923540E+03  0.50400001928E-02 0. -1.
</event>
<event>
 5   0  0.1159914E-04  0.1963978E+04  0.7818609E-02  0.8623650E-01
        2   -1    0    0  501    0  0.00000000000E+00  0.00000000000E+00  0.17256282492E+04  0.17256282492E+04  0.25500000920E-02 0. -1.
       -2   -1    0    0    0  501  0.00000000000E+00  0.00000000000E+00 -0.55881218198E+03  0.55881218199E+03  0.25500000920E-02 0.  1.
    10030    2    1    2    0    0  0.00000000000E+00  0.00000000000E+00  0.11668160672E+04  0.22844404312E+04  0.19639776854E+04 0.  0.
        3    1    3    3  502    0 -0.85187378669E+02  0.81989553576E+03 -0.37355018784E+02  0.82515512885E+03  0.10100000352E+00 0.  1.
       -3    1    3    3    0  502  0.85187378669E+02 -0.81989553576E+03  0.12041710860E+04  0.14592853023E+04  0.10100000352E+00 0. -1.
</event>
<event>
 5   0  0.1274868E-04  0.2005323E+04  0.7818609E-02  0.8604136E-01
       -2   -1    0    0    0  501  0.00000000000E+00  0.00000000000E+00  0.74323284398E+03  0.74323284398E+03  0.25500000920E-02 0.  1.
        2   -1    0    0  501    0  0.00000000000E+00  0.00000000000E+00 -0.13526441860E+04  0.13526441860E+04  0.25500000920E-02 0. -1.
    10030    2    1    2    0    0  0.00000000000E+00  0.00000000000E+00 -0.60941134204E+03  0.20958770300E+04  0.20053225030E+04 0.  0.
        1    1    3    3  502    0  0.95785802618E+02 -0.54896911003E+03  0.56647372262E+03  0.79462851836E+03  0.50400001928E-02 0.  1.
       -1    1    3    3    0  502 -0.95785802618E+02  0.54896911003E+03 -0.11758850647E+04  0.13012485116E+04  0.50400001928E-02 0. -1.
</event>
<event>
 5   0  0.1281789E-04  0.1976113E+04  0.7818609E-02  0.8617871E-01
        2   -1    0    0  501    0  0.00000000000E+00  0.00000000000E+00  0.17070405025E+04  0.17070405025E+04  0.25500000920E-02 0.  1.
       -2   -1    0    0    0  501  0.00000000000E+00  0.00000000000E+00 -0.57189944971E+03  0.57189944972E+03  0.25500000920E-02 0. -1.
    10030    2    1    2    0    0  0.00000000000E+00  0.00000000000E+00  0.11351410528E+04  0.22789399522E+04  0.19761128753E+04 0.  0.
        2    1    3    3  502    0  0.12264892799E+03  0.94741160827E+03  0.85846244074E+03  0.12843633743E+04  0.25500000920E-02 0.  1.
       -2    1    3    3    0  502 -0.12264892799E+03 -0.94741160827E+03  0.27667861204E+03  0.99457657794E+03  0.25500000920E-02 0. -1.
</event>
<event>
 5   0  0.4479000E-05  0.1980979E+04  0.7818609E-02  0.8615565E-01
       -4   -1    0    0    0  501  0.00000000000E+00  0.00000000000E+00  0.47801745755E+03  0.47801914462E+03  0.12699999809E+01 0. -1.
        4   -1    0    0  501    0  0.00000000000E+00  0.00000000000E+00 -0.20523669473E+04  0.20523673402E+04  0.12699999809E+01 0.  1.
    10030    2    1    2    0    0  0.00000000000E+00  0.00000000000E+00 -0.15743494897E+04  0.25303864849E+04  0.19809794161E+04 0.  0.
        5    1    3    3  502    0 -0.84673349195E+03  0.37073660271E+03 -0.12417440706E+04  0.15480160405E+04  0.46999998093E+01 0.  1.
       -5    1    3    3    0  502  0.84673349195E+03 -0.37073660271E+03 -0.33260541917E+03  0.98237044431E+03  0.46999998093E+01 0. -1.
</event>
<event>
 5   0  0.6028501E-05  0.2037412E+04  0.7818609E-02  0.8589326E-01
        1   -1    0    0  501    0  0.00000000000E+00  0.00000000000E+00  0.11706106571E+04  0.11706106571E+04  0.50400001928E-02 0.  1.
       -1   -1    0    0    0  501  0.00000000000E+00  0.00000000000E+00 -0.88651311782E+03  0.88651311784E+03  0.50400001928E-02 0. -1.
    10030    2    1    2    0    0  0.00000000000E+00  0.00000000000E+00  0.28409753930E+03  0.20571237750E+04  0.20374117929E+04 0.  0.
        4    1    3    3  502    0 -0.79377916492E+03 -0.62338563510E+03  0.26365316657E+01  0.10093084647E+04  0.12699999809E+01 0. -1.
       -4    1    3    3    0  502  0.79377916492E+03  0.62338563510E+03  0.28146100763E+03  0.10478153103E+04  0.12699999809E+01 0.  1.
</event>
<event>
 5   0  0.1244229E-04  0.1996270E+04  0.7818609E-02  0.8608367E-01
        2   -1    0    0  501    0  0.00000000000E+00  0.00000000000E+00  0.13247768283E+04  0.13247768283E+04  0.25500000920E-02 0.  1.
       -2   -1    0    0    0  501  0.00000000000E+00  0.00000000000E+00 -0.75203095075E+03  0.75203095076E+03  0.25500000920E-02 0. -1.
    10030    2    1    2    0    0  0.00000000000E+00  0.00000000000E+00  0.57274587753E+03  0.20768077790E+04  0.19962696989E+04 0.  0.
        5    1    3    3  502    0 -0.15390626868E+03 -0.76279069829E+03 -0.36391655831E+03  0.85906585332E+03  0.46999998093E+01 0. -1.
       -5    1    3    3    0  502  0.15390626868E+03  0.76279069829E+03  0.93666243584E+03  0.12177419257E+04  0.46999998093E+01 0.  1.
</event>
<event>
 5   0  0.4479000E-05  0.2044263E+04  0.7818609E-02  0.8586201E-01
        4   -1    0    0  501    0  0.00000000000E+00  0.00000000000E+00  0.12065596430E+04  0.12065603114E+04  0.12699999809E+01 0.  1.
       -4   -1    0    0    0  501  0.00000000000E+00  0.00000000000E+00 -0.86589307936E+03  0.86589401071E+03  0.12699999809E+01 0. -1.
    10030    2    1    2    0    0  0.00000000000E+00  0.00000000000E+00  0.34066656363E+03  0.20724543221E+04  0.20442634883E+04 0.  0.
        4    1    3    3  502    0 -0.27112078654E+03  0.85216445778E+03 -0.33152968272E+03  0.95373176912E+03  0.12699999809E+01 0. -1.
       -4    1    3    3    0  502  0.27112078654E+03 -0.85216445778E+03  0.67219624634E+03  0.11187225530E+04  0.12699999809E+01 0.  1.
</event>
<event>
 5   0  0.6168338E-05  0.2027421E+04  0.7818609E-02  0.8593907E-01
        1   -1    0    0  501    0  0.00000000000E+00  0.00000000000E+00  0.14987027003E+04  0.14987027003E+04  0.50400001928E-02 0.  1.
       -1   -1    0    0    0  501  0.00000000000E+00  0.00000000000E+00 -0.68566535120E+03  0.68566535122E+03  0.50400001928E-02 0. -1.
    10030    2    1    2    0    0  0.00000000000E+00  0.00000000000E+00  0.81303734908E+03  0.21843680515E+04  0.20274205418E+04 0.  0.
        5    1    3    3  502    0 -0.34077734302E+03 -0.47835957072E+03  0.12966917433E+04  0.14235127831E+04  0.46999998093E+01 0.  1.
       -5    1    3    3    0  502  0.34077734302E+03  0.47835957072E+03 -0.48365439424E+03  0.76085526842E+03  0.46999998093E+01 0. -1.
</event>
<event>
 5   0  0.6028501E-05  0.2011123E+04  0.7818609E-02  0.8601438E-01
       -1   -1    0    0    0  501  0.00000000000E+00  0.00000000000E+00  0.67963040701E+03  0.67963040703E+03  0.50400001928E-02 0. -1.
        1   -1    0    0  501    0  0.00000000000E+00  0.00000000000E+00 -0.14877998877E+04  0.14877998878E+04  0.50400001928E-02 0.  1.
    10030    2    1    2    0    0  0.00000000000E+00  0.00000000000E+00 -0.80816948073E+03  0.21674302948E+04  0.20111231124E+04 0.  0.
        4    1    3    3  502    0  0.41522827901E+03 -0.80034383465E+03 -0.88386765635E+03  0.12626117472E+04  0.12699999809E+01 0.  1.
       -4    1    3    3    0  502 -0.41522827901E+03  0.80034383465E+03  0.75698175623E+02  0.90481854758E+03  0.12699999809E+01 0. -1.
</event>
<event>
 5   0  0.6214547E-05  0.1689023E+04  0.7818609E-02  0.8767650E-01
        1   -1    0    0  501    0  0.00000000000E+00  0.00000000000E+00  0.83615948515E+03  0.83615948516E+03  0.50400001928E-02 0. -1.
       -1   -1    0    0    0  501  0.00000000000E+00  0.00000000000E+00 -0.85294720025E+03  0.85294720027E+03  0.50400001928E-02 0.  1.
    10030    2    1    2    0    0  0.00000000000E+00  0.00000000000E+00 -0.16787715107E+02  0.16891066854E+04  0.16890232584E+04 0.  0.
        3    1    3    3  502    0 -0.35555490808E+03  0.20591022253E+02 -0.77417093008E+03  0.85216425767E+03  0.10100000352E+00 0.  1.
       -3    1    3    3    0  502  0.35555490808E+03 -0.20591022253E+02  0.75738321498E+03  0.83694242776E+03  0.10100000352E+00 0. -1.
</event>
<event>
 5   0  0.6168338E-05  0.1987718E+04  0.7818609E-02  0.8612385E-01
       -1   -1    0    0    0  501  0.00000000000E+00  0.00000000000E+00  0.58169177362E+03  0.58169177365E+03  0.50400001928E-02 0.  1.
        1   -1    0    0  501    0  0.00000000000E+00  0.00000000000E+00 -0.16980733813E+04  0.16980733813E+04  0.50400001928E-02 0. -1.
    10030    2    1    2    0    0  0.00000000000E+00  0.00000000000E+00 -0.11163816076E+04  0.22797651549E+04  0.19877176026E+04 0.  0.
        5    1    3    3  502    0  0.22015219188E+03  0.39630111277E+03  0.45618194291E+03  0.64315287032E+03  0.46999998093E+01 0.  1.
       -5    1    3    3    0  502 -0.22015219188E+03 -0.39630111277E+03 -0.15725635505E+04  0.16366122846E+04  0.46999998093E+01 0. -1.
</event>
<event>
 5   0  0.6256535E-05  0.2014440E+04  0.7818609E-02  0.8599899E-01
        1   -1    0    0  501    0  0.00000000000E+00  0.00000000000E+00  0.19831996432E+04  0.19831996432E+04  0.50400001928E-02 0.  1.
       -1   -1    0    0    0  501  0.00000000000E+00  0.00000000000E+00 -0.51154327861E+03  0.51154327864E+03  0.50400001928E-02 0. -1.
    10030    2    1    2    0    0  0.00000000000E+00  0.00000000000E+00  0.14716563646E+04  0.24947429219E+04  0.20144403170E+04 0.  0.
        1    1    3    3  502    0  0.24286682050E+03  0.73548835827E+03 -0.61556202893E+02  0.77699201012E+03  0.50400001928E-02 0. -1.
       -1    1    3    3    0  502 -0.24286682050E+03 -0.73548835827E+03  0.15332125675E+04  0.17177509117E+04  0.50400001928E-02 0.  1.
</event>
<event>
 5   0  0.1274868E-04  0.2002127E+04  0.7818609E-02  0.8605627E-01
        2   -1    0    0  501    0  0.00000000000E+00  0.00000000000E+00  0.21051369991E+04  0.21051369991E+04  0.25500000920E-02 0.  1.
       -2   -1    0    0    0  501  0.00000000000E+00  0.00000000000E+00 -0.47603918627E+03  0.47603918628E+03  0.25500000920E-02 0. -1.
    10030    2    1    2    0    0  0.00000000000E+00  0.00000000000E+00  0.16290978128E+04  0.25811761853E+04  0.20021265735E+04 0.  0.
        1    1    3    3  502    0  0.41167343130E+03 -0.80495243541E+02 -0.35727316195E+03  0.55099783170E+03  0.50400001928E-02 0. -1.
       -1    1    3    3    0  502 -0.41167343130E+03  0.80495243541E+02  0.19863709747E+04  0.20301783536E+04  0.50400001928E-02 0.  1.
</event>
<event>
 5   0  0.6256535E-05  0.1989196E+04  0.7818609E-02  0.8611689E-01
        1   -1    0    0  501    0  0.00000000000E+00  0.00000000000E+00  0.12713036756E+04  0.12713036756E+04  0.50400001928E-02 0.  1.
       -1   -1    0    0    0  501  0.00000000000E+00  0.00000000000E+00 -0.77811880607E+03  0.77811880609E+03  0.50400001928E-02 0. -1.
    10030    2    1    2    0    0  0.00000000000E+00  0.00000000000E+00  0.49318486948E+03  0.20494224817E+04  0.19891961172E+04 0.  0.
        1    1    3    3  502    0 -0.78585444617E+03  0.21730798744E+03  0.83343007399E+03  0.11659312416E+04  0.50400001928E-02 0.  1.
       -1    1    3    3    0  502  0.78585444617E+03 -0.21730798744E+03 -0.34024520451E+03  0.88349124001E+03  0.50400001928E-02 0. -1.
</event>
<event>
 5   0  0.1242761E-04  0.2012029E+04  0.7818609E-02  0.8601017E-01
       -2   -1    0    0    0  501  0.00000000000E+00  0.00000000000E+00  0.75865307786E+03  0.75865307787E+03  0.25500000920E-02 0.  1.
        2   -1    0    0  501    0  0.00000000000E+00  0.00000000000E+00 -0.13340283880E+04  0.13340283880E+04  0.25500000920E-02 0. -1.
    10030    2    1    2    0    0  0.00000000000E+00  0.00000000000E+00 -0.57537531016E+03  0.20926814659E+04  0.20120285709E+04 0.  0.
        4    1    3    3  502    0  0.23806468979E+03 -0.26478447460E+01  0.72892932147E+03  0.76682551875E+03  0.12699999809E+01 0.  1.
       -4    1    3    3    0  502 -0.23806468979E+03  0.26478447460E+01 -0.13043046316E+04  0.13258559472E+04  0.12699999809E+01 0. -1.
</event>
<event>
 5   0  0.1244229E-04  0.2005918E+04  0.7818609E-02  0.8603859E-01
        2   -1    0    0  501    0  0.00000000000E+00  0.00000000000E+00  0.75214305233E+03  0.75214305233E+03  0.25500000920E-02 0. -1.
       -2   -1    0    0    0  501  0.00000000000E+00  0.00000000000E+00 -0.13374146303E+04  0.13374146303E+04  0.25500000920E-02 0.  1.
    10030    2    1    2    0    0  0.00000000000E+00  0.00000000000E+00 -0.58527157796E+03  0.20895576826E+04  0.20059183655E+04 0.  0.
        5    1    3    3  502    0  0.26580993356E+03 -0.92989229859E+03 -0.15947405922E+02  0.96728021665E+03  0.46999998093E+01 0. -1.
       -5    1    3    3    0  502 -0.26580993356E+03  0.92989229859E+03 -0.56932417204E+03  0.11222774660E+04  0.46999998093E+01 0.  1.
</event>
<event>
 5   0  0.6222733E-05  0.1626069E+04  0.7818609E-02  0.8804691E-01
        1   -1    0    0  501    0  0.00000000000E+00  0.00000000000E+00  0.66492836942E+03  0.66492836944E+03  0.50400001928E-02 0.  1.
       -1   -1    0    0    0  501  0.00000000000E+00  0.00000000000E+00 -0.99413020358E+03  0.99413020359E+03  0.50400001928E-02 0. -1.
    10030    2    1    2    0    0  0.00000000000E+00  0.00000000000E+00 -0.32920183415E+03  0.16590585730E+04  0.16260693408E+04 0.  0.
        2    1    3    3  502    0 -0.45802000783E+02 -0.20523307820E+03  0.63670302984E+03  0.67052903582E+03  0.25500000920E-02 0.  1.
       -2    1    3    3    0  502  0.45802000783E+02  0.20523307820E+03 -0.96590486399E+03  0.98852953722E+03  0.25500000920E-02 0. -1.
</event>
<event>
 5   0  0.6256535E-05  0.2345684E+04  0.7818609E-02  0.8460123E-01
        1   -1    0    0  501    0  0.00000000000E+00  0.00000000000E+00  0.18643288400E+04  0.18643288400E+04  0.50400001928E-02 0.  1.
       -1   -1    0    0    0  501  0.00000000000E+00  0.00000000000E+00 -0.73783003091E+03  0.73783003093E+03  0.50400001928E-02 0. -1.
    10030    2    1    2    0    0  0.00000000000E+00  0.00000000000E+00  0.11264988091E+04  0.26021588709E+04  0.23456835300E+04 0.  0.
        1    1    3    3  502    0 -0.34994114705E+02 -0.73853113719E+03  0.15732386826E+04  0.17383132000E+04  0.50400001928E-02 0.  1.
       -1    1    3    3    0  502  0.34994114705E+02  0.73853113719E+03 -0.44673987351E+03  0.86384567098E+03  0.50400001928E-02 0. -1.
</event>
<event>
 5   0  0.1281789E-04  0.1964952E+04  0.7818609E-02  0.8623184E-01
       -2   -1    0    0    0  501  0.00000000000E+00  0.00000000000E+00  0.62164037402E+03  0.62164037402E+03  0.25500000920E-02 0. -1.
        2   -1    0    0  501    0  0.00000000000E+00  0.00000000000E+00 -0.15527608176E+04  0.15527608176E+04  0.25500000920E-02 0.  1.
    10030    2    1    2    0    0  0.00000000000E+00  0.00000000000E+00 -0.93112044360E+03  0.21744011916E+04  0.19649517200E+04 0.  0.
        2    1    3    3  502    0 -0.20957239306E+03 -0.34967156093E+03 -0.14547501146E+04  0.15107907481E+04  0.25500000920E-02 0.  1.
       -2    1    3    3    0  502  0.20957239306E+03  0.34967156093E+03  0.52362967101E+03  0.66361044358E+03  0.25500000920E-02 0. -1.
</event>
<event>
 5   0  0.6214547E-05  0.2005467E+04  0.7818609E-02  0.8604069E-01
       -1   -1    0    0    0  501  0.00000000000E+00  0.00000000000E+00  0.72482184639E+03  0.72482184641E+03  0.50400001928E-02 0. -1.
        1   -1    0    0  501    0  0.00000000000E+00  0.00000000000E+00 -0.13872023388E+04  0.13872023388E+04  0.50400001928E-02 0.  1.
    10030    2    1    2    0    0  0.00000000000E+00  0.00000000000E+00 -0.66238049239E+03  0.21120241852E+04  0.20054670883E+04 0.  0.
        3    1    3    3  502    0  0.84537312209E+02  0.26724866932E+03 -0.13451044985E+04  0.13739994653E+04  0.10100000352E+00 0.  1.
       -3    1    3    3    0  502 -0.84537312209E+02 -0.26724866932E+03  0.68272400615E+03  0.73802471990E+03  0.10100000352E+00 0. -1.
</event>
<event>
 5   0  0.6214547E-05  0.1990637E+04  0.7818609E-02  0.8611011E-01
       -1   -1    0    0    0  501  0.00000000000E+00  0.00000000000E+00  0.92186385325E+03  0.92186385327E+03  0.50400001928E-02 0.  1.
        1   -1    0    0  501    0  0.00000000000E+00  0.00000000000E+00 -0.10746257140E+04  0.10746257140E+04  0.50400001928E-02 0. -1.
    10030    2    1    2    0    0  0.00000000000E+00  0.00000000000E+00 -0.15276186071E+03  0.19964895672E+04  0.19906366836E+04 0.  0.
        3    1    3    3  502    0  0.73603202492E+03 -0.50688040864E+03 -0.51583323465E+03  0.10318695783E+04  0.10100000352E+00 0. -1.
       -3    1    3    3    0  502 -0.73603202492E+03  0.50688040864E+03  0.36307137394E+03  0.96461998898E+03  0.10100000352E+00 0.  1.
</event>
<event>
 5   0  0.1281789E-04  0.2006787E+04  0.7818609E-02  0.8603454E-01
        2   -1    0    0  501    0  0.00000000000E+00  0.00000000000E+00  0.11030705076E+04  0.11030705076E+04  0.25500000920E-02 0. -1.
       -2   -1    0    0    0  501  0.00000000000E+00  0.00000000000E+00 -0.91272384622E+03  0.91272384622E+03  0.25500000920E-02 0.  1.
    10030    2    1    2    0    0  0.00000000000E+00  0.00000000000E+00  0.19034666135E+03  0.20157943538E+04  0.20067872397E+04 0.  0.
        2    1    3    3  502    0 -0.28173497359E+03 -0.13503357634E+03 -0.86262095408E+03  0.91745494304E+03  0.25500000920E-02 0.  1.
       -2    1    3    3    0  502  0.28173497359E+03  0.13503357634E+03  0.10529676154E+04  0.10983394108E+04  0.25500000920E-02 0. -1.
</event>
<event>
 5   0  0.6168338E-05  0.1985742E+04  0.7818609E-02  0.8613316E-01
        1   -1    0    0  501    0  0.00000000000E+00  0.00000000000E+00  0.12166221543E+04  0.12166221544E+04  0.50400001928E-02 0. -1.
       -1   -1    0    0    0  501  0.00000000000E+00  0.00000000000E+00 -0.81027045836E+03  0.81027045837E+03  0.50400001928E-02 0.  1.
    10030    2    1    2    0    0  0.00000000000E+00  0.00000000000E+00  0.40635169598E+03  0.20268926127E+04  0.19857421692E+04 0.  0.
        5    1    3    3  502    0  0.10730375999E+03 -0.13477557102E+03  0.12012384962E+04  0.12135380366E+04  0.46999998093E+01 0. -1.
       -5    1    3    3    0  502 -0.10730375999E+03  0.13477557102E+03 -0.79488680020E+03  0.81335457617E+03  0.46999998093E+01 0.  1.
</event>
<event>
 5   0  0.1159914E-04  0.2009160E+04  0.7818609E-02  0.8602350E-01
       -2   -1    0    0    0  501  0.00000000000E+00  0.00000000000E+00  0.54089674470E+03  0.54089674471E+03  0.25500000920E-02 0.  1.
        2   -1    0    0  501    0  0.00000000000E+00  0.00000000000E+00 -0.18657556076E+04  0.18657556076E+04  0.25500000920E-02 0. -1.
    10030    2    1    2    0    0  0.00000000000E+00  0.00000000000E+00 -0.13248588629E+04  0.24066523523E+04  0.20091601574E+04 0.  0.
        3    1    3    3  502    0 -0.11729579018E+03 -0.19769147071E+03 -0.18338292928E+04  0.18481802145E+04  0.10100000352E+00 0. -1.
       -3    1    3    3    0  502  0.11729579018E+03  0.19769147071E+03  0.50897042990E+03  0.55847213780E+03  0.10100000352E+00 0.  1.
</event>
<event>
 5   0  0.1159914E-04  0.2011302E+04  0.7818609E-02  0.8601355E-01
       -2   -1    0    0    0  501  0.00000000000E+00  0.00000000000E+00  0.51165950823E+03  0.51165950823E+03  0.25500000920E-02 0. -1.
        2   -1    0    0  501    0  0.00000000000E+00  0.00000000000E+00 -0.19765751182E+04  0.19765751182E+04  0.25500000920E-02 0.  1.
    10030    2    1    2    0    0  0.00000000000E+00  0.00000000000E+00 -0.14649156100E+04  0.24882346264E+04  0.20113015219E+04 0.  0.
        3    1    3    3  502    0 -0.58607795633E+01 -0.28746181710E+03  0.45972715565E+03  0.54223400195E+03  0.10100000352E+00 0. -1.
       -3    1    3    3    0  502  0.58607795633E+01  0.28746181710E+03 -0.19246427656E+04  0.19460006245E+04  0.10100000352E+00 0.  1.
</event>
<event>
 5   0  0.1281789E-04  0.1996703E+04  0.7818609E-02  0.8608164E-01
        2   -1    0    0  501    0  0.00000000000E+00  0.00000000000E+00  0.19131981507E+04  0.19131981507E+04  0.25500000920E-02 0.  1.
       -2   -1    0    0    0  501  0.00000000000E+00  0.00000000000E+00 -0.52096305710E+03  0.52096305711E+03  0.25500000920E-02 0. -1.
    10030    2    1    2    0    0  0.00000000000E+00  0.00000000000E+00  0.13922350936E+04  0.24341612078E+04  0.19967028396E+04 0.  0.
        2    1    3    3  502    0 -0.28558431942E+03 -0.52562168166E+03 -0.27829262665E+03  0.65976006380E+03  0.25500000920E-02 0. -1.
       -2    1    3    3    0  502  0.28558431942E+03  0.52562168166E+03  0.16705277202E+04  0.17744011440E+04  0.25500000920E-02 0.  1.
</event>
<event>
 5   0  0.6028501E-05  0.2010895E+04  0.7818609E-02  0.8601544E-01
        1   -1    0    0  501    0  0.00000000000E+00  0.00000000000E+00  0.11067488542E+04  0.11067488542E+04  0.50400001928E-02 0. -1.
       -1   -1    0    0    0  501  0.00000000000E+00  0.00000000000E+00 -0.91341862457E+03  0.91341862459E+03  0.50400001928E-02 0.  1.
    10030    2    1    2    0    0  0.00000000000E+00  0.00000000000E+00  0.19333022959E+03  0.20201674788E+04  0.20108953390E+04 0.  0.
        4    1    3    3  502    0  0.20729897053E+03  0.54672296177E+03  0.91838807950E+03  0.10887227092E+04  0.12699999809E+01 0. -1.
       -4    1    3    3    0  502 -0.20729897053E+03 -0.54672296177E+03 -0.72505784990E+03  0.93144476955E+03  0.12699999809E+01 0.  1.
</event>
<event>
 5   0  0.1274868E-04  0.2013599E+04  0.7818609E-02  0.8600289E-01
       -2   -1    0    0    0  501  0.00000000000E+00  0.00000000000E+00  0.91921198686E+03  0.91921198686E+03  0.25500000920E-02 0.  1.
        2   -1    0    0  501    0  0.00000000000E+00  0.00000000000E+00 -0.11027330836E+04  0.11027330836E+04  0.25500000920E-02 0. -1.
    10030    2    1    2    0    0  0.00000000000E+00  0.00000000000E+00 -0.18352109674E+03  0.20219450705E+04  0.20135992340E+04 0.  0.
        1    1    3    3  502    0 -0.84739306141E+03  0.53376101292E+03 -0.19548266915E+03  0.10203868352E+04  0.50400001928E-02 0.  1.
       -1    1    3    3    0  502  0.84739306141E+03 -0.53376101292E+03  0.11961572405E+02  0.10015582353E+04  0.50400001928E-02 0. -1.
</event>
<event>
 5   0  0.1281789E-04  0.2014876E+04  0.7818609E-02  0.8599697E-01
       -2   -1    0    0    0  501  0.00000000000E+00  0.00000000000E+00  0.85164627852E+03  0.85164627853E+03  0.25500000920E-02 0. -1.
        2   -1    0    0  501    0  0.00000000000E+00  0.00000000000E+00 -0.11917287514E+04  0.11917287514E+04  0.25500000920E-02 0.  1.
    10030    2    1    2    0    0  0.00000000000E+00  0.00000000000E+00 -0.34008247283E+03  0.20433750299E+04  0.20148760320E+04 0.  0.
        2    1    3    3  502    0  0.28823778986E+03  0.61533988646E+03 -0.92434043478E+03  0.11472268471E+04  0.25500000920E-02 0.  1.
       -2    1    3    3    0  502 -0.28823778986E+03 -0.61533988646E+03  0.58425796195E+03  0.89614818277E+03  0.25500000920E-02 0. -1.
</event>
<event>
 5   0  0.1274868E-04  0.2021243E+04  0.7818609E-02  0.8596753E-01
        2   -1    0    0  501    0  0.00000000000E+00  0.00000000000E+00  0.23251142623E+04  0.23251142623E+04  0.25500000920E-02 0. -1.
       -2   -1    0    0    0  501  0.00000000000E+00  0.00000000000E+00 -0.43927131134E+03  0.43927131135E+03  0.25500000920E-02 0.  1.
    10030    2    1    2    0    0  0.00000000000E+00  0.00000000000E+00  0.18858429509E+04  0.27643855736E+04  0.20212431729E+04 0.  0.
        1    1    3    3  502    0 -0.42138946300E+03  0.76151907010E+03  0.16454754306E+04  0.18614697866E+04  0.50400001928E-02 0. -1.
       -1    1    3    3    0  502  0.42138946300E+03 -0.76151907010E+03  0.24036752037E+03  0.90291578707E+03  0.50400001928E-02 0.  1.
</event>
<event>
 5   0  0.1159914E-04  0.1986348E+04  0.7818609E-02  0.8613030E-01
        2   -1    0    0  501    0  0.00000000000E+00  0.00000000000E+00  0.70846721891E+03  0.70846721892E+03  0.25500000920E-02 0. -1.
       -2   -1    0    0    0  501  0.00000000000E+00  0.00000000000E+00 -0.13922939252E+04  0.13922939252E+04  0.25500000920E-02 0.  1.
    10030    2    1    2    0    0  0.00000000000E+00  0.00000000000E+00 -0.68382670631E+03  0.21007611441E+04  0.19863480109E+04 0.  0.
        3    1    3    3  502    0 -0.39972443483E+03 -0.33626333398E+02 -0.13028079019E+04  0.13631649913E+04  0.10100000352E+00 0.  1.
       -3    1    3    3    0  502  0.39972443483E+03  0.33626333398E+02  0.61898119554E+03  0.73759615287E+03  0.10100000352E+00 0. -1.
</event>
<event>
 5   0  0.6222733E-05  0.1999888E+04  0.7818609E-02  0.8606673E-01
       -1   -1    0    0    0  501  0.00000000000E+00  0.00000000000E+00  0.80863720413E+03  0.80863720414E+03  0.50400001928E-02 0.  1.
        1   -1    0    0  501    0  0.00000000000E+00  0.00000000000E+00 -0.12365104157E+04  0.12365104157E+04  0.50400001928E-02 0. -1.
    10030    2    1    2    0    0  0.00000000000E+00  0.00000000000E+00 -0.42787321158E+03  0.20451476199E+04  0.19998883223E+04 0.  0.
        2    1    3    3  502    0 -0.31716739728E+03  0.93652156247E+03 -0.36637561911E+03  0.10544661631E+04  0.25500000920E-02 0. -1.
       -2    1    3    3    0  502  0.31716739728E+03 -0.93652156247E+03 -0.61497592468E+02  0.99068145675E+03  0.25500000920E-02 0.  1.
</event>
<event>
 5   0  0.1159914E-04  0.2008974E+04  0.7818609E-02  0.8602437E-01
       -2   -1    0    0    0  501  0.00000000000E+00  0.00000000000E+00  0.11440788117E+04  0.11440788117E+04  0.25500000920E-02 0.  1.
        2   -1    0    0  501    0  0.00000000000E+00  0.00000000000E+00 -0.88192704290E+03  0.88192704290E+03  0.25500000920E-02 0. -1.
    10030    2    1    2    0    0  0.00000000000E+00  0.00000000000E+00  0.26215176877E+03  0.20260058546E+04  0.20089739105E+04 0.  0.
        3    1    3    3  502    0 -0.18785853961E+03  0.97897265194E+03  0.62698690914E+01  0.99685385369E+03  0.10100000352E+00 0. -1.
       -3    1    3    3    0  502  0.18785853961E+03 -0.97897265194E+03  0.25588189968E+03  0.10291520009E+04  0.10100000352E+00 0.  1.
</event>
<event>
 5   0  0.1242761E-04  0.1979166E+04  0.7818609E-02  0.8616423E-01
        2   -1    0    0  501    0  0.00000000000E+00  0.00000000000E+00  0.70843159003E+03  0.70843159003E+03  0.25500000920E-02 0. -1.
       -2   -1    0    0    0  501  0.00000000000E+00  0.00000000000E+00 -0.13823138985E+04  0.13823138985E+04  0.25500000920E-02 0.  1.
    10030    2    1    2    0    0  0.00000000000E+00  0.00000000000E+00 -0.67388230848E+03  0.20907454885E+04  0.19791663225E+04 0.  0.
        4    1    3    3  502    0 -0.13230908475E+03  0.35236581784E+03 -0.13037457999E+04  0.13569900837E+04  0.12699999809E+01 0.  1.
       -4    1    3    3    0  502  0.13230908475E+03 -0.35236581784E+03  0.62986349141E+03  0.73375540489E+03  0.12699999809E+01 0. -1.
</event>
<event>
 5   0  0.6256535E-05  0.1999205E+04  0.7818609E-02  0.8606993E-01
        1   -1    0    0  501    0  0.00000000000E+00  0.00000000000E+00  0.20617814416E+04  0.20617814416E+04  0.50400001928E-02 0. -1.
       -1   -1    0    0    0  501  0.00000000000E+00  0.00000000000E+00 -0.48463174127E+03  0.48463174130E+03  0.50400001928E-02 0.  1.
    10030    2    1    2    0    0  0.00000000000E+00  0.00000000000E+00  0.15771497004E+04  0.25464131829E+04  0.19992045720E+04 0.  0.
        1    1    3    3  502    0 -0.88871945332E+03 -0.27029748077E+03  0.12588523392E+04  0.15644782538E+04  0.50400001928E-02 0. -1.
       -1    1    3    3    0  502  0.88871945332E+03  0.27029748077E+03  0.31829736117E+03  0.98193492909E+03  0.50400001928E-02 0.  1.
</event>
<event>
 5   0  0.6222733E-05  0.1986242E+04  0.7818609E-02  0.8613080E-01
       -1   -1    0    0    0  501  0.00000000000E+00  0.00000000000E+00  0.11226479989E+04  0.11226479989E+04  0.50400001928E-02 0. -1.
        1   -1    0    0  501    0  0.00000000000E+00  0.00000000000E+00 -0.87853868395E+03  0.87853868397E+03  0.50400001928E-02 0.  1.
    10030    2    1    2    0    0  0.00000000000E+00  0.00000000000E+00  0.24410931490E+03  0.20011866828E+04  0.19862423774E+04 0.  0.
        2    1    3    3  502    0  0.16369794397E+03 -0.44584974329E+03 -0.75669489904E+03  0.89340146669E+03  0.25500000920E-02 0.  1.
       -2    1    3    3    0  502 -0.16369794397E+03  0.44584974329E+03  0.10008042139E+04  0.11077852161E+04  0.25500000920E-02 0. -1.
</event>
<event>
 5   0  0.6168338E-05  0.2000254E+04  0.7818609E-02  0.8606502E-01
       -1   -1    0    0    0  501  0.00000000000E+00  0.00000000000E+00  0.76411728272E+03  0.76411728273E+03  0.50400001928E-02 0.  1.
        1   -1    0    0  501    0  0.00000000000E+00  0.00000000000E+00 -0.13090320285E+04  0.13090320285E+04  0.50400001928E-02 0. -1.
    10030    2    1    2    0    0  0.00000000000E+00  0.00000000000E+00 -0.54491474574E+03  0.20731493112E+04  0.20002539805E+04 0.  0.
        5    1    3    3  502    0  0.55100506334E+03  0.54421244206E+03  0.38342204704E+03  0.86418072073E+03  0.46999998093E+01 0.  1.
       -5    1    3    3    0  502 -0.55100506334E+03 -0.54421244206E+03 -0.92833679278E+03  0.12089685905E+04  0.46999998093E+01 0. -1.
</event>
<event>
 5   0  0.4479000E-05  0.1978204E+04  0.7818609E-02  0.8616879E-01
        3   -1    0    0  501    0  0.00000000000E+00  0.00000000000E+00  0.63445260857E+03  0.63445261661E+03  0.10100000352E+00 0. -1.
       -3   -1    0    0    0  501  0.00000000000E+00  0.00000000000E+00 -0.15419950127E+04  0.15419950160E+04  0.10100000352E+00 0.  1.
    10030    2    1    2    0    0  0.00000000000E+00  0.00000000000E+00 -0.90754240417E+03  0.21764476327E+04  0.19782040042E+04 0.  0.
        5    1    3    3  502    0 -0.88456942292E+03 -0.32755754319E+03 -0.12638836264E+03  0.95171062633E+03  0.46999998093E+01 0. -1.
       -5    1    3    3    0  502  0.88456942292E+03  0.32755754319E+03 -0.78115404153E+03  0.12247370063E+04  0.46999998093E+01 0.  1.
</event>
<event>
 5   0  0.6214547E-05  0.1997708E+04  0.7818609E-02  0.8607693E-01
       -1   -1    0    0    0  501  0.00000000000E+00  0.00000000000E+00  0.70251371404E+03  0.70251371405E+03  0.50400001928E-02 0.  1.
        1   -1    0    0  501    0  0.00000000000E+00  0.00000000000E+00 -0.14201997211E+04  0.14201997211E+04  0.50400001928E-02 0. -1.
    10030    2    1    2    0    0  0.00000000000E+00  0.00000000000E+00 -0.71768600709E+03  0.21227134352E+04  0.19977084680E+04 0.  0.
        3    1    3    3  502    0 -0.57232923386E+03  0.78416353746E+03 -0.10911192634E+03  0.97692304102E+03  0.10100000352E+00 0.  1.
       -3    1    3    3    0  502  0.57232923386E+03 -0.78416353746E+03 -0.60857408076E+03  0.11457903942E+04  0.10100000352E+00 0. -1.
</event>
<event>
 5   0  0.1242761E-04  0.1994749E+04  0.7818609E-02  0.8609080E-01
       -2   -1    0    0    0  501  0.00000000000E+00  0.00000000000E+00  0.51778621144E+03  0.51778621145E+03  0.25500000920E-02 0.  1.
        2   -1    0    0  501    0  0.00000000000E+00  0.00000000000E+00 -0.19211710801E+04  0.19211710801E+04  0.25500000920E-02 0. -1.
    10030    2    1    2    0    0  0.00000000000E+00  0.00000000000E+00 -0.14033848687E+04  0.24389572916E+04  0.19947490019E+04 0.  0.
        4    1    3    3  502    0 -0.15924065641E+03  0.92927749238E+03 -0.10994705921E+04  0.14483616400E+04  0.12699999809E+01 0. -1.
       -4    1    3    3    0  502  0.15924065641E+03 -0.92927749238E+03 -0.30391427663E+03  0.99059565159E+03  0.12699999809E+01 0.  1.
</event>
<event>
 5   0  0.6256535E-05  0.2001497E+04  0.7818609E-02  0.8605921E-01
       -1   -1    0    0    0  501  0.00000000000E+00  0.00000000000E+00  0.63291209268E+03  0.63291209270E+03  0.50400001928E-02 0. -1.
        1   -1    0    0  501    0  0.00000000000E+00  0.00000000000E+00 -0.15823637735E+04  0.15823637735E+04  0.50400001928E-02 0.  1.
    10030    2    1    2    0    0  0.00000000000E+00  0.00000000000E+00 -0.94945168078E+03  0.22152758662E+04  0.20014966073E+04 0.  0.
        1    1    3    3  502    0 -0.73147457548E+03 -0.63948868623E+03 -0.74012102030E+03  0.12213844436E+04  0.50400001928E-02 0. -1.
       -1    1    3    3    0  502  0.73147457548E+03  0.63948868623E+03 -0.20933066049E+03  0.99389142256E+03  0.50400001928E-02 0.  1.
</event>
<event>
 5   0  0.1244229E-04  0.1992091E+04  0.7818609E-02  0.8610327E-01
        2   -1    0    0  501    0  0.00000000000E+00  0.00000000000E+00  0.48652766058E+03  0.48652766059E+03  0.25500000920E-02 0.  1.
       -2   -1    0    0    0  501  0.00000000000E+00  0.00000000000E+00 -0.20391582075E+04  0.20391582075E+04  0.25500000920E-02 0. -1.
    10030    2    1    2    0    0  0.00000000000E+00  0.00000000000E+00 -0.15526305470E+04  0.25256858681E+04  0.19920912351E+04 0.  0.
        5    1    3    3  502    0  0.32923182619E+03 -0.34058824032E+03  0.33455485389E+03  0.57995084712E+03  0.46999998093E+01 0.  1.
       -5    1    3    3    0  502 -0.32923182619E+03  0.34058824032E+03 -0.18871854009E+04  0.19457350210E+04  0.46999998093E+01 0. -1.
</event>
<event>
 5   0  0.1244229E-04  0.2002077E+04  0.7818609E-02  0.8605650E-01
        2   -1    0    0  501    0  0.00000000000E+00  0.00000000000E+00  0.11054142942E+04  0.11054142942E+04  0.25500000920E-02 0.  1.
       -2   -1    0    0    0  501  0.00000000000E+00  0.00000000000E+00 -0.90651771195E+03  0.90651771196E+03  0.25500000920E-02 0. -1.
    10030    2    1    2    0    0  0.00000000000E+00  0.00000000000E+00  0.19889658223E+03  0.20119320061E+04  0.20020765587E+04 0.  0.
        5    1    3    3  502    0 -0.18682514004E+03 -0.68453677755E+03  0.80901283620E+03  0.10761124904E+04  0.46999998093E+01 0.  1.
       -5    1    3    3    0  502  0.18682514004E+03  0.68453677755E+03 -0.61011625397E+03  0.93581951578E+03  0.46999998093E+01 0. -1.
</event>
<event>
 5   0  0.1244229E-04  0.1995033E+04  0.7818609E-02  0.8608946E-01
       -2   -1    0    0    0  501  0.00000000000E+00  0.00000000000E+00  0.99796861898E+03  0.99796861899E+03  0.25500000920E-02 0. -1.
        2   -1    0    0  501    0  0.00000000000E+00  0.00000000000E+00 -0.99706469556E+03  0.99706469557E+03  0.25500000920E-02 0.  1.
    10030    2    1    2    0    0  0.00000000000E+00  0.00000000000E+00  0.90392341984E+00  0.19950333146E+04  0.19950331098E+04 0.  0.
        5    1    3    3  502    0 -0.26705936858E+03  0.31231625359E+03  0.90938276671E+03  0.99792848190E+03  0.46999998093E+01 0. -1.
       -5    1    3    3    0  502  0.26705936858E+03 -0.31231625359E+03 -0.90847884329E+03  0.99710483266E+03  0.46999998093E+01 0.  1.
</event>
<event>
 5   0  0.1281789E-04  0.1989409E+04  0.7818609E-02  0.8611588E-01
       -2   -1    0    0    0  501  0.00000000000E+00  0.00000000000E+00  0.82208216599E+03  0.82208216599E+03  0.25500000920E-02 0. -1.
        2   -1    0    0  501    0  0.00000000000E+00  0.00000000000E+00 -0.12035742651E+04  0.12035742651E+04  0.25500000920E-02 0.  1.
    10030    2    1    2    0    0  0.00000000000E+00  0.00000000000E+00 -0.38149209908E+03  0.20256564311E+04  0.19894088959E+04 0.  0.
        2    1    3    3  502    0  0.82332156280E+03  0.18469630804E+03 -0.72709381404E+03  0.11138386492E+04  0.25500000920E-02 0.  1.
       -2    1    3    3    0  502 -0.82332156280E+03 -0.18469630804E+03  0.34560171496E+03  0.91181778189E+03  0.25500000920E-02 0. -1.
</event>
<event>
 5   0  0.6028501E-05  0.2004833E+04  0.7818609E-02  0.8604365E-01
        1   -1    0    0  501    0  0.00000000000E+00  0.00000000000E+00  0.71101344474E+03  0.71101344476E+03  0.50400001928E-02 0. -1.
       -1   -1    0    0    0  501  0.00000000000E+00  0.00000000000E+00 -0.14132481587E+04  0.14132481587E+04  0.50400001928E-02 0.  1.
    10030    2    1    2    0    0  0.00000000000E+00  0.00000000000E+00 -0.70223471397E+03  0.21242616035E+04  0.20048326031E+04 0.  0.
        4    1    3    3  502    0 -0.70096103094E+03  0.16593230204E+03 -0.10897504715E+04  0.13063068547E+04  0.12699999809E+01 0.  1.
       -4    1    3    3    0  502  0.70096103094E+03 -0.16593230204E+03  0.38751575751E+03  0.81795474874E+03  0.12699999809E+01 0. -1.
</event>
<event>
 5   0  0.1274868E-04  0.2013113E+04  0.7818609E-02  0.8600514E-01
        2   -1    0    0  501    0  0.00000000000E+00  0.00000000000E+00  0.65332446559E+03  0.65332446560E+03  0.25500000920E-02 0. -1.
       -2   -1    0    0    0  501  0.00000000000E+00  0.00000000000E+00 -0.15507700694E+04  0.15507700694E+04  0.25500000920E-02 0.  1.
    10030    2    1    2    0    0  0.00000000000E+00  0.00000000000E+00 -0.89744560382E+03  0.22040945350E+04  0.20131130389E+04 0.  0.
        1    1    3    3  502    0 -0.65104384183E+03  0.34521862309E+03  0.30197883759E+03  0.79638257144E+03  0.50400001928E-02 0. -1.
       -1    1    3    3    0  502  0.65104384183E+03 -0.34521862309E+03 -0.11994244414E+04  0.14077119636E+04  0.50400001928E-02 0.  1.
</event>
<event>
 5   0  0.1244229E-04  0.1959751E+04  0.7818609E-02  0.8625673E-01
        2   -1    0    0  501    0  0.00000000000E+00  0.00000000000E+00  0.62411646329E+03  0.62411646329E+03  0.25500000920E-02 0.  1.
       -2   -1    0    0    0  501  0.00000000000E+00  0.00000000000E+00 -0.15384249554E+04  0.15384249555E+04  0.25500000920E-02 0. -1.
    10030    2    1    2    0    0  0.00000000000E+00  0.00000000000E+00 -0.91430849216E+03  0.21625414187E+04  0.19597513539E+04 0.  0.
        5    1    3    3  502    0 -0.23611346581E+03 -0.14087662936E+03 -0.14949737332E+04  0.15200540604E+04  0.46999998093E+01 0. -1.
       -5    1    3    3    0  502  0.23611346581E+03  0.14087662936E+03  0.58066524108E+03  0.64248735835E+03  0.46999998093E+01 0.  1.
</event>
<event>
 5   0  0.1242761E-04  0.1846395E+04  0.7818609E-02  0.8682009E-01
        2   -1    0    0  501    0  0.00000000000E+00  0.00000000000E+00  0.12522696534E+04  0.12522696534E+04  0.25500000920E-02 0.  1.
       -2   -1    0    0    0  501  0.00000000000E+00  0.00000000000E+00 -0.68059924790E+03  0.68059924791E+03  0.25500000920E-02 0. -1.
    10030    2    1    2    0    0  0.00000000000E+00  0.00000000000E+00  0.57167040547E+03  0.19328689013E+04  0.18463951736E+04 0.  0.
        4    1    3    3  502    0  0.30893298161E+03 -0.86054910437E+03  0.15215233923E+03  0.92689605425E+03  0.12699999809E+01 0.  1.
       -4    1    3    3    0  502 -0.30893298161E+03  0.86054910437E+03  0.41951806623E+03  0.10059728470E+04  0.12699999809E+01 0. -1.
</event>
<event>
 5   0  0.1159914E-04  0.1988575E+04  0.7818609E-02  0.8611981E-01
       -2   -1    0    0    0  501  0.00000000000E+00  0.00000000000E+00  0.52817832394E+03  0.52817832394E+03  0.25500000920E-02 0. -1.
        2   -1    0    0  501    0  0.00000000000E+00  0.00000000000E+00 -0.18717307230E+04  0.18717307230E+04  0.25500000920E-02 0.  1.
    10030    2    1    2    0    0  0.00000000000E+00  0.00000000000E+00 -0.13435523991E+04  0.23999090470E+04  0.19885749633E+04 0.  0.
        3    1    3    3  502    0 -0.50817552369E+02  0.83435988773E+03 -0.22015399192E+02  0.83619587053E+03  0.10100000352E+00 0. -1.
       -3    1    3    3    0  502  0.50817552369E+02 -0.83435988773E+03 -0.13215369999E+04  0.15637131765E+04  0.10100000352E+00 0.  1.
</event>
<event>
 5   0  0.1244229E-04  0.2010856E+04  0.7818609E-02  0.8601562E-01
       -2   -1    0    0    0  501  0.00000000000E+00  0.00000000000E+00  0.43603482225E+03  0.43603482226E+03  0.25500000920E-02 0.  1.
        2   -1    0    0  501    0  0.00000000000E+00  0.00000000000E+00 -0.23183605839E+04  0.23183605839E+04  0.25500000920E-02 0. -1.
    10030    2    1    2    0    0  0.00000000000E+00  0.00000000000E+00 -0.18823257616E+04  0.27543954061E+04  0.20108564793E+04 0.  0.
        5    1    3    3  502    0 -0.44960502428E+03  0.68372944749E+03 -0.17413118731E+04  0.19240113733E+04  0.46999998093E+01 0. -1.
       -5    1    3    3    0  502  0.44960502428E+03 -0.68372944749E+03 -0.14101388853E+03  0.83038403283E+03  0.46999998093E+01 0.  1.
</event>
<event>
 5   0  0.6028501E-05  0.1979869E+04  0.7818609E-02  0.8616091E-01
        1   -1    0    0  501    0  0.00000000000E+00  0.00000000000E+00  0.14636450412E+04  0.14636450412E+04  0.50400001928E-02 0.  1.
       -1   -1    0    0    0  501  0.00000000000E+00  0.00000000000E+00 -0.66954110540E+03  0.66954110542E+03  0.50400001928E-02 0. -1.
    10030    2    1    2    0    0  0.00000000000E+00  0.00000000000E+00  0.79410393583E+03  0.21331861467E+04  0.19798692066E+04 0.  0.
        4    1    3    3  502    0 -0.57167987928E+03 -0.13398287902E+03 -0.46165970177E+03  0.74692743247E+03  0.12699999809E+01 0. -1.
       -4    1    3    3    0  502  0.57167987928E+03  0.13398287902E+03  0.12557636376E+04  0.13862587142E+04  0.12699999809E+01 0.  1.
</event>
<event>
 5   0  0.6214547E-05  0.2020044E+04  0.7818609E-02  0.8597307E-01
        1   -1    0    0  501    0  0.00000000000E+00  0.00000000000E+00  0.74486385981E+03  0.74486385983E+03  0.50400001928E-02 0.  1.
       -1   -1    0    0    0  501  0.00000000000E+00  0.00000000000E+00 -0.13695710940E+04  0.13695710940E+04  0.50400001928E-02 0. -1.
    10030    2    1    2    0    0  0.00000000000E+00  0.00000000000E+00 -0.62470723421E+03  0.21144349539E+04  0.20200435752E+04 0.  0.
        3    1    3    3  502    0 -0.47934980379E+03  0.52836165491E+03 -0.10607466717E+04  0.12783292942E+04  0.10100000352E+00 0. -1.
       -3    1    3    3    0  502  0.47934980379E+03 -0.52836165491E+03  0.43603943750E+03  0.83610565961E+03  0.10100000352E+00 0.  1.
</event>
<event>
 5   0  0.6168338E-05  0.1977123E+04  0.7818609E-02  0.8617392E-01
       -1   -1    0    0    0  501  0.00000000000E+00  0.00000000000E+00  0.41452911762E+03  0.41452911765E+03  0.50400001928E-02 0.  1.
        1   -1    0    0  501    0  0.00000000000E+00  0.00000000000E+00 -0.23575039786E+04  0.23575039786E+04  0.50400001928E-02 0. -1.
    10030    2    1    2    0    0  0.00000000000E+00  0.00000000000E+00 -0.19429748610E+04  0.27720330963E+04  0.19771232072E+04 0.  0.
        5    1    3    3  502    0  0.64207285295E+03 -0.29061346274E+03 -0.19433830116E+04  0.20672380978E+04  0.46999998093E+01 0. -1.
       -5    1    3    3    0  502 -0.64207285295E+03  0.29061346274E+03  0.40815065901E+00  0.70479499842E+03  0.46999998093E+01 0.  1.
</event>
<event>
 5   0  0.1274868E-04  0.1989269E+04  0.7818609E-02  0.8611654E-01
       -2   -1    0    0    0  501  0.00000000000E+00  0.00000000000E+00  0.39367589344E+03  0.39367589345E+03  0.25500000920E-02 0. -1.
        2   -1    0    0  501    0  0.00000000000E+00  0.00000000000E+00 -0.25129740992E+04  0.25129740992E+04  0.25500000920E-02 0.  1.
    10030    2    1    2    0    0  0.00000000000E+00  0.00000000000E+00 -0.21192982058E+04  0.29066499926E+04  0.19892685326E+04 0.  0.
        1    1    3    3  502    0  0.13682928987E+03  0.97643469250E+03 -0.86829580502E+03  0.13138053769E+04  0.50400001928E-02 0. -1.
       -1    1    3    3    0  502 -0.13682928987E+03 -0.97643469250E+03 -0.12510024007E+04  0.15928446158E+04  0.50400001928E-02 0.  1.
</event>
<event>
 5   0  0.1244229E-04  0.1999130E+04  0.7818609E-02  0.8607027E-01
       -2   -1    0    0    0  501  0.00000000000E+00  0.00000000000E+00  0.67610619191E+03  0.67610619191E+03  0.25500000920E-02 0.  1.
        2   -1    0    0  501    0  0.00000000000E+00  0.00000000000E+00 -0.14777716865E+04  0.14777716865E+04  0.25500000920E-02 0. -1.
    10030    2    1    2    0    0  0.00000000000E+00  0.00000000000E+00 -0.80166549459E+03  0.21538778784E+04  0.19991303984E+04 0.  0.
        5    1    3    3  502    0 -0.14246707426E+03 -0.79430290688E+03 -0.10363154709E+04  0.13134632923E+04  0.46999998093E+01 0. -1.
       -5    1    3    3    0  502  0.14246707426E+03  0.79430290688E+03  0.23464997629E+03  0.84041458608E+03  0.46999998093E+01 0.  1.
</event>
<event>
 5   0  0.6168338E-05  0.2024418E+04  0.7818609E-02  0.8595289E-01
        1   -1    0    0  501    0  0.00000000000E+00  0.00000000000E+00  0.16889516544E+04  0.16889516544E+04  0.50400001928E-02 0.  1.
       -1   -1    0    0    0  501  0.00000000000E+00  0.00000000000E+00 -0.60662912189E+03  0.60662912191E+03  0.50400001928E-02 0. -1.
    10030    2    1    2    0    0  0.00000000000E+00  0.00000000000E+00  0.10823225325E+04  0.22955807763E+04  0.20244181970E+04 0.  0.
        5    1    3    3  502    0 -0.51679509633E+03  0.86814379296E+03  0.47131210966E+03  0.11148578437E+04  0.46999998093E+01 0. -1.
       -5    1    3    3    0  502  0.51679509633E+03 -0.86814379296E+03  0.61101042283E+03  0.11807229326E+04  0.46999998093E+01 0.  1.
</event>
<event>
 5   0  0.6256535E-05  0.1989456E+04  0.7818609E-02  0.8611566E-01
       -1   -1    0    0    0  501  0.00000000000E+00  0.00000000000E+00  0.90960449527E+03  0.90960449528E+03  0.50400001928E-02 0. -1.
        1   -1    0    0  501    0  0.00000000000E+00  0.00000000000E+00 -0.10878181292E+04  0.10878181292E+04  0.50400001928E-02 0.  1.
    10030    2    1    2    0    0  0.00000000000E+00  0.00000000000E+00 -0.17821363391E+03  0.19974226245E+04  0.19894564688E+04 0.  0.
        1    1    3    3  502    0 -0.50117081473E+03  0.18389964168E+03  0.75359487131E+03  0.92352395412E+03  0.50400001928E-02 0. -1.
       -1    1    3    3    0  502  0.50117081473E+03 -0.18389964168E+03 -0.93180850522E+03  0.10738986703E+04  0.50400001928E-02 0.  1.
</event>
<event>
 5   0  0.1242761E-04  0.1996096E+04  0.7818609E-02  0.8608448E-01
        2   -1    0    0  501    0  0.00000000000E+00  0.00000000000E+00  0.15168861536E+04  0.15168861536E+04  0.25500000920E-02 0.  1.
       -2   -1    0    0    0  501  0.00000000000E+00  0.00000000000E+00 -0.65667425932E+03  0.65667425932E+03  0.25500000920E-02 0. -1.
    10030    2    1    2    0    0  0.00000000000E+00  0.00000000000E+00  0.86021189425E+03  0.21735604129E+04  0.19960962816E+04 0.  0.
        4    1    3    3  502    0  0.11842973072E+03 -0.98089399935E+03  0.27642035798E+03  0.10259573414E+04  0.12699999809E+01 0. -1.
       -4    1    3    3    0  502 -0.11842973072E+03  0.98089399935E+03  0.58379153627E+03  0.11476030715E+04  0.12699999809E+01 0.  1.
</event>
<event>
 5   0  0.6256535E-05  0.2223519E+04  0.7818609E-02  0.8508702E-01
       -1   -1    0    0    0  501  0.00000000000E+00  0.00000000000E+00  0.85221912145E+03  0.85221912146E+03  0.50400001928E-02 0.  1.
        1   -1    0    0  501    0  0.00000000000E+00  0.00000000000E+00 -0.14503417214E+04  0.14503417214E+04  0.50400001928E-02 0. -1.
    10030    2    1    2    0    0  0.00000000000E+00  0.00000000000E+00 -0.59812259991E+03  0.23025608428E+04  0.22235187857E+04 0.  0.
        1    1    3    3  502    0  0.82851018653E+03  0.52265038772E+03  0.24538143591E+03  0.10098537548E+04  0.50400001928E-02 0.  1.
       -1    1    3    3    0  502 -0.82851018653E+03 -0.52265038772E+03 -0.84350403583E+03  0.12927070880E+04  0.50400001928E-02 0. -1.
</event>
<event>
 5   0  0.1242761E-04  0.1782183E+04  0.7818609E-02  0.8715832E-01
        2   -1    0    0  501    0  0.00000000000E+00  0.00000000000E+00  0.12286737747E+04  0.12286737747E+04  0.25500000920E-02 0.  1.
       -2   -1    0    0    0  501  0.00000000000E+00  0.00000000000E+00 -0.64626121683E+03  0.64626121684E+03  0.25500000920E-02 0. -1.
    10030    2    1    2    0    0  0.00000000000E+00  0.00000000000E+00  0.58241255791E+03  0.18749349916E+04  0.17821831654E+04 0.  0.
        4    1    3    3  502    0 -0.82979300905E+03 -0.11484829438E+03 -0.28407417039E+02  0.83818563746E+03  0.12699999809E+01 0. -1.
       -4    1    3    3    0  502  0.82979300905E+03  0.11484829438E+03  0.61081997495E+03  0.10367493541E+04  0.12699999809E+01 0.  1.
</event>
<event>
 5   0  0.1274868E-04  0.2211787E+04  0.7818609E-02  0.8513538E-01
       -2   -1    0    0    0  501  0.00000000000E+00  0.00000000000E+00  0.81642318838E+03  0.81642318838E+03  0.25500000920E-02 0.  1.
        2   -1    0    0  501    0  0.00000000000E+00  0.00000000000E+00 -0.14979985028E+04  0.14979985028E+04  0.25500000920E-02 0. -1.
    10030    2    1    2    0    0  0.00000000000E+00  0.00000000000E+00 -0.68157531440E+03  0.23144216912E+04  0.22117872536E+04 0.  0.
        1    1    3    3  502    0  0.76023342052E+03 -0.35035290205E+03 -0.10970258624E+04  0.13799158498E+04  0.50400001928E-02 0. -1.
       -1    1    3    3    0  502 -0.76023342052E+03  0.35035290205E+03  0.41545054803E+03  0.93450584136E+03  0.50400001928E-02 0.  1.
</event>
<event>
 5   0  0.4479000E-05  0.1985255E+04  0.7818609E-02  0.8613546E-01
       -4   -1    0    0    0  501  0.00000000000E+00  0.00000000000E+00  0.81760227648E+03  0.81760326284E+03  0.12699999809E+01 0. -1.
        4   -1    0    0  501    0  0.00000000000E+00  0.00000000000E+00 -0.12051185119E+04  0.12051191811E+04  0.12699999809E+01 0.  1.
    10030    2    1    2    0    0  0.00000000000E+00  0.00000000000E+00 -0.38751623539E+03  0.20227224439E+04  0.19852549590E+04 0.  0.
        2    1    3    3  502    0 -0.42240422965E+03  0.53446216542E+03  0.54183294605E+03  0.87043556966E+03  0.25500000920E-02 0. -1.
       -2    1    3    3    0  502  0.42240422965E+03 -0.53446216542E+03 -0.92934918144E+03  0.11522868742E+04  0.25500000920E-02 0.  1.
</event>
<event>
 5   0  0.6256535E-05  0.2001898E+04  0.7818609E-02  0.8605734E-01
        1   -1    0    0  501    0  0.00000000000E+00  0.00000000000E+00  0.14372952755E+04  0.14372952755E+04  0.50400001928E-02 0. -1.
       -1   -1    0    0    0  501  0.00000000000E+00  0.00000000000E+00 -0.69707217346E+03  0.69707217348E+03  0.50400001928E-02 0.  1.
    10030    2    1    2    0    0  0.00000000000E+00  0.00000000000E+00  0.74022310205E+03  0.21343674490E+04  0.20018976414E+04 0.  0.
        1    1    3    3  502    0  0.44160575762E+03  0.39304296290E+03 -0.49104942055E+03  0.76852322626E+03  0.50400001928E-02 0.  1.
       -1    1    3    3    0  502 -0.44160575762E+03 -0.39304296290E+03  0.12312725226E+04  0.13658442227E+04  0.50400001928E-02 0. -1.
</event>
<event>
 5   0  0.4479000E-05  0.2009481E+04  0.7818609E-02  0.8602201E-01
       -3   -1    0    0    0  501  0.00000000000E+00  0.00000000000E+00  0.87968052287E+03  0.87968052867E+03  0.10100000352E+00 0. -1.
        3   -1    0    0  501    0  0.00000000000E+00  0.00000000000E+00 -0.11475795640E+04  0.11475795685E+04  0.10100000352E+00 0.  1.
    10030    2    1    2    0    0  0.00000000000E+00  0.00000000000E+00 -0.26789904118E+03  0.20272600972E+04  0.20094809293E+04 0.  0.
        3    1    3    3  502    0  0.74794014552E+03 -0.58170980236E+03 -0.47112601695E+03  0.10581873603E+04  0.10100000352E+00 0. -1.
       -3    1    3    3    0  502 -0.74794014552E+03  0.58170980236E+03  0.20322697577E+03  0.96907273686E+03  0.10100000352E+00 0.  1.
</event>
<event>
 5   0  0.1242761E-04  0.1922271E+04  0.7818609E-02  0.8643850E-01
        2   -1    0    0  501    0  0.00000000000E+00  0.00000000000E+00  0.89007813576E+03  0.89007813576E+03  0.25500000920E-02 0.  1.
       -2   -1    0    0    0  501  0.00000000000E+00  0.00000000000E+00 -0.10378650366E+04  0.10378650366E+04  0.25500000920E-02 0. -1.
    10030    2    1    2    0    0  0.00000000000E+00  0.00000000000E+00 -0.14778690081E+03  0.19279431723E+04  0.19222705085E+04 0.  0.
        4    1    3    3  502    0  0.73124951811E+03 -0.49507609623E+03 -0.45442470664E+03  0.99314129191E+03  0.12699999809E+01 0. -1.
       -4    1    3    3    0  502 -0.73124951811E+03  0.49507609623E+03  0.30663780583E+03  0.93480188043E+03  0.12699999809E+01 0.  1.
</event>
<event>
 5   0  0.6028501E-05  0.2025085E+04  0.7818609E-02  0.8594982E-01
       -1   -1    0    0    0  501  0.00000000000E+00  0.00000000000E+00  0.51244441254E+03  0.51244441257E+03  0.50400001928E-02 0. -1.
        1   -1    0    0  501    0  0.00000000000E+00  0.00000000000E+00 -0.20006898630E+04  0.20006898630E+04  0.50400001928E-02 0.  1.
    10030    2    1    2    0    0  0.00000000000E+00  0.00000000000E+00 -0.14882454504E+04  0.25131342755E+04  0.20250850269E+04 0.  0.
        4    1    3    3  502    0  0.51260503294E+03  0.25710292761E+03  0.29148190447E+03  0.64329553762E+03  0.12699999809E+01 0. -1.
       -4    1    3    3    0  502 -0.51260503294E+03 -0.25710292761E+03 -0.17797273549E+04  0.18698387379E+04  0.12699999809E+01 0.  1.
</event>
<event>
 5   0  0.1242761E-04  0.2035832E+04  0.7818609E-02  0.8590049E-01
       -2   -1    0    0    0  501  0.00000000000E+00  0.00000000000E+00  0.53126831299E+03  0.53126831300E+03  0.25500000920E-02 0.  1.
        2   -1    0    0  501    0  0.00000000000E+00  0.00000000000E+00 -0.19503391568E+04  0.19503391568E+04  0.25500000920E-02 0. -1.
    10030    2    1    2    0    0  0.00000000000E+00  0.00000000000E+00 -0.14190708438E+04  0.24816074698E+04  0.20358324033E+04 0.  0.
        4    1    3    3  502    0  0.25407035099E+03  0.38082835074E+03  0.39869695337E+03  0.60707730110E+03  0.12699999809E+01 0.  1.
       -4    1    3    3    0  502 -0.25407035099E+03 -0.38082835074E+03 -0.18177677972E+04  0.18745301687E+04  0.12699999809E+01 0. -1.
</event>
<event>
 5   0  0.6222733E-05  0.2011437E+04  0.7818609E-02  0.8601292E-01
        1   -1    0    0  501    0  0.00000000000E+00  0.00000000000E+00  0.46329846566E+03  0.46329846569E+03  0.50400001928E-02 0. -1.
       -1   -1    0    0    0  501  0.00000000000E+00  0.00000000000E+00 -0.21831921490E+04  0.21831921490E+04  0.50400001928E-02 0.  1.
    10030    2    1    2    0    0  0.00000000000E+00  0.00000000000E+00 -0.17198936834E+04  0.26464906147E+04  0.20114368724E+04 0.  0.
        2    1    3    3  502    0  0.39262051122E+03 -0.24638788972E+03 -0.20342691077E+04  0.20864104727E+04  0.25500000920E-02 0.  1.
       -2    1    3    3    0  502 -0.39262051122E+03  0.24638788972E+03  0.31437542435E+03  0.56008014201E+03  0.25500000920E-02 0. -1.
</event>
<event>
 5   0  0.1274868E-04  0.1971562E+04  0.7818609E-02  0.8620033E-01
        2   -1    0    0  501    0  0.00000000000E+00  0.00000000000E+00  0.78415911999E+03  0.78415911999E+03  0.25500000920E-02 0. -1.
       -2   -1    0    0    0  501  0.00000000000E+00  0.00000000000E+00 -0.12392432613E+04  0.12392432613E+04  0.25500000920E-02 0.  1.
    10030    2    1    2    0    0  0.00000000000E+00  0.00000000000E+00 -0.45508414136E+03  0.20234023813E+04  0.19715617214E+04 0.  0.
        1    1    3    3  502    0 -0.45129848178E+03 -0.58839258852E+02  0.66988254893E+03  0.80986110379E+03  0.50400001928E-02 0. -1.
       -1    1    3    3    0  502  0.45129848178E+03  0.58839258852E+02 -0.11249666903E+04  0.12135412776E+04  0.50400001928E-02 0.  1.
</event>
<event>
 5   0  0.6214547E-05  0.2269250E+04  0.7818609E-02  0.8490145E-01
       -1   -1    0    0    0  501  0.00000000000E+00  0.00000000000E+00  0.91656436461E+03  0.91656436462E+03  0.50400001928E-02 0.  1.
        1   -1    0    0  501    0  0.00000000000E+00  0.00000000000E+00 -0.14045649864E+04  0.14045649864E+04  0.50400001928E-02 0. -1.
    10030    2    1    2    0    0  0.00000000000E+00  0.00000000000E+00 -0.48800062178E+03  0.23211293510E+04  0.22692502853E+04 0.  0.
        3    1    3    3  502    0 -0.48416872507E+03 -0.10261252894E+04 -0.23923106690E+03  0.11595619765E+04  0.10100000352E+00 0.  1.
       -3    1    3    3    0  502  0.48416872507E+03  0.10261252894E+04 -0.24876955488E+03  0.11615673745E+04  0.10100000352E+00 0. -1.
</event>
<event>
 5   0  0.6256535E-05  0.2004016E+04  0.7818609E-02  0.8604745E-01
        1   -1    0    0  501    0  0.00000000000E+00  0.00000000000E+00  0.23967366671E+04  0.23967366671E+04  0.50400001928E-02 0. -1.
       -1   -1    0    0    0  501  0.00000000000E+00  0.00000000000E+00 -0.41891115482E+03  0.41891115485E+03  0.50400001928E-02 0.  1.
    10030    2    1    2    0    0  0.00000000000E+00  0.00000000000E+00  0.19778255122E+04  0.28156478219E+04  0.20040156936E+04 0.  0.
        1    1    3    3  502    0  0.28056940313E+03 -0.69636529109E+03  0.19212842662E+04  0.20627595692E+04  0.50400001928E-02 0. -1.
       -1    1    3    3    0  502 -0.28056940313E+03  0.69636529109E+03  0.56541246038E+02  0.75288825275E+03  0.50400001928E-02 0.  1.
</event>
<event>
 5   0  0.6214547E-05  0.2012778E+04  0.7818609E-02  0.8600670E-01
       -1   -1    0    0    0  501  0.00000000000E+00  0.00000000000E+00  0.11236454609E+04  0.11236454609E+04  0.50400001928E-02 0.  1.
        1   -1    0    0  501    0  0.00000000000E+00  0.00000000000E+00 -0.90136845045E+03  0.90136845046E+03  0.50400001928E-02 0. -1.
    10030    2    1    2    0    0  0.00000000000E+00  0.00000000000E+00  0.22227701043E+03  0.20250139114E+04  0.20127777502E+04 0.  0.
        3    1    3    3  502    0  0.53469552633E+02  0.39403413164E+03 -0.81897980398E+03  0.91041189551E+03  0.10100000352E+00 0. -1.
       -3    1    3    3    0  502 -0.53469552633E+02 -0.39403413164E+03  0.10412568144E+04  0.11146020158E+04  0.10100000352E+00 0.  1.
</event>
<event>
 5   0  0.1159914E-04  0.1996650E+04  0.7818609E-02  0.8608189E-01
        2   -1    0    0  501    0  0.00000000000E+00  0.00000000000E+00  0.11992835795E+04  0.11992835795E+04  0.25500000920E-02 0. -1.
       -2   -1    0    0    0  501  0.00000000000E+00  0.00000000000E+00 -0.83103985379E+03  0.83103985379E+03  0.25500000920E-02 0.  1.
    10030    2    1    2    0    0  0.00000000000E+00  0.00000000000E+00  0.36824372571E+03  0.20303234333E+04  0.19966496443E+04 0.  0.
        3    1    3    3  502    0 -0.44392499603E+03  0.80223775520E+03 -0.21750462885E+03  0.94231793559E+03  0.10100000352E+00 0. -1.
       -3    1    3    3    0  502  0.44392499603E+03 -0.80223775520E+03  0.58574835455E+03  0.10880054977E+04  0.10100000352E+00 0.  1.
</event>
<event>
 5   0  0.1281789E-04  0.2010414E+04  0.7818609E-02  0.8601767E-01
        2   -1    0    0  501    0  0.00000000000E+00  0.00000000000E+00  0.20524931243E+04  0.20524931243E+04  0.25500000920E-02 0.  1.
       -2   -1    0    0    0  501  0.00000000000E+00  0.00000000000E+00 -0.49229926113E+03  0.49229926113E+03  0.25500000920E-02 0. -1.
    10030    2    1    2    0    0  0.00000000000E+00  0.00000000000E+00  0.15601938632E+04  0.25447923855E+04  0.20104137371E+04 0.  0.
        2    1    3    3  502    0 -0.84057737240E+01 -0.21014992179E+03  0.20243308855E+04  0.20352270588E+04  0.25500000920E-02 0.  1.
       -2    1    3    3    0  502  0.84057737240E+01  0.21014992179E+03 -0.46413702233E+03  0.50956532669E+03  0.25500000920E-02 0. -1.
</event>
<event>
 5   0  0.6028501E-05  0.1988599E+04  0.7818609E-02  0.8611970E-01
        1   -1    0    0  501    0  0.00000000000E+00  0.00000000000E+00  0.24774791746E+04  0.24774791746E+04  0.50400001928E-02 0.  1.
       -1   -1    0    0    0  501  0.00000000000E+00  0.00000000000E+00 -0.39904727371E+03  0.39904727374E+03  0.50400001928E-02 0. -1.
    10030    2    1    2    0    0  0.00000000000E+00  0.00000000000E+00  0.20784319009E+04  0.28765264483E+04  0.19885988136E+04 0.  0.
        4    1    3    3  502    0 -0.84251010858E+03 -0.20215667000E+03  0.33362321890E+03  0.92843775633E+03  0.12699999809E+01 0. -1.
       -4    1    3    3    0  502  0.84251010858E+03  0.20215667000E+03  0.17448086820E+04  0.19480886920E+04  0.12699999809E+01 0.  1.
</event>
<event>
 5   0  0.1274868E-04  0.1975169E+04  0.7818609E-02  0.8618319E-01
       -2   -1    0    0    0  501  0.00000000000E+00  0.00000000000E+00  0.10661354831E+04  0.10661354831E+04  0.25500000920E-02 0. -1.
        2   -1    0    0  501    0  0.00000000000E+00  0.00000000000E+00 -0.91482080647E+03  0.91482080647E+03  0.25500000920E-02 0.  1.
    10030    2    1    2    0    0  0.00000000000E+00  0.00000000000E+00  0.15131467667E+03  0.19809562896E+04  0.19751687751E+04 0.  0.
        1    1    3    3  502    0 -0.91201952736E+03 -0.31375017565E+03  0.28865696569E+03  0.10067480494E+04  0.50400001928E-02 0. -1.
       -1    1    3    3    0  502  0.91201952736E+03  0.31375017565E+03 -0.13734228902E+03  0.97420824026E+03  0.50400001928E-02 0.  1.
</event>
<event>
 5   0  0.1244229E-04  0.2044259E+04  0.7818609E-02  0.8586203E-01
       -2   -1    0    0    0  501  0.00000000000E+00  0.00000000000E+00  0.88277198481E+03  0.88277198481E+03  0.25500000920E-02 0. -1.
        2   -1    0    0  501    0  0.00000000000E+00  0.00000000000E+00 -0.11834864202E+04  0.11834864202E+04  0.25500000920E-02 0.  1.
    10030    2    1    2    0    0  0.00000000000E+00  0.00000000000E+00 -0.30071443536E+03  0.20662584050E+04  0.20442589426E+04 0.  0.
        5    1    3    3  502    0 -0.80711623567E+03  0.27295620714E+03  0.42032924235E+03  0.95007392916E+03  0.46999998093E+01 0.  1.
       -5    1    3    3    0  502  0.80711623567E+03 -0.27295620714E+03 -0.72104367772E+03  0.11161844758E+04  0.46999998093E+01 0. -1.
</event>
<event>
 5   0  0.6028501E-05  0.1999713E+04  0.7818609E-02  0.8606755E-01
       -1   -1    0    0    0  501  0.00000000000E+00  0.00000000000E+00  0.78905362974E+03  0.78905362975E+03  0.50400001928E-02 0.  1.
        1   -1    0    0  501    0  0.00000000000E+00  0.00000000000E+00 -0.12669779033E+04  0.12669779033E+04  0.50400001928E-02 0. -1.
    10030    2    1    2    0    0  0.00000000000E+00  0.00000000000E+00 -0.47792427359E+03  0.20560315331E+04  0.19997134929E+04 0.  0.
        4    1    3    3  502    0 -0.24875455583E+03 -0.37486047884E+03  0.67910899839E+03  0.81461024561E+03  0.12699999809E+01 0.  1.
       -4    1    3    3    0  502  0.24875455583E+03  0.37486047884E+03 -0.11570332720E+04  0.12414212875E+04  0.12699999809E+01 0. -1.
</event>
<event>
 5   0  0.1274868E-04  0.2018802E+04  0.7818609E-02  0.8597880E-01
        2   -1    0    0  501    0  0.00000000000E+00  0.00000000000E+00  0.96331548385E+03  0.96331548385E+03  0.25500000920E-02 0. -1.
       -2   -1    0    0    0  501  0.00000000000E+00  0.00000000000E+00 -0.10576909556E+04  0.10576909556E+04  0.25500000920E-02 0.  1.
    10030    2    1    2    0    0  0.00000000000E+00  0.00000000000E+00 -0.94375471759E+02  0.20210064395E+04  0.20188016987E+04 0.  0.
        1    1    3    3  502    0 -0.90981972375E+03  0.39710116707E+03 -0.23022287828E+03  0.10190504601E+04  0.50400001928E-02 0. -1.
       -1    1    3    3    0  502  0.90981972375E+03 -0.39710116707E+03  0.13584740652E+03  0.10019559793E+04  0.50400001928E-02 0.  1.
</event>
<event>
 5   0  0.6256535E-05  0.1997554E+04  0.7818609E-02  0.8607765E-01
       -1   -1    0    0    0  501  0.00000000000E+00  0.00000000000E+00  0.82435475092E+03  0.82435475093E+03  0.50400001928E-02 0.  1.
        1   -1    0    0  501    0  0.00000000000E+00  0.00000000000E+00 -0.12101048018E+04  0.12101048018E+04  0.50400001928E-02 0. -1.
    10030    2    1    2    0    0  0.00000000000E+00  0.00000000000E+00 -0.38575005088E+03  0.20344595527E+04  0.19975541470E+04 0.  0.
        1    1    3    3  502    0  0.33703470430E+03  0.79401355404E+03  0.31992068870E+03  0.91999954510E+03  0.50400001928E-02 0.  1.
       -1    1    3    3    0  502 -0.33703470430E+03 -0.79401355404E+03 -0.70567073958E+03  0.11144600076E+04  0.50400001928E-02 0. -1.
</event>
<event>
 5   0  0.1274868E-04  0.2008149E+04  0.7818609E-02  0.8602820E-01
       -2   -1    0    0    0  501  0.00000000000E+00  0.00000000000E+00  0.10107895166E+04  0.10107895166E+04  0.25500000920E-02 0. -1.
        2   -1    0    0  501    0  0.00000000000E+00  0.00000000000E+00 -0.99740362822E+03  0.99740362823E+03  0.25500000920E-02 0.  1.
    10030    2    1    2    0    0  0.00000000000E+00  0.00000000000E+00  0.13385888398E+02  0.20081931449E+04  0.20081485316E+04 0.  0.
        1    1    3    3  502    0 -0.38489982361E+01  0.74550845567E+03  0.67929056453E+03  0.10085798646E+04  0.50400001928E-02 0. -1.
       -1    1    3    3    0  502  0.38489982361E+01 -0.74550845567E+03 -0.66590467614E+03  0.99961328022E+03  0.50400001928E-02 0.  1.
</event>
<event>
 5   0  0.6028501E-05  0.1977129E+04  0.7818609E-02  0.8617389E-01
       -1   -1    0    0    0  501  0.00000000000E+00  0.00000000000E+00  0.61041624617E+03  0.61041624619E+03  0.50400001928E-02 0. -1.
        1   -1    0    0  501    0  0.00000000000E+00  0.00000000000E+00 -0.16009722923E+04  0.16009722923E+04  0.50400001928E-02 0.  1.
    10030    2    1    2    0    0  0.00000000000E+00  0.00000000000E+00 -0.99055604610E+03  0.22113885385E+04  0.19771287231E+04 0.  0.
        4    1    3    3  502    0 -0.23086353884E+03  0.22168059036E+02  0.57955536579E+03  0.62423988284E+03  0.12699999809E+01 0. -1.
       -4    1    3    3    0  502  0.23086353884E+03 -0.22168059036E+02 -0.15701114119E+04  0.15871486556E+04  0.12699999809E+01 0.  1.
</event>
<event>
 5   0  0.1281789E-04  0.2034281E+04  0.7818609E-02  0.8590759E-01
        2   -1    0    0  501    0  0.00000000000E+00  0.00000000000E+00  0.16058654721E+04  0.16058654721E+04  0.25500000920E-02 0. -1.
       -2   -1    0    0    0  501  0.00000000000E+00  0.00000000000E+00 -0.64424765052E+03  0.64424765053E+03  0.25500000920E-02 0.  1.
    10030    2    1    2    0    0  0.00000000000E+00  0.00000000000E+00  0.96161782162E+03  0.22501131227E+04  0.20342812564E+04 0.  0.
        2    1    3    3  502    0 -0.97107342783E+03 -0.24400042499E+03  0.28277346767E+03  0.10404233002E+04  0.25500000920E-02 0.  1.
       -2    1    3    3    0  502  0.97107342783E+03  0.24400042499E+03  0.67884435395E+03  0.12096898224E+04  0.25500000920E-02 0. -1.
</event>
<event>
 5   0  0.1281789E-04  0.1987691E+04  0.7818609E-02  0.8612397E-01
       -2   -1    0    0    0  501  0.00000000000E+00  0.00000000000E+00  0.10989196736E+04  0.10989196736E+04  0.25500000920E-02 0. -1.
        2   -1    0    0  501    0  0.00000000000E+00  0.00000000000E+00 -0.89881845602E+03  0.89881845602E+03  0.25500000920E-02 0.  1.
    10030    2    1    2    0    0  0.00000000000E+00  0.00000000000E+00  0.20010121753E+03  0.19977381296E+04  0.19876914089E+04 0.  0.
        2    1    3    3  502    0 -0.37888064014E+03  0.80648568642E+01 -0.82334982318E+03  0.90637768768E+03  0.25500000920E-02 0.  1.
       -2    1    3    3    0  502  0.37888064014E+03 -0.80648568642E+01  0.10234510407E+04  0.10913604419E+04  0.25500000920E-02 0. -1.
</event>
<event>
 5   0  0.6028501E-05  0.1998573E+04  0.7818609E-02  0.8607288E-01
       -1   -1    0    0    0  501  0.00000000000E+00  0.00000000000E+00  0.58690919067E+03  0.58690919069E+03  0.50400001928E-02 0.  1.
        1   -1    0    0  501    0  0.00000000000E+00  0.00000000000E+00 -0.17014110508E+04  0.17014110508E+04  0.50400001928E-02 0. -1.
    10030    2    1    2    0    0  0.00000000000E+00  0.00000000000E+00 -0.11145018602E+04  0.22883202415E+04  0.19985732740E+04 0.  0.
        4    1    3    3  502    0 -0.54696118593E+03 -0.82931688577E+03 -0.43372530471E+03  0.10839982882E+04  0.12699999809E+01 0. -1.
       -4    1    3    3    0  502  0.54696118593E+03  0.82931688577E+03 -0.68077655545E+03  0.12043219533E+04  0.12699999809E+01 0.  1.
</event>
<event>
 5   0  0.6168338E-05  0.1998852E+04  0.7818609E-02  0.8607157E-01
        1   -1    0    0  501    0  0.00000000000E+00  0.00000000000E+00  0.84422934519E+03  0.84422934521E+03  0.50400001928E-02 0.  1.
       -1   -1    0    0    0  501  0.00000000000E+00  0.00000000000E+00 -0.11831533224E+04  0.11831533225E+04  0.50400001928E-02 0. -1.
    10030    2    1    2    0    0  0.00000000000E+00  0.00000000000E+00 -0.33892397725E+03  0.20273826677E+04  0.19988524255E+04 0.  0.
        5    1    3    3  502    0 -0.50857697278E+03  0.38268858509E+03  0.61207464323E+03  0.88303938151E+03  0.46999998093E+01 0.  1.
       -5    1    3    3    0  502  0.50857697278E+03 -0.38268858509E+03 -0.95099862049E+03  0.11443432862E+04  0.46999998093E+01 0. -1.
</event>
<event>
 5   0  0.6222733E-05  0.1998299E+04  0.7818609E-02  0.8607417E-01
       -1   -1    0    0    0  501  0.00000000000E+00  0.00000000000E+00  0.89250422808E+03  0.89250422810E+03  0.50400001928E-02 0.  1.
        1   -1    0    0  501    0  0.00000000000E+00  0.00000000000E+00 -0.11185374325E+04  0.11185374325E+04  0.50400001928E-02 0. -1.
    10030    2    1    2    0    0  0.00000000000E+00  0.00000000000E+00 -0.22603320441E+03  0.20110416606E+04  0.19982986642E+04 0.  0.
        2    1    3    3  502    0  0.38551640644E+03  0.80705965674E+03  0.33516723206E+03  0.95514672309E+03  0.25500000920E-02 0. -1.
       -2    1    3    3    0  502 -0.38551640644E+03 -0.80705965674E+03 -0.56120043647E+03  0.10558949375E+04  0.25500000920E-02 0.  1.
</event>
<event>
 5   0  0.1159914E-04  0.1991638E+04  0.7818609E-02  0.8610540E-01
       -2   -1    0    0    0  501  0.00000000000E+00  0.00000000000E+00  0.12031277763E+04  0.12031277763E+04  0.25500000920E-02 0. -1.
        2   -1    0    0  501    0  0.00000000000E+00  0.00000000000E+00 -0.82423084645E+03  0.82423084645E+03  0.25500000920E-02 0.  1.
    10030    2    1    2    0    0  0.00000000000E+00  0.00000000000E+00  0.37889692986E+03  0.20273586228E+04  0.19916375428E+04 0.  0.
        3    1    3    3  502    0 -0.73775279155E+03  0.56360424181E+03 -0.17718655284E+03  0.94515819180E+03  0.10100000352E+00 0.  1.
       -3    1    3    3    0  502  0.73775279155E+03 -0.56360424181E+03  0.55608348270E+03  0.10822004310E+04  0.10100000352E+00 0. -1.
</event>
<event>
 5   0  0.6222733E-05  0.1916253E+04  0.7818609E-02  0.8646808E-01
       -1   -1    0    0    0  501  0.00000000000E+00  0.00000000000E+00  0.68855463174E+03  0.68855463176E+03  0.50400001928E-02 0.  1.
        1   -1    0    0  501    0  0.00000000000E+00  0.00000000000E+00 -0.13332367568E+04  0.13332367568E+04  0.50400001928E-02 0. -1.
    10030    2    1    2    0    0  0.00000000000E+00  0.00000000000E+00 -0.64468212505E+03  0.20217913886E+04  0.19162529521E+04 0.  0.
        2    1    3    3  502    0 -0.42953289319E+03  0.58904180809E+03  0.33362197852E+03  0.80173086667E+03  0.25500000920E-02 0.  1.
       -2    1    3    3    0  502  0.42953289319E+03 -0.58904180809E+03 -0.97830410357E+03  0.12200605219E+04  0.25500000920E-02 0. -1.
</event>
<event>
 5   0  0.6256535E-05  0.2023759E+04  0.7818609E-02  0.8595593E-01
        1   -1    0    0  501    0  0.00000000000E+00  0.00000000000E+00  0.10507354416E+04  0.10507354416E+04  0.50400001928E-02 0.  1.
       -1   -1    0    0    0  501  0.00000000000E+00  0.00000000000E+00 -0.97446004100E+03  0.97446004101E+03  0.50400001928E-02 0. -1.
    10030    2    1    2    0    0  0.00000000000E+00  0.00000000000E+00  0.76275400621E+02  0.20251954826E+04  0.20237585840E+04 0.  0.
        1    1    3    3  502    0  0.96604331496E+03  0.22957192240E+03  0.23310094413E+03  0.10199406866E+04  0.50400001928E-02 0.  1.
       -1    1    3    3    0  502 -0.96604331496E+03 -0.22957192240E+03 -0.15682554351E+03  0.10052547961E+04  0.50400001928E-02 0. -1.
</event>
<event>
 5   0  0.1274868E-04  0.1988607E+04  0.7818609E-02  0.8611966E-01
        2   -1    0    0  501    0  0.00000000000E+00  0.00000000000E+00  0.13354214045E+04  0.13354214045E+04  0.25500000920E-02 0.  1.
       -2   -1    0    0    0  501  0.00000000000E+00  0.00000000000E+00 -0.74032052499E+03  0.74032052500E+03  0.25500000920E-02 0. -1.
    10030    2    1    2    0    0  0.00000000000E+00  0.00000000000E+00  0.59510087948E+03  0.20757419295E+04  0.19886074276E+04 0.  0.
        1    1    3    3  502    0  0.17235912157E+03 -0.31693825795E+03 -0.66959098615E+03  0.76059819544E+03  0.50400001928E-02 0. -1.
       -1    1    3    3    0  502 -0.17235912157E+03  0.31693825795E+03  0.12646918656E+04  0.13151437340E+04  0.50400001928E-02 0.  1.
</event>
<event>
 5   0  0.4479000E-05  0.2013536E+04  0.7818609E-02  0.8600318E-01
        3   -1    0    0  501    0  0.00000000000E+00  0.00000000000E+00  0.68400378190E+03  0.68400378936E+03  0.10100000352E+00 0. -1.
       -3   -1    0    0    0  501  0.00000000000E+00  0.00000000000E+00 -0.14818367054E+04  0.14818367088E+04  0.10100000352E+00 0.  1.
    10030    2    1    2    0    0  0.00000000000E+00  0.00000000000E+00 -0.79783292346E+03  0.21658404982E+04  0.20135361158E+04 0.  0.
        2    1    3    3  502    0 -0.86615473458E+03 -0.48208953696E+03 -0.58814227012E+03  0.11526255575E+04  0.25500000920E-02 0.  1.
       -2    1    3    3    0  502  0.86615473458E+03  0.48208953696E+03 -0.20969065334E+03  0.10132149407E+04  0.25500000920E-02 0. -1.
</event>
<event>
 5   0  0.6168338E-05  0.1999286E+04  0.7818609E-02  0.8606955E-01
        1   -1    0    0  501    0  0.00000000000E+00  0.00000000000E+00  0.71679497662E+03  0.71679497664E+03  0.50400001928E-02 0.  1.
       -1   -1    0    0    0  501  0.00000000000E+00  0.00000000000E+00 -0.13941024810E+04  0.13941024810E+04  0.50400001928E-02 0. -1.
    10030    2    1    2    0    0  0.00000000000E+00  0.00000000000E+00 -0.67730750439E+03  0.21108974577E+04  0.19992855277E+04 0.  0.
        5    1    3    3  502    0  0.21947530888E+03  0.88885194285E+03  0.85042196401E+02  0.91950065398E+03  0.46999998093E+01 0.  1.
       -5    1    3    3    0  502 -0.21947530888E+03 -0.88885194285E+03 -0.76234970079E+03  0.11913968037E+04  0.46999998093E+01 0. -1.
</event>
<event>
 5   0  0.1281789E-04  0.2234601E+04  0.7818609E-02  0.8504163E-01
       -2   -1    0    0    0  501  0.00000000000E+00  0.00000000000E+00  0.16831622540E+04  0.16831622540E+04  0.25500000920E-02 0. -1.
        2   -1    0    0  501    0  0.00000000000E+00  0.00000000000E+00 -0.74167568282E+03  0.74167568282E+03  0.25500000920E-02 0.  1.
    10030    2    1    2    0    0  0.00000000000E+00  0.00000000000E+00  0.94148657117E+03  0.24248379368E+04  0.22346010955E+04 0.  0.
        2    1    3    3  502    0  0.25844640770E+03  0.36482070485E+03  0.15818636112E+04  0.16438312495E+04  0.25500000920E-02 0. -1.
       -2    1    3    3    0  502 -0.25844640770E+03 -0.36482070485E+03 -0.64037704000E+03  0.78100668736E+03  0.25500000920E-02 0.  1.
</event>
<event>
 5   0  0.1281789E-04  0.1988799E+04  0.7818609E-02  0.8611876E-01
       -2   -1    0    0    0  501  0.00000000000E+00  0.00000000000E+00  0.73757694817E+03  0.73757694817E+03  0.25500000920E-02 0.  1.
        2   -1    0    0  501    0  0.00000000000E+00  0.00000000000E+00 -0.13406464568E+04  0.13406464568E+04  0.25500000920E-02 0. -1.
    10030    2    1    2    0    0  0.00000000000E+00  0.00000000000E+00 -0.60306950867E+03  0.20782234050E+04  0.19887985541E+04 0.  0.
        2    1    3    3  502    0  0.42332663812E+03 -0.63222921771E+03 -0.97056547668E+03  0.12332544631E+04  0.25500000920E-02 0. -1.
       -2    1    3    3    0  502 -0.42332663812E+03  0.63222921771E+03  0.36749596801E+03  0.84496894190E+03  0.25500000920E-02 0.  1.
</event>
<event>
 5   0  0.6214547E-05  0.1995491E+04  0.7818609E-02  0.8608732E-01
        1   -1    0    0  501    0  0.00000000000E+00  0.00000000000E+00  0.13744062648E+04  0.13744062648E+04  0.50400001928E-02 0.  1.
       -1   -1    0    0    0  501  0.00000000000E+00  0.00000000000E+00 -0.72431009867E+03  0.72431009868E+03  0.50400001928E-02 0. -1.
    10030    2    1    2    0    0  0.00000000000E+00  0.00000000000E+00  0.65009616613E+03  0.20987163635E+04  0.19954912551E+04 0.  0.
        3    1    3    3  502    0  0.22438595048E+03 -0.16465545030E+03 -0.68265767815E+03  0.73721230851E+03  0.10100000352E+00 0. -1.
       -3    1    3    3    0  502 -0.22438595048E+03  0.16465545030E+03  0.13327538443E+04  0.13615040550E+04  0.10100000352E+00 0.  1.
</event>
<event>
 5   0  0.1244229E-04  0.1842380E+04  0.7818609E-02  0.8684081E-01
        2   -1    0    0  501    0  0.00000000000E+00  0.00000000000E+00  0.73031965011E+03  0.73031965011E+03  0.25500000920E-02 0.  1.
       -2   -1    0    0    0  501  0.00000000000E+00  0.00000000000E+00 -0.11619451952E+04  0.11619451952E+04  0.25500000920E-02 0. -1.
    10030    2    1    2    0    0  0.00000000000E+00  0.00000000000E+00 -0.43162554513E+03  0.18922648454E+04  0.18423804259E+04 0.  0.
        5    1    3    3  502    0 -0.49393668898E+03 -0.65025729349E+03 -0.65369099036E+03  0.10460124289E+04  0.46999998093E+01 0.  1.
       -5    1    3    3    0  502  0.49393668898E+03  0.65025729349E+03  0.22206544524E+03  0.84625241649E+03  0.46999998093E+01 0. -1.
</event>
<event>
 5   0  0.6028501E-05  0.1961851E+04  0.7818609E-02  0.8624667E-01
        1   -1    0    0  501    0  0.00000000000E+00  0.00000000000E+00  0.11922051034E+04  0.11922051034E+04  0.50400001928E-02 0.  1.
       -1   -1    0    0    0  501  0.00000000000E+00  0.00000000000E+00 -0.80708845152E+03  0.80708845154E+03  0.50400001928E-02 0. -1.
    10030    2    1    2    0    0  0.00000000000E+00  0.00000000000E+00  0.38511665190E+03  0.19992935550E+04  0.19618511369E+04 0.  0.
        4    1    3    3  502    0 -0.34160926269E+03 -0.44087180628E+03  0.10148966763E+04  0.11580508255E+04  0.12699999809E+01 0.  1.
       -4    1    3    3    0  502  0.34160926269E+03  0.44087180628E+03 -0.62978002438E+03  0.84124272950E+03  0.12699999809E+01 0. -1.
</event>
<event>
 5   0  0.1281789E-04  0.1750433E+04  0.7818609E-02  0.8733112E-01
        2   -1    0    0  501    0  0.00000000000E+00  0.00000000000E+00  0.17294537223E+04  0.17294537223E+04  0.25500000920E-02 0.  1.
       -2   -1    0    0    0  501  0.00000000000E+00  0.00000000000E+00 -0.44291679347E+03  0.44291679348E+03  0.25500000920E-02 0. -1.
    10030    2    1    2    0    0  0.00000000000E+00  0.00000000000E+00  0.12865369288E+04  0.21723705158E+04  0.17504332003E+04 0.  0.
        2    1    3    3  502    0 -0.23459979520E+03  0.80595307237E+03  0.95080460566E+03  0.12683165287E+04  0.25500000920E-02 0.  1.
       -2    1    3    3    0  502  0.23459979520E+03 -0.80595307237E+03  0.33573232317E+03  0.90405398710E+03  0.25500000920E-02 0. -1.
</event>
<event>
 5   0  0.6168338E-05  0.1987963E+04  0.7818609E-02  0.8612269E-01
        1   -1    0    0  501    0  0.00000000000E+00  0.00000000000E+00  0.25124962236E+04  0.25124962236E+04  0.50400001928E-02 0. -1.
       -1   -1    0    0    0  501  0.00000000000E+00  0.00000000000E+00 -0.39323399290E+03  0.39323399293E+03  0.50400001928E-02 0.  1.
    10030    2    1    2    0    0  0.00000000000E+00  0.00000000000E+00  0.21192622307E+04  0.29057302165E+04  0.19879626980E+04 0.  0.
        5    1    3    3  502    0 -0.88286432816E+03  0.32276246983E+03  0.58746259680E+03  0.11084942158E+04  0.46999998093E+01 0.  1.
       -5    1    3    3    0  502  0.88286432816E+03 -0.32276246983E+03  0.15317996339E+04  0.17972360007E+04  0.46999998093E+01 0. -1.
</event>
<event>
 5   0  0.4479000E-05  0.1977524E+04  0.7818609E-02  0.8617201E-01
       -3   -1    0    0    0  501  0.00000000000E+00  0.00000000000E+00  0.23619707591E+04  0.23619707612E+04  0.10100000352E+00 0. -1.
        3   -1    0    0  501    0  0.00000000000E+00  0.00000000000E+00 -0.41391306732E+03  0.41391307965E+03  0.10100000352E+00 0.  1.
    10030    2    1    2    0    0  0.00000000000E+00  0.00000000000E+00  0.19480576917E+04  0.27758838409E+04  0.19775242926E+04 0.  0.
        4    1    3    3  502    0 -0.48511970087E+03 -0.72453463667E+03  0.16284640930E+04  0.18472110001E+04  0.12699999809E+01 0. -1.
       -4    1    3    3    0  502  0.48511970087E+03  0.72453463667E+03  0.31959359877E+03  0.92867284077E+03  0.12699999809E+01 0.  1.
</event>
<event>
 5   0  0.6222733E-05  0.2003683E+04  0.7818609E-02  0.8604901E-01
        1   -1    0    0  501    0  0.00000000000E+00  0.00000000000E+00  0.85632260053E+03  0.85632260055E+03  0.50400001928E-02 0.  1.
       -1   -1    0    0    0  501  0.00000000000E+00  0.00000000000E+00 -0.11720893938E+04  0.11720893938E+04  0.50400001928E-02 0. -1.
    10030    2    1    2    0    0  0.00000000000E+00  0.00000000000E+00 -0.31576679330E+03  0.20284119944E+04  0.20036832462E+04 0.  0.
        2    1    3    3  502    0 -0.87758503719E+03 -0.35675124205E+03 -0.48788145049E+03  0.10655774284E+04  0.25500000920E-02 0. -1.
       -2    1    3    3    0  502  0.87758503719E+03  0.35675124205E+03  0.17211465719E+03  0.96283456597E+03  0.25500000920E-02 0.  1.
</event>
<event>
 5   0  0.6168338E-05  0.2013400E+04  0.7818609E-02  0.8600381E-01
       -1   -1    0    0    0  501  0.00000000000E+00  0.00000000000E+00  0.86580549849E+03  0.86580549850E+03  0.50400001928E-02 0.  1.
        1   -1    0    0  501    0  0.00000000000E+00  0.00000000000E+00 -0.11705225208E+04  0.11705225208E+04  0.50400001928E-02 0. -1.
    10030    2    1    2    0    0  0.00000000000E+00  0.00000000000E+00 -0.30471702230E+03  0.20363280193E+04  0.20133999450E+04 0.  0.
        5    1    3    3  502    0 -0.74147761805E+03  0.22992921093E+03 -0.80056751372E+03  0.11151622905E+04  0.46999998093E+01 0. -1.
       -5    1    3    3    0  502  0.74147761805E+03 -0.22992921093E+03  0.49585049142E+03  0.92116572882E+03  0.46999998093E+01 0.  1.
</event>
<event>
 5   0  0.1281789E-04  0.2028049E+04  0.7818609E-02  0.8593618E-01
        2   -1    0    0  501    0  0.00000000000E+00  0.00000000000E+00  0.14983431410E+04  0.14983431410E+04  0.25500000920E-02 0. -1.
       -2   -1    0    0    0  501  0.00000000000E+00  0.00000000000E+00 -0.68625506936E+03  0.68625506936E+03  0.25500000920E-02 0.  1.
    10030    2    1    2    0    0  0.00000000000E+00  0.00000000000E+00  0.81208807167E+03  0.21845982104E+04  0.20280488911E+04 0.  0.
        2    1    3    3  502    0 -0.64927657426E+03  0.92663446205E+02 -0.42702249808E+03  0.78262046869E+03  0.25500000920E-02 0.  1.
       -2    1    3    3    0  502  0.64927657426E+03 -0.92663446205E+02  0.12391105697E+04  0.14019777417E+04  0.25500000920E-02 0. -1.
</event>
<event>
 5   0  0.1281789E-04  0.1993806E+04  0.7818609E-02  0.8609522E-01
       -2   -1    0    0    0  501  0.00000000000E+00  0.00000000000E+00  0.41723364267E+03  0.41723364268E+03  0.25500000920E-02 0.  1.
        2   -1    0    0  501    0  0.00000000000E+00  0.00000000000E+00 -0.23819167493E+04  0.23819167493E+04  0.25500000920E-02 0. -1.
    10030    2    1    2    0    0  0.00000000000E+00  0.00000000000E+00 -0.19646831066E+04  0.27991503920E+04  0.19938062111E+04 0.  0.
        2    1    3    3  502    0 -0.83180891721E+03 -0.45917400173E+03 -0.14060123061E+04  0.16969435593E+04  0.25500000920E-02 0. -1.
       -2    1    3    3    0  502  0.83180891721E+03  0.45917400173E+03 -0.55867080054E+03  0.11022068327E+04  0.25500000920E-02 0.  1.
</event>
<event>
 5   0  0.6028501E-05  0.1862703E+04  0.7818609E-02  0.8673648E-01
        1   -1    0    0  501    0  0.00000000000E+00  0.00000000000E+00  0.49332355086E+03  0.49332355088E+03  0.50400001928E-02 0.  1.
       -1   -1    0    0    0  501  0.00000000000E+00  0.00000000000E+00 -0.17583095439E+04  0.17583095439E+04  0.50400001928E-02 0. -1.
    10030    2    1    2    0    0  0.00000000000E+00  0.00000000000E+00 -0.12649859931E+04  0.22516330948E+04  0.18627028832E+04 0.  0.
        4    1    3    3  502    0 -0.23957653272E+03 -0.64757485694E+03  0.12304378712E+03  0.70134976782E+03  0.12699999809E+01 0. -1.
       -4    1    3    3    0  502  0.23957653272E+03  0.64757485694E+03 -0.13880297802E+04  0.15502833270E+04  0.12699999809E+01 0.  1.
</event>
<event>
 5   0  0.1242761E-04  0.2028764E+04  0.7818609E-02  0.8593290E-01
       -2   -1    0    0    0  501  0.00000000000E+00  0.00000000000E+00  0.98770595184E+03  0.98770595184E+03  0.25500000920E-02 0. -1.
        2   -1    0    0  501    0  0.00000000000E+00  0.00000000000E+00 -0.10417782516E+04  0.10417782516E+04  0.25500000920E-02 0.  1.
    10030    2    1    2    0    0  0.00000000000E+00  0.00000000000E+00 -0.54072299749E+02  0.20294842034E+04  0.20287637414E+04 0.  0.
        4    1    3    3  502    0  0.82080658889E+03  0.31680752064E+03 -0.53207037063E+03  0.10281979156E+04  0.12699999809E+01 0.  1.
       -4    1    3    3    0  502 -0.82080658889E+03 -0.31680752064E+03  0.47799807088E+03  0.10012862878E+04  0.12699999809E+01 0. -1.
</event>
<event>
 5   0  0.4479000E-05  0.2011827E+04  0.7818609E-02  0.8601111E-01
        3   -1    0    0  501    0  0.00000000000E+00  0.00000000000E+00  0.97165422695E+03  0.97165423220E+03  0.10100000352E+00 0. -1.
       -3   -1    0    0    0  501  0.00000000000E+00  0.00000000000E+00 -0.10413810402E+04  0.10413810451E+04  0.10100000352E+00 0.  1.
    10030    2    1    2    0    0  0.00000000000E+00  0.00000000000E+00 -0.69726813224E+02  0.20130352773E+04  0.20118273283E+04 0.  0.
        3    1    3    3  502    0 -0.38989813930E+03  0.10251879412E+03  0.88728183757E+03  0.97457669357E+03  0.10100000352E+00 0. -1.
       -3    1    3    3    0  502  0.38989813930E+03 -0.10251879412E+03 -0.95700865079E+03  0.10384585837E+04  0.10100000352E+00 0.  1.
</event>
<event>
 5   0  0.4479000E-05  0.2009800E+04  0.7818609E-02  0.8602052E-01
       -3   -1    0    0    0  501  0.00000000000E+00  0.00000000000E+00  0.64339893912E+03  0.64339894705E+03  0.10100000352E+00 0.  1.
        3   -1    0    0  501    0  0.00000000000E+00  0.00000000000E+00 -0.15695146219E+04  0.15695146251E+04  0.10100000352E+00 0. -1.
    10030    2    1    2    0    0  0.00000000000E+00  0.00000000000E+00 -0.92611568277E+03  0.22129135722E+04  0.20098000448E+04 0.  0.
        4    1    3    3  502    0  0.14935321179E+03 -0.71023501311E+03 -0.12283410024E+04  0.14267317151E+04  0.12699999809E+01 0. -1.
       -4    1    3    3    0  502 -0.14935321179E+03  0.71023501311E+03  0.30222531964E+03  0.78618185711E+03  0.12699999809E+01 0.  1.
</event>
<event>
 5   0  0.6214547E-05  0.1979144E+04  0.7818609E-02  0.8616434E-01
        1   -1    0    0  501    0  0.00000000000E+00  0.00000000000E+00  0.17180226559E+04  0.17180226559E+04  0.50400001928E-02 0. -1.
       -1   -1    0    0    0  501  0.00000000000E+00  0.00000000000E+00 -0.56998837574E+03  0.56998837577E+03  0.50400001928E-02 0.  1.
    10030    2    1    2    0    0  0.00000000000E+00  0.00000000000E+00  0.11480342802E+04  0.22880110317E+04  0.19791442021E+04 0.  0.
        3    1    3    3  502    0 -0.14023505126E+03  0.24309075598E+03 -0.52301935326E+03  0.59355559077E+03  0.10100000352E+00 0.  1.
       -3    1    3    3    0  502  0.14023505126E+03 -0.24309075598E+03  0.16710536335E+04  0.16944554409E+04  0.10100000352E+00 0. -1.
</event>
<event>
 5   0  0.1281789E-04  0.1988797E+04  0.7818609E-02  0.8611876E-01
        2   -1    0    0  501    0  0.00000000000E+00  0.00000000000E+00  0.10164021111E+04  0.10164021111E+04  0.25500000920E-02 0. -1.
       -2   -1    0    0    0  501  0.00000000000E+00  0.00000000000E+00 -0.97287110865E+03  0.97287110866E+03  0.25500000920E-02 0.  1.
    10030    2    1    2    0    0  0.00000000000E+00  0.00000000000E+00  0.43531002422E+02  0.19892732197E+04  0.19887968711E+04 0.  0.
        2    1    3    3  502    0 -0.86552405523E+03 -0.25047471031E+03 -0.39899994059E+03  0.98542905543E+03  0.25500000920E-02 0.  1.
       -2    1    3    3    0  502  0.86552405523E+03  0.25047471031E+03  0.44253094301E+03  0.10038441643E+04  0.25500000920E-02 0. -1.
</event>
<event>
 5   0  0.6256535E-05  0.2217396E+04  0.7818609E-02  0.8511222E-01
        1   -1    0    0  501    0  0.00000000000E+00  0.00000000000E+00  0.10516849303E+04  0.10516849304E+04  0.50400001928E-02 0.  1.
       -1   -1    0    0    0  501  0.00000000000E+00  0.00000000000E+00 -0.11688018870E+04  0.11688018870E+04  0.50400001928E-02 0. -1.
    10030    2    1    2    0    0  0.00000000000E+00  0.00000000000E+00 -0.11711695669E+03  0.22204868174E+04  0.22173960685E+04 0.  0.
        1    1    3    3  502    0  0.50283775488E+02 -0.58507622560E+03 -0.10002780657E+04  0.11599132970E+04  0.50400001928E-02 0. -1.
       -1    1    3    3    0  502 -0.50283775488E+02  0.58507622560E+03  0.88316110897E+03  0.10605735204E+04  0.50400001928E-02 0.  1.
</event>
<event>
 5   0  0.1281789E-04  0.1997072E+04  0.7818609E-02  0.8607991E-01
        2   -1    0    0  501    0  0.00000000000E+00  0.00000000000E+00  0.15736646854E+04  0.15736646854E+04  0.25500000920E-02 0.  1.
       -2   -1    0    0    0  501  0.00000000000E+00  0.00000000000E+00 -0.63360007244E+03  0.63360007245E+03  0.25500000920E-02 0. -1.
    10030    2    1    2    0    0  0.00000000000E+00  0.00000000000E+00  0.94006461294E+03  0.22072647578E+04  0.19970719152E+04 0.  0.
        2    1    3    3  502    0 -0.36079480005E+03 -0.74049404146E+03 -0.15379300086E+03  0.83794785059E+03  0.25500000920E-02 0.  1.
       -2    1    3    3    0  502  0.36079480005E+03  0.74049404146E+03  0.10938576138E+04  0.13693169072E+04  0.25500000920E-02 0. -1.
</event>
<event>
 5   0  0.1281789E-04  0.2022661E+04  0.7818609E-02  0.8596098E-01
        2   -1    0    0  501    0  0.00000000000E+00  0.00000000000E+00  0.12973621333E+04  0.12973621333E+04  0.25500000920E-02 0. -1.
       -2   -1    0    0    0  501  0.00000000000E+00  0.00000000000E+00 -0.78836102602E+03  0.78836102602E+03  0.25500000920E-02 0.  1.
    10030    2    1    2    0    0  0.00000000000E+00  0.00000000000E+00  0.50900110729E+03  0.20857231593E+04  0.20226613583E+04 0.  0.
        2    1    3    3  502    0  0.42073121796E+03 -0.91609589225E+03  0.17108790064E+03  0.10225055067E+04  0.25500000920E-02 0.  1.
       -2    1    3    3    0  502 -0.42073121796E+03  0.91609589225E+03  0.33791320665E+03  0.10632176526E+04  0.25500000920E-02 0. -1.
</event>
<event>
 5   0  0.6214547E-05  0.1989106E+04  0.7818609E-02  0.8611731E-01
       -1   -1    0    0    0  501  0.00000000000E+00  0.00000000000E+00  0.89627094961E+03  0.89627094962E+03  0.50400001928E-02 0. -1.
        1   -1    0    0  501    0  0.00000000000E+00  0.00000000000E+00 -0.11036118046E+04  0.11036118046E+04  0.50400001928E-02 0.  1.
    10030    2    1    2    0    0  0.00000000000E+00  0.00000000000E+00 -0.20734085497E+03  0.19998827542E+04  0.19891055277E+04 0.  0.
        3    1    3    3  502    0 -0.20062225862E+02 -0.98443931640E+03  0.37130939390E+02  0.98534358344E+03  0.10100000352E+00 0.  1.
       -3    1    3    3    0  502  0.20062225862E+02  0.98443931640E+03 -0.24447179436E+03  0.10145391708E+04  0.10100000352E+00 0. -1.
</event>
<event>
 5   0  0.6256535E-05  0.1823026E+04  0.7818609E-02  0.8694149E-01
        1   -1    0    0  501    0  0.00000000000E+00  0.00000000000E+00  0.68492495848E+03  0.68492495850E+03  0.50400001928E-02 0.  1.
       -1   -1    0    0    0  501  0.00000000000E+00  0.00000000000E+00 -0.12130617030E+04  0.12130617030E+04  0.50400001928E-02 0. -1.
    10030    2    1    2    0    0  0.00000000000E+00  0.00000000000E+00 -0.52813674454E+03  0.18979866615E+04  0.18230263153E+04 0.  0.
        1    1    3    3  502    0 -0.74068763498E+03  0.27808867734E+02 -0.81641563966E+03  0.11026903475E+04  0.50400001928E-02 0. -1.
       -1    1    3    3    0  502  0.74068763498E+03 -0.27808867734E+02  0.28827889512E+03  0.79529631404E+03  0.50400001928E-02 0.  1.
</event>
<event>
 5   0  0.6214547E-05  0.2011664E+04  0.7818609E-02  0.8601186E-01
       -1   -1    0    0    0  501  0.00000000000E+00  0.00000000000E+00  0.68548420753E+03  0.68548420755E+03  0.50400001928E-02 0. -1.
        1   -1    0    0  501    0  0.00000000000E+00  0.00000000000E+00 -0.14758888481E+04  0.14758888481E+04  0.50400001928E-02 0.  1.
    10030    2    1    2    0    0  0.00000000000E+00  0.00000000000E+00 -0.79040464056E+03  0.21613730556E+04  0.20116644824E+04 0.  0.
        3    1    3    3  502    0  0.26745351287E+03 -0.27508163957E+03 -0.13941804484E+04  0.14460084449E+04  0.10100000352E+00 0.  1.
       -3    1    3    3    0  502 -0.26745351287E+03  0.27508163957E+03  0.60377580781E+03  0.71536461072E+03  0.10100000352E+00 0. -1.
</event>
<event>
 5   0  0.4479000E-05  0.2012991E+04  0.7818609E-02  0.8600571E-01
       -3   -1    0    0    0  501  0.00000000000E+00  0.00000000000E+00  0.73259682790E+03  0.73259683486E+03  0.10100000352E+00 0. -1.
        3   -1    0    0  501    0  0.00000000000E+00  0.00000000000E+00 -0.13827974551E+04  0.13827974588E+04  0.10100000352E+00 0.  1.
    10030    2    1    2    0    0  0.00000000000E+00  0.00000000000E+00 -0.65020062720E+03  0.21153942936E+04  0.20129908499E+04 0.  0.
        1    1    3    3  502    0  0.95269946132E+03 -0.48030882282E+02 -0.66250988628E+03  0.11614054325E+04  0.50400001928E-02 0.  1.
       -1    1    3    3    0  502 -0.95269946132E+03  0.48030882282E+02  0.12309259077E+02  0.95398886112E+03  0.50400001928E-02 0. -1.
</event>
<event>
 5   0  0.6028501E-05  0.2004451E+04  0.7818609E-02  0.8604543E-01
       -1   -1    0    0    0  501  0.00000000000E+00  0.00000000000E+00  0.13790803543E+04  0.13790803543E+04  0.50400001928E-02 0.  1.
        1   -1    0    0  501    0  0.00000000000E+00  0.00000000000E+00 -0.72835188810E+03  0.72835188812E+03  0.50400001928E-02 0. -1.
    10030    2    1    2    0    0  0.00000000000E+00  0.00000000000E+00  0.65072846620E+03  0.21074322424E+04  0.20044508275E+04 0.  0.
        4    1    3    3  502    0  0.79996799473E+03  0.36855795093E+03  0.82812710674E+03  0.12089581769E+04  0.12699999809E+01 0.  1.
       -4    1    3    3    0  502 -0.79996799473E+03 -0.36855795093E+03 -0.17739864054E+03  0.89847406549E+03  0.12699999809E+01 0. -1.
</event>
<event>
 5   0  0.6028501E-05  0.2012384E+04  0.7818609E-02  0.8600853E-01
        1   -1    0    0  501    0  0.00000000000E+00  0.00000000000E+00  0.15652200894E+04  0.15652200894E+04  0.50400001928E-02 0.  1.
       -1   -1    0    0    0  501  0.00000000000E+00  0.00000000000E+00 -0.64682405795E+03  0.64682405797E+03  0.50400001928E-02 0. -1.
    10030    2    1    2    0    0  0.00000000000E+00  0.00000000000E+00  0.91839603147E+03  0.22120441474E+04  0.20123836710E+04 0.  0.
        4    1    3    3  502    0  0.99202293735E+03 -0.16823285059E+03  0.45597509557E+03  0.11046839824E+04  0.12699999809E+01 0. -1.
       -4    1    3    3    0  502 -0.99202293735E+03  0.16823285059E+03  0.46242093589E+03  0.11073601650E+04  0.12699999809E+01 0.  1.
</event>
<event>
 5   0  0.1274868E-04  0.1980102E+04  0.7818609E-02  0.8615981E-01
        2   -1    0    0  501    0  0.00000000000E+00  0.00000000000E+00  0.86399264039E+03  0.86399264040E+03  0.25500000920E-02 0. -1.
       -2   -1    0    0    0  501  0.00000000000E+00  0.00000000000E+00 -0.11345011969E+04  0.11345011970E+04  0.25500000920E-02 0.  1.
    10030    2    1    2    0    0  0.00000000000E+00  0.00000000000E+00 -0.27050855656E+03  0.19984938373E+04  0.19801016991E+04 0.  0.
        1    1    3    3  502    0  0.42504636527E+03  0.89416210720E+03 -0.13850883530E+03  0.99968744319E+03  0.50400001928E-02 0. -1.
       -1    1    3    3    0  502 -0.42504636527E+03 -0.89416210720E+03 -0.13199972125E+03  0.99880639416E+03  0.50400001928E-02 0.  1.
</event>
<event>
 5   0  0.1159914E-04  0.2039329E+04  0.7818609E-02  0.8588451E-01
       -2   -1    0    0    0  501  0.00000000000E+00  0.00000000000E+00  0.97462344364E+03  0.97462344364E+03  0.25500000920E-02 0.  1.
        2   -1    0    0  501    0  0.00000000000E+00  0.00000000000E+00 -0.10667865787E+04  0.10667865787E+04  0.25500000920E-02 0. -1.
    10030    2    1    2    0    0  0.00000000000E+00  0.00000000000E+00 -0.92163135035E+02  0.20414100223E+04  0.20393285257E+04 0.  0.
        3    1    3    3  502    0  0.66850663971E+03  0.31282750154E+03  0.65816548863E+03  0.98891050843E+03  0.10100000352E+00 0.  1.
       -3    1    3    3    0  502 -0.66850663971E+03 -0.31282750154E+03 -0.75032862367E+03  0.10524995139E+04  0.10100000352E+00 0. -1.
</event>
<event>
 5   0  0.4479000E-05  0.2017542E+04  0.7818609E-02  0.8598463E-01
        3   -1    0    0  501    0  0.00000000000E+00  0.00000000000E+00  0.99563085027E+03  0.99563085539E+03  0.10100000352E+00 0. -1.
       -3   -1    0    0    0  501  0.00000000000E+00  0.00000000000E+00 -0.10220844403E+04  0.10220844453E+04  0.10100000352E+00 0.  1.
    10030    2    1    2    0    0  0.00000000000E+00  0.00000000000E+00 -0.26453590075E+02  0.20177153007E+04  0.20175418812E+04 0.  0.
        4    1    3    3  502    0 -0.34226107489E+01 -0.45812326586E+03 -0.91204124789E+03  0.10206417059E+04  0.12699999809E+01 0.  1.
       -4    1    3    3    0  502  0.34226107489E+01  0.45812326586E+03  0.88558765782E+03  0.99707359486E+03  0.12699999809E+01 0. -1.
</event>
<event>
 5   0  0.1281789E-04  0.2010270E+04  0.7818609E-02  0.8601834E-01
       -2   -1    0    0    0  501  0.00000000000E+00  0.00000000000E+00  0.10892612782E+04  0.10892612782E+04  0.25500000920E-02 0.  1.
        2   -1    0    0  501    0  0.00000000000E+00  0.00000000000E+00 -0.92750593826E+03  0.92750593826E+03  0.25500000920E-02 0. -1.
    10030    2    1    2    0    0  0.00000000000E+00  0.00000000000E+00  0.16175533999E+03  0.20167672165E+04  0.20102699360E+04 0.  0.
        2    1    3    3  502    0  0.33284260074E+03 -0.65422380429E+03 -0.60800264260E+03  0.95313178333E+03  0.25500000920E-02 0. -1.
       -2    1    3    3    0  502 -0.33284260074E+03  0.65422380429E+03  0.76975798259E+03  0.10636354332E+04  0.25500000920E-02 0.  1.
</event>
<event>
 5   0  0.1242761E-04  0.2001334E+04  0.7818609E-02  0.8605997E-01
        2   -1    0    0  501    0  0.00000000000E+00  0.00000000000E+00  0.14848361430E+04  0.14848361430E+04  0.25500000920E-02 0.  1.
       -2   -1    0    0    0  501  0.00000000000E+00  0.00000000000E+00 -0.67437397540E+03  0.67437397541E+03  0.25500000920E-02 0. -1.
    10030    2    1    2    0    0  0.00000000000E+00  0.00000000000E+00  0.81046216757E+03  0.21592101184E+04  0.20013344074E+04 0.  0.
        4    1    3    3  502    0 -0.92362854996E+02 -0.93223105467E+03  0.25703239944E+02  0.93714881728E+03  0.12699999809E+01 0. -1.
       -4    1    3    3    0  502  0.92362854996E+02  0.93223105467E+03  0.78475892763E+03  0.12220613011E+04  0.12699999809E+01 0.  1.
</event>
<event>
 5   0  0.6028501E-05  0.2005484E+04  0.7818609E-02  0.8604061E-01
        1   -1    0    0  501    0  0.00000000000E+00  0.00000000000E+00  0.12684529694E+04  0.12684529694E+04  0.50400001928E-02 0.  1.
       -1   -1    0    0    0  501  0.00000000000E+00  0.00000000000E+00 -0.79269086775E+03  0.79269086777E+03  0.50400001928E-02 0. -1.
    10030    2    1    2    0    0  0.00000000000E+00  0.00000000000E+00  0.47576210162E+03  0.20611438372E+04  0.20054835676E+04 0.  0.
        4    1    3    3  502    0 -0.29208359910E+01  0.55329677962E+03  0.10973585256E+04  0.12289602127E+04  0.12699999809E+01 0.  1.
       -4    1    3    3    0  502  0.29208359910E+01 -0.55329677962E+03 -0.62159642401E+03  0.83218362449E+03  0.12699999809E+01 0. -1.
</event>
<event>
 5   0  0.1244229E-04  0.1998340E+04  0.7818609E-02  0.8607397E-01
        2   -1    0    0  501    0  0.00000000000E+00  0.00000000000E+00  0.96979823987E+03  0.96979823988E+03  0.25500000920E-02 0. -1.
       -2   -1    0    0    0  501  0.00000000000E+00  0.00000000000E+00 -0.10294318338E+04  0.10294318338E+04  0.25500000920E-02 0.  1.
    10030    2    1    2    0    0  0.00000000000E+00  0.00000000000E+00 -0.59633593951E+02  0.19992300737E+04  0.19983404920E+04 0.  0.
        5    1    3    3  502    0  0.21041495760E+03  0.78101395874E+03 -0.61664575489E+03  0.10171191352E+04  0.46999998093E+01 0.  1.
       -5    1    3    3    0  502 -0.21041495760E+03 -0.78101395874E+03  0.55701216094E+03  0.98211093852E+03  0.46999998093E+01 0. -1.
</event>
<event>
 5   0  0.1159914E-04  0.2069193E+04  0.7818609E-02  0.8574937E-01
       -2   -1    0    0    0  501  0.00000000000E+00  0.00000000000E+00  0.11759659454E+04  0.11759659454E+04  0.25500000920E-02 0.  1.
        2   -1    0    0  501    0  0.00000000000E+00  0.00000000000E+00 -0.91022179951E+03  0.91022179951E+03  0.25500000920E-02 0. -1.
    10030    2    1    2    0    0  0.00000000000E+00  0.00000000000E+00  0.26574414585E+03  0.20861877449E+04  0.20691929238E+04 0.  0.
        3    1    3    3  502    0  0.49587500603E+03 -0.17819594475E+03  0.10305465772E+04  0.11574420393E+04  0.10100000352E+00 0.  1.
       -3    1    3    3    0  502 -0.49587500603E+03  0.17819594475E+03 -0.76480243138E+03  0.92874570555E+03  0.10100000352E+00 0. -1.
</event>
<event>
 5   0  0.6028501E-05  0.1627976E+04  0.7818609E-02  0.8803543E-01
       -1   -1    0    0    0  501  0.00000000000E+00  0.00000000000E+00  0.92239747254E+03  0.92239747255E+03  0.50400001928E-02 0.  1.
        1   -1    0    0  501    0  0.00000000000E+00  0.00000000000E+00 -0.71832010329E+03  0.71832010331E+03  0.50400001928E-02 0. -1.
    10030    2    1    2    0    0  0.00000000000E+00  0.00000000000E+00  0.20407736925E+03  0.16407175759E+04  0.16279762256E+04 0.  0.
        4    1    3    3  502    0  0.22791424997E+03 -0.70260062063E+03  0.44674260003E+03  0.86323409399E+03  0.12699999809E+01 0.  1.
       -4    1    3    3    0  502 -0.22791424997E+03  0.70260062063E+03 -0.24266523078E+03  0.77748348187E+03  0.12699999809E+01 0. -1.
</event>
<event>
 5   0  0.6214547E-05  0.2014371E+04  0.7818609E-02  0.8599931E-01
        1   -1    0    0  501    0  0.00000000000E+00  0.00000000000E+00  0.19292801558E+04  0.19292801558E+04  0.50400001928E-02 0. -1.
       -1   -1    0    0    0  501  0.00000000000E+00  0.00000000000E+00 -0.52580377702E+03  0.52580377704E+03  0.50400001928E-02 0.  1.
    10030    2    1    2    0    0  0.00000000000E+00  0.00000000000E+00  0.14034763788E+04  0.24550839329E+04  0.20143711603E+04 0.  0.
        3    1    3    3  502    0  0.49461305704E+03 -0.30910852144E+03  0.17025023222E+04  0.17996400533E+04  0.10100000352E+00 0. -1.
       -3    1    3    3    0  502 -0.49461305704E+03  0.30910852144E+03 -0.29902594339E+03  0.65544387955E+03  0.10100000352E+00 0.  1.
</event>
<event>
 5   0  0.1242761E-04  0.1969294E+04  0.7818609E-02  0.8621113E-01
        2   -1    0    0  501    0  0.00000000000E+00  0.00000000000E+00  0.74558210689E+03  0.74558210689E+03  0.25500000920E-02 0. -1.
       -2   -1    0    0    0  501  0.00000000000E+00  0.00000000000E+00 -0.13003659401E+04  0.13003659401E+04  0.25500000920E-02 0.  1.
    10030    2    1    2    0    0  0.00000000000E+00  0.00000000000E+00 -0.55478383319E+03  0.20459480470E+04  0.19692938606E+04 0.  0.
        4    1    3    3  502    0 -0.78128100769E+02 -0.77927988854E+03 -0.89740179596E+03  0.11910972845E+04  0.12699999809E+01 0.  1.
       -4    1    3    3    0  502  0.78128100769E+02  0.77927988854E+03  0.34261796277E+03  0.85485076248E+03  0.12699999809E+01 0. -1.
</event>
<event>
 5   0  0.1159914E-04  0.1997325E+04  0.7818609E-02  0.8607872E-01
        2   -1    0    0  501    0  0.00000000000E+00  0.00000000000E+00  0.10520932398E+04  0.10520932398E+04  0.25500000920E-02 0. -1.
       -2   -1    0    0    0  501  0.00000000000E+00  0.00000000000E+00 -0.94794569995E+03  0.94794569996E+03  0.25500000920E-02 0.  1.
    10030    2    1    2    0    0  0.00000000000E+00  0.00000000000E+00  0.10414753987E+03  0.20000389398E+04  0.19973254744E+04 0.  0.
        3    1    3    3  502    0  0.12154515994E+03  0.85296497641E+03  0.55773978561E+03  0.10263508930E+04  0.10100000352E+00 0. -1.
       -3    1    3    3    0  502 -0.12154515994E+03 -0.85296497641E+03 -0.45359224574E+03  0.97368804680E+03  0.10100000352E+00 0.  1.
</event>
<event>
 5   0  0.1281789E-04  0.1994075E+04  0.7818609E-02  0.8609396E-01
       -2   -1    0    0    0  501  0.00000000000E+00  0.00000000000E+00  0.13163162522E+04  0.13163162522E+04  0.25500000920E-02 0.  1.
        2   -1    0    0  501    0  0.00000000000E+00  0.00000000000E+00 -0.75520155888E+03  0.75520155888E+03  0.25500000920E-02 0. -1.
    10030    2    1    2    0    0  0.00000000000E+00  0.00000000000E+00  0.56111469334E+03  0.20715178111E+04  0.19940753102E+04 0.  0.
        2    1    3    3  502    0 -0.61430971232E+03 -0.42695171336E+03  0.96525993541E+03  0.12212251763E+04  0.25500000920E-02 0.  1.
       -2    1    3    3    0  502  0.61430971232E+03  0.42695171336E+03 -0.40414524207E+03  0.85029263485E+03  0.25500000920E-02 0. -1.
</event>
<event>
 5   0  0.1281789E-04  0.1995444E+04  0.7818609E-02  0.8608754E-01
       -2   -1    0    0    0  501  0.00000000000E+00  0.00000000000E+00  0.46055451207E+03  0.46055451208E+03  0.25500000920E-02 0.  1.
        2   -1    0    0  501    0  0.00000000000E+00  0.00000000000E+00 -0.21614152458E+04  0.21614152458E+04  0.25500000920E-02 0. -1.
    10030    2    1    2    0    0  0.00000000000E+00  0.00000000000E+00 -0.17008607337E+04  0.26219697579E+04  0.19954443555E+04 0.  0.
        2    1    3    3  502    0  0.29646991714E+03  0.44090300945E+03  0.25920794693E+03  0.59116718047E+03  0.25500000920E-02 0.  1.
       -2    1    3    3    0  502 -0.29646991714E+03 -0.44090300945E+03 -0.19600686807E+04  0.20308025774E+04  0.25500000920E-02 0. -1.
</event>
<event>
 5   0  0.1242761E-04  0.2234188E+04  0.7818609E-02  0.8504331E-01
        2   -1    0    0  501    0  0.00000000000E+00  0.00000000000E+00  0.84574314465E+03  0.84574314465E+03  0.25500000920E-02 0.  1.
       -2   -1    0    0    0  501  0.00000000000E+00  0.00000000000E+00 -0.14755063299E+04  0.14755063299E+04  0.25500000920E-02 0. -1.
    10030    2    1    2    0    0  0.00000000000E+00  0.00000000000E+00 -0.62976318522E+03  0.23212494745E+04  0.22341883210E+04 0.  0.
        4    1    3    3  502    0  0.46392713081E+02 -0.58208503720E+03 -0.13043162618E+04  0.14290618595E+04  0.12699999809E+01 0. -1.
       -4    1    3    3    0  502 -0.46392713081E+02  0.58208503720E+03  0.67455307663E+03  0.89218761505E+03  0.12699999809E+01 0.  1.
</event>
<event>
 5   0  0.1244229E-04  0.2000089E+04  0.7818609E-02  0.8606579E-01
       -2   -1    0    0    0  501  0.00000000000E+00  0.00000000000E+00  0.56431331051E+03  0.56431331052E+03  0.25500000920E-02 0. -1.
        2   -1    0    0  501    0  0.00000000000E+00  0.00000000000E+00 -0.17722224904E+04  0.17722224904E+04  0.25500000920E-02 0.  1.
    10030    2    1    2    0    0  0.00000000000E+00  0.00000000000E+00 -0.12079091798E+04  0.23365358009E+04  0.20000887385E+04 0.  0.
        5    1    3    3  502    0  0.43846080843E+03  0.52674328832E+03  0.24680855906E+03  0.72845241927E+03  0.46999998093E+01 0. -1.
       -5    1    3    3    0  502 -0.43846080843E+03 -0.52674328832E+03 -0.14547177389E+04  0.16080833816E+04  0.46999998093E+01 0.  1.
</event>
<event>
 5   0  0.1244229E-04  0.1940937E+04  0.7818609E-02  0.8634744E-01
        2   -1    0    0  501    0  0.00000000000E+00  0.00000000000E+00  0.27573147213E+04  0.27573147213E+04  0.25500000920E-02 0. -1.
       -2   -1    0    0    0  501  0.00000000000E+00  0.00000000000E+00 -0.34156751328E+03  0.34156751329E+03  0.25500000920E-02 0.  1.
    10030    2    1    2    0    0  0.00000000000E+00  0.00000000000E+00  0.24157472080E+04  0.30988822346E+04  0.19409370239E+04 0.  0.
        5    1    3    3  502    0  0.32185214302E+03  0.68981663945E+03  0.24679589027E+03  0.80022877947E+03  0.46999998093E+01 0.  1.
       -5    1    3    3    0  502 -0.32185214302E+03 -0.68981663945E+03  0.21689513177E+04  0.22986534551E+04  0.46999998093E+01 0. -1.
</event>
<event>
 5   0  0.1159914E-04  0.1864427E+04  0.7818609E-02  0.8672769E-01
        2   -1    0    0  501    0  0.00000000000E+00  0.00000000000E+00  0.58534295602E+03  0.58534295602E+03  0.25500000920E-02 0.  1.
       -2   -1    0    0    0  501  0.00000000000E+00  0.00000000000E+00 -0.14846368863E+04  0.14846368863E+04  0.25500000920E-02 0. -1.
    10030    2    1    2    0    0  0.00000000000E+00  0.00000000000E+00 -0.89929393025E+03  0.20699798423E+04  0.18644267147E+04 0.  0.
        3    1    3    3  502    0  0.52577034596E+03 -0.31395461113E+03 -0.12300033131E+04  0.13740124144E+04  0.10100000352E+00 0. -1.
       -3    1    3    3    0  502 -0.52577034596E+03  0.31395461113E+03  0.33070938286E+03  0.69596742787E+03  0.10100000352E+00 0.  1.
</event>
<event>
 5   0  0.6256535E-05  0.1998974E+04  0.7818609E-02  0.8607100E-01
       -1   -1    0    0    0  501  0.00000000000E+00  0.00000000000E+00  0.13155346805E+04  0.13155346805E+04  0.50400001928E-02 0. -1.
        1   -1    0    0  501    0  0.00000000000E+00  0.00000000000E+00 -0.75936751411E+03  0.75936751413E+03  0.50400001928E-02 0.  1.
    10030    2    1    2    0    0  0.00000000000E+00  0.00000000000E+00  0.55616716636E+03  0.20749021946E+04  0.19989740369E+04 0.  0.
        1    1    3    3  502    0  0.49695346652E+03 -0.63712319531E+02  0.11757757290E+04  0.12780729918E+04  0.50400001928E-02 0. -1.
       -1    1    3    3    0  502 -0.49695346652E+03  0.63712319531E+02 -0.61960856261E+03  0.79682920280E+03  0.50400001928E-02 0.  1.
</event>
<event>
 5   0  0.6256535E-05  0.2008647E+04  0.7818609E-02  0.8602589E-01
       -1   -1    0    0    0  501  0.00000000000E+00  0.00000000000E+00  0.15671687619E+04  0.15671687619E+04  0.50400001928E-02 0.  1.
        1   -1    0    0  501    0  0.00000000000E+00  0.00000000000E+00 -0.64362296502E+03  0.64362296504E+03  0.50400001928E-02 0. -1.
    10030    2    1    2    0    0  0.00000000000E+00  0.00000000000E+00  0.92354579689E+03  0.22107917270E+04  0.20086471121E+04 0.  0.
        1    1    3    3  502    0  0.18374275796E+03 -0.50132624969E+03  0.13980111511E+04  0.14965041224E+04  0.50400001928E-02 0.  1.
       -1    1    3    3    0  502 -0.18374275796E+03  0.50132624969E+03 -0.47446535418E+03  0.71428760459E+03  0.50400001928E-02 0. -1.
</event>
<event>
 5   0  0.1281789E-04  0.2010176E+04  0.7818609E-02  0.8601878E-01
        2   -1    0    0  501    0  0.00000000000E+00  0.00000000000E+00  0.16812839408E+04  0.16812839408E+04  0.25500000920E-02 0. -1.
       -2   -1    0    0    0  501  0.00000000000E+00  0.00000000000E+00 -0.60085144331E+03  0.60085144332E+03  0.25500000920E-02 0.  1.
    10030    2    1    2    0    0  0.00000000000E+00  0.00000000000E+00  0.10804324975E+04  0.22821353842E+04  0.20101759948E+04 0.  0.
        2    1    3    3  502    0 -0.88498388392E+03 -0.38148722222E+03  0.86426766842E+03  0.12944835179E+04  0.25500000920E-02 0. -1.
       -2    1    3    3    0  502  0.88498388392E+03  0.38148722222E+03  0.21616482912E+03  0.98765186623E+03  0.25500000920E-02 0.  1.
</event>
<event>
 5   0  0.1242761E-04  0.1935194E+04  0.7818609E-02  0.8637534E-01
        2   -1    0    0  501    0  0.00000000000E+00  0.00000000000E+00  0.16730214709E+04  0.16730214709E+04  0.25500000920E-02 0.  1.
       -2   -1    0    0    0  501  0.00000000000E+00  0.00000000000E+00 -0.55961263193E+03  0.55961263194E+03  0.25500000920E-02 0. -1.
    10030    2    1    2    0    0  0.00000000000E+00  0.00000000000E+00  0.11134088390E+04  0.22326341029E+04  0.19351939940E+04 0.  0.
        4    1    3    3  502    0  0.43167288900E+03  0.13255051505E+03  0.15439991505E+04  0.16086783742E+04  0.12699999809E+01 0.  1.
       -4    1    3    3    0  502 -0.43167288900E+03 -0.13255051505E+03 -0.43059031144E+03  0.62395572868E+03  0.12699999809E+01 0. -1.
</event>
<event>
 5   0  0.6168338E-05  0.2003448E+04  0.7818609E-02  0.8605010E-01
       -1   -1    0    0    0  501  0.00000000000E+00  0.00000000000E+00  0.95672176546E+03  0.95672176547E+03  0.50400001928E-02 0. -1.
        1   -1    0    0  501    0  0.00000000000E+00  0.00000000000E+00 -0.10488434426E+04  0.10488434426E+04  0.50400001928E-02 0.  1.
    10030    2    1    2    0    0  0.00000000000E+00  0.00000000000E+00 -0.92121677118E+02  0.20055652081E+04  0.20034483773E+04 0.  0.
        5    1    3    3  502    0 -0.57838806754E+03  0.45612832113E+03  0.63351095389E+03  0.97156781580E+03  0.46999998093E+01 0. -1.
       -5    1    3    3    0  502  0.57838806754E+03 -0.45612832113E+03 -0.72563263101E+03  0.10339973923E+04  0.46999998093E+01 0.  1.
</event>
<event>
 5   0  0.1274868E-04  0.2009150E+04  0.7818609E-02  0.8602355E-01
        2   -1    0    0  501    0  0.00000000000E+00  0.00000000000E+00  0.11026305571E+04  0.11026305571E+04  0.25500000920E-02 0. -1.
       -2   -1    0    0    0  501  0.00000000000E+00  0.00000000000E+00 -0.91523931926E+03  0.91523931927E+03  0.25500000920E-02 0.  1.
    10030    2    1    2    0    0  0.00000000000E+00  0.00000000000E+00  0.18739123781E+03  0.20178698763E+04  0.20091499102E+04 0.  0.
        1    1    3    3  502    0  0.56980211697E+03 -0.78885669293E+03 -0.15678911619E+03  0.98567345580E+03  0.50400001928E-02 0.  1.
       -1    1    3    3    0  502 -0.56980211697E+03  0.78885669293E+03  0.34418035399E+03  0.10321964205E+04  0.50400001928E-02 0. -1.
</event>
<event>
 5   0  0.6168338E-05  0.1882086E+04  0.7818609E-02  0.8663825E-01
        1   -1    0    0  501    0  0.00000000000E+00  0.00000000000E+00  0.10187313024E+04  0.10187313024E+04  0.50400001928E-02 0. -1.
       -1   -1    0    0    0  501  0.00000000000E+00  0.00000000000E+00 -0.86927887572E+03  0.86927887573E+03  0.50400001928E-02 0.  1.
    10030    2    1    2    0    0  0.00000000000E+00  0.00000000000E+00  0.14945242666E+03  0.18880101781E+04  0.18820856529E+04 0.  0.
        5    1    3    3  502    0 -0.28292030261E+03  0.21436003019E+03  0.94898863893E+03  0.10132105640E+04  0.46999998093E+01 0. -1.
       -5    1    3    3    0  502  0.28292030261E+03 -0.21436003019E+03 -0.79953621226E+03  0.87479961413E+03  0.46999998093E+01 0.  1.
</event>
<event>
 5   0  0.6028501E-05  0.2035916E+04  0.7818609E-02  0.8590011E-01
       -1   -1    0    0    0  501  0.00000000000E+00  0.00000000000E+00  0.98610742067E+03  0.98610742068E+03  0.50400001928E-02 0. -1.
        1   -1    0    0  501    0  0.00000000000E+00  0.00000000000E+00 -0.10508369821E+04  0.10508369821E+04  0.50400001928E-02 0.  1.
    10030    2    1    2    0    0  0.00000000000E+00  0.00000000000E+00 -0.64729561427E+02  0.20369444028E+04  0.20359156623E+04 0.  0.
        4    1    3    3  502    0  0.72917496012E+03  0.55696853349E+03 -0.47341228132E+03  0.10324877097E+04  0.12699999809E+01 0.  1.
       -4    1    3    3    0  502 -0.72917496012E+03 -0.55696853349E+03  0.40868271989E+03  0.10044566930E+04  0.12699999809E+01 0. -1.
</event>
<event>
 5   0  0.6256535E-05  0.2010848E+04  0.7818609E-02  0.8601566E-01
        1   -1    0    0  501    0  0.00000000000E+00  0.00000000000E+00  0.17476403017E+04  0.17476403017E+04  0.50400001928E-02 0.  1.
       -1   -1    0    0    0  501  0.00000000000E+00  0.00000000000E+00 -0.57842399129E+03  0.57842399131E+03  0.50400001928E-02 0. -1.
    10030    2    1    2    0    0  0.00000000000E+00  0.00000000000E+00  0.11692163104E+04  0.23260642930E+04  0.20108476608E+04 0.  0.
        1    1    3    3  502    0  0.78779100884E+03  0.52583617399E+03  0.19445520183E+03  0.96691839419E+03  0.50400001928E-02 0. -1.
       -1    1    3    3    0  502 -0.78779100884E+03 -0.52583617399E+03  0.97476110860E+03  0.13591458988E+04  0.50400001928E-02 0.  1.
</event>
<event>
 5   0  0.6256535E-05  0.2030080E+04  0.7818609E-02  0.8592685E-01
       -1   -1    0    0    0  501  0.00000000000E+00  0.00000000000E+00  0.54949183490E+03  0.54949183492E+03  0.50400001928E-02 0.  1.
        1   -1    0    0  501    0  0.00000000000E+00  0.00000000000E+00 -0.18750165101E+04  0.18750165101E+04  0.50400001928E-02 0. -1.
    10030    2    1    2    0    0  0.00000000000E+00  0.00000000000E+00 -0.13255246752E+04  0.24245083451E+04  0.20300800602E+04 0.  0.
        1    1    3    3  502    0 -0.57139285886E+03  0.71347927241E+02  0.33554428020E+03  0.66646101902E+03  0.50400001928E-02 0.  1.
       -1    1    3    3    0  502  0.57139285886E+03 -0.71347927241E+02 -0.16610689554E+04  0.17580473260E+04  0.50400001928E-02 0. -1.
</event>
<event>
 5   0  0.6256535E-05  0.2003663E+04  0.7818609E-02  0.8604910E-01
        1   -1    0    0  501    0  0.00000000000E+00  0.00000000000E+00  0.45383872127E+03  0.45383872130E+03  0.50400001928E-02 0.  1.
       -1   -1    0    0    0  501  0.00000000000E+00  0.00000000000E+00 -0.22115036703E+04  0.22115036703E+04  0.50400001928E-02 0. -1.
    10030    2    1    2    0    0  0.00000000000E+00  0.00000000000E+00 -0.17576649490E+04  0.26653423916E+04  0.20036626441E+04 0.  0.
        1    1    3    3  502    0  0.88400016651E+02  0.79795986642E+03 -0.81676962108E+02  0.80698552498E+03  0.50400001928E-02 0.  1.
       -1    1    3    3    0  502 -0.88400016651E+02 -0.79795986642E+03 -0.16759879869E+04  0.18583568666E+04  0.50400001928E-02 0. -1.
</event>
<event>
 5   0  0.6222733E-05  0.1994260E+04  0.7818609E-02  0.8609309E-01
       -1   -1    0    0    0  501  0.00000000000E+00  0.00000000000E+00  0.89934174887E+03  0.89934174888E+03  0.50400001928E-02 0. -1.
        1   -1    0    0  501    0  0.00000000000E+00  0.00000000000E+00 -0.11055516214E+04  0.11055516214E+04  0.50400001928E-02 0.  1.
    10030    2    1    2    0    0  0.00000000000E+00  0.00000000000E+00 -0.20620987256E+03  0.20048933703E+04  0.19942604932E+04 0.  0.
        2    1    3    3  502    0  0.28086252644E+03 -0.60464414526E+03 -0.84853684811E+03  0.10791168073E+04  0.25500000920E-02 0.  1.
       -2    1    3    3    0  502 -0.28086252644E+03  0.60464414526E+03  0.64232697555E+03  0.92577656304E+03  0.25500000920E-02 0. -1.
</event>
<event>
 5   0  0.6168338E-05  0.2006682E+04  0.7818609E-02  0.8603503E-01
        1   -1    0    0  501    0  0.00000000000E+00  0.00000000000E+00  0.13544289728E+04  0.13544289728E+04  0.50400001928E-02 0. -1.
       -1   -1    0    0    0  501  0.00000000000E+00  0.00000000000E+00 -0.74326055352E+03  0.74326055354E+03  0.50400001928E-02 0.  1.
    10030    2    1    2    0    0  0.00000000000E+00  0.00000000000E+00  0.61116841925E+03  0.20976895263E+04  0.20066824642E+04 0.  0.
        5    1    3    3  502    0  0.35716915577E+03  0.33830588458E+03 -0.60851670844E+03  0.78251859519E+03  0.46999998093E+01 0.  1.
       -5    1    3    3    0  502 -0.35716915577E+03 -0.33830588458E+03  0.12196851277E+04  0.13151709311E+04  0.46999998093E+01 0. -1.
</event>
<event>
 5   0  0.1159914E-04  0.2019965E+04  0.7818609E-02  0.8597343E-01
        2   -1    0    0  501    0  0.00000000000E+00  0.00000000000E+00  0.53698287256E+03  0.53698287257E+03  0.25500000920E-02 0. -1.
       -2   -1    0    0    0  501  0.00000000000E+00  0.00000000000E+00 -0.18996228036E+04  0.18996228036E+04  0.25500000920E-02 0.  1.
    10030    2    1    2    0    0  0.00000000000E+00  0.00000000000E+00 -0.13626399310E+04  0.24366056762E+04  0.20199652570E+04 0.  0.
        3    1    3    3  502    0  0.24383959170E+03 -0.71091525817E+03 -0.14951723688E+04  0.16734391753E+04  0.10100000352E+00 0.  1.
       -3    1    3    3    0  502 -0.24383959170E+03  0.71091525817E+03  0.13253243777E+03  0.76316650086E+03  0.10100000352E+00 0. -1.
</event>
<event>
 5   0  0.6214547E-05  0.2023261E+04  0.7818609E-02  0.8595822E-01
        1   -1    0    0  501    0  0.00000000000E+00  0.00000000000E+00  0.10716305918E+04  0.10716305918E+04  0.50400001928E-02 0. -1.
       -1   -1    0    0    0  501  0.00000000000E+00  0.00000000000E+00 -0.95499002142E+03  0.95499002143E+03  0.50400001928E-02 0.  1.
    10030    2    1    2    0    0  0.00000000000E+00  0.00000000000E+00  0.11664057038E+03  0.20266206132E+04  0.20232612504E+04 0.  0.
        3    1    3    3  502    0  0.62273686206E+03 -0.43389249484E+03  0.72826007649E+03  0.10518681693E+04  0.10100000352E+00 0. -1.
       -3    1    3    3    0  502 -0.62273686206E+03  0.43389249484E+03 -0.61161950611E+03  0.97475244391E+03  0.10100000352E+00 0.  1.
</event>
<event>
 5   0  0.6222733E-05  0.2030643E+04  0.7818609E-02  0.8592427E-01
        1   -1    0    0  501    0  0.00000000000E+00  0.00000000000E+00  0.13117733764E+04  0.13117733764E+04  0.50400001928E-02 0.  1.
       -1   -1    0    0    0  501  0.00000000000E+00  0.00000000000E+00 -0.78586540281E+03  0.78586540282E+03  0.50400001928E-02 0. -1.
    10030    2    1    2    0    0  0.00000000000E+00  0.00000000000E+00  0.52590797362E+03  0.20976387793E+04  0.20306425711E+04 0.  0.
        2    1    3    3  502    0  0.78262978781E+03  0.55821694251E+03 -0.74570360258E+02  0.96419721961E+03  0.25500000920E-02 0. -1.
       -2    1    3    3    0  502 -0.78262978781E+03 -0.55821694251E+03  0.60047833387E+03  0.11334415596E+04  0.25500000920E-02 0.  1.
</event>
<event>
 5   0  0.1244229E-04  0.1973455E+04  0.7818609E-02  0.8619133E-01
        2   -1    0    0  501    0  0.00000000000E+00  0.00000000000E+00  0.13381336073E+04  0.13381336073E+04  0.25500000920E-02 0.  1.
       -2   -1    0    0    0  501  0.00000000000E+00  0.00000000000E+00 -0.72760416981E+03  0.72760416981E+03  0.25500000920E-02 0. -1.
    10030    2    1    2    0    0  0.00000000000E+00  0.00000000000E+00  0.61052943750E+03  0.20657377771E+04  0.19734554390E+04 0.  0.
        5    1    3    3  502    0 -0.47131838944E+03  0.19077500427E+03  0.11904275547E+04  0.12944790379E+04  0.46999998093E+01 0.  1.
       -5    1    3    3    0  502  0.47131838944E+03 -0.19077500427E+03 -0.57989811723E+03  0.77125873923E+03  0.46999998093E+01 0. -1.
</event>
<event>
 5   0  0.1159914E-04  0.2020682E+04  0.7818609E-02  0.8597012E-01
       -2   -1    0    0    0  501  0.00000000000E+00  0.00000000000E+00  0.76018829516E+03  0.76018829516E+03  0.25500000920E-02 0.  1.
        2   -1    0    0  501    0  0.00000000000E+00  0.00000000000E+00 -0.13428110204E+04  0.13428110204E+04  0.25500000920E-02 0. -1.
    10030    2    1    2    0    0  0.00000000000E+00  0.00000000000E+00 -0.58262272524E+03  0.21029993156E+04  0.20206822811E+04 0.  0.
        3    1    3    3  502    0  0.78664686878E+03 -0.45798073187E+03  0.16498939267E+03  0.92508440524E+03  0.10100000352E+00 0. -1.
       -3    1    3    3    0  502 -0.78664686878E+03  0.45798073187E+03 -0.74761211791E+03  0.11779149103E+04  0.10100000352E+00 0.  1.
</event>
<event>
 5   0  0.6256535E-05  0.1990309E+04  0.7818609E-02  0.8611165E-01
       -1   -1    0    0    0  501  0.00000000000E+00  0.00000000000E+00  0.10101312269E+04  0.10101312269E+04  0.50400001928E-02 0.  1.
        1   -1    0    0  501    0  0.00000000000E+00  0.00000000000E+00 -0.98039979948E+03  0.98039979950E+03  0.50400001928E-02 0. -1.
    10030    2    1    2    0    0  0.00000000000E+00  0.00000000000E+00  0.29731427414E+02  0.19905310264E+04  0.19903089733E+04 0.  0.
        1    1    3    3  502    0  0.56105759137E+03 -0.29285274624E+03 -0.75319399027E+03  0.98379344317E+03  0.50400001928E-02 0. -1.
       -1    1    3    3    0  502 -0.56105759137E+03  0.29285274624E+03  0.78292541768E+03  0.10067375832E+04  0.50400001928E-02 0.  1.
</event>
<event>
 5   0  0.1242761E-04  0.1968690E+04  0.7818609E-02  0.8621401E-01
       -2   -1    0    0    0  501  0.00000000000E+00  0.00000000000E+00  0.98782631985E+03  0.98782631985E+03  0.25500000920E-02 0.  1.
        2   -1    0    0  501    0  0.00000000000E+00  0.00000000000E+00 -0.98087546052E+03  0.98087546052E+03  0.25500000920E-02 0. -1.
    10030    2    1    2    0    0  0.00000000000E+00  0.00000000000E+00  0.69508593339E+01  0.19687017804E+04  0.19686895097E+04 0.  0.
        4    1    3    3  502    0  0.83411668695E+03 -0.24427158714E+03 -0.45860290719E+03  0.98271943866E+03  0.12699999809E+01 0. -1.
       -4    1    3    3    0  502 -0.83411668695E+03  0.24427158714E+03  0.46555376653E+03  0.98598234171E+03  0.12699999809E+01 0.  1.
</event>
<event>
 5   0  0.1274868E-04  0.1990824E+04  0.7818609E-02  0.8610923E-01
       -2   -1    0    0    0  501  0.00000000000E+00  0.00000000000E+00  0.66346413160E+03  0.66346413161E+03  0.25500000920E-02 0. -1.
        2   -1    0    0  501    0  0.00000000000E+00  0.00000000000E+00 -0.14934415686E+04  0.14934415686E+04  0.25500000920E-02 0.  1.
    10030    2    1    2    0    0  0.00000000000E+00  0.00000000000E+00 -0.82997743701E+03  0.21569057002E+04  0.19908238630E+04 0.  0.
        1    1    3    3  502    0  0.30365826383E+03 -0.17395026032E+02 -0.14418629019E+04  0.14735940947E+04  0.50400001928E-02 0.  1.
       -1    1    3    3    0  502 -0.30365826383E+03  0.17395026032E+02  0.61188546485E+03  0.68331160553E+03  0.50400001928E-02 0. -1.
</event>
<event>
 5   0  0.1159914E-04  0.2002989E+04  0.7818609E-02  0.8605224E-01
        2   -1    0    0  501    0  0.00000000000E+00  0.00000000000E+00  0.72899230734E+03  0.72899230734E+03  0.25500000920E-02 0.  1.
       -2   -1    0    0    0  501  0.00000000000E+00  0.00000000000E+00 -0.13758600311E+04  0.13758600311E+04  0.25500000920E-02 0. -1.
    10030    2    1    2    0    0  0.00000000000E+00  0.00000000000E+00 -0.64686772373E+03  0.21048523384E+04  0.20029891449E+04 0.  0.
        3    1    3    3  502    0  0.86667465855E+03  0.15927724215E+03  0.17668636967E+03  0.89872814970E+03  0.10100000352E+00 0.  1.
       -3    1    3    3    0  502 -0.86667465855E+03 -0.15927724215E+03 -0.82355409339E+03  0.12061241887E+04  0.10100000352E+00 0. -1.
</event>
<event>
 5   0  0.6168338E-05  0.1997295E+04  0.7818609E-02  0.8607886E-01
       -1   -1    0    0    0  501  0.00000000000E+00  0.00000000000E+00  0.81959269646E+03  0.81959269647E+03  0.50400001928E-02 0. -1.
        1   -1    0    0  501    0  0.00000000000E+00  0.00000000000E+00 -0.12168202261E+04  0.12168202261E+04  0.50400001928E-02 0.  1.
    10030    2    1    2    0    0  0.00000000000E+00  0.00000000000E+00 -0.39722752967E+03  0.20364129226E+04  0.19972951412E+04 0.  0.
        5    1    3    3  502    0 -0.78531757372E+03 -0.11006289729E+03 -0.81749230295E+03  0.11389263753E+04  0.46999998093E+01 0.  1.
       -5    1    3    3    0  502  0.78531757372E+03  0.11006289729E+03  0.42026477329E+03  0.89748654732E+03  0.46999998093E+01 0. -1.
</event>
<event>
 5   0  0.6222733E-05  0.2016307E+04  0.7818609E-02  0.8599034E-01
        1   -1    0    0  501    0  0.00000000000E+00  0.00000000000E+00  0.75767520892E+03  0.75767520893E+03  0.50400001928E-02 0.  1.
       -1   -1    0    0    0  501  0.00000000000E+00  0.00000000000E+00 -0.13414370463E+04  0.13414370463E+04  0.50400001928E-02 0. -1.
    10030    2    1    2    0    0  0.00000000000E+00  0.00000000000E+00 -0.58376183737E+03  0.20991122552E+04  0.20163071138E+04 0.  0.
        2    1    3    3  502    0 -0.83701449092E+03 -0.36390946703E+03  0.15389819724E+03  0.92558522748E+03  0.25500000920E-02 0.  1.
       -2    1    3    3    0  502  0.83701449092E+03  0.36390946703E+03 -0.73766003461E+03  0.11735270278E+04  0.25500000920E-02 0. -1.
</event>
<event>
 5   0  0.6214547E-05  0.2009394E+04  0.7818609E-02  0.8602241E-01
        1   -1    0    0  501    0  0.00000000000E+00  0.00000000000E+00  0.10409369758E+04  0.10409369759E+04  0.50400001928E-02 0.  1.
       -1   -1    0    0    0  501  0.00000000000E+00  0.00000000000E+00 -0.96971839734E+03  0.96971839735E+03  0.50400001928E-02 0. -1.
    10030    2    1    2    0    0  0.00000000000E+00  0.00000000000E+00  0.71218578508E+02  0.20106553732E+04  0.20093936757E+04 0.  0.
        3    1    3    3  502    0  0.25601168807E+03 -0.66978396566E+03 -0.66858196820E+03  0.98038482418E+03  0.10100000352E+00 0. -1.
       -3    1    3    3    0  502 -0.25601168807E+03  0.66978396566E+03  0.73980054670E+03  0.10302705490E+04  0.10100000352E+00 0.  1.
</event>
<event>
 5   0  0.1281789E-04  0.1723531E+04  0.7818609E-02  0.8748057E-01
        2   -1    0    0  501    0  0.00000000000E+00  0.00000000000E+00  0.11857062273E+04  0.11857062273E+04  0.25500000920E-02 0. -1.
       -2   -1    0    0    0  501  0.00000000000E+00  0.00000000000E+00 -0.62632674135E+03  0.62632674136E+03  0.25500000920E-02 0.  1.
    10030    2    1    2    0    0  0.00000000000E+00  0.00000000000E+00  0.55937948592E+03  0.18120329686E+04  0.17235306989E+04 0.  0.
        2    1    3    3  502    0 -0.31120479760E+03 -0.39301986536E+03 -0.45725030100E+03  0.67852109650E+03  0.25500000920E-02 0.  1.
       -2    1    3    3    0  502  0.31120479760E+03  0.39301986536E+03  0.10166297869E+04  0.11335118721E+04  0.25500000920E-02 0. -1.
</event>
<event>
 5   0  0.1242761E-04  0.2007573E+04  0.7818609E-02  0.8603088E-01
        2   -1    0    0  501    0  0.00000000000E+00  0.00000000000E+00  0.44439959943E+03  0.44439959944E+03  0.25500000920E-02 0. -1.
       -2   -1    0    0    0  501  0.00000000000E+00  0.00000000000E+00 -0.22672992304E+04  0.22672992304E+04  0.25500000920E-02 0.  1.
    10030    2    1    2    0    0  0.00000000000E+00  0.00000000000E+00 -0.18228996309E+04  0.27116988298E+04  0.20075725340E+04 0.  0.
        4    1    3    3  502    0 -0.26730148535E+03  0.72938525205E+03 -0.17701311133E+04  0.19330852804E+04  0.12699999809E+01 0.  1.
       -4    1    3    3    0  502  0.26730148535E+03 -0.72938525205E+03 -0.52768517597E+02  0.77861354941E+03  0.12699999809E+01 0. -1.
</event>
<event>
 5   0  0.6222733E-05  0.1986299E+04  0.7818609E-02  0.8613053E-01
        1   -1    0    0  501    0  0.00000000000E+00  0.00000000000E+00  0.11152767795E+04  0.11152767795E+04  0.50400001928E-02 0.  1.
       -1   -1    0    0    0  501  0.00000000000E+00  0.00000000000E+00 -0.88439571169E+03  0.88439571171E+03  0.50400001928E-02 0. -1.
    10030    2    1    2    0    0  0.00000000000E+00  0.00000000000E+00  0.23088106776E+03  0.19996724912E+04  0.19862990723E+04 0.  0.
        2    1    3    3  502    0  0.12851290389E+03  0.20765131352E+03 -0.85369937356E+03  0.88793989374E+03  0.25500000920E-02 0. -1.
       -2    1    3    3    0  502 -0.12851290389E+03 -0.20765131352E+03  0.10845804413E+04  0.11117325974E+04  0.25500000920E-02 0.  1.
</event>
<event>
 5   0  0.6168338E-05  0.2110522E+04  0.7818609E-02  0.8556622E-01
       -1   -1    0    0    0  501  0.00000000000E+00  0.00000000000E+00  0.58422663667E+03  0.58422663669E+03  0.50400001928E-02 0. -1.
        1   -1    0    0  501    0  0.00000000000E+00  0.00000000000E+00 -0.19060681101E+04  0.19060681101E+04  0.50400001928E-02 0.  1.
    10030    2    1    2    0    0  0.00000000000E+00  0.00000000000E+00 -0.13218414735E+04  0.24902947468E+04  0.21105219840E+04 0.  0.
        5    1    3    3  502    0  0.57211571768E+03 -0.81332007263E+03 -0.24416920090E+03  0.10239368260E+04  0.46999998093E+01 0.  1.
       -5    1    3    3    0  502 -0.57211571768E+03  0.81332007263E+03 -0.10776722726E+04  0.14663579208E+04  0.46999998093E+01 0. -1.
</event>
<event>
 5   0  0.6222733E-05  0.1994255E+04  0.7818609E-02  0.8609311E-01
        1   -1    0    0  501    0  0.00000000000E+00  0.00000000000E+00  0.62106868825E+03  0.62106868827E+03  0.50400001928E-02 0. -1.
       -1   -1    0    0    0  501  0.00000000000E+00  0.00000000000E+00 -0.16008914850E+04  0.16008914850E+04  0.50400001928E-02 0.  1.
    10030    2    1    2    0    0  0.00000000000E+00  0.00000000000E+00 -0.97982279672E+03  0.22219601733E+04  0.19942553243E+04 0.  0.
        2    1    3    3  502    0 -0.63461339665E+02 -0.95436806939E+03 -0.80390044199E+03  0.12494405445E+04  0.25500000920E-02 0.  1.
       -2    1    3    3    0  502  0.63461339665E+02  0.95436806939E+03 -0.17592235474E+03  0.97251962880E+03  0.25500000920E-02 0. -1.
</event>
<event>
 5   0  0.1281789E-04  0.1978160E+04  0.7818609E-02  0.8616900E-01
       -2   -1    0    0    0  501  0.00000000000E+00  0.00000000000E+00  0.10626305402E+04  0.10626305402E+04  0.25500000920E-02 0.  1.
        2   -1    0    0  501    0  0.00000000000E+00  0.00000000000E+00 -0.92062010931E+03  0.92062010932E+03  0.25500000920E-02 0. -1.
    10030    2    1    2    0    0  0.00000000000E+00  0.00000000000E+00  0.14201043091E+03  0.19832506495E+04  0.19781597955E+04 0.  0.
        2    1    3    3  502    0 -0.18368762190E+03 -0.10143745795E+03 -0.89804749937E+03  0.92223641841E+03  0.25500000920E-02 0. -1.
       -2    1    3    3    0  502  0.18368762190E+03  0.10143745795E+03  0.10400579303E+04  0.10610142311E+04  0.25500000920E-02 0.  1.
</event>
<event>
 5   0  0.1159914E-04  0.2049883E+04  0.7818609E-02  0.8583647E-01
        2   -1    0    0  501    0  0.00000000000E+00  0.00000000000E+00  0.12958452851E+04  0.12958452851E+04  0.25500000920E-02 0.  1.
       -2   -1    0    0    0  501  0.00000000000E+00  0.00000000000E+00 -0.81067206169E+03  0.81067206169E+03  0.25500000920E-02 0. -1.
    10030    2    1    2    0    0  0.00000000000E+00  0.00000000000E+00  0.48517322339E+03  0.21065173468E+04  0.20498834785E+04 0.  0.
        3    1    3    3  502    0 -0.42657640600E+02 -0.97563802132E+03 -0.77163117600E+02  0.97961389326E+03  0.10100000352E+00 0.  1.
       -3    1    3    3    0  502  0.42657640600E+02  0.97563802132E+03  0.56233634099E+03  0.11269034535E+04  0.10100000352E+00 0. -1.
</event>
<event>
 5   0  0.1281789E-04  0.1966914E+04  0.7818609E-02  0.8622248E-01
        2   -1    0    0  501    0  0.00000000000E+00  0.00000000000E+00  0.11079342755E+04  0.11079342755E+04  0.25500000920E-02 0. -1.
       -2   -1    0    0    0  501  0.00000000000E+00  0.00000000000E+00 -0.87296469162E+03  0.87296469163E+03  0.25500000920E-02 0.  1.
    10030    2    1    2    0    0  0.00000000000E+00  0.00000000000E+00  0.23496958387E+03  0.19808989671E+04  0.19669138295E+04 0.  0.
        2    1    3    3  502    0  0.33051474067E+02 -0.67180030173E+02 -0.87009033256E+03  0.87330564135E+03  0.25500000920E-02 0.  1.
       -2    1    3    3    0  502 -0.33051474067E+02  0.67180030173E+02  0.11050599164E+04  0.11075933258E+04  0.25500000920E-02 0. -1.
</event>
<event>
 5   0  0.6214547E-05  0.1976620E+04  0.7818609E-02  0.8617630E-01
       -1   -1    0    0    0  501  0.00000000000E+00  0.00000000000E+00  0.11844449531E+04  0.11844449531E+04  0.50400001928E-02 0.  1.
        1   -1    0    0  501    0  0.00000000000E+00  0.00000000000E+00 -0.82465328592E+03  0.82465328594E+03  0.50400001928E-02 0. -1.
    10030    2    1    2    0    0  0.00000000000E+00  0.00000000000E+00  0.35979166718E+03  0.20090982391E+04  0.19766197637E+04 0.  0.
        3    1    3    3  502    0  0.89163138308E+03  0.40473743113E+03  0.43764215047E+02  0.98017050974E+03  0.10100000352E+00 0. -1.
       -3    1    3    3    0  502 -0.89163138308E+03 -0.40473743113E+03  0.31602745213E+03  0.10289277293E+04  0.10100000352E+00 0.  1.
</event>
<event>
 5   0  0.6168338E-05  0.2002325E+04  0.7818609E-02  0.8605534E-01
        1   -1    0    0  501    0  0.00000000000E+00  0.00000000000E+00  0.14204405875E+04  0.14204405875E+04  0.50400001928E-02 0. -1.
       -1   -1    0    0    0  501  0.00000000000E+00  0.00000000000E+00 -0.70564503565E+03  0.70564503566E+03  0.50400001928E-02 0.  1.
    10030    2    1    2    0    0  0.00000000000E+00  0.00000000000E+00  0.71479555186E+03  0.21260856232E+04  0.20023254970E+04 0.  0.
        5    1    3    3  502    0  0.80444357260E+03  0.58889287338E+03  0.45460097352E+03  0.10957227811E+04  0.46999998093E+01 0. -1.
       -5    1    3    3    0  502 -0.80444357260E+03 -0.58889287338E+03  0.26019457833E+03  0.10303628421E+04  0.46999998093E+01 0.  1.
</event>
<event>
 5   0  0.1244229E-04  0.1995781E+04  0.7818609E-02  0.8608596E-01
        2   -1    0    0  501    0  0.00000000000E+00  0.00000000000E+00  0.13433009963E+04  0.13433009963E+04  0.25500000920E-02 0. -1.
       -2   -1    0    0    0  501  0.00000000000E+00  0.00000000000E+00 -0.74129712004E+03  0.74129712004E+03  0.25500000920E-02 0.  1.
    10030    2    1    2    0    0  0.00000000000E+00  0.00000000000E+00  0.60200387624E+03  0.20845981163E+04  0.19957807093E+04 0.  0.
        5    1    3    3  502    0  0.56622515290E+03  0.59913909366E+03  0.88832871791E+03  0.12119111264E+04  0.46999998093E+01 0. -1.
       -5    1    3    3    0  502 -0.56622515290E+03 -0.59913909366E+03 -0.28632484168E+03  0.87268698987E+03  0.46999998093E+01 0.  1.
</event>
<event>
 5   0  0.6168338E-05  0.2011011E+04  0.7818609E-02  0.8601490E-01
        1   -1    0    0  501    0  0.00000000000E+00  0.00000000000E+00  0.15462956044E+04  0.15462956044E+04  0.50400001928E-02 0. -1.
       -1   -1    0    0    0  501  0.00000000000E+00  0.00000000000E+00 -0.65384718577E+03  0.65384718579E+03  0.50400001928E-02 0.  1.
    10030    2    1    2    0    0  0.00000000000E+00  0.00000000000E+00  0.89244841866E+03  0.22001427902E+04  0.20110107204E+04 0.  0.
        5    1    3    3  502    0  0.44162913881E+02  0.71286666915E+03  0.12205211217E+04  0.14141510349E+04  0.46999998093E+01 0. -1.
       -5    1    3    3    0  502 -0.44162913881E+02 -0.71286666915E+03 -0.32807270307E+03  0.78599175533E+03  0.46999998093E+01 0.  1.
</event>
<event>
 5   0  0.6222733E-05  0.2082771E+04  0.7818609E-02  0.8568871E-01
       -1   -1    0    0    0  501  0.00000000000E+00  0.00000000000E+00  0.84335687038E+03  0.84335687040E+03  0.50400001928E-02 0.  1.
        1   -1    0    0  501    0  0.00000000000E+00  0.00000000000E+00 -0.12859133327E+04  0.12859133327E+04  0.50400001928E-02 0. -1.
    10030    2    1    2    0    0  0.00000000000E+00  0.00000000000E+00 -0.44255646235E+03  0.21292702031E+04  0.20827710809E+04 0.  0.
        2    1    3    3  502    0  0.47741925891E+02  0.42808066411E+03  0.74801988307E+03  0.86317211027E+03  0.25500000920E-02 0.  1.
       -2    1    3    3    0  502 -0.47741925891E+02 -0.42808066411E+03 -0.11905763454E+04  0.12660980929E+04  0.25500000920E-02 0. -1.
</event>
<event>
 5   0  0.1244229E-04  0.2023561E+04  0.7818609E-02  0.8595684E-01
       -2   -1    0    0    0  501  0.00000000000E+00  0.00000000000E+00  0.45893688762E+03  0.45893688763E+03  0.25500000920E-02 0.  1.
        2   -1    0    0  501    0  0.00000000000E+00  0.00000000000E+00 -0.22305884531E+04  0.22305884531E+04  0.25500000920E-02 0. -1.
    10030    2    1    2    0    0  0.00000000000E+00  0.00000000000E+00 -0.17716515655E+04  0.26895253408E+04  0.20235605474E+04 0.  0.
        5    1    3    3  502    0  0.73813709412E+03  0.50098740552E+03 -0.25140589528E+03  0.92685584876E+03  0.46999998093E+01 0.  1.
       -5    1    3    3    0  502 -0.73813709412E+03 -0.50098740552E+03 -0.15202456702E+04  0.17626694920E+04  0.46999998093E+01 0. -1.
</event>
<event>
 5   0  0.6256535E-05  0.1981061E+04  0.7818609E-02  0.8615527E-01
        1   -1    0    0  501    0  0.00000000000E+00  0.00000000000E+00  0.16417921587E+04  0.16417921587E+04  0.50400001928E-02 0.  1.
       -1   -1    0    0    0  501  0.00000000000E+00  0.00000000000E+00 -0.59760970886E+03  0.59760970888E+03  0.50400001928E-02 0. -1.
    10030    2    1    2    0    0  0.00000000000E+00  0.00000000000E+00  0.10441824498E+04  0.22394018676E+04  0.19810612651E+04 0.  0.
        1    1    3    3  502    0 -0.22340587245E+03  0.75975296438E+03 -0.15049146739E+03  0.80609083391E+03  0.50400001928E-02 0.  1.
       -1    1    3    3    0  502  0.22340587245E+03 -0.75975296438E+03  0.11946739172E+04  0.14333110337E+04  0.50400001928E-02 0. -1.
</event>
<event>
 5   0  0.1159914E-04  0.2119991E+04  0.7818609E-02  0.8552488E-01
        2   -1    0    0  501    0  0.00000000000E+00  0.00000000000E+00  0.11779695900E+04  0.11779695900E+04  0.25500000920E-02 0.  1.
       -2   -1    0    0    0  501  0.00000000000E+00  0.00000000000E+00 -0.95383682636E+03  0.95383682636E+03  0.25500000920E-02 0. -1.
    10030    2    1    2    0    0  0.00000000000E+00  0.00000000000E+00  0.22413276366E+03  0.21318064164E+04  0.21199912974E+04 0.  0.
        3    1    3    3  502    0  0.72205131923E+03  0.31753526791E+03  0.82411162394E+03  0.11407658537E+04  0.10100000352E+00 0.  1.
       -3    1    3    3    0  502 -0.72205131923E+03 -0.31753526791E+03 -0.59997886028E+03  0.99104056272E+03  0.10100000352E+00 0. -1.
</event>
<event>
 5   0  0.1274868E-04  0.2027709E+04  0.7818609E-02  0.8593774E-01
        2   -1    0    0  501    0  0.00000000000E+00  0.00000000000E+00  0.79421632605E+03  0.79421632605E+03  0.25500000920E-02 0.  1.
       -2   -1    0    0    0  501  0.00000000000E+00  0.00000000000E+00 -0.12942327511E+04  0.12942327511E+04  0.25500000920E-02 0. -1.
    10030    2    1    2    0    0  0.00000000000E+00  0.00000000000E+00 -0.50001642509E+03  0.20884490772E+04  0.20277088358E+04 0.  0.
        1    1    3    3  502    0  0.34877407679E+03  0.82285361185E+03  0.24304815317E+03  0.92617699602E+03  0.50400001928E-02 0.  1.
       -1    1    3    3    0  502 -0.34877407679E+03 -0.82285361185E+03 -0.74306457826E+03  0.11622720812E+04  0.50400001928E-02 0. -1.
</event>
<event>
 5   0  0.1159914E-04  0.2004880E+04  0.7818609E-02  0.8604343E-01
        2   -1    0    0  501    0  0.00000000000E+00  0.00000000000E+00  0.13145745679E+04  0.13145745679E+04  0.25500000920E-02 0. -1.
       -2   -1    0    0    0  501  0.00000000000E+00  0.00000000000E+00 -0.76441886486E+03  0.76441886487E+03  0.25500000920E-02 0.  1.
    10030    2    1    2    0    0  0.00000000000E+00  0.00000000000E+00  0.55015570308E+03  0.20789934328E+04  0.20048796463E+04 0.  0.
        3    1    3    3  502    0  0.83162368143E+03  0.31071679635E+03 -0.20768857946E+03  0.91174416987E+03  0.10100000352E+00 0.  1.
       -3    1    3    3    0  502 -0.83162368143E+03 -0.31071679635E+03  0.75784428254E+03  0.11672492629E+04  0.10100000352E+00 0. -1.
</event>
<event>
 5   0  0.6222733E-05  0.2010126E+04  0.7818609E-02  0.8601901E-01
        1   -1    0    0  501    0  0.00000000000E+00  0.00000000000E+00  0.10445258280E+04  0.10445258280E+04  0.50400001928E-02 0. -1.
       -1   -1    0    0    0  501  0.00000000000E+00  0.00000000000E+00 -0.96709099324E+03  0.96709099325E+03  0.50400001928E-02 0.  1.
    10030    2    1    2    0    0  0.00000000000E+00  0.00000000000E+00  0.77434834759E+02  0.20116168213E+04  0.20101258871E+04 0.  0.
        2    1    3    3  502    0  0.10204968705E+03  0.24082158701E+03 -0.93243646645E+03  0.96842497869E+03  0.25500000920E-02 0.  1.
       -2    1    3    3    0  502 -0.10204968705E+03 -0.24082158701E+03  0.10098713012E+04  0.10431918426E+04  0.25500000920E-02 0. -1.
</event>
<event>
 5   0  0.1242761E-04  0.1979889E+04  0.7818609E-02  0.8616081E-01
        2   -1    0    0  501    0  0.00000000000E+00  0.00000000000E+00  0.12453073984E+04  0.12453073984E+04  0.25500000920E-02 0.  1.
       -2   -1    0    0    0  501  0.00000000000E+00  0.00000000000E+00 -0.78694609294E+03  0.78694609294E+03  0.25500000920E-02 0. -1.
    10030    2    1    2    0    0  0.00000000000E+00  0.00000000000E+00  0.45836130544E+03  0.20322534913E+04  0.19798886753E+04 0.  0.
        4    1    3    3  502    0  0.63175332996E+03 -0.20110809534E+02 -0.55285678512E+03  0.83974338480E+03  0.12699999809E+01 0. -1.
       -4    1    3    3    0  502 -0.63175332996E+03  0.20110809534E+02  0.10112180906E+04  0.11925101065E+04  0.12699999809E+01 0.  1.
</event>
<event>
 5   0  0.6168338E-05  0.1996415E+04  0.7818609E-02  0.8608299E-01
       -1   -1    0    0    0  501  0.00000000000E+00  0.00000000000E+00  0.60267003846E+03  0.60267003848E+03  0.50400001928E-02 0. -1.
        1   -1    0    0  501    0  0.00000000000E+00  0.00000000000E+00 -0.16533391652E+04  0.16533391652E+04  0.50400001928E-02 0.  1.
    10030    2    1    2    0    0  0.00000000000E+00  0.00000000000E+00 -0.10506691268E+04  0.22560092037E+04  0.19964147648E+04 0.  0.
        5    1    3    3  502    0 -0.83883146512E+03  0.38642650279E+03 -0.97364438735E+02  0.92869025668E+03  0.46999998093E+01 0. -1.
       -5    1    3    3    0  502  0.83883146512E+03 -0.38642650279E+03 -0.95330468803E+03  0.13273189470E+04  0.46999998093E+01 0.  1.
</event>
<event>
 5   0  0.4479000E-05  0.1992004E+04  0.7818609E-02  0.8610368E-01
        4   -1    0    0  501    0  0.00000000000E+00  0.00000000000E+00  0.68180490420E+03  0.68180608702E+03  0.12699999809E+01 0.  1.
       -4   -1    0    0    0  501  0.00000000000E+00  0.00000000000E+00 -0.14549885170E+04  0.14549890713E+04  0.12699999809E+01 0. -1.
    10030    2    1    2    0    0  0.00000000000E+00  0.00000000000E+00 -0.77318361284E+03  0.21367951583E+04  0.19920041791E+04 0.  0.
        4    1    3    3  502    0  0.79069104431E+03  0.51939764826E+03 -0.72076804987E+03  0.11893167951E+04  0.12699999809E+01 0.  1.
       -4    1    3    3    0  502 -0.79069104431E+03 -0.51939764826E+03 -0.52415562969E+02  0.94747836319E+03  0.12699999809E+01 0. -1.
</event>
<event>
 5   0  0.6222733E-05  0.2022012E+04  0.7818609E-02  0.8596398E-01
       -1   -1    0    0    0  501  0.00000000000E+00  0.00000000000E+00  0.72419065620E+03  0.72419065621E+03  0.50400001928E-02 0.  1.
        1   -1    0    0  501    0  0.00000000000E+00  0.00000000000E+00 -0.14114147434E+04  0.14114147435E+04  0.50400001928E-02 0. -1.
    10030    2    1    2    0    0  0.00000000000E+00  0.00000000000E+00 -0.68722408725E+03  0.21356053997E+04  0.20220122346E+04 0.  0.
        2    1    3    3  502    0 -0.78257177348E+03 -0.43418850791E+03 -0.84034732775E+03  0.12276489206E+04  0.25500000920E-02 0. -1.
       -2    1    3    3    0  502  0.78257177348E+03  0.43418850791E+03  0.15312324050E+03  0.90795647904E+03  0.25500000920E-02 0.  1.
</event>
<event>
 5   0  0.6214547E-05  0.1996495E+04  0.7818609E-02  0.8608261E-01
        1   -1    0    0  501    0  0.00000000000E+00  0.00000000000E+00  0.90543967754E+03  0.90543967755E+03  0.50400001928E-02 0.  1.
       -1   -1    0    0    0  501  0.00000000000E+00  0.00000000000E+00 -0.11005677883E+04  0.11005677883E+04  0.50400001928E-02 0. -1.
    10030    2    1    2    0    0  0.00000000000E+00  0.00000000000E+00 -0.19512811077E+03  0.20060074659E+04  0.19964946716E+04 0.  0.
        3    1    3    3  502    0  0.50843459725E+03 -0.13054110638E+03 -0.95069808982E+03  0.10859896815E+04  0.10100000352E+00 0. -1.
       -3    1    3    3    0  502 -0.50843459725E+03  0.13054110638E+03  0.75556997904E+03  0.92001778438E+03  0.10100000352E+00 0.  1.
</event>
<event>
 5   0  0.6168338E-05  0.1992455E+04  0.7818609E-02  0.8610156E-01
        1   -1    0    0  501    0  0.00000000000E+00  0.00000000000E+00  0.15598224442E+04  0.15598224442E+04  0.50400001928E-02 0. -1.
       -1   -1    0    0    0  501  0.00000000000E+00  0.00000000000E+00 -0.63627056092E+03  0.63627056094E+03  0.50400001928E-02 0.  1.
    10030    2    1    2    0    0  0.00000000000E+00  0.00000000000E+00  0.92355188329E+03  0.21960930052E+04  0.19924548693E+04 0.  0.
        5    1    3    3  502    0  0.76919410596E+03  0.59707635456E+03  0.69372983659E+03  0.11955931256E+04  0.46999998093E+01 0. -1.
       -5    1    3    3    0  502 -0.76919410596E+03 -0.59707635456E+03  0.22982204669E+03  0.10004998795E+04  0.46999998093E+01 0.  1.
</event>
<event>
 5   0  0.1244229E-04  0.1794029E+04  0.7818609E-02  0.8709481E-01
        2   -1    0    0  501    0  0.00000000000E+00  0.00000000000E+00  0.11349436929E+04  0.11349436929E+04  0.25500000920E-02 0. -1.
       -2   -1    0    0    0  501  0.00000000000E+00  0.00000000000E+00 -0.70896465308E+03  0.70896465308E+03  0.25500000920E-02 0.  1.
    10030    2    1    2    0    0  0.00000000000E+00  0.00000000000E+00  0.42597903983E+03  0.18439083460E+04  0.17940289424E+04 0.  0.
        5    1    3    3  502    0 -0.17267645377E+03 -0.53984631015E+03  0.92756151475E+03  0.10870343370E+04  0.46999998093E+01 0. -1.
       -5    1    3    3    0  502  0.17267645377E+03  0.53984631015E+03 -0.50158247492E+03  0.75687400895E+03  0.46999998093E+01 0.  1.
</event>
<event>
 5   0  0.6256535E-05  0.2018174E+04  0.7818609E-02  0.8598171E-01
        1   -1    0    0  501    0  0.00000000000E+00  0.00000000000E+00  0.13800196181E+04  0.13800196181E+04  0.50400001928E-02 0.  1.
       -1   -1    0    0    0  501  0.00000000000E+00  0.00000000000E+00 -0.73785662542E+03  0.73785662544E+03  0.50400001928E-02 0. -1.
    10030    2    1    2    0    0  0.00000000000E+00  0.00000000000E+00  0.64216299266E+03  0.21178762435E+04  0.20181740445E+04 0.  0.
        1    1    3    3  502    0  0.10009655281E+04  0.10847218767E+03  0.39193296705E+03  0.10804210543E+04  0.50400001928E-02 0.  1.
       -1    1    3    3    0  502 -0.10009655281E+04 -0.10847218767E+03  0.25023002561E+03  0.10374551892E+04  0.50400001928E-02 0. -1.
</event>
<event>
 5   0  0.6168338E-05  0.2038626E+04  0.7818609E-02  0.8588772E-01
        1   -1    0    0  501    0  0.00000000000E+00  0.00000000000E+00  0.15918147533E+04  0.15918147533E+04  0.50400001928E-02 0. -1.
       -1   -1    0    0    0  501  0.00000000000E+00  0.00000000000E+00 -0.65271362011E+03  0.65271362013E+03  0.50400001928E-02 0.  1.
    10030    2    1    2    0    0  0.00000000000E+00  0.00000000000E+00  0.93910113323E+03  0.22445283735E+04  0.20386261749E+04 0.  0.
        5    1    3    3  502    0  0.70830094547E+03 -0.30113027531E+03 -0.26623364594E+03  0.81441519895E+03  0.46999998093E+01 0.  1.
       -5    1    3    3    0  502 -0.70830094547E+03  0.30113027531E+03  0.12053347792E+04  0.14301131745E+04  0.46999998093E+01 0. -1.
</event>
<event>
 5   0  0.6028501E-05  0.2000261E+04  0.7818609E-02  0.8606499E-01
       -1   -1    0    0    0  501  0.00000000000E+00  0.00000000000E+00  0.59945172472E+03  0.59945172474E+03  0.50400001928E-02 0.  1.
        1   -1    0    0  501    0  0.00000000000E+00  0.00000000000E+00 -0.16686266135E+04  0.16686266135E+04  0.50400001928E-02 0. -1.
    10030    2    1    2    0    0  0.00000000000E+00  0.00000000000E+00 -0.10691748887E+04  0.22680783382E+04  0.20002610843E+04 0.  0.
        4    1    3    3  502    0 -0.23689636435E+03  0.21774005197E+03 -0.16083343895E+04  0.16402047857E+04  0.12699999809E+01 0. -1.
       -4    1    3    3    0  502  0.23689636435E+03 -0.21774005197E+03  0.53915950081E+03  0.62787355247E+03  0.12699999809E+01 0.  1.
</event>
<event>
 5   0  0.6222733E-05  0.2006503E+04  0.7818609E-02  0.8603586E-01
       -1   -1    0    0    0  501  0.00000000000E+00  0.00000000000E+00  0.67670818469E+03  0.67670818470E+03  0.50400001928E-02 0.  1.
        1   -1    0    0  501    0  0.00000000000E+00  0.00000000000E+00 -0.14873678687E+04  0.14873678687E+04  0.50400001928E-02 0. -1.
    10030    2    1    2    0    0  0.00000000000E+00  0.00000000000E+00 -0.81065968401E+03  0.21640760534E+04  0.20065034367E+04 0.  0.
        2    1    3    3  502    0  0.67864232138E+03  0.53996030178E+03  0.13866205454E+03  0.87825946806E+03  0.25500000920E-02 0.  1.
       -2    1    3    3    0  502 -0.67864232138E+03 -0.53996030178E+03 -0.94932173855E+03  0.12858165853E+04  0.25500000920E-02 0. -1.
</event>
<event>
 5   0  0.1281789E-04  0.1993232E+04  0.7818609E-02  0.8609791E-01
       -2   -1    0    0    0  501  0.00000000000E+00  0.00000000000E+00  0.56117593670E+03  0.56117593670E+03  0.25500000920E-02 0.  1.
        2   -1    0    0  501    0  0.00000000000E+00  0.00000000000E+00 -0.17699327973E+04  0.17699327973E+04  0.25500000920E-02 0. -1.
    10030    2    1    2    0    0  0.00000000000E+00  0.00000000000E+00 -0.12087568606E+04  0.23311087340E+04  0.19932322448E+04 0.  0.
        2    1    3    3  502    0  0.57839521270E+03 -0.80778676626E+03 -0.51241572211E+03  0.11178686658E+04  0.25500000920E-02 0. -1.
       -2    1    3    3    0  502 -0.57839521270E+03  0.80778676626E+03 -0.69634113850E+03  0.12132400682E+04  0.25500000920E-02 0.  1.
</event>
<event>
 5   0  0.1159914E-04  0.2011263E+04  0.7818609E-02  0.8601373E-01
        2   -1    0    0  501    0  0.00000000000E+00  0.00000000000E+00  0.22249541212E+04  0.22249541212E+04  0.25500000920E-02 0.  1.
       -2   -1    0    0    0  501  0.00000000000E+00  0.00000000000E+00 -0.45452386474E+03  0.45452386475E+03  0.25500000920E-02 0. -1.
    10030    2    1    2    0    0  0.00000000000E+00  0.00000000000E+00  0.17704302565E+04  0.26794779860E+04  0.20112630321E+04 0.  0.
        3    1    3    3  502    0 -0.65267212841E+03  0.30135822050E+03  0.18220502746E+04  0.19587406408E+04  0.10100000352E+00 0.  1.
       -3    1    3    3    0  502  0.65267212841E+03 -0.30135822050E+03 -0.51620018179E+02  0.72073734518E+03  0.10100000352E+00 0. -1.
</event>
<event>
 5   0  0.1242761E-04  0.2002200E+04  0.7818609E-02  0.8605593E-01
        2   -1    0    0  501    0  0.00000000000E+00  0.00000000000E+00  0.19750737080E+04  0.19750737080E+04  0.25500000920E-02 0.  1.
       -2   -1    0    0    0  501  0.00000000000E+00  0.00000000000E+00 -0.50742480830E+03  0.50742480831E+03  0.25500000920E-02 0. -1.
    10030    2    1    2    0    0  0.00000000000E+00  0.00000000000E+00  0.14676488997E+04  0.24824985163E+04  0.20022001875E+04 0.  0.
        4    1    3    3  502    0 -0.79180555331E+03  0.42168607861E+02 -0.23892109599E+02  0.79328851721E+03  0.12699999809E+01 0. -1.
       -4    1    3    3    0  502  0.79180555331E+03 -0.42168607861E+02  0.14915410093E+04  0.16892099991E+04  0.12699999809E+01 0.  1.
</event>
<event>
 5   0  0.6168338E-05  0.1998787E+04  0.7818609E-02  0.8607188E-01
       -1   -1    0    0    0  501  0.00000000000E+00  0.00000000000E+00  0.11715435299E+04  0.11715435299E+04  0.50400001928E-02 0. -1.
        1   -1    0    0  501    0  0.00000000000E+00  0.00000000000E+00 -0.85254002567E+03  0.85254002569E+03  0.50400001928E-02 0.  1.
    10030    2    1    2    0    0  0.00000000000E+00  0.00000000000E+00  0.31900350418E+03  0.20240835555E+04  0.19987873834E+04 0.  0.
        5    1    3    3  502    0  0.71943118821E+03  0.22064910725E+02 -0.54259634940E+03  0.90138836426E+03  0.46999998093E+01 0.  1.
       -5    1    3    3    0  502 -0.71943118821E+03 -0.22064910725E+02  0.86159985358E+03  0.11226951913E+04  0.46999998093E+01 0. -1.
</event>
<event>
 5   0  0.1274868E-04  0.2019900E+04  0.7818609E-02  0.8597373E-01
       -2   -1    0    0    0  501  0.00000000000E+00  0.00000000000E+00  0.55818481543E+03  0.55818481544E+03  0.25500000920E-02 0. -1.
        2   -1    0    0  501    0  0.00000000000E+00  0.00000000000E+00 -0.18273493440E+04  0.18273493440E+04  0.25500000920E-02 0.  1.
    10030    2    1    2    0    0  0.00000000000E+00  0.00000000000E+00 -0.12691645285E+04  0.23855341594E+04  0.20198996572E+04 0.  0.
        1    1    3    3  502    0 -0.41185755957E+03 -0.48402988930E+03  0.29241167031E+03  0.69958285290E+03  0.50400001928E-02 0. -1.
       -1    1    3    3    0  502  0.41185755957E+03  0.48402988930E+03 -0.15615761988E+04  0.16859513065E+04  0.50400001928E-02 0.  1.
</event>
<event>
 5   0  0.1244229E-04  0.2008562E+04  0.7818609E-02  0.8602628E-01
       -2   -1    0    0    0  501  0.00000000000E+00  0.00000000000E+00  0.64970588529E+03  0.64970588530E+03  0.25500000920E-02 0. -1.
        2   -1    0    0  501    0  0.00000000000E+00  0.00000000000E+00 -0.15523644284E+04  0.15523644284E+04  0.25500000920E-02 0.  1.
    10030    2    1    2    0    0  0.00000000000E+00  0.00000000000E+00 -0.90265854306E+03  0.22020703137E+04  0.20085619784E+04 0.  0.
        5    1    3    3  502    0  0.33135908478E+03 -0.90749418408E+03 -0.15065632182E+03  0.97778522923E+03  0.46999998093E+01 0. -1.
       -5    1    3    3    0  502 -0.33135908478E+03  0.90749418408E+03 -0.75200222124E+03  0.12242850844E+04  0.46999998093E+01 0.  1.
</event>
<event>
 5   0  0.6028501E-05  0.2027297E+04  0.7818609E-02  0.8593964E-01
       -1   -1    0    0    0  501  0.00000000000E+00  0.00000000000E+00  0.58632274394E+03  0.58632274396E+03  0.50400001928E-02 0.  1.
        1   -1    0    0  501    0  0.00000000000E+00  0.00000000000E+00 -0.17524186489E+04  0.17524186489E+04  0.50400001928E-02 0. -1.
    10030    2    1    2    0    0  0.00000000000E+00  0.00000000000E+00 -0.11660959050E+04  0.23387413929E+04  0.20272966342E+04 0.  0.
        4    1    3    3  502    0 -0.44674617387E+03  0.82205196155E+03 -0.10330059187E+04  0.13937196319E+04  0.12699999809E+01 0. -1.
       -4    1    3    3    0  502  0.44674617387E+03 -0.82205196155E+03 -0.13308998623E+03  0.94502176096E+03  0.12699999809E+01 0.  1.
</event>
<event>
 5   0  0.6222733E-05  0.1962182E+04  0.7818609E-02  0.8624509E-01
       -1   -1    0    0    0  501  0.00000000000E+00  0.00000000000E+00  0.68640530170E+03  0.68640530172E+03  0.50400001928E-02 0.  1.
        1   -1    0    0  501    0  0.00000000000E+00  0.00000000000E+00 -0.14022907697E+04  0.14022907698E+04  0.50400001928E-02 0. -1.
    10030    2    1    2    0    0  0.00000000000E+00  0.00000000000E+00 -0.71588546804E+03  0.20886960715E+04  0.19621822738E+04 0.  0.
        2    1    3    3  502    0 -0.55148889291E+02 -0.47055621156E+03 -0.12724480390E+04  0.13577881131E+04  0.25500000920E-02 0. -1.
       -2    1    3    3    0  502  0.55148889291E+02  0.47055621156E+03  0.55656257093E+03  0.73090795836E+03  0.25500000920E-02 0.  1.
</event>
<event>
 5   0  0.6222733E-05  0.1999079E+04  0.7818609E-02  0.8607051E-01
        1   -1    0    0  501    0  0.00000000000E+00  0.00000000000E+00  0.13593933733E+04  0.13593933733E+04  0.50400001928E-02 0.  1.
       -1   -1    0    0    0  501  0.00000000000E+00  0.00000000000E+00 -0.73494483524E+03  0.73494483526E+03  0.50400001928E-02 0. -1.
    10030    2    1    2    0    0  0.00000000000E+00  0.00000000000E+00  0.62444853801E+03  0.20943382085E+04  0.19990789267E+04 0.  0.
        2    1    3    3  502    0 -0.29819654933E+03  0.46533364864E+03  0.11847504705E+04  0.13073217905E+04  0.25500000920E-02 0.  1.
       -2    1    3    3    0  502  0.29819654933E+03 -0.46533364864E+03 -0.56030193251E+03  0.78701641799E+03  0.25500000920E-02 0. -1.
</event>
<event>
 5   0  0.6168338E-05  0.1977775E+04  0.7818609E-02  0.8617082E-01
        1   -1    0    0  501    0  0.00000000000E+00  0.00000000000E+00  0.15641179838E+04  0.15641179838E+04  0.50400001928E-02 0.  1.
       -1   -1    0    0    0  501  0.00000000000E+00  0.00000000000E+00 -0.62520782212E+03  0.62520782214E+03  0.50400001928E-02 0. -1.
    10030    2    1    2    0    0  0.00000000000E+00  0.00000000000E+00  0.93891016166E+03  0.21893258059E+04  0.19777753140E+04 0.  0.
        5    1    3    3  502    0 -0.51359488994E+03 -0.14162558261E+03 -0.45274560730E+03  0.69916964433E+03  0.46999998093E+01 0. -1.
       -5    1    3    3    0  502  0.51359488994E+03  0.14162558261E+03  0.13916557690E+04  0.14901561616E+04  0.46999998093E+01 0.  1.
</event>
<event>
 5   0  0.6222733E-05  0.2021752E+04  0.7818609E-02  0.8596518E-01
        1   -1    0    0  501    0  0.00000000000E+00  0.00000000000E+00  0.17495226730E+04  0.17495226730E+04  0.50400001928E-02 0.  1.
       -1   -1    0    0    0  501  0.00000000000E+00  0.00000000000E+00 -0.58408531851E+03  0.58408531853E+03  0.50400001928E-02 0. -1.
    10030    2    1    2    0    0  0.00000000000E+00  0.00000000000E+00  0.11654373545E+04  0.23336079916E+04  0.20217522180E+04 0.  0.
        2    1    3    3  502    0  0.38130131350E+03 -0.72394535556E+03  0.12679029902E+04  0.15089948847E+04  0.25500000920E-02 0.  1.
       -2    1    3    3    0  502 -0.38130131350E+03  0.72394535556E+03 -0.10246563568E+03  0.82461310687E+03  0.25500000920E-02 0. -1.
</event>
<event>
 5   0  0.1281789E-04  0.2004190E+04  0.7818609E-02  0.8604664E-01
        2   -1    0    0  501    0  0.00000000000E+00  0.00000000000E+00  0.67221445788E+03  0.67221445788E+03  0.25500000920E-02 0. -1.
       -2   -1    0    0    0  501  0.00000000000E+00  0.00000000000E+00 -0.14938605275E+04  0.14938605275E+04  0.25500000920E-02 0.  1.
    10030    2    1    2    0    0  0.00000000000E+00  0.00000000000E+00 -0.82164606958E+03  0.21660749853E+04  0.20041902551E+04 0.  0.
        2    1    3    3  502    0  0.60995786262E+03 -0.79486126925E+03 -0.43079872507E+03  0.10906147684E+04  0.25500000920E-02 0. -1.
       -2    1    3    3    0  502 -0.60995786262E+03  0.79486126925E+03 -0.39084734451E+03  0.10754602169E+04  0.25500000920E-02 0.  1.
</event>
<event>
 5   0  0.1281789E-04  0.2023152E+04  0.7818609E-02  0.8595872E-01
       -2   -1    0    0    0  501  0.00000000000E+00  0.00000000000E+00  0.67851428504E+03  0.67851428504E+03  0.25500000920E-02 0.  1.
        2   -1    0    0  501    0  0.00000000000E+00  0.00000000000E+00 -0.15081274946E+04  0.15081274946E+04  0.25500000920E-02 0. -1.
    10030    2    1    2    0    0  0.00000000000E+00  0.00000000000E+00 -0.82961320955E+03  0.21866417796E+04  0.20231520445E+04 0.  0.
        2    1    3    3  502    0 -0.33327520305E+03 -0.66083790375E+03  0.33048727574E+03  0.81055594220E+03  0.25500000920E-02 0.  1.
       -2    1    3    3    0  502  0.33327520305E+03  0.66083790375E+03 -0.11601004853E+04  0.13760858374E+04  0.25500000920E-02 0. -1.
</event>
<event>
 5   0  0.1159914E-04  0.2023737E+04  0.7818609E-02  0.8595603E-01
        2   -1    0    0  501    0  0.00000000000E+00  0.00000000000E+00  0.22633659712E+04  0.22633659712E+04  0.25500000920E-02 0.  1.
       -2   -1    0    0    0  501  0.00000000000E+00  0.00000000000E+00 -0.45236935763E+03  0.45236935764E+03  0.25500000920E-02 0. -1.
    10030    2    1    2    0    0  0.00000000000E+00  0.00000000000E+00  0.18109966136E+04  0.27157353289E+04  0.20237365545E+04 0.  0.
        3    1    3    3  502    0  0.19467081436E+03  0.93170390460E+03  0.13662914824E+04  0.16651490375E+04  0.10100000352E+00 0.  1.
       -3    1    3    3    0  502 -0.19467081436E+03 -0.93170390460E+03  0.44470513117E+03  0.10505862914E+04  0.10100000352E+00 0. -1.
</event>
<event>
 5   0  0.6256535E-05  0.2010701E+04  0.7818609E-02  0.8601634E-01
       -1   -1    0    0    0  501  0.00000000000E+00  0.00000000000E+00  0.94442232275E+03  0.94442232277E+03  0.50400001928E-02 0.  1.
        1   -1    0    0  501    0  0.00000000000E+00  0.00000000000E+00 -0.10702089824E+04  0.10702089825E+04  0.50400001928E-02 0. -1.
    10030    2    1    2    0    0  0.00000000000E+00  0.00000000000E+00 -0.12578665969E+03  0.20146313052E+04  0.20107006272E+04 0.  0.
        1    1    3    3  502    0 -0.45100464635E+03  0.14886523387E+03  0.82493323207E+03  0.95188281122E+03  0.50400001928E-02 0.  1.
       -1    1    3    3    0  502  0.45100464635E+03 -0.14886523387E+03 -0.95071989176E+03  0.10627484940E+04  0.50400001928E-02 0. -1.
</event>
<event>
 5   0  0.6222733E-05  0.2000223E+04  0.7818609E-02  0.8606517E-01
       -1   -1    0    0    0  501  0.00000000000E+00  0.00000000000E+00  0.74047176663E+03  0.74047176664E+03  0.50400001928E-02 0.  1.
        1   -1    0    0  501    0  0.00000000000E+00  0.00000000000E+00 -0.13507910353E+04  0.13507910353E+04  0.50400001928E-02 0. -1.
    10030    2    1    2    0    0  0.00000000000E+00  0.00000000000E+00 -0.61031926863E+03  0.20912628019E+04  0.20002226119E+04 0.  0.
        2    1    3    3  502    0  0.94006848956E+03 -0.34128421218E+03 -0.30060885697E+03  0.10443032909E+04  0.25500000920E-02 0.  1.
       -2    1    3    3    0  502 -0.94006848956E+03  0.34128421218E+03 -0.30971041166E+03  0.10469595110E+04  0.25500000920E-02 0. -1.
</event>
<event>
 5   0  0.6222733E-05  0.2004916E+04  0.7818609E-02  0.8604326E-01
        1   -1    0    0  501    0  0.00000000000E+00  0.00000000000E+00  0.11678694935E+04  0.11678694935E+04  0.50400001928E-02 0. -1.
       -1   -1    0    0    0  501  0.00000000000E+00  0.00000000000E+00 -0.86047495752E+03  0.86047495753E+03  0.50400001928E-02 0.  1.
    10030    2    1    2    0    0  0.00000000000E+00  0.00000000000E+00  0.30739453601E+03  0.20283444511E+04  0.20049164101E+04 0.  0.
        2    1    3    3  502    0  0.73894378837E+03 -0.32198904829E+03 -0.44926002461E+03  0.92279436459E+03  0.25500000920E-02 0.  1.
       -2    1    3    3    0  502 -0.73894378837E+03  0.32198904829E+03  0.75665456062E+03  0.11055500865E+04  0.25500000920E-02 0. -1.
</event>
<event>
 5   0  0.1159914E-04  0.1986441E+04  0.7818609E-02  0.8612986E-01
        2   -1    0    0  501    0  0.00000000000E+00  0.00000000000E+00  0.64272533597E+03  0.64272533598E+03  0.25500000920E-02 0.  1.
       -2   -1    0    0    0  501  0.00000000000E+00  0.00000000000E+00 -0.15348498713E+04  0.15348498713E+04  0.25500000920E-02 0. -1.
    10030    2    1    2    0    0  0.00000000000E+00  0.00000000000E+00 -0.89212453528E+03  0.21775752072E+04  0.19864409371E+04 0.  0.
        3    1    3    3  502    0  0.28149112039E+02  0.98865932245E+03 -0.34650972300E+03  0.10480022074E+04  0.10100000352E+00 0.  1.
       -3    1    3    3    0  502 -0.28149112039E+02 -0.98865932245E+03 -0.54561481228E+03  0.11295729998E+04  0.10100000352E+00 0. -1.
</event>
<event>
 5   0  0.1281789E-04  0.2004884E+04  0.7818609E-02  0.8604341E-01
       -2   -1    0    0    0  501  0.00000000000E+00  0.00000000000E+00  0.97321015235E+03  0.97321015236E+03  0.25500000920E-02 0.  1.
        2   -1    0    0  501    0  0.00000000000E+00  0.00000000000E+00 -0.10325516400E+04  0.10325516400E+04  0.25500000920E-02 0. -1.
    10030    2    1    2    0    0  0.00000000000E+00  0.00000000000E+00 -0.59341487645E+02  0.20057617924E+04  0.20048837761E+04 0.  0.
        2    1    3    3  502    0  0.80217648317E+03  0.45183075085E+02 -0.62940063610E+03  0.10206242115E+04  0.25500000920E-02 0. -1.
       -2    1    3    3    0  502 -0.80217648317E+03 -0.45183075085E+02  0.57005914846E+03  0.98513758083E+03  0.25500000920E-02 0.  1.
</event>
<event>
 5   0  0.1281789E-04  0.1941699E+04  0.7818609E-02  0.8634374E-01
        2   -1    0    0  501    0  0.00000000000E+00  0.00000000000E+00  0.81767195331E+03  0.81767195332E+03  0.25500000920E-02 0.  1.
       -2   -1    0    0    0  501  0.00000000000E+00  0.00000000000E+00 -0.11527218342E+04  0.11527218342E+04  0.25500000920E-02 0. -1.
    10030    2    1    2    0    0  0.00000000000E+00  0.00000000000E+00 -0.33504988087E+03  0.19703937875E+04  0.19416985490E+04 0.  0.
        2    1    3    3  502    0 -0.11718256395E+01  0.43049169187E+03 -0.10505710141E+04  0.11353518951E+04  0.25500000920E-02 0. -1.
       -2    1    3    3    0  502  0.11718256395E+01 -0.43049169187E+03  0.71552113326E+03  0.83504189242E+03  0.25500000920E-02 0.  1.
</event>
<event>
 5   0  0.6028501E-05  0.1986938E+04  0.7818609E-02  0.8612752E-01
       -1   -1    0    0    0  501  0.00000000000E+00  0.00000000000E+00  0.93059615458E+03  0.93059615460E+03  0.50400001928E-02 0.  1.
        1   -1    0    0  501    0  0.00000000000E+00  0.00000000000E+00 -0.10605899467E+04  0.10605899468E+04  0.50400001928E-02 0. -1.
    10030    2    1    2    0    0  0.00000000000E+00  0.00000000000E+00 -0.12999379216E+03  0.19911861014E+04  0.19869382739E+04 0.  0.
        4    1    3    3  502    0 -0.26999950819E+03 -0.84162123741E+03  0.38957318850E+03  0.96591662362E+03  0.12699999809E+01 0.  1.
       -4    1    3    3    0  502  0.26999950819E+03  0.84162123741E+03 -0.51956698066E+03  0.10252694777E+04  0.12699999809E+01 0. -1.
</event>
<event>
 5   0  0.4479000E-05  0.2026557E+04  0.7818609E-02  0.8594304E-01
        3   -1    0    0  501    0  0.00000000000E+00  0.00000000000E+00  0.10680175197E+04  0.10680175245E+04  0.10100000352E+00 0.  1.
       -3   -1    0    0    0  501  0.00000000000E+00  0.00000000000E+00 -0.96134527120E+03  0.96134527650E+03  0.10100000352E+00 0. -1.
    10030    2    1    2    0    0  0.00000000000E+00  0.00000000000E+00  0.10667224852E+03  0.20293628010E+04  0.20265572801E+04 0.  0.
        3    1    3    3  502    0  0.16397137294E+03  0.46350549636E+02  0.10535675491E+04  0.10672579704E+04  0.10100000352E+00 0.  1.
       -3    1    3    3    0  502 -0.16397137294E+03 -0.46350549636E+02 -0.94689530059E+03  0.96210483061E+03  0.10100000352E+00 0. -1.
</event>
<event>
 5   0  0.1274868E-04  0.1998614E+04  0.7818609E-02  0.8607269E-01
       -2   -1    0    0    0  501  0.00000000000E+00  0.00000000000E+00  0.90799294863E+03  0.90799294863E+03  0.25500000920E-02 0. -1.
        2   -1    0    0  501    0  0.00000000000E+00  0.00000000000E+00 -0.10998045000E+04  0.10998045000E+04  0.25500000920E-02 0.  1.
    10030    2    1    2    0    0  0.00000000000E+00  0.00000000000E+00 -0.19181155141E+03  0.20077974487E+04  0.19986142508E+04 0.  0.
        1    1    3    3  502    0  0.92552858585E+03  0.12788268171E+03  0.26020513236E+03  0.96987826784E+03  0.50400001928E-02 0. -1.
       -1    1    3    3    0  502 -0.92552858585E+03 -0.12788268171E+03 -0.45201668377E+03  0.10379191808E+04  0.50400001928E-02 0.  1.
</event>
<event>
 5   0  0.1159914E-04  0.1976391E+04  0.7818609E-02  0.8617739E-01
       -2   -1    0    0    0  501  0.00000000000E+00  0.00000000000E+00  0.53366399977E+03  0.53366399977E+03  0.25500000920E-02 0.  1.
        2   -1    0    0  501    0  0.00000000000E+00  0.00000000000E+00 -0.18298602031E+04  0.18298602031E+04  0.25500000920E-02 0. -1.
    10030    2    1    2    0    0  0.00000000000E+00  0.00000000000E+00 -0.12961962033E+04  0.23635242028E+04  0.19763911708E+04 0.  0.
        3    1    3    3  502    0 -0.53653861400E+02 -0.92578060672E+03 -0.23977592581E+03  0.95783139091E+03  0.10100000352E+00 0. -1.
       -3    1    3    3    0  502  0.53653861400E+02  0.92578060672E+03 -0.10564202775E+04  0.14056928119E+04  0.10100000352E+00 0.  1.
</event>
<event>
 5   0  0.4479000E-05  0.2001120E+04  0.7818609E-02  0.8606097E-01
        4   -1    0    0  501    0  0.00000000000E+00  0.00000000000E+00  0.49719325630E+03  0.49719487830E+03  0.12699999809E+01 0.  1.
       -4   -1    0    0    0  501  0.00000000000E+00  0.00000000000E+00 -0.20135379249E+04  0.20135383255E+04  0.12699999809E+01 0. -1.
    10030    2    1    2    0    0  0.00000000000E+00  0.00000000000E+00 -0.15163446686E+04  0.25107332038E+04  0.20011197032E+04 0.  0.
        5    1    3    3  502    0  0.76914710152E+03 -0.44211945112E+03 -0.17770733469E+03  0.90479768990E+03  0.46999998093E+01 0. -1.
       -5    1    3    3    0  502 -0.76914710152E+03  0.44211945112E+03 -0.13386373340E+04  0.16059355139E+04  0.46999998093E+01 0.  1.
</event>
<event>
 5   0  0.1159914E-04  0.1999040E+04  0.7818609E-02  0.8607070E-01
        2   -1    0    0  501    0  0.00000000000E+00  0.00000000000E+00  0.12241906089E+04  0.12241906089E+04  0.25500000920E-02 0.  1.
       -2   -1    0    0    0  501  0.00000000000E+00  0.00000000000E+00 -0.81608244075E+03  0.81608244075E+03  0.25500000920E-02 0. -1.
    10030    2    1    2    0    0  0.00000000000E+00  0.00000000000E+00  0.40810816816E+03  0.20402730497E+04  0.19990402298E+04 0.  0.
        3    1    3    3  502    0  0.47240966688E+03  0.40002216054E+03  0.10050031072E+04  0.11803473548E+04  0.10100000352E+00 0.  1.
       -3    1    3    3    0  502 -0.47240966688E+03 -0.40002216054E+03 -0.59689493903E+03  0.85992569488E+03  0.10100000352E+00 0. -1.
</event>
<event>
 5   0  0.1281789E-04  0.2056344E+04  0.7818609E-02  0.8580722E-01
        2   -1    0    0  501    0  0.00000000000E+00  0.00000000000E+00  0.29739687008E+04  0.29739687008E+04  0.25500000920E-02 0. -1.
       -2   -1    0    0    0  501  0.00000000000E+00  0.00000000000E+00 -0.35546374537E+03  0.35546374538E+03  0.25500000920E-02 0.  1.
    10030    2    1    2    0    0  0.00000000000E+00  0.00000000000E+00  0.26185049554E+04  0.33294324461E+04  0.20563443807E+04 0.  0.
        2    1    3    3  502    0  0.88924788331E+02 -0.85483936571E+03  0.39552748296E+03  0.94609721960E+03  0.25500000920E-02 0.  1.
       -2    1    3    3    0  502 -0.88924788331E+02  0.85483936571E+03  0.22229774724E+04  0.23833352265E+04  0.25500000920E-02 0. -1.
</event>
<event>
 5   0  0.1159914E-04  0.1973793E+04  0.7818609E-02  0.8618972E-01
        2   -1    0    0  501    0  0.00000000000E+00  0.00000000000E+00  0.10250008053E+04  0.10250008053E+04  0.25500000920E-02 0. -1.
       -2   -1    0    0    0  501  0.00000000000E+00  0.00000000000E+00 -0.95020842376E+03  0.95020842376E+03  0.25500000920E-02 0.  1.
    10030    2    1    2    0    0  0.00000000000E+00  0.00000000000E+00  0.74792381506E+02  0.19752092290E+04  0.19737926938E+04 0.  0.
        3    1    3    3  502    0 -0.20502885136E+03  0.88048587736E+03 -0.35870624335E+03  0.97260597846E+03  0.10100000352E+00 0.  1.
       -3    1    3    3    0  502  0.20502885136E+03 -0.88048587736E+03  0.43349862486E+03  0.10026032506E+04  0.10100000352E+00 0. -1.
</event>
<event>
 5   0  0.6168338E-05  0.2042860E+04  0.7818609E-02  0.8586841E-01
       -1   -1    0    0    0  501  0.00000000000E+00  0.00000000000E+00  0.18490901064E+04  0.18490901064E+04  0.50400001928E-02 0. -1.
        1   -1    0    0  501    0  0.00000000000E+00  0.00000000000E+00 -0.56423361725E+03  0.56423361727E+03  0.50400001928E-02 0.  1.
    10030    2    1    2    0    0  0.00000000000E+00  0.00000000000E+00  0.12848564892E+04  0.24133237237E+04  0.20428595638E+04 0.  0.
        5    1    3    3  502    0  0.10077302197E+04  0.28853860728E+02  0.83634165760E+03  0.13099015991E+04  0.46999998093E+01 0. -1.
       -5    1    3    3    0  502 -0.10077302197E+04 -0.28853860728E+02  0.44851483156E+03  0.11034221246E+04  0.46999998093E+01 0.  1.
</event>
<event>
 5   0  0.6168338E-05  0.1978297E+04  0.7818609E-02  0.8616835E-01
        1   -1    0    0  501    0  0.00000000000E+00  0.00000000000E+00  0.68546303018E+03  0.68546303020E+03  0.50400001928E-02 0. -1.
       -1   -1    0    0    0  501  0.00000000000E+00  0.00000000000E+00 -0.14273777364E+04  0.14273777364E+04  0.50400001928E-02 0.  1.
    10030    2    1    2    0    0  0.00000000000E+00  0.00000000000E+00 -0.74191470625E+03  0.21128407666E+04  0.19782969125E+04 0.  0.
        5    1    3    3  502    0  0.52968137733E+03 -0.19374182251E+03 -0.12388061714E+04  0.13611616640E+04  0.46999998093E+01 0.  1.
       -5    1    3    3    0  502 -0.52968137733E+03  0.19374182251E+03  0.49689146511E+03  0.75167910266E+03  0.46999998093E+01 0. -1.
</event>
<event>
 5   0  0.1274868E-04  0.1985178E+04  0.7818609E-02  0.8613582E-01
        2   -1    0    0  501    0  0.00000000000E+00  0.00000000000E+00  0.13087297447E+04  0.13087297447E+04  0.25500000920E-02 0. -1.
       -2   -1    0    0    0  501  0.00000000000E+00  0.00000000000E+00 -0.75281650379E+03  0.75281650379E+03  0.25500000920E-02 0.  1.
    10030    2    1    2    0    0  0.00000000000E+00  0.00000000000E+00  0.55591324093E+03  0.20615462485E+04  0.19851784311E+04 0.  0.
        1    1    3    3  502    0 -0.68821912661E+03 -0.61667007606E+03 -0.98344483391E+02  0.92930037468E+03  0.50400001928E-02 0.  1.
       -1    1    3    3    0  502  0.68821912661E+03  0.61667007606E+03  0.65425772432E+03  0.11322458738E+04  0.50400001928E-02 0. -1.
</event>
<event>
 5   0  0.6222733E-05  0.1960467E+04  0.7818609E-02  0.8625330E-01
       -1   -1    0    0    0  501  0.00000000000E+00  0.00000000000E+00  0.15385223096E+04  0.15385223096E+04  0.50400001928E-02 0.  1.
        1   -1    0    0  501    0  0.00000000000E+00  0.00000000000E+00 -0.62453297368E+03  0.62453297370E+03  0.50400001928E-02 0. -1.
    10030    2    1    2    0    0  0.00000000000E+00  0.00000000000E+00  0.91398933588E+03  0.21630552833E+04  0.19604672026E+04 0.  0.
        2    1    3    3  502    0 -0.96383727056E+03 -0.17528592799E+03  0.49441831777E+03  0.10973408375E+04  0.25500000920E-02 0. -1.
       -2    1    3    3    0  502  0.96383727056E+03  0.17528592799E+03  0.41957101812E+03  0.10657144458E+04  0.25500000920E-02 0.  1.
</event>
<event>
 5   0  0.1281789E-04  0.1997180E+04  0.7818609E-02  0.8607940E-01
       -2   -1    0    0    0  501  0.00000000000E+00  0.00000000000E+00  0.14004131041E+04  0.14004131041E+04  0.25500000920E-02 0.  1.
        2   -1    0    0  501    0  0.00000000000E+00  0.00000000000E+00 -0.71206295493E+03  0.71206295493E+03  0.25500000920E-02 0. -1.
    10030    2    1    2    0    0  0.00000000000E+00  0.00000000000E+00  0.68835014915E+03  0.21124760590E+04  0.19971803053E+04 0.  0.
        2    1    3    3  502    0 -0.22373674060E+03 -0.62955924970E+03  0.11291636421E+04  0.13120264893E+04  0.25500000920E-02 0.  1.
       -2    1    3    3    0  502  0.22373674060E+03  0.62955924970E+03 -0.44081349300E+03  0.80044956967E+03  0.25500000920E-02 0. -1.
</event>
<event>
 5   0  0.6256535E-05  0.1942763E+04  0.7818609E-02  0.8633859E-01
        1   -1    0    0  501    0  0.00000000000E+00  0.00000000000E+00  0.13526989318E+04  0.13526989318E+04  0.50400001928E-02 0.  1.
       -1   -1    0    0    0  501  0.00000000000E+00  0.00000000000E+00 -0.69755501333E+03  0.69755501335E+03  0.50400001928E-02 0. -1.
    10030    2    1    2    0    0  0.00000000000E+00  0.00000000000E+00  0.65514391843E+03  0.20502539451E+04  0.19427629000E+04 0.  0.
        1    1    3    3  502    0  0.43080926870E+03  0.78828575386E+03 -0.62458642998E+02  0.90049549574E+03  0.50400001928E-02 0.  1.
       -1    1    3    3    0  502 -0.43080926870E+03 -0.78828575386E+03  0.71760256142E+03  0.11497584494E+04  0.50400001928E-02 0. -1.
</event>
<event>
 5   0  0.1242761E-04  0.1993833E+04  0.7818609E-02  0.8609510E-01
       -2   -1    0    0    0  501  0.00000000000E+00  0.00000000000E+00  0.70028024380E+03  0.70028024380E+03  0.25500000920E-02 0. -1.
        2   -1    0    0  501    0  0.00000000000E+00  0.00000000000E+00 -0.14192061231E+04  0.14192061231E+04  0.25500000920E-02 0.  1.
    10030    2    1    2    0    0  0.00000000000E+00  0.00000000000E+00 -0.71892587928E+03  0.21194863669E+04  0.19938325004E+04 0.  0.
        4    1    3    3  502    0  0.95685530047E+03 -0.14108807748E+02 -0.65648042892E+03  0.11604909698E+04  0.12699999809E+01 0.  1.
       -4    1    3    3    0  502 -0.95685530047E+03  0.14108807748E+02 -0.62445450355E+02  0.95899539710E+03  0.12699999809E+01 0. -1.
</event>
<event>
 5   0  0.6028501E-05  0.1970293E+04  0.7818609E-02  0.8620637E-01
        1   -1    0    0  501    0  0.00000000000E+00  0.00000000000E+00  0.18338621728E+04  0.18338621728E+04  0.50400001928E-02 0. -1.
       -1   -1    0    0    0  501  0.00000000000E+00  0.00000000000E+00 -0.52921831317E+03  0.52921831320E+03  0.50400001928E-02 0.  1.
    10030    2    1    2    0    0  0.00000000000E+00  0.00000000000E+00  0.13046438596E+04  0.23630804860E+04  0.19702928165E+04 0.  0.
        4    1    3    3  502    0 -0.39558325345E+03  0.70727017228E+03 -0.19525237794E+02  0.81061708273E+03  0.12699999809E+01 0.  1.
       -4    1    3    3    0  502  0.39558325345E+03 -0.70727017228E+03  0.13241690974E+04  0.15524634032E+04  0.12699999809E+01 0. -1.
</event>
<event>
 5   0  0.1244229E-04  0.1999429E+04  0.7818609E-02  0.8606888E-01
        2   -1    0    0  501    0  0.00000000000E+00  0.00000000000E+00  0.10180428789E+04  0.10180428789E+04  0.25500000920E-02 0. -1.
       -2   -1    0    0    0  501  0.00000000000E+00  0.00000000000E+00 -0.98171571869E+03  0.98171571869E+03  0.25500000920E-02 0.  1.
    10030    2    1    2    0    0  0.00000000000E+00  0.00000000000E+00  0.36327160165E+02  0.19997585976E+04  0.19994286149E+04 0.  0.
        5    1    3    3  502    0 -0.91934425231E+03  0.26715896286E+03 -0.26970129488E+03  0.99465001089E+03  0.46999998093E+01 0. -1.
       -5    1    3    3    0  502  0.91934425231E+03 -0.26715896286E+03  0.30602845505E+03  0.10051085867E+04  0.46999998093E+01 0.  1.
</event>
<event>
 5   0  0.6028501E-05  0.1995455E+04  0.7818609E-02  0.8608748E-01
        1   -1    0    0  501    0  0.00000000000E+00  0.00000000000E+00  0.12144088140E+04  0.12144088140E+04  0.50400001928E-02 0.  1.
       -1   -1    0    0    0  501  0.00000000000E+00  0.00000000000E+00 -0.81970770777E+03  0.81970770779E+03  0.50400001928E-02 0. -1.
    10030    2    1    2    0    0  0.00000000000E+00  0.00000000000E+00  0.39470110622E+03  0.20341165218E+04  0.19954551012E+04 0.  0.
        4    1    3    3  502    0 -0.38142765167E+03  0.51792195309E+02 -0.74096668277E+03  0.83498666027E+03  0.12699999809E+01 0. -1.
       -4    1    3    3    0  502  0.38142765167E+03 -0.51792195309E+02  0.11356677890E+04  0.11991298615E+04  0.12699999809E+01 0.  1.
</event>
<event>
 5   0  0.6168338E-05  0.1945244E+04  0.7818609E-02  0.8632658E-01
        1   -1    0    0  501    0  0.00000000000E+00  0.00000000000E+00  0.12566550993E+04  0.12566550993E+04  0.50400001928E-02 0.  1.
       -1   -1    0    0    0  501  0.00000000000E+00  0.00000000000E+00 -0.75278683325E+03  0.75278683327E+03  0.50400001928E-02 0. -1.
    10030    2    1    2    0    0  0.00000000000E+00  0.00000000000E+00  0.50386826604E+03  0.20094419326E+04  0.19452438538E+04 0.  0.
        5    1    3    3  502    0  0.16135044048E+03 -0.14594682364E+03 -0.72731575072E+03  0.75917371610E+03  0.46999998093E+01 0. -1.
       -5    1    3    3    0  502 -0.16135044048E+03  0.14594682364E+03  0.12311840168E+04  0.12502682165E+04  0.46999998093E+01 0.  1.
</event>
<event>
 5   0  0.1274868E-04  0.2003493E+04  0.7818609E-02  0.8604989E-01
        2   -1    0    0  501    0  0.00000000000E+00  0.00000000000E+00  0.10294505959E+04  0.10294505959E+04  0.25500000920E-02 0. -1.
       -2   -1    0    0    0  501  0.00000000000E+00  0.00000000000E+00 -0.97478826421E+03  0.97478826421E+03  0.25500000920E-02 0.  1.
    10030    2    1    2    0    0  0.00000000000E+00  0.00000000000E+00  0.54662331658E+02  0.20042388601E+04  0.20034933086E+04 0.  0.
        1    1    3    3  502    0 -0.64346529190E+03 -0.21439322529E+03 -0.71015706239E+03  0.98200564674E+03  0.50400001928E-02 0.  1.
       -1    1    3    3    0  502  0.64346529190E+03  0.21439322529E+03  0.76481939405E+03  0.10222332133E+04  0.50400001928E-02 0. -1.
</event>
<event>
 5   0  0.6168338E-05  0.2016227E+04  0.7818609E-02  0.8599071E-01
       -1   -1    0    0    0  501  0.00000000000E+00  0.00000000000E+00  0.65844937999E+03  0.65844938001E+03  0.50400001928E-02 0. -1.
        1   -1    0    0  501    0  0.00000000000E+00  0.00000000000E+00 -0.15434635537E+04  0.15434635537E+04  0.50400001928E-02 0.  1.
    10030    2    1    2    0    0  0.00000000000E+00  0.00000000000E+00 -0.88501417369E+03  0.22019129337E+04  0.20162267928E+04 0.  0.
        5    1    3    3  502    0  0.87176286322E+03 -0.49309089710E+03 -0.56779579426E+03  0.11513137177E+04  0.46999998093E+01 0. -1.
       -5    1    3    3    0  502 -0.87176286322E+03  0.49309089710E+03 -0.31721837943E+03  0.10505992160E+04  0.46999998093E+01 0.  1.
</event>
<event>
 5   0  0.1274868E-04  0.1946761E+04  0.7818609E-02  0.8631924E-01
       -2   -1    0    0    0  501  0.00000000000E+00  0.00000000000E+00  0.37541432318E+03  0.37541432319E+03  0.25500000920E-02 0. -1.
        2   -1    0    0  501    0  0.00000000000E+00  0.00000000000E+00 -0.25237973972E+04  0.25237973972E+04  0.25500000920E-02 0.  1.
    10030    2    1    2    0    0  0.00000000000E+00  0.00000000000E+00 -0.21483830741E+04  0.28992117204E+04  0.19467610965E+04 0.  0.
        1    1    3    3  502    0  0.55716870233E+03  0.13585371398E+03  0.97097235498E+02  0.58165373516E+03  0.50400001928E-02 0. -1.
       -1    1    3    3    0  502 -0.55716870233E+03 -0.13585371398E+03 -0.22454803096E+04  0.23175579853E+04  0.50400001928E-02 0.  1.
</event>
<event>
 5   0  0.6214547E-05  0.2000399E+04  0.7818609E-02  0.8606434E-01
       -1   -1    0    0    0  501  0.00000000000E+00  0.00000000000E+00  0.90716119974E+03  0.90716119975E+03  0.50400001928E-02 0. -1.
        1   -1    0    0  501    0  0.00000000000E+00  0.00000000000E+00 -0.11027794743E+04  0.11027794743E+04  0.50400001928E-02 0.  1.
    10030    2    1    2    0    0  0.00000000000E+00  0.00000000000E+00 -0.19561827454E+03  0.20099406740E+04  0.20003987112E+04 0.  0.
        3    1    3    3  502    0  0.15685480773E+03 -0.66541466228E+03  0.63575462645E+03  0.93357595231E+03  0.10100000352E+00 0. -1.
       -3    1    3    3    0  502 -0.15685480773E+03  0.66541466228E+03 -0.83137290099E+03  0.10763647217E+04  0.10100000352E+00 0.  1.
</event>
<event>
 5   0  0.6168338E-05  0.1943091E+04  0.7818609E-02  0.8633699E-01
       -1   -1    0    0    0  501  0.00000000000E+00  0.00000000000E+00  0.10174611781E+04  0.10174611781E+04  0.50400001928E-02 0. -1.
        1   -1    0    0  501    0  0.00000000000E+00  0.00000000000E+00 -0.92770215349E+03  0.92770215351E+03  0.50400001928E-02 0.  1.
    10030    2    1    2    0    0  0.00000000000E+00  0.00000000000E+00  0.89759024595E+02  0.19451633316E+04  0.19430912753E+04 0.  0.
        5    1    3    3  502    0  0.13844336332E+03  0.13828460355E+03 -0.90776000954E+03  0.92862237823E+03  0.46999998093E+01 0.  1.
       -5    1    3    3    0  502 -0.13844336332E+03 -0.13828460355E+03  0.99751903414E+03  0.10165409534E+04  0.46999998093E+01 0. -1.
</event>
<event>
 5   0  0.1242761E-04  0.1992047E+04  0.7818609E-02  0.8610348E-01
        2   -1    0    0  501    0  0.00000000000E+00  0.00000000000E+00  0.17703188572E+04  0.17703188572E+04  0.25500000920E-02 0. -1.
       -2   -1    0    0    0  501  0.00000000000E+00  0.00000000000E+00 -0.56038653196E+03  0.56038653196E+03  0.25500000920E-02 0.  1.
    10030    2    1    2    0    0  0.00000000000E+00  0.00000000000E+00  0.12099323253E+04  0.23307053892E+04  0.19920470324E+04 0.  0.
        4    1    3    3  502    0  0.62272426448E+03  0.77558286366E+03  0.66628765206E+03  0.11971863415E+04  0.12699999809E+01 0.  1.
       -4    1    3    3    0  502 -0.62272426448E+03 -0.77558286366E+03  0.54364467321E+03  0.11335190477E+04  0.12699999809E+01 0. -1.
</event>
<event>
 5   0  0.1281789E-04  0.1988923E+04  0.7818609E-02  0.8611817E-01
        2   -1    0    0  501    0  0.00000000000E+00  0.00000000000E+00  0.12124842369E+04  0.12124842369E+04  0.25500000920E-02 0.  1.
       -2   -1    0    0    0  501  0.00000000000E+00  0.00000000000E+00 -0.81564248824E+03  0.81564248824E+03  0.25500000920E-02 0. -1.
    10030    2    1    2    0    0  0.00000000000E+00  0.00000000000E+00  0.39684174863E+03  0.20281267251E+04  0.19889229848E+04 0.  0.
        2    1    3    3  502    0 -0.38153455426E+03  0.40663184608E+03 -0.64123893319E+03  0.84976787641E+03  0.25500000920E-02 0. -1.
       -2    1    3    3    0  502  0.38153455426E+03 -0.40663184608E+03  0.10380806818E+04  0.11783588487E+04  0.25500000920E-02 0.  1.
</event>
<event>
 5   0  0.6028501E-05  0.2001579E+04  0.7818609E-02  0.8605883E-01
        1   -1    0    0  501    0  0.00000000000E+00  0.00000000000E+00  0.23896229526E+04  0.23896229526E+04  0.50400001928E-02 0.  1.
       -1   -1    0    0    0  501  0.00000000000E+00  0.00000000000E+00 -0.41913715866E+03  0.41913715870E+03  0.50400001928E-02 0. -1.
    10030    2    1    2    0    0  0.00000000000E+00  0.00000000000E+00  0.19704857939E+04  0.28087601113E+04  0.20015791512E+04 0.  0.
        4    1    3    3  502    0  0.73361275412E+02  0.92359143853E+03  0.45426592319E+03  0.10318731336E+04  0.12699999809E+01 0. -1.
       -4    1    3    3    0  502 -0.73361275412E+02 -0.92359143853E+03  0.15162198707E+04  0.17768869776E+04  0.12699999809E+01 0.  1.
</event>
<event>
 5   0  0.1244229E-04  0.1982491E+04  0.7818609E-02  0.8614851E-01
       -2   -1    0    0    0  501  0.00000000000E+00  0.00000000000E+00  0.13715170838E+04  0.13715170838E+04  0.25500000920E-02 0. -1.
        2   -1    0    0  501    0  0.00000000000E+00  0.00000000000E+00 -0.71640917292E+03  0.71640917292E+03  0.25500000920E-02 0.  1.
    10030    2    1    2    0    0  0.00000000000E+00  0.00000000000E+00  0.65510791087E+03  0.20879262567E+04  0.19824907764E+04 0.  0.
        5    1    3    3  502    0 -0.98156801204E+03 -0.11646230154E+03  0.40570342162E+03  0.10684833112E+04  0.46999998093E+01 0. -1.
       -5    1    3    3    0  502  0.98156801204E+03  0.11646230154E+03  0.24940448924E+03  0.10194429455E+04  0.46999998093E+01 0.  1.
</event>
<event>
 5   0  0.6256535E-05  0.2002787E+04  0.7818609E-02  0.8605319E-01
       -1   -1    0    0    0  501  0.00000000000E+00  0.00000000000E+00  0.11775244104E+04  0.11775244104E+04  0.50400001928E-02 0. -1.
        1   -1    0    0  501    0  0.00000000000E+00  0.00000000000E+00 -0.85160786161E+03  0.85160786162E+03  0.50400001928E-02 0.  1.
    10030    2    1    2    0    0  0.00000000000E+00  0.00000000000E+00  0.32591654882E+03  0.20291322721E+04  0.20027871032E+04 0.  0.
        1    1    3    3  502    0 -0.55466418682E+03 -0.73654226640E+03  0.55879204613E+03  0.10781444343E+04  0.50400001928E-02 0. -1.
       -1    1    3    3    0  502  0.55466418682E+03  0.73654226640E+03 -0.23287549731E+03  0.95098783778E+03  0.50400001928E-02 0.  1.
</event>
<event>
 5   0  0.1242761E-04  0.1995074E+04  0.7818609E-02  0.8608927E-01
        2   -1    0    0  501    0  0.00000000000E+00  0.00000000000E+00  0.12595543539E+04  0.12595543539E+04  0.25500000920E-02 0.  1.
       -2   -1    0    0    0  501  0.00000000000E+00  0.00000000000E+00 -0.79002589948E+03  0.79002589948E+03  0.25500000920E-02 0. -1.
    10030    2    1    2    0    0  0.00000000000E+00  0.00000000000E+00  0.46952845444E+03  0.20495802534E+04  0.19950744963E+04 0.  0.
        4    1    3    3  502    0 -0.15111365183E+03 -0.98602233833E+03  0.23670285863E+03  0.10252342384E+04  0.12699999809E+01 0.  1.
       -4    1    3    3    0  502  0.15111365183E+03  0.98602233833E+03  0.23282559581E+03  0.10243460150E+04  0.12699999809E+01 0. -1.
</event>
<event>
 5   0  0.6222733E-05  0.1993290E+04  0.7818609E-02  0.8609764E-01
       -1   -1    0    0    0  501  0.00000000000E+00  0.00000000000E+00  0.73209631384E+03  0.73209631386E+03  0.50400001928E-02 0.  1.
        1   -1    0    0  501    0  0.00000000000E+00  0.00000000000E+00 -0.13567910833E+04  0.13567910833E+04  0.50400001928E-02 0. -1.
    10030    2    1    2    0    0  0.00000000000E+00  0.00000000000E+00 -0.62469476950E+03  0.20888873972E+04  0.19932904964E+04 0.  0.
        2    1    3    3  502    0  0.55868165653E+03  0.77028171449E+03 -0.17504840758E+01  0.95155776347E+03  0.25500000920E-02 0. -1.
       -2    1    3    3    0  502 -0.55868165653E+03 -0.77028171449E+03 -0.62294428542E+03  0.11373296337E+04  0.25500000920E-02 0.  1.
</event>
<event>
 5   0  0.6222733E-05  0.1996729E+04  0.7818609E-02  0.8608151E-01
       -1   -1    0    0    0  501  0.00000000000E+00  0.00000000000E+00  0.20471929188E+04  0.20471929188E+04  0.50400001928E-02 0. -1.
        1   -1    0    0  501    0  0.00000000000E+00  0.00000000000E+00 -0.48687735138E+03  0.48687735140E+03  0.50400001928E-02 0.  1.
    10030    2    1    2    0    0  0.00000000000E+00  0.00000000000E+00  0.15603155674E+04  0.25340702702E+04  0.19967291915E+04 0.  0.
        2    1    3    3  502    0 -0.24279839727E+03  0.96718796679E+03  0.71892084407E+03  0.12293294127E+04  0.25500000920E-02 0. -1.
       -2    1    3    3    0  502  0.24279839727E+03 -0.96718796679E+03  0.84139472334E+03  0.13047408575E+04  0.25500000920E-02 0.  1.
</event>
<event>
 5   0  0.1281789E-04  0.1986924E+04  0.7818609E-02  0.8612759E-01
       -2   -1    0    0    0  501  0.00000000000E+00  0.00000000000E+00  0.68737949627E+03  0.68737949628E+03  0.25500000920E-02 0. -1.
        2   -1    0    0  501    0  0.00000000000E+00  0.00000000000E+00 -0.14358397969E+04  0.14358397969E+04  0.25500000920E-02 0.  1.
    10030    2    1    2    0    0  0.00000000000E+00  0.00000000000E+00 -0.74846030062E+03  0.21232192932E+04  0.19869240915E+04 0.  0.
        2    1    3    3  502    0  0.60986289387E+03  0.17974361652E+02  0.46358666369E+03  0.76626915751E+03  0.25500000920E-02 0. -1.
       -2    1    3    3    0  502 -0.60986289387E+03 -0.17974361652E+02 -0.12120469643E+04  0.13569501357E+04  0.25500000920E-02 0.  1.
</event>
<event>
 5   0  0.6168338E-05  0.2008574E+04  0.7818609E-02  0.8602623E-01
       -1   -1    0    0    0  501  0.00000000000E+00  0.00000000000E+00  0.77952677910E+03  0.77952677912E+03  0.50400001928E-02 0. -1.
        1   -1    0    0  501    0  0.00000000000E+00  0.00000000000E+00 -0.12938521237E+04  0.12938521237E+04  0.50400001928E-02 0.  1.
    10030    2    1    2    0    0  0.00000000000E+00  0.00000000000E+00 -0.51432534457E+03  0.20733789028E+04  0.20085740003E+04 0.  0.
        5    1    3    3  502    0  0.12811086572E+03  0.89273080016E+03 -0.71321973952E+03  0.11498196216E+04  0.46999998093E+01 0.  1.
       -5    1    3    3    0  502 -0.12811086572E+03 -0.89273080016E+03  0.19889439496E+03  0.92355928116E+03  0.46999998093E+01 0. -1.
</event>
<event>
 5   0  0.6028501E-05  0.1887421E+04  0.7818609E-02  0.8661143E-01
       -1   -1    0    0    0  501  0.00000000000E+00  0.00000000000E+00  0.10047150863E+04  0.10047150863E+04  0.50400001928E-02 0. -1.
        1   -1    0    0  501    0  0.00000000000E+00  0.00000000000E+00 -0.88640969871E+03  0.88640969872E+03  0.50400001928E-02 0.  1.
    10030    2    1    2    0    0  0.00000000000E+00  0.00000000000E+00  0.11830538758E+03  0.18911247850E+04  0.18874206706E+04 0.  0.
        4    1    3    3  502    0 -0.32479300836E+03  0.46725570236E+03  0.81347091392E+03  0.99275119258E+03  0.12699999809E+01 0. -1.
       -4    1    3    3    0  502  0.32479300836E+03 -0.46725570236E+03 -0.69516552635E+03  0.89837359244E+03  0.12699999809E+01 0.  1.
</event>
<event>
 5   0  0.6168338E-05  0.1929635E+04  0.7818609E-02  0.8640244E-01
        1   -1    0    0  501    0  0.00000000000E+00  0.00000000000E+00  0.99287107240E+03  0.99287107242E+03  0.50400001928E-02 0. -1.
       -1   -1    0    0    0  501  0.00000000000E+00  0.00000000000E+00 -0.93755652789E+03  0.93755652790E+03  0.50400001928E-02 0.  1.
    10030    2    1    2    0    0  0.00000000000E+00  0.00000000000E+00  0.55314544513E+02  0.19304276003E+04  0.19296349451E+04 0.  0.
        5    1    3    3  502    0 -0.94386942185E+03  0.16398562526E+03  0.14202787344E+03  0.96849097964E+03  0.46999998093E+01 0. -1.
       -5    1    3    3    0  502  0.94386942185E+03 -0.16398562526E+03 -0.86713328930E+02  0.96193662069E+03  0.46999998093E+01 0.  1.
</event>
<event>
 5   0  0.1281789E-04  0.1985457E+04  0.7818609E-02  0.8613450E-01
       -2   -1    0    0    0  501  0.00000000000E+00  0.00000000000E+00  0.13711389565E+04  0.13711389565E+04  0.25500000920E-02 0.  1.
        2   -1    0    0  501    0  0.00000000000E+00  0.00000000000E+00 -0.71875306896E+03  0.71875306896E+03  0.25500000920E-02 0. -1.
    10030    2    1    2    0    0  0.00000000000E+00  0.00000000000E+00  0.65238588750E+03  0.20898920254E+04  0.19854574616E+04 0.  0.
        2    1    3    3  502    0  0.81891612772E+03 -0.84356688441E+02 -0.25775867739E+03  0.86265822369E+03  0.25500000920E-02 0. -1.
       -2    1    3    3    0  502 -0.81891612772E+03  0.84356688441E+02  0.91014456488E+03  0.12272338017E+04  0.25500000920E-02 0.  1.
</event>
<event>
 5   0  0.1281789E-04  0.2004727E+04  0.7818609E-02  0.8604414E-01
        2   -1    0    0  501    0  0.00000000000E+00  0.00000000000E+00  0.19743988588E+04  0.19743988588E+04  0.25500000920E-02 0.  1.
       -2   -1    0    0    0  501  0.00000000000E+00  0.00000000000E+00 -0.50888018107E+03  0.50888018108E+03  0.25500000920E-02 0. -1.
    10030    2    1    2    0    0  0.00000000000E+00  0.00000000000E+00  0.14655186777E+04  0.24832790398E+04  0.20047268630E+04 0.  0.
        2    1    3    3  502    0  0.47348225589E+03  0.20548087063E+03  0.17971326752E+04  0.18697843959E+04  0.25500000920E-02 0.  1.
       -2    1    3    3    0  502 -0.47348225589E+03 -0.20548087063E+03 -0.33161399749E+03  0.61349464397E+03  0.25500000920E-02 0. -1.
</event>
<event>
 5   0  0.6256535E-05  0.1990030E+04  0.7818609E-02  0.8611296E-01
       -1   -1    0    0    0  501  0.00000000000E+00  0.00000000000E+00  0.87414309614E+03  0.87414309616E+03  0.50400001928E-02 0. -1.
        1   -1    0    0  501    0  0.00000000000E+00  0.00000000000E+00 -0.11326007455E+04  0.11326007455E+04  0.50400001928E-02 0.  1.
    10030    2    1    2    0    0  0.00000000000E+00  0.00000000000E+00 -0.25845764934E+03  0.20067438416E+04  0.19900302735E+04 0.  0.
        1    1    3    3  502    0 -0.35408246993E+03 -0.60406031949E+03  0.58366826831E+03  0.91155466790E+03  0.50400001928E-02 0. -1.
       -1    1    3    3    0  502  0.35408246993E+03  0.60406031949E+03 -0.84212591765E+03  0.10951891738E+04  0.50400001928E-02 0.  1.
</event>
<event>
 5   0  0.1159914E-04  0.2006325E+04  0.7818609E-02  0.8603669E-01
       -2   -1    0    0    0  501  0.00000000000E+00  0.00000000000E+00  0.56861933667E+03  0.56861933668E+03  0.25500000920E-02 0.  1.
        2   -1    0    0  501    0  0.00000000000E+00  0.00000000000E+00 -0.17697862052E+04  0.17697862052E+04  0.25500000920E-02 0. -1.
    10030    2    1    2    0    0  0.00000000000E+00  0.00000000000E+00 -0.12011668685E+04  0.23384055419E+04  0.20063246578E+04 0.  0.
        3    1    3    3  502    0 -0.21141621473E+03  0.67925108616E+03 -0.14249392091E+04  0.15926489298E+04  0.10100000352E+00 0. -1.
       -3    1    3    3    0  502  0.21141621473E+03 -0.67925108616E+03  0.22377234051E+03  0.74575661209E+03  0.10100000352E+00 0.  1.
</event>
<event>
 5   0  0.1159914E-04  0.1996837E+04  0.7818609E-02  0.8608101E-01
       -2   -1    0    0    0  501  0.00000000000E+00  0.00000000000E+00  0.11157112215E+04  0.11157112215E+04  0.25500000920E-02 0. -1.
        2   -1    0    0  501    0  0.00000000000E+00  0.00000000000E+00 -0.89345662142E+03  0.89345662143E+03  0.25500000920E-02 0.  1.
    10030    2    1    2    0    0  0.00000000000E+00  0.00000000000E+00  0.22225460004E+03  0.20091678429E+04  0.19968370774E+04 0.  0.
        3    1    3    3  502    0 -0.68939332886E+03 -0.24698833185E+03  0.79397351148E+03  0.10801205234E+04  0.10100000352E+00 0. -1.
       -3    1    3    3    0  502  0.68939332886E+03  0.24698833185E+03 -0.57171891144E+03  0.92904731949E+03  0.10100000352E+00 0.  1.
</event>
<event>
 5   0  0.1242761E-04  0.1878368E+04  0.7818609E-02  0.8665700E-01
       -2   -1    0    0    0  501  0.00000000000E+00  0.00000000000E+00  0.13810008382E+04  0.13810008382E+04  0.25500000920E-02 0. -1.
        2   -1    0    0  501    0  0.00000000000E+00  0.00000000000E+00 -0.63871551842E+03  0.63871551842E+03  0.25500000920E-02 0.  1.
    10030    2    1    2    0    0  0.00000000000E+00  0.00000000000E+00  0.74228531976E+03  0.20197163566E+04  0.18783680857E+04 0.  0.
        4    1    3    3  502    0 -0.36064819407E+03 -0.36945890331E+03 -0.47243102457E+03  0.69982832681E+03  0.12699999809E+01 0.  1.
       -4    1    3    3    0  502  0.36064819407E+03  0.36945890331E+03  0.12147163443E+04  0.13198880298E+04  0.12699999809E+01 0. -1.
</event>
<event>
 5   0  0.6028501E-05  0.2004938E+04  0.7818609E-02  0.8604315E-01
        1   -1    0    0  501    0  0.00000000000E+00  0.00000000000E+00  0.13170477812E+04  0.13170477812E+04  0.50400001928E-02 0.  1.
       -1   -1    0    0    0  501  0.00000000000E+00  0.00000000000E+00 -0.76302807400E+03  0.76302807401E+03  0.50400001928E-02 0. -1.
    10030    2    1    2    0    0  0.00000000000E+00  0.00000000000E+00  0.55401970717E+03  0.20800758552E+04  0.20049383351E+04 0.  0.
        4    1    3    3  502    0 -0.31432860329E+03 -0.62520248380E+03  0.10217286165E+04  0.12383907280E+04  0.12699999809E+01 0.  1.
       -4    1    3    3    0  502  0.31432860329E+03  0.62520248380E+03 -0.46770890930E+03  0.84168512719E+03  0.12699999809E+01 0. -1.
</event>
<event>
 5   0  0.6028501E-05  0.1993837E+04  0.7818609E-02  0.8609508E-01
       -1   -1    0    0    0  501  0.00000000000E+00  0.00000000000E+00  0.19824458824E+04  0.19824458824E+04  0.50400001928E-02 0. -1.
        1   -1    0    0  501    0  0.00000000000E+00  0.00000000000E+00 -0.50132329911E+03  0.50132329914E+03  0.50400001928E-02 0.  1.
    10030    2    1    2    0    0  0.00000000000E+00  0.00000000000E+00  0.14811225833E+04  0.24837691815E+04  0.19938368139E+04 0.  0.
        4    1    3    3  502    0 -0.47818902338E+03  0.20860352834E+03  0.17988137879E+04  0.18729422924E+04  0.12699999809E+01 0. -1.
       -4    1    3    3    0  502  0.47818902338E+03 -0.20860352834E+03 -0.31769120463E+03  0.61082688916E+03  0.12699999809E+01 0.  1.
</event>
<event>
 5   0  0.1244229E-04  0.1995512E+04  0.7818609E-02  0.8608722E-01
       -2   -1    0    0    0  501  0.00000000000E+00  0.00000000000E+00  0.69510030069E+03  0.69510030069E+03  0.25500000920E-02 0. -1.
        2   -1    0    0  501    0  0.00000000000E+00  0.00000000000E+00 -0.14321919879E+04  0.14321919879E+04  0.25500000920E-02 0.  1.
    10030    2    1    2    0    0  0.00000000000E+00  0.00000000000E+00 -0.73709168719E+03  0.21272922886E+04  0.19955120460E+04 0.  0.
        5    1    3    3  502    0 -0.91773473597E+03 -0.36192833686E+03 -0.52761728110E+03  0.11187632689E+04  0.46999998093E+01 0. -1.
       -5    1    3    3    0  502  0.91773473597E+03  0.36192833686E+03 -0.20947440609E+03  0.10085290196E+04  0.46999998093E+01 0.  1.
</event>
<event>
 5   0  0.6028501E-05  0.1954591E+04  0.7818609E-02  0.8628150E-01
       -1   -1    0    0    0  501  0.00000000000E+00  0.00000000000E+00  0.92615732865E+03  0.92615732866E+03  0.50400001928E-02 0. -1.
        1   -1    0    0  501    0  0.00000000000E+00  0.00000000000E+00 -0.10312573243E+04  0.10312573243E+04  0.50400001928E-02 0.  1.
    10030    2    1    2    0    0  0.00000000000E+00  0.00000000000E+00 -0.10509999564E+03  0.19574146530E+04  0.19545910351E+04 0.  0.
        4    1    3    3  502    0  0.93331025297E+03 -0.28055945621E+03  0.20516206248E+02  0.97478416298E+03  0.12699999809E+01 0.  1.
       -4    1    3    3    0  502 -0.93331025297E+03  0.28055945621E+03 -0.12561620189E+03  0.98263048999E+03  0.12699999809E+01 0. -1.
</event>
<event>
 5   0  0.1159914E-04  0.2032730E+04  0.7818609E-02  0.8591469E-01
       -2   -1    0    0    0  501  0.00000000000E+00  0.00000000000E+00  0.54583755885E+03  0.54583755886E+03  0.25500000920E-02 0.  1.
        2   -1    0    0  501    0  0.00000000000E+00  0.00000000000E+00 -0.18925004409E+04  0.18925004409E+04  0.25500000920E-02 0. -1.
    10030    2    1    2    0    0  0.00000000000E+00  0.00000000000E+00 -0.13466628821E+04  0.24383379998E+04  0.20327300074E+04 0.  0.
        3    1    3    3  502    0  0.22371261321E+02  0.86086901744E+03 -0.13208621616E+04  0.15767919326E+04  0.10100000352E+00 0. -1.
       -3    1    3    3    0  502 -0.22371261321E+02 -0.86086901744E+03 -0.25800720479E+02  0.86154606720E+03  0.10100000352E+00 0.  1.
</event>
<event>
 5   0  0.1159914E-04  0.1982555E+04  0.7818609E-02  0.8614820E-01
        2   -1    0    0  501    0  0.00000000000E+00  0.00000000000E+00  0.57291676081E+03  0.57291676081E+03  0.25500000920E-02 0. -1.
       -2   -1    0    0    0  501  0.00000000000E+00  0.00000000000E+00 -0.17151377122E+04  0.17151377122E+04  0.25500000920E-02 0.  1.
    10030    2    1    2    0    0  0.00000000000E+00  0.00000000000E+00 -0.11422209514E+04  0.22880544730E+04  0.19825550609E+04 0.  0.
        3    1    3    3  502    0  0.17710825380E+03 -0.74621813793E+03 -0.12959165541E+04  0.15058580837E+04  0.10100000352E+00 0.  1.
       -3    1    3    3    0  502 -0.17710825380E+03  0.74621813793E+03  0.15369560270E+03  0.78219638930E+03  0.10100000352E+00 0. -1.
</event>
<event>
 5   0  0.6028501E-05  0.2059165E+04  0.7818609E-02  0.8579448E-01
       -1   -1    0    0    0  501  0.00000000000E+00  0.00000000000E+00  0.75031014628E+03  0.75031014629E+03  0.50400001928E-02 0. -1.
        1   -1    0    0  501    0  0.00000000000E+00  0.00000000000E+00 -0.14128023562E+04  0.14128023562E+04  0.50400001928E-02 0.  1.
    10030    2    1    2    0    0  0.00000000000E+00  0.00000000000E+00 -0.66249220990E+03  0.21631125025E+04  0.20591648235E+04 0.  0.
        4    1    3    3  502    0 -0.75138342160E+03 -0.26429968934E+03 -0.10165644483E+04  0.12914473518E+04  0.12699999809E+01 0.  1.
       -4    1    3    3    0  502  0.75138342160E+03  0.26429968934E+03  0.35407223838E+03  0.87166515069E+03  0.12699999809E+01 0. -1.
</event>
<event>
 5   0  0.6214547E-05  0.2007452E+04  0.7818609E-02  0.8603145E-01
       -1   -1    0    0    0  501  0.00000000000E+00  0.00000000000E+00  0.62427159126E+03  0.62427159129E+03  0.50400001928E-02 0.  1.
        1   -1    0    0  501    0  0.00000000000E+00  0.00000000000E+00 -0.16138261566E+04  0.16138261566E+04  0.50400001928E-02 0. -1.
    10030    2    1    2    0    0  0.00000000000E+00  0.00000000000E+00 -0.98955456537E+03  0.22380977479E+04  0.20074519400E+04 0.  0.
        3    1    3    3  502    0  0.15179327501E+03  0.53958171665E+03 -0.14230744699E+04  0.15294870331E+04  0.10100000352E+00 0. -1.
       -3    1    3    3    0  502 -0.15179327501E+03 -0.53958171665E+03  0.43351990457E+03  0.70861071481E+03  0.10100000352E+00 0.  1.
</event>
<event>
 5   0  0.6028501E-05  0.1987938E+04  0.7818609E-02  0.8612281E-01
        1   -1    0    0  501    0  0.00000000000E+00  0.00000000000E+00  0.42648011732E+03  0.42648011735E+03  0.50400001928E-02 0.  1.
       -1   -1    0    0    0  501  0.00000000000E+00  0.00000000000E+00 -0.23165767836E+04  0.23165767836E+04  0.50400001928E-02 0. -1.
    10030    2    1    2    0    0  0.00000000000E+00  0.00000000000E+00 -0.18900966662E+04  0.27430569009E+04  0.19879375629E+04 0.  0.
        4    1    3    3  502    0 -0.96466112552E+03 -0.23870289703E+03 -0.91669700420E+03  0.13519930364E+04  0.12699999809E+01 0.  1.
       -4    1    3    3    0  502  0.96466112552E+03  0.23870289703E+03 -0.97339966202E+03  0.13910638645E+04  0.12699999809E+01 0. -1.
</event>
<event>
 5   0  0.1244229E-04  0.1898825E+04  0.7818609E-02  0.8655442E-01
        2   -1    0    0  501    0  0.00000000000E+00  0.00000000000E+00  0.85500155261E+03  0.85500155261E+03  0.25500000920E-02 0. -1.
       -2   -1    0    0    0  501  0.00000000000E+00  0.00000000000E+00 -0.10542480110E+04  0.10542480110E+04  0.25500000920E-02 0.  1.
    10030    2    1    2    0    0  0.00000000000E+00  0.00000000000E+00 -0.19924645837E+03  0.19092495636E+04  0.18988245693E+04 0.  0.
        5    1    3    3  502    0  0.24618815697E+02 -0.66260324451E+03 -0.78284807362E+03  0.10259251152E+04  0.46999998093E+01 0.  1.
       -5    1    3    3    0  502 -0.24618815697E+02  0.66260324451E+03  0.58360161525E+03  0.88332444835E+03  0.46999998093E+01 0. -1.
</event>
<event>
 5   0  0.6028501E-05  0.2005817E+04  0.7818609E-02  0.8603906E-01
       -1   -1    0    0    0  501  0.00000000000E+00  0.00000000000E+00  0.73186338347E+03  0.73186338348E+03  0.50400001928E-02 0. -1.
        1   -1    0    0  501    0  0.00000000000E+00  0.00000000000E+00 -0.13743348572E+04  0.13743348572E+04  0.50400001928E-02 0.  1.
    10030    2    1    2    0    0  0.00000000000E+00  0.00000000000E+00 -0.64247147377E+03  0.21061982407E+04  0.20058168996E+04 0.  0.
        4    1    3    3  502    0 -0.79802012387E+03 -0.59660750559E+03 -0.20129543058E+03  0.10165127137E+04  0.12699999809E+01 0.  1.
       -4    1    3    3    0  502  0.79802012387E+03  0.59660750559E+03 -0.44117604319E+03  0.10896855270E+04  0.12699999809E+01 0. -1.
</event>
<event>
 5   0  0.6222733E-05  0.1935460E+04  0.7818609E-02  0.8637404E-01
       -1   -1    0    0    0  501  0.00000000000E+00  0.00000000000E+00  0.27216074047E+04  0.27216074048E+04  0.50400001928E-02 0.  1.
        1   -1    0    0  501    0  0.00000000000E+00  0.00000000000E+00 -0.34409851837E+03  0.34409851841E+03  0.50400001928E-02 0. -1.
    10030    2    1    2    0    0  0.00000000000E+00  0.00000000000E+00  0.23775088864E+04  0.30657059232E+04  0.19354597135E+04 0.  0.
        2    1    3    3  502    0 -0.68136303905E+03 -0.37589112970E+01  0.22772427477E+04  0.23769947943E+04  0.25500000920E-02 0.  1.
       -2    1    3    3    0  502  0.68136303905E+03  0.37589112970E+01  0.10026613869E+03  0.68871112883E+03  0.25500000920E-02 0. -1.
</event>
<event>
 5   0  0.6168338E-05  0.2008859E+04  0.7818609E-02  0.8602490E-01
       -1   -1    0    0    0  501  0.00000000000E+00  0.00000000000E+00  0.73429247985E+03  0.73429247986E+03  0.50400001928E-02 0.  1.
        1   -1    0    0  501    0  0.00000000000E+00  0.00000000000E+00 -0.13739460977E+04  0.13739460977E+04  0.50400001928E-02 0. -1.
    10030    2    1    2    0    0  0.00000000000E+00  0.00000000000E+00 -0.63965361787E+03  0.21082385776E+04  0.20088586683E+04 0.  0.
        5    1    3    3  502    0  0.89495002431E+03  0.35465056496E+03 -0.19041020448E+02  0.96285887839E+03  0.46999998093E+01 0.  1.
       -5    1    3    3    0  502 -0.89495002431E+03 -0.35465056496E+03 -0.62061259742E+03  0.11453796992E+04  0.46999998093E+01 0. -1.
</event>
<event>
 5   0  0.1281789E-04  0.1955673E+04  0.7818609E-02  0.8627630E-01
        2   -1    0    0  501    0  0.00000000000E+00  0.00000000000E+00  0.75025293621E+03  0.75025293622E+03  0.25500000920E-02 0. -1.
       -2   -1    0    0    0  501  0.00000000000E+00  0.00000000000E+00 -0.12744558764E+04  0.12744558764E+04  0.25500000920E-02 0.  1.
    10030    2    1    2    0    0  0.00000000000E+00  0.00000000000E+00 -0.52420294022E+03  0.20247088127E+04  0.19556730436E+04 0.  0.
        2    1    3    3  502    0 -0.45214272360E+03 -0.80925090996E+03  0.60081884549E+02  0.92894020832E+03  0.25500000920E-02 0. -1.
       -2    1    3    3    0  502  0.45214272360E+03  0.80925090996E+03 -0.58428482477E+03  0.10957686043E+04  0.25500000920E-02 0.  1.
</event>
<event>
 5   0  0.1242761E-04  0.1995438E+04  0.7818609E-02  0.8608757E-01
       -2   -1    0    0    0  501  0.00000000000E+00  0.00000000000E+00  0.10201850493E+04  0.10201850493E+04  0.25500000920E-02 0. -1.
        2   -1    0    0  501    0  0.00000000000E+00  0.00000000000E+00 -0.97574755428E+03  0.97574755428E+03  0.25500000920E-02 0.  1.
    10030    2    1    2    0    0  0.00000000000E+00  0.00000000000E+00  0.44437494995E+02  0.19959326036E+04  0.19954378635E+04 0.  0.
        4    1    3    3  502    0  0.45189523643E+03  0.52432789848E+03  0.74094571944E+03  0.10139680576E+04  0.12699999809E+01 0. -1.
       -4    1    3    3    0  502 -0.45189523643E+03 -0.52432789848E+03 -0.69650822445E+03  0.98196454593E+03  0.12699999809E+01 0.  1.
</event>
<event>
 5   0  0.1159914E-04  0.1983288E+04  0.7818609E-02  0.8614474E-01
       -2   -1    0    0    0  501  0.00000000000E+00  0.00000000000E+00  0.80192538742E+03  0.80192538742E+03  0.25500000920E-02 0.  1.
        2   -1    0    0  501    0  0.00000000000E+00  0.00000000000E+00 -0.12262460102E+04  0.12262460102E+04  0.25500000920E-02 0. -1.
    10030    2    1    2    0    0  0.00000000000E+00  0.00000000000E+00 -0.42432062274E+03  0.20281713976E+04  0.19832879839E+04 0.  0.
        3    1    3    3  502    0  0.32206582337E+03 -0.92413054232E+03 -0.37582643101E+03  0.10483268432E+04  0.10100000352E+00 0. -1.
       -3    1    3    3    0  502 -0.32206582337E+03  0.92413054232E+03 -0.48494191736E+02  0.97984455434E+03  0.10100000352E+00 0.  1.
</event>
<event>
 5   0  0.6256535E-05  0.1955324E+04  0.7818609E-02  0.8627798E-01
        1   -1    0    0  501    0  0.00000000000E+00  0.00000000000E+00  0.14105391031E+04  0.14105391031E+04  0.50400001928E-02 0. -1.
       -1   -1    0    0    0  501  0.00000000000E+00  0.00000000000E+00 -0.67762927743E+03  0.67762927745E+03  0.50400001928E-02 0.  1.
    10030    2    1    2    0    0  0.00000000000E+00  0.00000000000E+00  0.73290982570E+03  0.20881683806E+04  0.19553235980E+04 0.  0.
        1    1    3    3  502    0 -0.43764983336E+03 -0.35269849556E+03 -0.48782302728E+03  0.74424788302E+03  0.50400001928E-02 0.  1.
       -1    1    3    3    0  502  0.43764983336E+03  0.35269849556E+03  0.12207328530E+04  0.13439204976E+04  0.50400001928E-02 0. -1.
</event>
<event>
 5   0  0.6214547E-05  0.2053125E+04  0.7818609E-02  0.8582178E-01
        1   -1    0    0  501    0  0.00000000000E+00  0.00000000000E+00  0.20923267555E+04  0.20923267556E+04  0.50400001928E-02 0. -1.
       -1   -1    0    0    0  501  0.00000000000E+00  0.00000000000E+00 -0.50366434806E+03  0.50366434808E+03  0.50400001928E-02 0.  1.
    10030    2    1    2    0    0  0.00000000000E+00  0.00000000000E+00  0.15886624075E+04  0.25959911036E+04  0.20531248294E+04 0.  0.
        3    1    3    3  502    0  0.61092387299E+03 -0.76072299995E+03  0.39070332198E+03  0.10509883716E+04  0.10100000352E+00 0.  1.
       -3    1    3    3    0  502 -0.61092387299E+03  0.76072299995E+03  0.11979590855E+04  0.15450027320E+04  0.10100000352E+00 0. -1.
</event>
<event>
 5   0  0.6168338E-05  0.1833783E+04  0.7818609E-02  0.8688538E-01
       -1   -1    0    0    0  501  0.00000000000E+00  0.00000000000E+00  0.70301749996E+03  0.70301749998E+03  0.50400001928E-02 0.  1.
        1   -1    0    0  501    0  0.00000000000E+00  0.00000000000E+00 -0.11958302236E+04  0.11958302236E+04  0.50400001928E-02 0. -1.
    10030    2    1    2    0    0  0.00000000000E+00  0.00000000000E+00 -0.49281272360E+03  0.18988477236E+04  0.18337825107E+04 0.  0.
        5    1    3    3  502    0  0.41119937774E+03 -0.81871490391E+03 -0.28357512622E+03  0.95907036465E+03  0.46999998093E+01 0. -1.
       -5    1    3    3    0  502 -0.41119937774E+03  0.81871490391E+03 -0.20923759739E+03  0.93977735890E+03  0.46999998093E+01 0.  1.
</event>
<event>
 5   0  0.6168338E-05  0.1989715E+04  0.7818609E-02  0.8611444E-01
       -1   -1    0    0    0  501  0.00000000000E+00  0.00000000000E+00  0.98835603508E+03  0.98835603510E+03  0.50400001928E-02 0. -1.
        1   -1    0    0  501    0  0.00000000000E+00  0.00000000000E+00 -0.10014014681E+04  0.10014014681E+04  0.50400001928E-02 0.  1.
    10030    2    1    2    0    0  0.00000000000E+00  0.00000000000E+00 -0.13045432980E+02  0.19897575032E+04  0.19897147379E+04 0.  0.
        5    1    3    3  502    0 -0.46001148261E+03 -0.30797166429E+03  0.82009167708E+03  0.98945922551E+03  0.46999998093E+01 0. -1.
       -5    1    3    3    0  502  0.46001148261E+03  0.30797166429E+03 -0.83313711006E+03  0.10002982777E+04  0.46999998093E+01 0.  1.
</event>
<event>
 5   0  0.1281789E-04  0.2036953E+04  0.7818609E-02  0.8589536E-01
       -2   -1    0    0    0  501  0.00000000000E+00  0.00000000000E+00  0.59292095570E+03  0.59292095570E+03  0.25500000920E-02 0.  1.
        2   -1    0    0  501    0  0.00000000000E+00  0.00000000000E+00 -0.17494648790E+04  0.17494648790E+04  0.25500000920E-02 0. -1.
    10030    2    1    2    0    0  0.00000000000E+00  0.00000000000E+00 -0.11565439233E+04  0.23423858347E+04  0.20369530068E+04 0.  0.
        2    1    3    3  502    0  0.16837972512E+03  0.25673231401E+03 -0.16949820724E+04  0.17225642045E+04  0.25500000920E-02 0. -1.
       -2    1    3    3    0  502 -0.16837972512E+03 -0.25673231401E+03  0.53843814908E+03  0.61982163021E+03  0.25500000920E-02 0.  1.
</event>
<event>
 5   0  0.1281789E-04  0.2088856E+04  0.7818609E-02  0.8566168E-01
       -2   -1    0    0    0  501  0.00000000000E+00  0.00000000000E+00  0.59434873779E+03  0.59434873779E+03  0.25500000920E-02 0.  1.
        2   -1    0    0  501    0  0.00000000000E+00  0.00000000000E+00 -0.18353365140E+04  0.18353365140E+04  0.25500000920E-02 0. -1.
    10030    2    1    2    0    0  0.00000000000E+00  0.00000000000E+00 -0.12409877762E+04  0.24296852518E+04  0.20888560894E+04 0.  0.
        2    1    3    3  502    0  0.66299648897E+03 -0.66883251927E+03 -0.11457615048E+04  0.14831286893E+04  0.25500000920E-02 0. -1.
       -2    1    3    3    0  502 -0.66299648897E+03  0.66883251927E+03 -0.95226271442E+02  0.94655656249E+03  0.25500000920E-02 0.  1.
</event>
<event>
 5   0  0.6214547E-05  0.1981668E+04  0.7818609E-02  0.8615240E-01
       -1   -1    0    0    0  501  0.00000000000E+00  0.00000000000E+00  0.51717613357E+03  0.51717613360E+03  0.50400001928E-02 0.  1.
        1   -1    0    0  501    0  0.00000000000E+00  0.00000000000E+00 -0.18982930772E+04  0.18982930773E+04  0.50400001928E-02 0. -1.
    10030    2    1    2    0    0  0.00000000000E+00  0.00000000000E+00 -0.13811169437E+04  0.24154692109E+04  0.19816678573E+04 0.  0.
        3    1    3    3  502    0  0.69803086146E+03 -0.88826449692E+02 -0.15408409453E+04  0.16939091034E+04  0.10100000352E+00 0. -1.
       -3    1    3    3    0  502 -0.69803086146E+03  0.88826449692E+02  0.15972400164E+03  0.72156010742E+03  0.10100000352E+00 0.  1.
</event>
<event>
 5   0  0.6256535E-05  0.1996055E+04  0.7818609E-02  0.8608467E-01
       -1   -1    0    0    0  501  0.00000000000E+00  0.00000000000E+00  0.53835071456E+03  0.53835071459E+03  0.50400001928E-02 0. -1.
        1   -1    0    0  501    0  0.00000000000E+00  0.00000000000E+00 -0.18502040507E+04  0.18502040507E+04  0.50400001928E-02 0.  1.
    10030    2    1    2    0    0  0.00000000000E+00  0.00000000000E+00 -0.13118533362E+04  0.23885547653E+04  0.19960547817E+04 0.  0.
        1    1    3    3  502    0 -0.76601877508E+03  0.20709355435E+03 -0.13802496787E+04  0.15920934896E+04  0.50400001928E-02 0.  1.
       -1    1    3    3    0  502  0.76601877508E+03 -0.20709355435E+03  0.68396342537E+02  0.79646127573E+03  0.50400001928E-02 0. -1.
</event>
<event>
 5   0  0.1159914E-04  0.1915630E+04  0.7818609E-02  0.8647115E-01
        2   -1    0    0  501    0  0.00000000000E+00  0.00000000000E+00  0.79941158519E+03  0.79941158519E+03  0.25500000920E-02 0.  1.
       -2   -1    0    0    0  501  0.00000000000E+00  0.00000000000E+00 -0.11476061599E+04  0.11476061599E+04  0.25500000920E-02 0. -1.
    10030    2    1    2    0    0  0.00000000000E+00  0.00000000000E+00 -0.34819457467E+03  0.19470177450E+04  0.19156300890E+04 0.  0.
        3    1    3    3  502    0 -0.37513369553E+03 -0.39804828174E+03  0.62506960935E+03  0.83059000166E+03  0.10100000352E+00 0.  1.
       -3    1    3    3    0  502  0.37513369553E+03  0.39804828174E+03 -0.97326418402E+03  0.11164277434E+04  0.10100000352E+00 0. -1.
</event>
<event>
 5   0  0.1244229E-04  0.2004488E+04  0.7818609E-02  0.8604525E-01
       -2   -1    0    0    0  501  0.00000000000E+00  0.00000000000E+00  0.57980811574E+03  0.57980811575E+03  0.25500000920E-02 0. -1.
        2   -1    0    0  501    0  0.00000000000E+00  0.00000000000E+00 -0.17324568648E+04  0.17324568648E+04  0.25500000920E-02 0.  1.
    10030    2    1    2    0    0  0.00000000000E+00  0.00000000000E+00 -0.11526487491E+04  0.23122649806E+04  0.20044875159E+04 0.  0.
        5    1    3    3  502    0  0.43449665813E+03  0.87673250495E+03 -0.32618015517E+03  0.10314372568E+04  0.46999998093E+01 0. -1.
       -5    1    3    3    0  502 -0.43449665813E+03 -0.87673250495E+03 -0.82646859390E+03  0.12808277237E+04  0.46999998093E+01 0.  1.
</event>
<event>
 5   0  0.6222733E-05  0.1990278E+04  0.7818609E-02  0.8611179E-01
       -1   -1    0    0    0  501  0.00000000000E+00  0.00000000000E+00  0.52194819566E+03  0.52194819568E+03  0.50400001928E-02 0.  1.
        1   -1    0    0  501    0  0.00000000000E+00  0.00000000000E+00 -0.18973188045E+04  0.18973188045E+04  0.50400001928E-02 0. -1.
    10030    2    1    2    0    0  0.00000000000E+00  0.00000000000E+00 -0.13753706088E+04  0.24192670002E+04  0.19902784997E+04 0.  0.
        2    1    3    3  502    0 -0.98255976360E+03  0.62463799213E+02 -0.86373636713E+03  0.13097197896E+04  0.25500000920E-02 0. -1.
       -2    1    3    3    0  502  0.98255976360E+03 -0.62463799213E+02 -0.51163424167E+03  0.11095472106E+04  0.25500000920E-02 0.  1.
</event>
<event>
 5   0  0.6222733E-05  0.2021158E+04  0.7818609E-02  0.8596792E-01
       -1   -1    0    0    0  501  0.00000000000E+00  0.00000000000E+00  0.17906809984E+04  0.17906809984E+04  0.50400001928E-02 0.  1.
        1   -1    0    0  501    0  0.00000000000E+00  0.00000000000E+00 -0.57032490282E+03  0.57032490285E+03  0.50400001928E-02 0. -1.
    10030    2    1    2    0    0  0.00000000000E+00  0.00000000000E+00  0.12203560956E+04  0.23610059013E+04  0.20211580507E+04 0.  0.
        2    1    3    3  502    0 -0.48605896360E+03 -0.13119657235E+03 -0.41340247412E+03  0.65143492561E+03  0.25500000920E-02 0. -1.
       -2    1    3    3    0  502  0.48605896360E+03  0.13119657235E+03  0.16337585697E+04  0.17095709757E+04  0.25500000920E-02 0.  1.
</event>
<event>
 5   0  0.6214547E-05  0.2010868E+04  0.7818609E-02  0.8601556E-01
       -1   -1    0    0    0  501  0.00000000000E+00  0.00000000000E+00  0.70348103261E+03  0.70348103263E+03  0.50400001928E-02 0.  1.
        1   -1    0    0  501    0  0.00000000000E+00  0.00000000000E+00 -0.14369935048E+04  0.14369935048E+04  0.50400001928E-02 0. -1.
    10030    2    1    2    0    0  0.00000000000E+00  0.00000000000E+00 -0.73351247217E+03  0.21404745374E+04  0.20108681455E+04 0.  0.
        3    1    3    3  502    0  0.58196781109E+03 -0.45221365557E+03  0.36121903864E+03  0.82076971649E+03  0.10100000352E+00 0.  1.
       -3    1    3    3    0  502 -0.58196781109E+03  0.45221365557E+03 -0.10947315108E+04  0.13197048209E+04  0.10100000352E+00 0. -1.
</event>
<event>
 5   0  0.1159914E-04  0.1998278E+04  0.7818609E-02  0.8607426E-01
       -2   -1    0    0    0  501  0.00000000000E+00  0.00000000000E+00  0.54667865062E+03  0.54667865062E+03  0.25500000920E-02 0. -1.
        2   -1    0    0  501    0  0.00000000000E+00  0.00000000000E+00 -0.18260795110E+04  0.18260795110E+04  0.25500000920E-02 0.  1.
    10030    2    1    2    0    0  0.00000000000E+00  0.00000000000E+00 -0.12794008604E+04  0.23727581617E+04  0.19982779417E+04 0.  0.
        3    1    3    3  502    0 -0.18780647703E+03  0.58962387457E+03  0.29174854121E+03  0.68413800345E+03  0.10100000352E+00 0. -1.
       -3    1    3    3    0  502  0.18780647703E+03 -0.58962387457E+03 -0.15711494016E+04  0.16886201582E+04  0.10100000352E+00 0.  1.
</event>
<event>
 5   0  0.6168338E-05  0.1976838E+04  0.7818609E-02  0.8617527E-01
        1   -1    0    0  501    0  0.00000000000E+00  0.00000000000E+00  0.17874126046E+04  0.17874126046E+04  0.50400001928E-02 0. -1.
       -1   -1    0    0    0  501  0.00000000000E+00  0.00000000000E+00 -0.54658478539E+03  0.54658478542E+03  0.50400001928E-02 0.  1.
    10030    2    1    2    0    0  0.00000000000E+00  0.00000000000E+00  0.12408278192E+04  0.23339973901E+04  0.19768384203E+04 0.  0.
        5    1    3    3  502    0  0.16215833675E+03  0.71202624723E+03 -0.16601787239E+03  0.74890635388E+03  0.46999998093E+01 0.  1.
       -5    1    3    3    0  502 -0.16215833675E+03 -0.71202624723E+03  0.14068456916E+04  0.15850910362E+04  0.46999998093E+01 0. -1.
</event>
<event>
 5   0  0.6222733E-05  0.2083183E+04  0.7818609E-02  0.8568688E-01
        1   -1    0    0  501    0  0.00000000000E+00  0.00000000000E+00  0.77576739459E+03  0.77576739461E+03  0.50400001928E-02 0. -1.
       -1   -1    0    0    0  501  0.00000000000E+00  0.00000000000E+00 -0.13985027422E+04  0.13985027422E+04  0.50400001928E-02 0.  1.
    10030    2    1    2    0    0  0.00000000000E+00  0.00000000000E+00 -0.62273534762E+03  0.21742701368E+04  0.20831829768E+04 0.  0.
        2    1    3    3  502    0 -0.10053328446E+04 -0.38519206880E+02 -0.59285426895E+03  0.11677559856E+04  0.25500000920E-02 0.  1.
       -2    1    3    3    0  502  0.10053328446E+04  0.38519206880E+02 -0.29881078673E+02  0.10065141512E+04  0.25500000920E-02 0. -1.
</event>
<event>
 5   0  0.1159914E-04  0.2022108E+04  0.7818609E-02  0.8596354E-01
       -2   -1    0    0    0  501  0.00000000000E+00  0.00000000000E+00  0.54514784212E+03  0.54514784213E+03  0.25500000920E-02 0.  1.
        2   -1    0    0  501    0  0.00000000000E+00  0.00000000000E+00 -0.18751434331E+04  0.18751434331E+04  0.25500000920E-02 0. -1.
    10030    2    1    2    0    0  0.00000000000E+00  0.00000000000E+00 -0.13299955909E+04  0.24202912752E+04  0.20221082031E+04 0.  0.
        3    1    3    3  502    0  0.42074380469E+03 -0.34694762633E+03 -0.16840162231E+04  0.17701154353E+04  0.10100000352E+00 0. -1.
       -3    1    3    3    0  502 -0.42074380469E+03  0.34694762633E+03  0.35402063212E+03  0.65017583988E+03  0.10100000352E+00 0.  1.
</event>
<event>
 5   0  0.1244229E-04  0.2015673E+04  0.7818609E-02  0.8599328E-01
        2   -1    0    0  501    0  0.00000000000E+00  0.00000000000E+00  0.18073027335E+04  0.18073027335E+04  0.25500000920E-02 0. -1.
       -2   -1    0    0    0  501  0.00000000000E+00  0.00000000000E+00 -0.56201667121E+03  0.56201667122E+03  0.25500000920E-02 0.  1.
    10030    2    1    2    0    0  0.00000000000E+00  0.00000000000E+00  0.12452860623E+04  0.23693194047E+04  0.20156728565E+04 0.  0.
        5    1    3    3  502    0 -0.55291481258E+03  0.84082269904E+03  0.55810486690E+03  0.11507392118E+04  0.46999998093E+01 0. -1.
       -5    1    3    3    0  502  0.55291481258E+03 -0.84082269904E+03  0.68718119537E+03  0.12185801929E+04  0.46999998093E+01 0.  1.
</event>
<event>
 5   0  0.1244229E-04  0.2004685E+04  0.7818609E-02  0.8604434E-01
       -2   -1    0    0    0  501  0.00000000000E+00  0.00000000000E+00  0.10862359675E+04  0.10862359675E+04  0.25500000920E-02 0.  1.
        2   -1    0    0  501    0  0.00000000000E+00  0.00000000000E+00 -0.92492817466E+03  0.92492817467E+03  0.25500000920E-02 0. -1.
    10030    2    1    2    0    0  0.00000000000E+00  0.00000000000E+00  0.16130779288E+03  0.20111641422E+04  0.20046847640E+04 0.  0.
        5    1    3    3  502    0  0.89721245046E+03  0.30529070563E+03  0.40801449282E+03  0.10318384140E+04  0.46999998093E+01 0.  1.
       -5    1    3    3    0  502 -0.89721245046E+03 -0.30529070563E+03 -0.24670669994E+03  0.97932572824E+03  0.46999998093E+01 0. -1.
</event>
<event>
 5   0  0.1244229E-04  0.2010222E+04  0.7818609E-02  0.8601856E-01
       -2   -1    0    0    0  501  0.00000000000E+00  0.00000000000E+00  0.64837788749E+03  0.64837788750E+03  0.25500000920E-02 0. -1.
        2   -1    0    0  501    0  0.00000000000E+00  0.00000000000E+00 -0.15581162792E+04  0.15581162792E+04  0.25500000920E-02 0.  1.
    10030    2    1    2    0    0  0.00000000000E+00  0.00000000000E+00 -0.90973839174E+03  0.22064941667E+04  0.20102220192E+04 0.  0.
        5    1    3    3  502    0  0.68905463131E+03  0.38156093771E+03  0.23046519195E+03  0.82068345226E+03  0.46999998093E+01 0. -1.
       -5    1    3    3    0  502 -0.68905463131E+03 -0.38156093771E+03 -0.11402035837E+04  0.13858107145E+04  0.46999998093E+01 0.  1.
</event>
<event>
 5   0  0.1281789E-04  0.1968247E+04  0.7818609E-02  0.8621612E-01
        2   -1    0    0  501    0  0.00000000000E+00  0.00000000000E+00  0.22136112173E+04  0.22136112173E+04  0.25500000920E-02 0. -1.
       -2   -1    0    0    0  501  0.00000000000E+00  0.00000000000E+00 -0.43751994832E+03  0.43751994833E+03  0.25500000920E-02 0.  1.
    10030    2    1    2    0    0  0.00000000000E+00  0.00000000000E+00  0.17760912690E+04  0.26511311657E+04  0.19682470022E+04 0.  0.
        2    1    3    3  502    0 -0.15659401841E+03  0.19184865962E+03  0.21709559831E+04  0.21850348911E+04  0.25500000920E-02 0. -1.
       -2    1    3    3    0  502  0.15659401841E+03 -0.19184865962E+03 -0.39486471403E+03  0.46609627460E+03  0.25500000920E-02 0.  1.
</event>
<event>
 5   0  0.1242761E-04  0.2056747E+04  0.7818609E-02  0.8580540E-01
       -2   -1    0    0    0  501  0.00000000000E+00  0.00000000000E+00  0.10762629318E+04  0.10762629318E+04  0.25500000920E-02 0.  1.
        2   -1    0    0  501    0  0.00000000000E+00  0.00000000000E+00 -0.98261504186E+03  0.98261504187E+03  0.25500000920E-02 0. -1.
    10030    2    1    2    0    0  0.00000000000E+00  0.00000000000E+00  0.93647889946E+02  0.20588779737E+04  0.20567470878E+04 0.  0.
        4    1    3    3  502    0 -0.58740198575E+03 -0.42821210065E+03 -0.68135243493E+03  0.99631794598E+03  0.12699999809E+01 0. -1.
       -4    1    3    3    0  502  0.58740198575E+03  0.42821210065E+03  0.77500032487E+03  0.10625600277E+04  0.12699999809E+01 0.  1.
</event>
<event>
 5   0  0.1159914E-04  0.1985172E+04  0.7818609E-02  0.8613585E-01
        2   -1    0    0  501    0  0.00000000000E+00  0.00000000000E+00  0.24167396064E+04  0.24167396064E+04  0.25500000920E-02 0. -1.
       -2   -1    0    0    0  501  0.00000000000E+00  0.00000000000E+00 -0.40766797368E+03  0.40766797368E+03  0.25500000920E-02 0.  1.
    10030    2    1    2    0    0  0.00000000000E+00  0.00000000000E+00  0.20090716328E+04  0.28244075801E+04  0.19851723736E+04 0.  0.
        3    1    3    3  502    0 -0.54415712753E+03 -0.18816041888E+03 -0.14579751736E+03  0.59394296775E+03  0.10100000352E+00 0.  1.
       -3    1    3    3    0  502  0.54415712753E+03  0.18816041888E+03  0.21548691501E+04  0.22304646124E+04  0.10100000352E+00 0. -1.
</event>
<event>
 5   0  0.1244229E-04  0.2017126E+04  0.7818609E-02  0.8598655E-01
        2   -1    0    0  501    0  0.00000000000E+00  0.00000000000E+00  0.17029784612E+04  0.17029784612E+04  0.25500000920E-02 0. -1.
       -2   -1    0    0    0  501  0.00000000000E+00  0.00000000000E+00 -0.59730623838E+03  0.59730623839E+03  0.25500000920E-02 0.  1.
    10030    2    1    2    0    0  0.00000000000E+00  0.00000000000E+00  0.11056722229E+04  0.23002846996E+04  0.20171263309E+04 0.  0.
        5    1    3    3  502    0  0.23197942013E+03  0.86763746773E+03  0.10761292387E+04  0.14016723779E+04  0.46999998093E+01 0. -1.
       -5    1    3    3    0  502 -0.23197942013E+03 -0.86763746773E+03  0.29542984186E+02  0.89861232169E+03  0.46999998093E+01 0.  1.
</event>
<event>
 5   0  0.1274868E-04  0.2036730E+04  0.7818609E-02  0.8589638E-01
       -2   -1    0    0    0  501  0.00000000000E+00  0.00000000000E+00  0.10192351065E+04  0.10192351065E+04  0.25500000920E-02 0. -1.
        2   -1    0    0  501    0  0.00000000000E+00  0.00000000000E+00 -0.10174953697E+04  0.10174953697E+04  0.25500000920E-02 0.  1.
    10030    2    1    2    0    0  0.00000000000E+00  0.00000000000E+00  0.17397367609E+01  0.20367304762E+04  0.20367297332E+04 0.  0.
        1    1    3    3  502    0 -0.61697176429E+03 -0.17977250587E+03 -0.78912705884E+03  0.10176904376E+04  0.50400001928E-02 0.  1.
       -1    1    3    3    0  502  0.61697176429E+03  0.17977250587E+03  0.79086679560E+03  0.10190400386E+04  0.50400001928E-02 0. -1.
</event>
<event>
 5   0  0.4479000E-05  0.1976313E+04  0.7818609E-02  0.8617776E-01
        3   -1    0    0  501    0  0.00000000000E+00  0.00000000000E+00  0.87123484396E+03  0.87123484981E+03  0.10100000352E+00 0. -1.
       -3   -1    0    0    0  501  0.00000000000E+00  0.00000000000E+00 -0.11207695145E+04  0.11207695190E+04  0.10100000352E+00 0.  1.
    10030    2    1    2    0    0  0.00000000000E+00  0.00000000000E+00 -0.24953467050E+03  0.19920043688E+04  0.19763131973E+04 0.  0.
        5    1    3    3  502    0  0.12508599835E+03  0.15935933239E+03  0.85006685790E+03  0.87388652393E+03  0.46999998093E+01 0. -1.
       -5    1    3    3    0  502 -0.12508599835E+03 -0.15935933239E+03 -0.10996015284E+04  0.11181178449E+04  0.46999998093E+01 0.  1.
</event>
<event>
 5   0  0.1274868E-04  0.1737964E+04  0.7818609E-02  0.8740004E-01
       -2   -1    0    0    0  501  0.00000000000E+00  0.00000000000E+00  0.46642388067E+03  0.46642388068E+03  0.25500000920E-02 0.  1.
        2   -1    0    0  501    0  0.00000000000E+00  0.00000000000E+00 -0.16189767710E+04  0.16189767710E+04  0.25500000920E-02 0. -1.
    10030    2    1    2    0    0  0.00000000000E+00  0.00000000000E+00 -0.11525528903E+04  0.20854006517E+04  0.17379636685E+04 0.  0.
        1    1    3    3  502    0 -0.18469579724E+03  0.81930000173E+03 -0.84395167745E+03  0.11906382592E+04  0.50400001928E-02 0.  1.
       -1    1    3    3    0  502  0.18469579724E+03 -0.81930000173E+03 -0.30860121285E+03  0.89476239246E+03  0.50400001928E-02 0. -1.
</event>
<event>
 5   0  0.6222733E-05  0.1984734E+04  0.7818609E-02  0.8613791E-01
       -1   -1    0    0    0  501  0.00000000000E+00  0.00000000000E+00  0.80485225774E+03  0.80485225776E+03  0.50400001928E-02 0. -1.
        1   -1    0    0  501    0  0.00000000000E+00  0.00000000000E+00 -0.12235695445E+04  0.12235695445E+04  0.50400001928E-02 0.  1.
    10030    2    1    2    0    0  0.00000000000E+00  0.00000000000E+00 -0.41871728671E+03  0.20284218022E+04  0.19847344511E+04 0.  0.
        2    1    3    3  502    0  0.47635136798E+02  0.93603671528E+03  0.12394704261E+03  0.94540822293E+03  0.25500000920E-02 0. -1.
       -2    1    3    3    0  502 -0.47635136798E+02 -0.93603671528E+03 -0.54266432932E+03  0.10830135793E+04  0.25500000920E-02 0.  1.
</event>
<event>
 5   0  0.1159914E-04  0.1994761E+04  0.7818609E-02  0.8609074E-01
       -2   -1    0    0    0  501  0.00000000000E+00  0.00000000000E+00  0.10666843621E+04  0.10666843621E+04  0.25500000920E-02 0.  1.
        2   -1    0    0  501    0  0.00000000000E+00  0.00000000000E+00 -0.93257903488E+03  0.93257903489E+03  0.25500000920E-02 0. -1.
    10030    2    1    2    0    0  0.00000000000E+00  0.00000000000E+00  0.13410532721E+03  0.19992633970E+04  0.19947606101E+04 0.  0.
        3    1    3    3  502    0  0.39852191262E+03  0.91419138358E+03  0.81292552546E+02  0.10005868728E+04  0.10100000352E+00 0.  1.
       -3    1    3    3    0  502 -0.39852191262E+03 -0.91419138358E+03  0.52812774662E+02  0.99867652422E+03  0.10100000352E+00 0. -1.
</event>
<event>
 5   0  0.6028501E-05  0.1914500E+04  0.7818609E-02  0.8647672E-01
        1   -1    0    0  501    0  0.00000000000E+00  0.00000000000E+00  0.82925719253E+03  0.82925719255E+03  0.50400001928E-02 0. -1.
       -1   -1    0    0    0  501  0.00000000000E+00  0.00000000000E+00 -0.11049984393E+04  0.11049984393E+04  0.50400001928E-02 0.  1.
    10030    2    1    2    0    0  0.00000000000E+00  0.00000000000E+00 -0.27574124673E+03  0.19342556318E+04  0.19145003563E+04 0.  0.
        4    1    3    3  502    0 -0.30678056902E+03  0.70389228723E+03 -0.71538744106E+03  0.10494567515E+04  0.12699999809E+01 0.  1.
       -4    1    3    3    0  502  0.30678056902E+03 -0.70389228723E+03  0.43964619432E+03  0.88479888033E+03  0.12699999809E+01 0. -1.
</event>
<event>
 5   0  0.6256535E-05  0.2000011E+04  0.7818609E-02  0.8606616E-01
       -1   -1    0    0    0  501  0.00000000000E+00  0.00000000000E+00  0.15026688286E+04  0.15026688286E+04  0.50400001928E-02 0. -1.
        1   -1    0    0  501    0  0.00000000000E+00  0.00000000000E+00 -0.66548990625E+03  0.66548990627E+03  0.50400001928E-02 0.  1.
    10030    2    1    2    0    0  0.00000000000E+00  0.00000000000E+00  0.83717892238E+03  0.21681587349E+04  0.20000109379E+04 0.  0.
        1    1    3    3  502    0  0.48840172092E+02 -0.11517946487E+03  0.14941516362E+04  0.14993801331E+04  0.50400001928E-02 0. -1.
       -1    1    3    3    0  502 -0.48840172092E+02  0.11517946487E+03 -0.65697271381E+03  0.66877860183E+03  0.50400001928E-02 0.  1.
</event>
<event>
 5   0  0.6168338E-05  0.1995804E+04  0.7818609E-02  0.8608585E-01
        1   -1    0    0  501    0  0.00000000000E+00  0.00000000000E+00  0.13354058877E+04  0.13354058878E+04  0.50400001928E-02 0. -1.
       -1   -1    0    0    0  501  0.00000000000E+00  0.00000000000E+00 -0.74569680949E+03  0.74569680950E+03  0.50400001928E-02 0.  1.
    10030    2    1    2    0    0  0.00000000000E+00  0.00000000000E+00  0.58970907826E+03  0.20811026973E+04  0.19958035073E+04 0.  0.
        5    1    3    3  502    0 -0.51451453514E+03  0.78342619809E+03  0.65198932274E+03  0.11417504025E+04  0.46999998093E+01 0.  1.
       -5    1    3    3    0  502  0.51451453514E+03 -0.78342619809E+03 -0.62280244484E+02  0.93935229472E+03  0.46999998093E+01 0. -1.
</event>
<event>
 5   0  0.1242761E-04  0.2016358E+04  0.7818609E-02  0.8599011E-01
       -2   -1    0    0    0  501  0.00000000000E+00  0.00000000000E+00  0.50905444010E+03  0.50905444011E+03  0.25500000920E-02 0. -1.
        2   -1    0    0  501    0  0.00000000000E+00  0.00000000000E+00 -0.19966924473E+04  0.19966924473E+04  0.25500000920E-02 0.  1.
    10030    2    1    2    0    0  0.00000000000E+00  0.00000000000E+00 -0.14876380072E+04  0.25057468874E+04  0.20163582577E+04 0.  0.
        4    1    3    3  502    0 -0.74269449031E+03 -0.43545265558E+03 -0.91888727743E+02  0.86582866225E+03  0.12699999809E+01 0. -1.
       -4    1    3    3    0  502  0.74269449031E+03  0.43545265558E+03 -0.13957492794E+04  0.16399182251E+04  0.12699999809E+01 0.  1.
</event>
<event>
 5   0  0.6222733E-05  0.2056636E+04  0.7818609E-02  0.8580590E-01
        1   -1    0    0  501    0  0.00000000000E+00  0.00000000000E+00  0.16242610954E+04  0.16242610954E+04  0.50400001928E-02 0.  1.
       -1   -1    0    0    0  501  0.00000000000E+00  0.00000000000E+00 -0.65102706321E+03  0.65102706323E+03  0.50400001928E-02 0. -1.
    10030    2    1    2    0    0  0.00000000000E+00  0.00000000000E+00  0.97323403219E+03  0.22752881586E+04  0.20566360211E+04 0.  0.
        2    1    3    3  502    0  0.13240324223E+03  0.32411911377E+03  0.15562896620E+04  0.15951869265E+04  0.25500000920E-02 0.  1.
       -2    1    3    3    0  502 -0.13240324223E+03 -0.32411911377E+03 -0.58305562982E+03  0.68010123212E+03  0.25500000920E-02 0. -1.
</event>
<event>
 5   0  0.1281789E-04  0.1983964E+04  0.7818609E-02  0.8614155E-01
        2   -1    0    0  501    0  0.00000000000E+00  0.00000000000E+00  0.25769500390E+04  0.25769500390E+04  0.25500000920E-02 0.  1.
       -2   -1    0    0    0  501  0.00000000000E+00  0.00000000000E+00 -0.38185758135E+03  0.38185758135E+03  0.25500000920E-02 0. -1.
    10030    2    1    2    0    0  0.00000000000E+00  0.00000000000E+00  0.21950924577E+04  0.29588076204E+04  0.19839636178E+04 0.  0.
        2    1    3    3  502    0 -0.17748215315E+03  0.95920582774E+03  0.82888504372E+03  0.12800883369E+04  0.25500000920E-02 0. -1.
       -2    1    3    3    0  502  0.17748215315E+03 -0.95920582774E+03  0.13662074140E+04  0.16787192834E+04  0.25500000920E-02 0.  1.
</event>
<event>
 5   0  0.1274868E-04  0.1986935E+04  0.7818609E-02  0.8612753E-01
       -2   -1    0    0    0  501  0.00000000000E+00  0.00000000000E+00  0.87414281526E+03  0.87414281526E+03  0.25500000920E-02 0.  1.
        2   -1    0    0  501    0  0.00000000000E+00  0.00000000000E+00 -0.11290807069E+04  0.11290807069E+04  0.25500000920E-02 0. -1.
    10030    2    1    2    0    0  0.00000000000E+00  0.00000000000E+00 -0.25493789160E+03  0.20032235221E+04  0.19869351149E+04 0.  0.
        1    1    3    3  502    0 -0.64553222203E+03 -0.18748720609E+03 -0.86498092662E+03  0.10954703581E+04  0.50400001928E-02 0. -1.
       -1    1    3    3    0  502  0.64553222203E+03  0.18748720609E+03  0.61004303502E+03  0.90775316398E+03  0.50400001928E-02 0.  1.
</event>
<event>
 5   0  0.1244229E-04  0.2101997E+04  0.7818609E-02  0.8560364E-01
        2   -1    0    0  501    0  0.00000000000E+00  0.00000000000E+00  0.15265123484E+04  0.15265123484E+04  0.25500000920E-02 0.  1.
       -2   -1    0    0    0  501  0.00000000000E+00  0.00000000000E+00 -0.72360911756E+03  0.72360911757E+03  0.25500000920E-02 0. -1.
    10030    2    1    2    0    0  0.00000000000E+00  0.00000000000E+00  0.80290323079E+03  0.22501214659E+04  0.21019973866E+04 0.  0.
        5    1    3    3  502    0  0.26909975176E+03  0.23237420968E+03 -0.65726460059E+03  0.74728260712E+03  0.46999998093E+01 0. -1.
       -5    1    3    3    0  502 -0.26909975176E+03 -0.23237420968E+03  0.14601678314E+04  0.15028388588E+04  0.46999998093E+01 0.  1.
</event>
<event>
 5   0  0.6222733E-05  0.2006202E+04  0.7818609E-02  0.8603726E-01
       -1   -1    0    0    0  501  0.00000000000E+00  0.00000000000E+00  0.91843615640E+03  0.91843615642E+03  0.50400001928E-02 0.  1.
        1   -1    0    0  501    0  0.00000000000E+00  0.00000000000E+00 -0.10955707525E+04  0.10955707525E+04  0.50400001928E-02 0. -1.
    10030    2    1    2    0    0  0.00000000000E+00  0.00000000000E+00 -0.17713459613E+03  0.20140069090E+04  0.20062021743E+04 0.  0.
        2    1    3    3  502    0 -0.88744107483E+03 -0.45914670940E+02 -0.55572910706E+03  0.10480909592E+04  0.25500000920E-02 0. -1.
       -2    1    3    3    0  502  0.88744107483E+03  0.45914670940E+02  0.37859451093E+03  0.96591594977E+03  0.25500000920E-02 0.  1.
</event>
<event>
 5   0  0.6028501E-05  0.1957519E+04  0.7818609E-02  0.8626743E-01
       -1   -1    0    0    0  501  0.00000000000E+00  0.00000000000E+00  0.68599459767E+03  0.68599459768E+03  0.50400001928E-02 0.  1.
        1   -1    0    0  501    0  0.00000000000E+00  0.00000000000E+00 -0.13964691063E+04  0.13964691063E+04  0.50400001928E-02 0. -1.
    10030    2    1    2    0    0  0.00000000000E+00  0.00000000000E+00 -0.71047450859E+03  0.20824637040E+04  0.19575191061E+04 0.  0.
        4    1    3    3  502    0  0.90995635346E+03 -0.68366150117E+02 -0.73176949658E+03  0.11696934234E+04  0.12699999809E+01 0. -1.
       -4    1    3    3    0  502 -0.90995635346E+03  0.68366150117E+02  0.21294987987E+02  0.91277028057E+03  0.12699999809E+01 0.  1.
</event>
<event>
 5   0  0.1242761E-04  0.2207182E+04  0.7818609E-02  0.8515445E-01
        2   -1    0    0  501    0  0.00000000000E+00  0.00000000000E+00  0.28313598036E+04  0.28313598036E+04  0.25500000920E-02 0. -1.
       -2   -1    0    0    0  501  0.00000000000E+00  0.00000000000E+00 -0.43015147479E+03  0.43015147480E+03  0.25500000920E-02 0.  1.
    10030    2    1    2    0    0  0.00000000000E+00  0.00000000000E+00  0.24012083288E+04  0.32615112784E+04  0.22071824530E+04 0.  0.
        4    1    3    3  502    0  0.48377762378E+03 -0.56568315674E+03  0.24045956097E+04  0.25171650487E+04  0.12699999809E+01 0. -1.
       -4    1    3    3    0  502 -0.48377762378E+03  0.56568315674E+03 -0.33872809376E+01  0.74434622970E+03  0.12699999809E+01 0.  1.
</event>
<event>
 5   0  0.1159914E-04  0.1983477E+04  0.7818609E-02  0.8614385E-01
        2   -1    0    0  501    0  0.00000000000E+00  0.00000000000E+00  0.14173315990E+04  0.14173315991E+04  0.25500000920E-02 0. -1.
       -2   -1    0    0    0  501  0.00000000000E+00  0.00000000000E+00 -0.69394148364E+03  0.69394148365E+03  0.25500000920E-02 0.  1.
    10030    2    1    2    0    0  0.00000000000E+00  0.00000000000E+00  0.72339011541E+03  0.21112730827E+04  0.19834769398E+04 0.  0.
        3    1    3    3  502    0  0.10786030641E+03 -0.86031018267E+03  0.87414695366E+03  0.12312190556E+04  0.10100000352E+00 0. -1.
       -3    1    3    3    0  502 -0.10786030641E+03  0.86031018267E+03 -0.15075683826E+03  0.88005402709E+03  0.10100000352E+00 0.  1.
</event>
<event>
 5   0  0.6256535E-05  0.1977972E+04  0.7818609E-02  0.8616989E-01
        1   -1    0    0  501    0  0.00000000000E+00  0.00000000000E+00  0.10134550924E+04  0.10134550924E+04  0.50400001928E-02 0. -1.
       -1   -1    0    0    0  501  0.00000000000E+00  0.00000000000E+00 -0.96510783564E+03  0.96510783565E+03  0.50400001928E-02 0.  1.
    10030    2    1    2    0    0  0.00000000000E+00  0.00000000000E+00  0.48347256729E+02  0.19785629280E+04  0.19779721441E+04 0.  0.
        1    1    3    3  502    0 -0.65282894972E+03 -0.37104981091E+03 -0.61962551234E+03  0.97354988333E+03  0.50400001928E-02 0.  1.
       -1    1    3    3    0  502  0.65282894972E+03  0.37104981091E+03  0.66797276907E+03  0.10050130447E+04  0.50400001928E-02 0. -1.
</event>
<event>
 5   0  0.6214547E-05  0.1977171E+04  0.7818609E-02  0.8617369E-01
        1   -1    0    0  501    0  0.00000000000E+00  0.00000000000E+00  0.73151260727E+03  0.73151260729E+03  0.50400001928E-02 0. -1.
       -1   -1    0    0    0  501  0.00000000000E+00  0.00000000000E+00 -0.13360005566E+04  0.13360005566E+04  0.50400001928E-02 0.  1.
    10030    2    1    2    0    0  0.00000000000E+00  0.00000000000E+00 -0.60448794935E+03  0.20675131639E+04  0.19771709592E+04 0.  0.
        3    1    3    3  502    0 -0.52351780403E+03  0.75994844377E+03 -0.67299874602E+03  0.11421557909E+04  0.10100000352E+00 0.  1.
       -3    1    3    3    0  502  0.52351780403E+03 -0.75994844377E+03  0.68510796676E+02  0.92535737301E+03  0.10100000352E+00 0. -1.
</event>
<event>
 5   0  0.6222733E-05  0.1960703E+04  0.7818609E-02  0.8625217E-01
       -1   -1    0    0    0  501  0.00000000000E+00  0.00000000000E+00  0.53902760020E+03  0.53902760022E+03  0.50400001928E-02 0.  1.
        1   -1    0    0  501    0  0.00000000000E+00  0.00000000000E+00 -0.17830047154E+04  0.17830047154E+04  0.50400001928E-02 0. -1.
    10030    2    1    2    0    0  0.00000000000E+00  0.00000000000E+00 -0.12439771152E+04  0.23220323156E+04  0.19607026831E+04 0.  0.
        2    1    3    3  502    0 -0.50043267417E+03  0.96700505091E+02 -0.16137562442E+04  0.16923336151E+04  0.25500000920E-02 0. -1.
       -2    1    3    3    0  502  0.50043267417E+03 -0.96700505091E+02  0.36977912907E+03  0.62969870047E+03  0.25500000920E-02 0.  1.
</event>
<event>
 5   0  0.6222733E-05  0.1984300E+04  0.7818609E-02  0.8613996E-01
        1   -1    0    0  501    0  0.00000000000E+00  0.00000000000E+00  0.52988058458E+03  0.52988058460E+03  0.50400001928E-02 0. -1.
       -1   -1    0    0    0  501  0.00000000000E+00  0.00000000000E+00 -0.18577055085E+04  0.18577055085E+04  0.50400001928E-02 0.  1.
    10030    2    1    2    0    0  0.00000000000E+00  0.00000000000E+00 -0.13278249239E+04  0.23875860931E+04  0.19843004620E+04 0.  0.
        2    1    3    3  502    0  0.27516237040E+02  0.80310590085E+03  0.36270697277E+02  0.80439529758E+03  0.25500000920E-02 0. -1.
       -2    1    3    3    0  502 -0.27516237040E+02 -0.80310590085E+03 -0.13640956212E+04  0.15831907955E+04  0.25500000920E-02 0.  1.
</event>
<event>
 5   0  0.1244229E-04  0.2007854E+04  0.7818609E-02  0.8602957E-01
        2   -1    0    0  501    0  0.00000000000E+00  0.00000000000E+00  0.11298902193E+04  0.11298902193E+04  0.25500000920E-02 0.  1.
       -2   -1    0    0    0  501  0.00000000000E+00  0.00000000000E+00 -0.89200651439E+03  0.89200651439E+03  0.25500000920E-02 0. -1.
    10030    2    1    2    0    0  0.00000000000E+00  0.00000000000E+00  0.23788370492E+03  0.20218967337E+04  0.20078540148E+04 0.  0.
        5    1    3    3  502    0 -0.42870619026E+03  0.90225339196E+03  0.21962696824E+03  0.10227943469E+04  0.46999998093E+01 0.  1.
       -5    1    3    3    0  502  0.42870619026E+03 -0.90225339196E+03  0.18256736680E+02  0.99910238680E+03  0.46999998093E+01 0. -1.
</event>
<event>
 5   0  0.6168338E-05  0.1997242E+04  0.7818609E-02  0.8607911E-01
       -1   -1    0    0    0  501  0.00000000000E+00  0.00000000000E+00  0.87344589534E+03  0.87344589535E+03  0.50400001928E-02 0. -1.
        1   -1    0    0  501    0  0.00000000000E+00  0.00000000000E+00 -0.11417349083E+04  0.11417349084E+04  0.50400001928E-02 0.  1.
    10030    2    1    2    0    0  0.00000000000E+00  0.00000000000E+00 -0.26828901301E+03  0.20151808037E+04  0.19972417673E+04 0.  0.
        5    1    3    3  502    0 -0.14057966270E+03 -0.62814596203E+03 -0.90447532293E+03  0.11101475987E+04  0.46999998093E+01 0.  1.
       -5    1    3    3    0  502  0.14057966270E+03  0.62814596203E+03  0.63618630992E+03  0.90503320498E+03  0.46999998093E+01 0. -1.
</event>
<event>
 5   0  0.6214547E-05  0.2013595E+04  0.7818609E-02  0.8600291E-01
       -1   -1    0    0    0  501  0.00000000000E+00  0.00000000000E+00  0.18207166102E+04  0.18207166102E+04  0.50400001928E-02 0. -1.
        1   -1    0    0  501    0  0.00000000000E+00  0.00000000000E+00 -0.55672639038E+03  0.55672639041E+03  0.50400001928E-02 0.  1.
    10030    2    1    2    0    0  0.00000000000E+00  0.00000000000E+00  0.12639902198E+04  0.23774430006E+04  0.20135947818E+04 0.  0.
        3    1    3    3  502    0  0.98755767138E+03 -0.15135729521E+03  0.48518095294E+03  0.11106663551E+04  0.10100000352E+00 0.  1.
       -3    1    3    3    0  502 -0.98755767138E+03  0.15135729521E+03  0.77880926683E+03  0.12667766454E+04  0.10100000352E+00 0. -1.
</event>
<event>
 5   0  0.6168338E-05  0.1936183E+04  0.7818609E-02  0.8637053E-01
       -1   -1    0    0    0  501  0.00000000000E+00  0.00000000000E+00  0.13129145719E+04  0.13129145719E+04  0.50400001928E-02 0.  1.
        1   -1    0    0  501    0  0.00000000000E+00  0.00000000000E+00 -0.71383222982E+03  0.71383222984E+03  0.50400001928E-02 0. -1.
    10030    2    1    2    0    0  0.00000000000E+00  0.00000000000E+00  0.59908234208E+03  0.20267468018E+04  0.19361825704E+04 0.  0.
        5    1    3    3  502    0 -0.16831477066E+03 -0.26190781218E+03  0.12590704853E+04  0.12969988978E+04  0.46999998093E+01 0.  1.
       -5    1    3    3    0  502  0.16831477066E+03  0.26190781218E+03 -0.65998814320E+03  0.72974790391E+03  0.46999998093E+01 0. -1.
</event>
<event>
 5   0  0.6256535E-05  0.1982828E+04  0.7818609E-02  0.8614691E-01
       -1   -1    0    0    0  501  0.00000000000E+00  0.00000000000E+00  0.35611359205E+03  0.35611359208E+03  0.50400001928E-02 0.  1.
        1   -1    0    0  501    0  0.00000000000E+00  0.00000000000E+00 -0.27600797413E+04  0.27600797413E+04  0.50400001928E-02 0. -1.
    10030    2    1    2    0    0  0.00000000000E+00  0.00000000000E+00 -0.24039661493E+04  0.31161933334E+04  0.19828281934E+04 0.  0.
        1    1    3    3  502    0 -0.58647326275E+03 -0.78449000882E+03 -0.14430388279E+04  0.17440574878E+04  0.50400001928E-02 0. -1.
       -1    1    3    3    0  502  0.58647326275E+03  0.78449000882E+03 -0.96092732136E+03  0.13721358456E+04  0.50400001928E-02 0.  1.
</event>
<event>
 5   0  0.1281789E-04  0.2022691E+04  0.7818609E-02  0.8596085E-01
       -2   -1    0    0    0  501  0.00000000000E+00  0.00000000000E+00  0.37017494078E+03  0.37017494079E+03  0.25500000920E-02 0. -1.
        2   -1    0    0  501    0  0.00000000000E+00  0.00000000000E+00 -0.27630717958E+04  0.27630717958E+04  0.25500000920E-02 0.  1.
    10030    2    1    2    0    0  0.00000000000E+00  0.00000000000E+00 -0.23928968551E+04  0.31332467366E+04  0.20226912156E+04 0.  0.
        2    1    3    3  502    0  0.47401889348E+03  0.67646081002E+03 -0.29250623929E+03  0.87627224017E+03  0.25500000920E-02 0. -1.
       -2    1    3    3    0  502 -0.47401889348E+03 -0.67646081002E+03 -0.21003906158E+04  0.22569744965E+04  0.25500000920E-02 0.  1.
</event>
<event>
 5   0  0.1274868E-04  0.2032288E+04  0.7818609E-02  0.8591672E-01
       -2   -1    0    0    0  501  0.00000000000E+00  0.00000000000E+00  0.13023506506E+04  0.13023506506E+04  0.25500000920E-02 0.  1.
        2   -1    0    0  501    0  0.00000000000E+00  0.00000000000E+00 -0.79283474428E+03  0.79283474428E+03  0.25500000920E-02 0. -1.
    10030    2    1    2    0    0  0.00000000000E+00  0.00000000000E+00  0.50951590632E+03  0.20951853949E+04  0.20322882129E+04 0.  0.
        1    1    3    3  502    0 -0.10053431469E+04  0.99053447688E+02  0.36779818611E+03  0.10750822919E+04  0.50400001928E-02 0.  1.
       -1    1    3    3    0  502  0.10053431469E+04 -0.99053447688E+02  0.14171772021E+03  0.10201031030E+04  0.50400001928E-02 0. -1.
</event>
<event>
 5   0  0.4479000E-05  0.2041002E+04  0.7818609E-02  0.8587687E-01
        3   -1    0    0  501    0  0.00000000000E+00  0.00000000000E+00  0.92204491867E+03  0.92204492420E+03  0.10100000352E+00 0. -1.
       -3   -1    0    0    0  501  0.00000000000E+00  0.00000000000E+00 -0.11294703937E+04  0.11294703982E+04  0.10100000352E+00 0.  1.
    10030    2    1    2    0    0  0.00000000000E+00  0.00000000000E+00 -0.20742547502E+03  0.20515153224E+04  0.20410021534E+04 0.  0.
        2    1    3    3  502    0  0.26391353890E+03  0.93156187411E+03  0.22038348944E+03  0.99298880342E+03  0.25500000920E-02 0. -1.
       -2    1    3    3    0  502 -0.26391353890E+03 -0.93156187411E+03 -0.42780896446E+03  0.10585265190E+04  0.25500000920E-02 0.  1.
</event>
<event>
 5   0  0.6222733E-05  0.1997450E+04  0.7818609E-02  0.8607814E-01
       -1   -1    0    0    0  501  0.00000000000E+00  0.00000000000E+00  0.54480185229E+03  0.54480185231E+03  0.50400001928E-02 0.  1.
        1   -1    0    0  501    0  0.00000000000E+00  0.00000000000E+00 -0.18308514753E+04  0.18308514753E+04  0.50400001928E-02 0. -1.
    10030    2    1    2    0    0  0.00000000000E+00  0.00000000000E+00 -0.12860496230E+04  0.23756533276E+04  0.19974496490E+04 0.  0.
        2    1    3    3  502    0 -0.11341387589E+03  0.22441800697E+03 -0.17925883928E+04  0.18101379216E+04  0.25500000920E-02 0. -1.
       -2    1    3    3    0  502  0.11341387589E+03 -0.22441800697E+03  0.50653876983E+03  0.56551540601E+03  0.25500000920E-02 0.  1.
</event>
<event>
 5   0  0.6214547E-05  0.1984104E+04  0.7818609E-02  0.8614089E-01
       -1   -1    0    0    0  501  0.00000000000E+00  0.00000000000E+00  0.43872938003E+03  0.43872938006E+03  0.50400001928E-02 0.  1.
        1   -1    0    0  501    0  0.00000000000E+00  0.00000000000E+00 -0.22432218301E+04  0.22432218301E+04  0.50400001928E-02 0. -1.
    10030    2    1    2    0    0  0.00000000000E+00  0.00000000000E+00 -0.18044924501E+04  0.26819512102E+04  0.19841041534E+04 0.  0.
        3    1    3    3  502    0  0.55984807590E+03  0.37316188008E+02  0.20364242592E+03  0.59690251617E+03  0.10100000352E+00 0.  1.
       -3    1    3    3    0  502 -0.55984807590E+03 -0.37316188008E+02 -0.20081348760E+04  0.20850486940E+04  0.10100000352E+00 0. -1.
</event>
<event>
 5   0  0.1281789E-04  0.2033119E+04  0.7818609E-02  0.8591291E-01
        2   -1    0    0  501    0  0.00000000000E+00  0.00000000000E+00  0.14556800195E+04  0.14556800195E+04  0.25500000920E-02 0.  1.
       -2   -1    0    0    0  501  0.00000000000E+00  0.00000000000E+00 -0.70990380407E+03  0.70990380408E+03  0.25500000920E-02 0. -1.
    10030    2    1    2    0    0  0.00000000000E+00  0.00000000000E+00  0.74577621538E+03  0.21655838235E+04  0.20331185734E+04 0.  0.
        2    1    3    3  502    0 -0.59263048170E+03  0.21517013683E+03 -0.47649015002E+03  0.79028598538E+03  0.25500000920E-02 0. -1.
       -2    1    3    3    0  502  0.59263048170E+03 -0.21517013683E+03  0.12222663654E+04  0.13752978381E+04  0.25500000920E-02 0.  1.
</event>
<event>
 5   0  0.1274868E-04  0.1980297E+04  0.7818609E-02  0.8615888E-01
       -2   -1    0    0    0  501  0.00000000000E+00  0.00000000000E+00  0.42581797746E+03  0.42581797747E+03  0.25500000920E-02 0. -1.
        2   -1    0    0  501    0  0.00000000000E+00  0.00000000000E+00 -0.23023793367E+04  0.23023793367E+04  0.25500000920E-02 0.  1.
    10030    2    1    2    0    0  0.00000000000E+00  0.00000000000E+00 -0.18765613592E+04  0.27281973142E+04  0.19802974650E+04 0.  0.
        1    1    3    3  502    0 -0.85236026990E+02  0.75209419814E+03 -0.58852375850E+02  0.75919329907E+03  0.50400001928E-02 0. -1.
       -1    1    3    3    0  502  0.85236026990E+02 -0.75209419814E+03 -0.18177089834E+04  0.19690040151E+04  0.50400001928E-02 0.  1.
</event>
<event>
 5   0  0.6256535E-05  0.1996142E+04  0.7818609E-02  0.8608427E-01
        1   -1    0    0  501    0  0.00000000000E+00  0.00000000000E+00  0.20890659784E+04  0.20890659784E+04  0.50400001928E-02 0.  1.
       -1   -1    0    0    0  501  0.00000000000E+00  0.00000000000E+00 -0.47683777815E+03  0.47683777818E+03  0.50400001928E-02 0. -1.
    10030    2    1    2    0    0  0.00000000000E+00  0.00000000000E+00  0.16122282003E+04  0.25659037566E+04  0.19961418583E+04 0.  0.
        1    1    3    3  502    0  0.47716817689E+03 -0.69024730847E+03  0.15007406285E+04  0.17194049116E+04  0.50400001928E-02 0.  1.
       -1    1    3    3    0  502 -0.47716817689E+03  0.69024730847E+03  0.11148757172E+03  0.84649884499E+03  0.50400001928E-02 0. -1.
</event>
<event>
 5   0  0.1281789E-04  0.2003358E+04  0.7818609E-02  0.8605052E-01
       -2   -1    0    0    0  501  0.00000000000E+00  0.00000000000E+00  0.12516883538E+04  0.12516883538E+04  0.25500000920E-02 0.  1.
        2   -1    0    0  501    0  0.00000000000E+00  0.00000000000E+00 -0.80160593197E+03  0.80160593198E+03  0.25500000920E-02 0. -1.
    10030    2    1    2    0    0  0.00000000000E+00  0.00000000000E+00  0.45008242182E+03  0.20532942858E+04  0.20033579904E+04 0.  0.
        2    1    3    3  502    0  0.87853366079E+03  0.44417246528E+03  0.41472247207E+03  0.10682253044E+04  0.25500000920E-02 0.  1.
       -2    1    3    3    0  502 -0.87853366079E+03 -0.44417246528E+03  0.35359949749E+02  0.98506898140E+03  0.25500000920E-02 0. -1.
</event>
<event>
 5   0  0.6028501E-05  0.2076546E+04  0.7818609E-02  0.8571646E-01
       -1   -1    0    0    0  501  0.00000000000E+00  0.00000000000E+00  0.14770490296E+04  0.14770490297E+04  0.50400001928E-02 0.  1.
        1   -1    0    0  501    0  0.00000000000E+00  0.00000000000E+00 -0.72984099738E+03  0.72984099739E+03  0.50400001928E-02 0. -1.
    10030    2    1    2    0    0  0.00000000000E+00  0.00000000000E+00  0.74720803227E+03  0.22068900271E+04  0.20765461103E+04 0.  0.
        4    1    3    3  502    0 -0.36999966244E+03 -0.55729790100E+03  0.12175050447E+04  0.13891727205E+04  0.12699999809E+01 0.  1.
       -4    1    3    3    0  502  0.36999966244E+03  0.55729790100E+03 -0.47029701240E+03  0.81771730655E+03  0.12699999809E+01 0. -1.
</event>
<event>
 5   0  0.6214547E-05  0.2006730E+04  0.7818609E-02  0.8603481E-01
       -1   -1    0    0    0  501  0.00000000000E+00  0.00000000000E+00  0.10278990844E+04  0.10278990844E+04  0.50400001928E-02 0. -1.
        1   -1    0    0  501    0  0.00000000000E+00  0.00000000000E+00 -0.97941635868E+03  0.97941635869E+03  0.50400001928E-02 0.  1.
    10030    2    1    2    0    0  0.00000000000E+00  0.00000000000E+00  0.48482725721E+02  0.20073154431E+04  0.20067298556E+04 0.  0.
        3    1    3    3  502    0 -0.63201865755E+03  0.30271031062E+03  0.74254564923E+03  0.10210069378E+04  0.10100000352E+00 0. -1.
       -3    1    3    3    0  502  0.63201865755E+03 -0.30271031062E+03 -0.69406292351E+03  0.98630850531E+03  0.10100000352E+00 0.  1.
</event>
<event>
 5   0  0.1244229E-04  0.2001616E+04  0.7818609E-02  0.8605865E-01
       -2   -1    0    0    0  501  0.00000000000E+00  0.00000000000E+00  0.10893204888E+04  0.10893204888E+04  0.25500000920E-02 0. -1.
        2   -1    0    0  501    0  0.00000000000E+00  0.00000000000E+00 -0.91948766254E+03  0.91948766254E+03  0.25500000920E-02 0.  1.
    10030    2    1    2    0    0  0.00000000000E+00  0.00000000000E+00  0.16983282626E+03  0.20088081513E+04  0.20016160971E+04 0.  0.
        5    1    3    3  502    0 -0.67763910894E+03  0.47292868674E+03 -0.48168133049E+03  0.95650159375E+03  0.46999998093E+01 0.  1.
       -5    1    3    3    0  502  0.67763910894E+03 -0.47292868674E+03  0.65151415676E+03  0.10523065576E+04  0.46999998093E+01 0. -1.
</event>
<event>
 5   0  0.1281789E-04  0.1971415E+04  0.7818609E-02  0.8620103E-01
        2   -1    0    0  501    0  0.00000000000E+00  0.00000000000E+00  0.64759120242E+03  0.64759120243E+03  0.25500000920E-02 0. -1.
       -2   -1    0    0    0  501  0.00000000000E+00  0.00000000000E+00 -0.15003582557E+04  0.15003582557E+04  0.25500000920E-02 0.  1.
    10030    2    1    2    0    0  0.00000000000E+00  0.00000000000E+00 -0.85276705330E+03  0.21479494582E+04  0.19714145245E+04 0.  0.
        2    1    3    3  502    0 -0.59015939851E+03 -0.63871492362E+03 -0.93202499081E+03  0.12747217158E+04  0.25500000920E-02 0.  1.
       -2    1    3    3    0  502  0.59015939851E+03  0.63871492362E+03  0.79257937505E+02  0.87322774233E+03  0.25500000920E-02 0. -1.
</event>
<event>
 5   0  0.4479000E-05  0.2016584E+04  0.7818609E-02  0.8598906E-01
       -3   -1    0    0    0  501  0.00000000000E+00  0.00000000000E+00  0.98788289383E+03  0.98788289899E+03  0.10100000352E+00 0.  1.
        3   -1    0    0  501    0  0.00000000000E+00  0.00000000000E+00 -0.10291230166E+04  0.10291230215E+04  0.10100000352E+00 0. -1.
    10030    2    1    2    0    0  0.00000000000E+00  0.00000000000E+00 -0.41240122745E+02  0.20170059205E+04  0.20165842744E+04 0.  0.
        3    1    3    3  502    0 -0.33404564810E+03  0.12922115758E+03  0.92210999362E+03  0.98922770540E+03  0.10100000352E+00 0.  1.
       -3    1    3    3    0  502  0.33404564810E+03 -0.12922115758E+03 -0.96335011637E+03  0.10277782151E+04  0.10100000352E+00 0. -1.
</event>
<event>
 5   0  0.6168338E-05  0.1959904E+04  0.7818609E-02  0.8625600E-01
       -1   -1    0    0    0  501  0.00000000000E+00  0.00000000000E+00  0.33571387418E+03  0.33571387422E+03  0.50400001928E-02 0. -1.
        1   -1    0    0  501    0  0.00000000000E+00  0.00000000000E+00 -0.28604899220E+04  0.28604899220E+04  0.50400001928E-02 0.  1.
    10030    2    1    2    0    0  0.00000000000E+00  0.00000000000E+00 -0.25247760478E+04  0.31962037962E+04  0.19599042363E+04 0.  0.
        5    1    3    3  502    0  0.87282969356E+03  0.23700606543E+02 -0.19878460202E+04  0.21711626569E+04  0.46999998093E+01 0.  1.
       -5    1    3    3    0  502 -0.87282969356E+03 -0.23700606543E+02 -0.53693002760E+03  0.10250411393E+04  0.46999998093E+01 0. -1.
</event>
<event>
 5   0  0.6222733E-05  0.1999332E+04  0.7818609E-02  0.8606933E-01
       -1   -1    0    0    0  501  0.00000000000E+00  0.00000000000E+00  0.48878286560E+03  0.48878286562E+03  0.50400001928E-02 0. -1.
        1   -1    0    0  501    0  0.00000000000E+00  0.00000000000E+00 -0.20445309688E+04  0.20445309688E+04  0.50400001928E-02 0.  1.
    10030    2    1    2    0    0  0.00000000000E+00  0.00000000000E+00 -0.15557481032E+04  0.25333138344E+04  0.19993315941E+04 0.  0.
        2    1    3    3  502    0 -0.90170727623E+02  0.93470674824E+02 -0.20337956472E+04  0.20379382380E+04  0.25500000920E-02 0.  1.
       -2    1    3    3    0  502  0.90170727623E+02 -0.93470674824E+02  0.47804754404E+03  0.49537559643E+03  0.25500000920E-02 0. -1.
</event>
<event>
 5   0  0.6256535E-05  0.1951097E+04  0.7818609E-02  0.8629832E-01
        1   -1    0    0  501    0  0.00000000000E+00  0.00000000000E+00  0.90923599298E+03  0.90923599300E+03  0.50400001928E-02 0.  1.
       -1   -1    0    0    0  501  0.00000000000E+00  0.00000000000E+00 -0.10466969047E+04  0.10466969047E+04  0.50400001928E-02 0. -1.
    10030    2    1    2    0    0  0.00000000000E+00  0.00000000000E+00 -0.13746091172E+03  0.19559328977E+04  0.19510966142E+04 0.  0.
        1    1    3    3  502    0  0.87270351574E+03 -0.34578696639E+03  0.19747333039E+03  0.95925792608E+03  0.50400001928E-02 0. -1.
       -1    1    3    3    0  502 -0.87270351574E+03  0.34578696639E+03 -0.33493424211E+03  0.99667497163E+03  0.50400001928E-02 0.  1.
</event>
<event>
 5   0  0.1281789E-04  0.1998437E+04  0.7818609E-02  0.8607352E-01
        2   -1    0    0  501    0  0.00000000000E+00  0.00000000000E+00  0.16464784277E+04  0.16464784277E+04  0.25500000920E-02 0. -1.
       -2   -1    0    0    0  501  0.00000000000E+00  0.00000000000E+00 -0.60640765561E+03  0.60640765561E+03  0.25500000920E-02 0.  1.
    10030    2    1    2    0    0  0.00000000000E+00  0.00000000000E+00  0.10400707721E+04  0.22528860833E+04  0.19984365122E+04 0.  0.
        2    1    3    3  502    0 -0.16312049035E+03 -0.45858705917E+03  0.15038005840E+04  0.15806095601E+04  0.25500000920E-02 0. -1.
       -2    1    3    3    0  502  0.16312049035E+03  0.45858705917E+03 -0.46372981187E+03  0.67227652319E+03  0.25500000920E-02 0.  1.
</event>
<event>
 5   0  0.6256535E-05  0.1996829E+04  0.7818609E-02  0.8608105E-01
       -1   -1    0    0    0  501  0.00000000000E+00  0.00000000000E+00  0.11471688151E+04  0.11471688151E+04  0.50400001928E-02 0. -1.
        1   -1    0    0  501    0  0.00000000000E+00  0.00000000000E+00 -0.86894921429E+03  0.86894921431E+03  0.50400001928E-02 0.  1.
    10030    2    1    2    0    0  0.00000000000E+00  0.00000000000E+00  0.27821960080E+03  0.20161180294E+04  0.19968289266E+04 0.  0.
        1    1    3    3  502    0 -0.85778558118E+03 -0.22305316560E+02  0.65446952245E+03  0.10791774582E+04  0.50400001928E-02 0. -1.
       -1    1    3    3    0  502  0.85778558118E+03  0.22305316560E+02 -0.37624992166E+03  0.93694057122E+03  0.50400001928E-02 0.  1.
</event>
<event>
 5   0  0.1244229E-04  0.2019638E+04  0.7818609E-02  0.8597494E-01
       -2   -1    0    0    0  501  0.00000000000E+00  0.00000000000E+00  0.88788738465E+03  0.88788738465E+03  0.25500000920E-02 0. -1.
        2   -1    0    0  501    0  0.00000000000E+00  0.00000000000E+00 -0.11484955217E+04  0.11484955217E+04  0.25500000920E-02 0.  1.
    10030    2    1    2    0    0  0.00000000000E+00  0.00000000000E+00 -0.26060813701E+03  0.20363829063E+04  0.20196382696E+04 0.  0.
        5    1    3    3  502    0  0.55120394328E+03  0.63801917119E+03 -0.69062571053E+03  0.10898991751E+04  0.46999998093E+01 0.  1.
       -5    1    3    3    0  502 -0.55120394328E+03 -0.63801917119E+03  0.43001757351E+03  0.94648373120E+03  0.46999998093E+01 0. -1.
</event>
<event>
 5   0  0.6214547E-05  0.2016769E+04  0.7818609E-02  0.8598821E-01
       -1   -1    0    0    0  501  0.00000000000E+00  0.00000000000E+00  0.91833369479E+03  0.91833369480E+03  0.50400001928E-02 0. -1.
        1   -1    0    0  501    0  0.00000000000E+00  0.00000000000E+00 -0.11072655078E+04  0.11072655078E+04  0.50400001928E-02 0.  1.
    10030    2    1    2    0    0  0.00000000000E+00  0.00000000000E+00 -0.18893181305E+03  0.20255992026E+04  0.20167689257E+04 0.  0.
        3    1    3    3  502    0  0.96759645497E+03  0.23085566327E+03 -0.26042246914E+03  0.10282787120E+04  0.10100000352E+00 0.  1.
       -3    1    3    3    0  502 -0.96759645497E+03 -0.23085566327E+03  0.71490656092E+02  0.99732049064E+03  0.10100000352E+00 0. -1.
</event>
<event>
 5   0  0.4479000E-05  0.2020058E+04  0.7818609E-02  0.8597300E-01
       -3   -1    0    0    0  501  0.00000000000E+00  0.00000000000E+00  0.11169642860E+04  0.11169642905E+04  0.10100000352E+00 0.  1.
        3   -1    0    0  501    0  0.00000000000E+00  0.00000000000E+00 -0.91333120643E+03  0.91333121201E+03  0.10100000352E+00 0. -1.
    10030    2    1    2    0    0  0.00000000000E+00  0.00000000000E+00  0.20363307955E+03  0.20302955026E+04  0.20200577706E+04 0.  0.
        1    1    3    3  502    0 -0.27373669708E+02 -0.30483889692E+03 -0.86560114249E+03  0.91811840673E+03  0.50400001928E-02 0. -1.
       -1    1    3    3    0  502  0.27373669708E+02  0.30483889692E+03  0.10692342220E+04  0.11121770958E+04  0.50400001928E-02 0.  1.
</event>
<event>
 5   0  0.6168338E-05  0.1999302E+04  0.7818609E-02  0.8606947E-01
       -1   -1    0    0    0  501  0.00000000000E+00  0.00000000000E+00  0.77887560492E+03  0.77887560494E+03  0.50400001928E-02 0.  1.
        1   -1    0    0  501    0  0.00000000000E+00  0.00000000000E+00 -0.12830064070E+04  0.12830064070E+04  0.50400001928E-02 0. -1.
    10030    2    1    2    0    0  0.00000000000E+00  0.00000000000E+00 -0.50413080209E+03  0.20618820120E+04  0.19993022697E+04 0.  0.
        5    1    3    3  502    0  0.28939298928E+03 -0.95493469922E+03 -0.18991534953E+03  0.10157452988E+04  0.46999998093E+01 0.  1.
       -5    1    3    3    0  502 -0.28939298928E+03  0.95493469922E+03 -0.31421545257E+03  0.10461367132E+04  0.46999998093E+01 0. -1.
</event>
<event>
 5   0  0.1281789E-04  0.2155058E+04  0.7818609E-02  0.8537370E-01
        2   -1    0    0  501    0  0.00000000000E+00  0.00000000000E+00  0.24803665084E+04  0.24803665084E+04  0.25500000920E-02 0.  1.
       -2   -1    0    0    0  501  0.00000000000E+00  0.00000000000E+00 -0.46810352937E+03  0.46810352938E+03  0.25500000920E-02 0. -1.
    10030    2    1    2    0    0  0.00000000000E+00  0.00000000000E+00  0.20122629790E+04  0.29484700378E+04  0.21550576018E+04 0.  0.
        2    1    3    3  502    0  0.74240195063E+03  0.33607597298E+03  0.19706239024E+04  0.21324789051E+04  0.25500000920E-02 0.  1.
       -2    1    3    3    0  502 -0.74240195063E+03 -0.33607597298E+03  0.41639076625E+02  0.81599113269E+03  0.25500000920E-02 0. -1.
</event>
<event>
 5   0  0.4479000E-05  0.2005298E+04  0.7818609E-02  0.8604148E-01
        3   -1    0    0  501    0  0.00000000000E+00  0.00000000000E+00  0.17603306459E+04  0.17603306488E+04  0.10100000352E+00 0.  1.
       -3   -1    0    0    0  501  0.00000000000E+00  0.00000000000E+00 -0.57108851842E+03  0.57108852735E+03  0.10100000352E+00 0. -1.
    10030    2    1    2    0    0  0.00000000000E+00  0.00000000000E+00  0.11892421275E+04  0.23314191761E+04  0.20052976181E+04 0.  0.
        3    1    3    3  502    0  0.13572461200E+03  0.19517122414E+03 -0.53784957921E+03  0.58804349932E+03  0.10100000352E+00 0. -1.
       -3    1    3    3    0  502 -0.13572461200E+03 -0.19517122414E+03  0.17270917067E+04  0.17433756768E+04  0.10100000352E+00 0.  1.
</event>
<event>
 5   0  0.6256535E-05  0.1983980E+04  0.7818609E-02  0.8614147E-01
        1   -1    0    0  501    0  0.00000000000E+00  0.00000000000E+00  0.11279894469E+04  0.11279894469E+04  0.50400001928E-02 0.  1.
       -1   -1    0    0    0  501  0.00000000000E+00  0.00000000000E+00 -0.87238814458E+03  0.87238814459E+03  0.50400001928E-02 0. -1.
    10030    2    1    2    0    0  0.00000000000E+00  0.00000000000E+00  0.25560130235E+03  0.20003775915E+04  0.19839804643E+04 0.  0.
        1    1    3    3  502    0 -0.16468864559E+02 -0.38812025444E+03  0.10481072941E+04  0.11177823828E+04  0.50400001928E-02 0.  1.
       -1    1    3    3    0  502  0.16468864559E+02  0.38812025444E+03 -0.79250599176E+03  0.88259520869E+03  0.50400001928E-02 0. -1.
</event>
<event>
 5   0  0.1281789E-04  0.1989211E+04  0.7818609E-02  0.8611681E-01
       -2   -1    0    0    0  501  0.00000000000E+00  0.00000000000E+00  0.78157534815E+03  0.78157534816E+03  0.25500000920E-02 0.  1.
        2   -1    0    0  501    0  0.00000000000E+00  0.00000000000E+00 -0.12657004223E+04  0.12657004223E+04  0.25500000920E-02 0. -1.
    10030    2    1    2    0    0  0.00000000000E+00  0.00000000000E+00 -0.48412507418E+03  0.20472757705E+04  0.19892111484E+04 0.  0.
        2    1    3    3  502    0 -0.50954074467E+03  0.68240615366E+03 -0.77080002529E+03  0.11486699300E+04  0.25500000920E-02 0. -1.
       -2    1    3    3    0  502  0.50954074467E+03 -0.68240615366E+03  0.28667495111E+03  0.89860584052E+03  0.25500000920E-02 0.  1.
</event>
<event>
 5   0  0.6222733E-05  0.1971327E+04  0.7818609E-02  0.8620145E-01
        1   -1    0    0  501    0  0.00000000000E+00  0.00000000000E+00  0.11392875768E+04  0.11392875768E+04  0.50400001928E-02 0. -1.
       -1   -1    0    0    0  501  0.00000000000E+00  0.00000000000E+00 -0.85275438453E+03  0.85275438455E+03  0.50400001928E-02 0.  1.
    10030    2    1    2    0    0  0.00000000000E+00  0.00000000000E+00  0.28653319226E+03  0.19920419614E+04  0.19713269403E+04 0.  0.
        2    1    3    3  502    0 -0.79123587182E+02  0.76177431918E+03 -0.48371428232E+03  0.90583671947E+03  0.25500000920E-02 0.  1.
       -2    1    3    3    0  502  0.79123587182E+02 -0.76177431918E+03  0.77024747458E+03  0.10862052419E+04  0.25500000920E-02 0. -1.
</event>
<event>
 5   0  0.6222733E-05  0.2007818E+04  0.7818609E-02  0.8602974E-01
       -1   -1    0    0    0  501  0.00000000000E+00  0.00000000000E+00  0.10559348892E+04  0.10559348892E+04  0.50400001928E-02 0. -1.
        1   -1    0    0  501    0  0.00000000000E+00  0.00000000000E+00 -0.95444677722E+03  0.95444677723E+03  0.50400001928E-02 0.  1.
    10030    2    1    2    0    0  0.00000000000E+00  0.00000000000E+00  0.10148811193E+03  0.20103816664E+04  0.20078183702E+04 0.  0.
        2    1    3    3  502    0 -0.89959544177E+03 -0.32183330645E+03  0.35933390899E+03  0.10207690699E+04  0.25500000920E-02 0.  1.
       -2    1    3    3    0  502  0.89959544177E+03  0.32183330645E+03 -0.25784579706E+03  0.98961259645E+03  0.25500000920E-02 0. -1.
</event>
<event>
 5   0  0.6028501E-05  0.1988722E+04  0.7818609E-02  0.8611912E-01
        1   -1    0    0  501    0  0.00000000000E+00  0.00000000000E+00  0.23241007159E+04  0.23241007159E+04  0.50400001928E-02 0.  1.
       -1   -1    0    0    0  501  0.00000000000E+00  0.00000000000E+00 -0.42543515891E+03  0.42543515894E+03  0.50400001928E-02 0. -1.
    10030    2    1    2    0    0  0.00000000000E+00  0.00000000000E+00  0.18986655570E+04  0.27495358749E+04  0.19887223612E+04 0.  0.
        4    1    3    3  502    0 -0.88451522308E+03 -0.38526135734E+02  0.32350133405E+03  0.94260605187E+03  0.12699999809E+01 0. -1.
       -4    1    3    3    0  502  0.88451522308E+03  0.38526135734E+02  0.15751642230E+04  0.18069298230E+04  0.12699999809E+01 0.  1.
</event>
<event>
 5   0  0.6028501E-05  0.2059071E+04  0.7818609E-02  0.8579490E-01
        1   -1    0    0  501    0  0.00000000000E+00  0.00000000000E+00  0.17955127807E+04  0.17955127808E+04  0.50400001928E-02 0. -1.
       -1   -1    0    0    0  501  0.00000000000E+00  0.00000000000E+00 -0.59032931679E+03  0.59032931681E+03  0.50400001928E-02 0.  1.
    10030    2    1    2    0    0  0.00000000000E+00  0.00000000000E+00  0.12051834640E+04  0.23858420976E+04  0.20590714734E+04 0.  0.
        4    1    3    3  502    0 -0.69245540597E+03  0.75567905487E+03  0.71491313254E+03  0.12496590428E+04  0.12699999809E+01 0. -1.
       -4    1    3    3    0  502  0.69245540597E+03 -0.75567905487E+03  0.49027033141E+03  0.11361830548E+04  0.12699999809E+01 0.  1.
</event>
<event>
 5   0  0.6168338E-05  0.1993999E+04  0.7818609E-02  0.8609432E-01
        1   -1    0    0  501    0  0.00000000000E+00  0.00000000000E+00  0.24338468242E+04  0.24338468242E+04  0.50400001928E-02 0. -1.
       -1   -1    0    0    0  501  0.00000000000E+00  0.00000000000E+00 -0.40841006732E+03  0.40841006736E+03  0.50400001928E-02 0.  1.
    10030    2    1    2    0    0  0.00000000000E+00  0.00000000000E+00  0.20254367568E+04  0.28422568915E+04  0.19939985410E+04 0.  0.
        5    1    3    3  502    0 -0.82280553015E+03 -0.38880992031E+03  0.15931287396E+04  0.18347379556E+04  0.46999998093E+01 0. -1.
       -5    1    3    3    0  502  0.82280553015E+03  0.38880992031E+03  0.43230801722E+03  0.10075189360E+04  0.46999998093E+01 0.  1.
</event>
<event>
 5   0  0.6214547E-05  0.2004546E+04  0.7818609E-02  0.8604498E-01
        1   -1    0    0  501    0  0.00000000000E+00  0.00000000000E+00  0.20121672853E+04  0.20121672853E+04  0.50400001928E-02 0. -1.
       -1   -1    0    0    0  501  0.00000000000E+00  0.00000000000E+00 -0.49923859273E+03  0.49923859275E+03  0.50400001928E-02 0.  1.
    10030    2    1    2    0    0  0.00000000000E+00  0.00000000000E+00  0.15129286926E+04  0.25114058781E+04  0.20045463965E+04 0.  0.
        3    1    3    3  502    0  0.46567813284E+03  0.33936852911E+03 -0.27097176731E+03  0.63675178118E+03  0.10100000352E+00 0.  1.
       -3    1    3    3    0  502 -0.46567813284E+03 -0.33936852911E+03  0.17839004599E+04  0.18746540969E+04  0.10100000352E+00 0. -1.
</event>
<event>
 5   0  0.1244229E-04  0.1959217E+04  0.7818609E-02  0.8625929E-01
       -2   -1    0    0    0  501  0.00000000000E+00  0.00000000000E+00  0.10001980212E+04  0.10001980212E+04  0.25500000920E-02 0. -1.
        2   -1    0    0  501    0  0.00000000000E+00  0.00000000000E+00 -0.95944313485E+03  0.95944313485E+03  0.25500000920E-02 0.  1.
    10030    2    1    2    0    0  0.00000000000E+00  0.00000000000E+00  0.40754886313E+02  0.19596411560E+04  0.19592173181E+04 0.  0.
        5    1    3    3  502    0 -0.97029910129E+03 -0.92024041742E+02  0.11869552703E+03  0.98186531070E+03  0.46999998093E+01 0.  1.
       -5    1    3    3    0  502  0.97029910129E+03  0.92024041742E+02 -0.77940640713E+02  0.97777584532E+03  0.46999998093E+01 0. -1.
</event>
<event>
 5   0  0.6168338E-05  0.2017511E+04  0.7818609E-02  0.8598477E-01
       -1   -1    0    0    0  501  0.00000000000E+00  0.00000000000E+00  0.94292109166E+03  0.94292109167E+03  0.50400001928E-02 0.  1.
        1   -1    0    0  501    0  0.00000000000E+00  0.00000000000E+00 -0.10791862837E+04  0.10791862837E+04  0.50400001928E-02 0. -1.
    10030    2    1    2    0    0  0.00000000000E+00  0.00000000000E+00 -0.13626519199E+03  0.20221073753E+04  0.20175108512E+04 0.  0.
        5    1    3    3  502    0  0.96251591188E+03  0.21078265324E+03 -0.28472494246E+03  0.10256493506E+04  0.46999998093E+01 0.  1.
       -5    1    3    3    0  502 -0.96251591188E+03 -0.21078265324E+03  0.14845975047E+03  0.99645802473E+03  0.46999998093E+01 0. -1.
</event>
<event>
 5   0  0.1274868E-04  0.1984119E+04  0.7818609E-02  0.8614082E-01
       -2   -1    0    0    0  501  0.00000000000E+00  0.00000000000E+00  0.48175273117E+03  0.48175273117E+03  0.25500000920E-02 0.  1.
        2   -1    0    0  501    0  0.00000000000E+00  0.00000000000E+00 -0.20429204845E+04  0.20429204845E+04  0.25500000920E-02 0. -1.
    10030    2    1    2    0    0  0.00000000000E+00  0.00000000000E+00 -0.15611677534E+04  0.25246732157E+04  0.19841194752E+04 0.  0.
        1    1    3    3  502    0  0.91724954490E+03 -0.28645996397E+03 -0.10942771024E+04  0.14563132957E+04  0.50400001928E-02 0. -1.
       -1    1    3    3    0  502 -0.91724954490E+03  0.28645996397E+03 -0.46689065101E+03  0.10683599200E+04  0.50400001928E-02 0.  1.
</event>
<event>
 5   0  0.6214547E-05  0.1837722E+04  0.7818609E-02  0.8686493E-01
       -1   -1    0    0    0  501  0.00000000000E+00  0.00000000000E+00  0.85713728156E+03  0.85713728158E+03  0.50400001928E-02 0. -1.
        1   -1    0    0  501    0  0.00000000000E+00  0.00000000000E+00 -0.98502961557E+03  0.98502961559E+03  0.50400001928E-02 0.  1.
    10030    2    1    2    0    0  0.00000000000E+00  0.00000000000E+00 -0.12789233401E+03  0.18421668972E+04  0.18377220758E+04 0.  0.
        3    1    3    3  502    0  0.15016383606E+03 -0.82734180880E+03 -0.43533105219E+03  0.94686682351E+03  0.10100000352E+00 0.  1.
       -3    1    3    3    0  502 -0.15016383606E+03  0.82734180880E+03  0.30743871818E+03  0.89530007366E+03  0.10100000352E+00 0. -1.
</event>
<event>
 5   0  0.6222733E-05  0.2023433E+04  0.7818609E-02  0.8595743E-01
        1   -1    0    0  501    0  0.00000000000E+00  0.00000000000E+00  0.23432482146E+04  0.23432482146E+04  0.50400001928E-02 0.  1.
       -1   -1    0    0    0  501  0.00000000000E+00  0.00000000000E+00 -0.43681686240E+03  0.43681686243E+03  0.50400001928E-02 0. -1.
    10030    2    1    2    0    0  0.00000000000E+00  0.00000000000E+00  0.19064313522E+04  0.27800650771E+04  0.20234330560E+04 0.  0.
        2    1    3    3  502    0  0.26715788878E+03 -0.94380080962E+03  0.12937659376E+04  0.16235650918E+04  0.25500000920E-02 0.  1.
       -2    1    3    3    0  502 -0.26715788878E+03  0.94380080962E+03  0.61266541458E+03  0.11564999853E+04  0.25500000920E-02 0. -1.
</event>
<event>
 5   0  0.1274868E-04  0.1971914E+04  0.7818609E-02  0.8619865E-01
        2   -1    0    0  501    0  0.00000000000E+00  0.00000000000E+00  0.10537246770E+04  0.10537246770E+04  0.25500000920E-02 0. -1.
       -2   -1    0    0    0  501  0.00000000000E+00  0.00000000000E+00 -0.92254776395E+03  0.92254776396E+03  0.25500000920E-02 0.  1.
    10030    2    1    2    0    0  0.00000000000E+00  0.00000000000E+00  0.13117691305E+03  0.19762724410E+04  0.19719141407E+04 0.  0.
        1    1    3    3  502    0 -0.97882673623E+03 -0.35375665853E+02  0.17878998174E+03  0.99565007653E+03  0.50400001928E-02 0. -1.
       -1    1    3    3    0  502  0.97882673623E+03  0.35375665853E+02 -0.47613068687E+02  0.98062236443E+03  0.50400001928E-02 0.  1.
</event>
<event>
 5   0  0.1159914E-04  0.2007624E+04  0.7818609E-02  0.8603064E-01
        2   -1    0    0  501    0  0.00000000000E+00  0.00000000000E+00  0.10476623915E+04  0.10476623915E+04  0.25500000920E-02 0. -1.
       -2   -1    0    0    0  501  0.00000000000E+00  0.00000000000E+00 -0.96179701572E+03  0.96179701572E+03  0.25500000920E-02 0.  1.
    10030    2    1    2    0    0  0.00000000000E+00  0.00000000000E+00  0.85865375745E+02  0.20094594072E+04  0.20076240301E+04 0.  0.
        3    1    3    3  502    0 -0.35988586180E+03 -0.87248740509E+03  0.38513183974E+03  0.10193520735E+04  0.10100000352E+00 0. -1.
       -3    1    3    3    0  502  0.35988586180E+03  0.87248740509E+03 -0.29926646399E+03  0.99010733369E+03  0.10100000352E+00 0.  1.
</event>
<event>
 5   0  0.1274868E-04  0.2004947E+04  0.7818609E-02  0.8604311E-01
        2   -1    0    0  501    0  0.00000000000E+00  0.00000000000E+00  0.15724504712E+04  0.15724504712E+04  0.25500000920E-02 0. -1.
       -2   -1    0    0    0  501  0.00000000000E+00  0.00000000000E+00 -0.63909978760E+03  0.63909978761E+03  0.25500000920E-02 0.  1.
    10030    2    1    2    0    0  0.00000000000E+00  0.00000000000E+00  0.93335068363E+03  0.22115502588E+04  0.20049466449E+04 0.  0.
        1    1    3    3  502    0  0.44603861221E+03 -0.52415212046E+03 -0.33731413041E+03  0.76646377055E+03  0.50400001928E-02 0.  1.
       -1    1    3    3    0  502 -0.44603861221E+03  0.52415212046E+03  0.12706648140E+04  0.14450864883E+04  0.50400001928E-02 0. -1.
</event>
<event>
 5   0  0.1159914E-04  0.1992701E+04  0.7818609E-02  0.8610041E-01
       -2   -1    0    0    0  501  0.00000000000E+00  0.00000000000E+00  0.77488291277E+03  0.77488291278E+03  0.25500000920E-02 0.  1.
        2   -1    0    0  501    0  0.00000000000E+00  0.00000000000E+00 -0.12811152661E+04  0.12811152661E+04  0.25500000920E-02 0. -1.
    10030    2    1    2    0    0  0.00000000000E+00  0.00000000000E+00 -0.50623235332E+03  0.20559981789E+04  0.19927010102E+04 0.  0.
        3    1    3    3  502    0 -0.19643024515E+03  0.95454878313E+03 -0.39249292079E+02  0.97534031892E+03  0.10100000352E+00 0. -1.
       -3    1    3    3    0  502  0.19643024515E+03 -0.95454878313E+03 -0.46698306124E+03  0.10806578599E+04  0.10100000352E+00 0.  1.
</event>
<event>
 5   0  0.1281789E-04  0.2000108E+04  0.7818609E-02  0.8606570E-01
        2   -1    0    0  501    0  0.00000000000E+00  0.00000000000E+00  0.12164153217E+04  0.12164153217E+04  0.25500000920E-02 0. -1.
       -2   -1    0    0    0  501  0.00000000000E+00  0.00000000000E+00 -0.82217683055E+03  0.82217683055E+03  0.25500000920E-02 0.  1.
    10030    2    1    2    0    0  0.00000000000E+00  0.00000000000E+00  0.39423849118E+03  0.20385921523E+04  0.20001084909E+04 0.  0.
        2    1    3    3  502    0  0.91195836091E+02 -0.18002908643E+03 -0.80120686141E+03  0.82623216305E+03  0.25500000920E-02 0.  1.
       -2    1    3    3    0  502 -0.91195836091E+02  0.18002908643E+03  0.11954453526E+04  0.12123599892E+04  0.25500000920E-02 0. -1.
</event>
<event>
 5   0  0.1274868E-04  0.2003308E+04  0.7818609E-02  0.8605076E-01
        2   -1    0    0  501    0  0.00000000000E+00  0.00000000000E+00  0.14994131907E+04  0.14994131907E+04  0.25500000920E-02 0. -1.
       -2   -1    0    0    0  501  0.00000000000E+00  0.00000000000E+00 -0.66913526438E+03  0.66913526439E+03  0.25500000920E-02 0.  1.
    10030    2    1    2    0    0  0.00000000000E+00  0.00000000000E+00  0.83027792636E+03  0.21685484551E+04  0.20033075069E+04 0.  0.
        1    1    3    3  502    0  0.19012909272E+03 -0.33603553797E+03  0.14156267493E+04  0.14673336526E+04  0.50400001928E-02 0. -1.
       -1    1    3    3    0  502 -0.19012909272E+03  0.33603553797E+03 -0.58534882297E+03  0.70121480251E+03  0.50400001928E-02 0.  1.
</event>
<event>
 5   0  0.6168338E-05  0.2063810E+04  0.7818609E-02  0.8577355E-01
        1   -1    0    0  501    0  0.00000000000E+00  0.00000000000E+00  0.11323507171E+04  0.11323507171E+04  0.50400001928E-02 0.  1.
       -1   -1    0    0    0  501  0.00000000000E+00  0.00000000000E+00 -0.94036924118E+03  0.94036924119E+03  0.50400001928E-02 0. -1.
    10030    2    1    2    0    0  0.00000000000E+00  0.00000000000E+00  0.19198147594E+03  0.20727199583E+04  0.20638098601E+04 0.  0.
        5    1    3    3  502    0  0.58140355986E+03  0.21913531233E+03  0.92341369510E+03  0.11129983499E+04  0.46999998093E+01 0.  1.
       -5    1    3    3    0  502 -0.58140355986E+03 -0.21913531233E+03 -0.73143221915E+03  0.95972160846E+03  0.46999998093E+01 0. -1.
</event>
<event>
 5   0  0.6168338E-05  0.2000550E+04  0.7818609E-02  0.8606364E-01
        1   -1    0    0  501    0  0.00000000000E+00  0.00000000000E+00  0.25671991976E+04  0.25671991976E+04  0.50400001928E-02 0. -1.
       -1   -1    0    0    0  501  0.00000000000E+00  0.00000000000E+00 -0.38974377262E+03  0.38974377265E+03  0.50400001928E-02 0.  1.
    10030    2    1    2    0    0  0.00000000000E+00  0.00000000000E+00  0.21774554250E+04  0.29569429703E+04  0.20005498248E+04 0.  0.
        5    1    3    3  502    0  0.96771159887E+03 -0.16520557854E+03  0.13721510446E+04  0.16871808442E+04  0.46999998093E+01 0.  1.
       -5    1    3    3    0  502 -0.96771159887E+03  0.16520557854E+03  0.80530438039E+03  0.12697621261E+04  0.46999998093E+01 0. -1.
</event>
<event>
 5   0  0.1281789E-04  0.1997553E+04  0.7818609E-02  0.8607765E-01
        2   -1    0    0  501    0  0.00000000000E+00  0.00000000000E+00  0.18470216162E+04  0.18470216162E+04  0.25500000920E-02 0.  1.
       -2   -1    0    0    0  501  0.00000000000E+00  0.00000000000E+00 -0.54008841502E+03  0.54008841503E+03  0.25500000920E-02 0. -1.
    10030    2    1    2    0    0  0.00000000000E+00  0.00000000000E+00  0.13069332012E+04  0.23871100313E+04  0.19975534809E+04 0.  0.
        2    1    3    3  502    0  0.27167423514E+03  0.74527426250E+03 -0.71776070126E+02  0.79648755209E+03  0.25500000920E-02 0. -1.
       -2    1    3    3    0  502 -0.27167423514E+03 -0.74527426250E+03  0.13787092713E+04  0.15906224792E+04  0.25500000920E-02 0.  1.
</event>
<event>
 5   0  0.6214547E-05  0.1998320E+04  0.7818609E-02  0.8607406E-01
       -1   -1    0    0    0  501  0.00000000000E+00  0.00000000000E+00  0.93849672252E+03  0.93849672253E+03  0.50400001928E-02 0.  1.
        1   -1    0    0  501    0  0.00000000000E+00  0.00000000000E+00 -0.10637447268E+04  0.10637447268E+04  0.50400001928E-02 0. -1.
    10030    2    1    2    0    0  0.00000000000E+00  0.00000000000E+00 -0.12524800430E+03  0.20022414494E+04  0.19983202343E+04 0.  0.
        3    1    3    3  502    0 -0.30302572494E+03 -0.64001679587E+00 -0.10165930655E+04  0.10607952067E+04  0.10100000352E+00 0. -1.
       -3    1    3    3    0  502  0.30302572494E+03  0.64001679587E+00  0.89134506116E+03  0.94144624268E+03  0.10100000352E+00 0.  1.
</event>
<event>
 5   0  0.6168338E-05  0.2014594E+04  0.7818609E-02  0.8599828E-01
        1   -1    0    0  501    0  0.00000000000E+00  0.00000000000E+00  0.11726996175E+04  0.11726996175E+04  0.50400001928E-02 0. -1.
       -1   -1    0    0    0  501  0.00000000000E+00  0.00000000000E+00 -0.86522319435E+03  0.86522319436E+03  0.50400001928E-02 0.  1.
    10030    2    1    2    0    0  0.00000000000E+00  0.00000000000E+00  0.30747642313E+03  0.20379228119E+04  0.20145936653E+04 0.  0.
        5    1    3    3  502    0 -0.45156027736E+03 -0.54533053218E+03 -0.57103102511E+03  0.90961013355E+03  0.46999998093E+01 0.  1.
       -5    1    3    3    0  502  0.45156027736E+03  0.54533053218E+03  0.87850744824E+03  0.11283126783E+04  0.46999998093E+01 0. -1.
</event>
<event>
 5   0  0.1244229E-04  0.1944661E+04  0.7818609E-02  0.8632940E-01
       -2   -1    0    0    0  501  0.00000000000E+00  0.00000000000E+00  0.42178692483E+03  0.42178692483E+03  0.25500000920E-02 0. -1.
        2   -1    0    0  501    0  0.00000000000E+00  0.00000000000E+00 -0.22414786411E+04  0.22414786411E+04  0.25500000920E-02 0.  1.
    10030    2    1    2    0    0  0.00000000000E+00  0.00000000000E+00 -0.18196917163E+04  0.26632655659E+04  0.19446607757E+04 0.  0.
        5    1    3    3  502    0  0.25596390895E+03  0.60824036753E+03 -0.18878170959E+04  0.19998373296E+04  0.46999998093E+01 0.  1.
       -5    1    3    3    0  502 -0.25596390895E+03 -0.60824036753E+03  0.68125379631E+02  0.66342823631E+03  0.46999998093E+01 0. -1.
</event>
<event>
 5   0  0.1159914E-04  0.1994943E+04  0.7818609E-02  0.8608989E-01
       -2   -1    0    0    0  501  0.00000000000E+00  0.00000000000E+00  0.47933673665E+03  0.47933673665E+03  0.25500000920E-02 0.  1.
        2   -1    0    0  501    0  0.00000000000E+00  0.00000000000E+00 -0.20756797399E+04  0.20756797399E+04  0.25500000920E-02 0. -1.
    10030    2    1    2    0    0  0.00000000000E+00  0.00000000000E+00 -0.15963430032E+04  0.25550164765E+04  0.19949431599E+04 0.  0.
        3    1    3    3  502    0  0.61076862197E+03 -0.70252525956E+03 -0.33929682506E+03  0.99080896020E+03  0.10100000352E+00 0.  1.
       -3    1    3    3    0  502 -0.61076862197E+03  0.70252525956E+03 -0.12570461781E+04  0.15642075163E+04  0.10100000352E+00 0. -1.
</event>
<event>
 5   0  0.4479000E-05  0.2122795E+04  0.7818609E-02  0.8551268E-01
       -3   -1    0    0    0  501  0.00000000000E+00  0.00000000000E+00  0.55181229126E+03  0.55181230050E+03  0.10100000352E+00 0. -1.
        3   -1    0    0  501    0  0.00000000000E+00  0.00000000000E+00 -0.20415725638E+04  0.20415725663E+04  0.10100000352E+00 0.  1.
    10030    2    1    2    0    0  0.00000000000E+00  0.00000000000E+00 -0.14897602725E+04  0.25933848668E+04  0.21227951850E+04 0.  0.
        2    1    3    3  502    0 -0.91863041375E+03  0.68023300772E+02 -0.10067394979E+03  0.92663059019E+03  0.25500000920E-02 0. -1.
       -2    1    3    3    0  502  0.91863041375E+03 -0.68023300772E+02 -0.13890863227E+04  0.16667542766E+04  0.25500000920E-02 0.  1.
</event>
<event>
 5   0  0.1281789E-04  0.1971972E+04  0.7818609E-02  0.8619838E-01
        2   -1    0    0  501    0  0.00000000000E+00  0.00000000000E+00  0.10259772800E+04  0.10259772800E+04  0.25500000920E-02 0.  1.
       -2   -1    0    0    0  501  0.00000000000E+00  0.00000000000E+00 -0.94755398520E+03  0.94755398521E+03  0.25500000920E-02 0. -1.
    10030    2    1    2    0    0  0.00000000000E+00  0.00000000000E+00  0.78423294812E+02  0.19735312652E+04  0.19719724749E+04 0.  0.
        2    1    3    3  502    0  0.22516818717E+03 -0.61682900224E+03 -0.69689007366E+03  0.95751475460E+03  0.25500000920E-02 0. -1.
       -2    1    3    3    0  502 -0.22516818717E+03  0.61682900224E+03  0.77531336847E+03  0.10160165106E+04  0.25500000920E-02 0.  1.
</event>
<event>
 5   0  0.6256535E-05  0.1930891E+04  0.7818609E-02  0.8639631E-01
        1   -1    0    0  501    0  0.00000000000E+00  0.00000000000E+00  0.19202745344E+04  0.19202745344E+04  0.50400001928E-02 0.  1.
       -1   -1    0    0    0  501  0.00000000000E+00  0.00000000000E+00 -0.48539158264E+03  0.48539158266E+03  0.50400001928E-02 0. -1.
    10030    2    1    2    0    0  0.00000000000E+00  0.00000000000E+00  0.14348829518E+04  0.24056661171E+04  0.19308910849E+04 0.  0.
        1    1    3    3  502    0  0.79557427373E+03  0.65824181436E+02  0.40966846639E+02  0.79934318689E+03  0.50400001928E-02 0. -1.
       -1    1    3    3    0  502 -0.79557427373E+03 -0.65824181436E+02  0.13939161052E+04  0.16063229302E+04  0.50400001928E-02 0.  1.
</event>
<event>
 5   0  0.1159914E-04  0.2013996E+04  0.7818609E-02  0.8600105E-01
        2   -1    0    0  501    0  0.00000000000E+00  0.00000000000E+00  0.11315499044E+04  0.11315499044E+04  0.25500000920E-02 0.  1.
       -2   -1    0    0    0  501  0.00000000000E+00  0.00000000000E+00 -0.89615546461E+03  0.89615546461E+03  0.25500000920E-02 0. -1.
    10030    2    1    2    0    0  0.00000000000E+00  0.00000000000E+00  0.23539443975E+03  0.20277053690E+04  0.20139956607E+04 0.  0.
        3    1    3    3  502    0  0.17325566182E+03 -0.57851039492E+03  0.92900695202E+03  0.11080368805E+04  0.10100000352E+00 0.  1.
       -3    1    3    3    0  502 -0.17325566182E+03  0.57851039492E+03 -0.69361251226E+03  0.91966848851E+03  0.10100000352E+00 0. -1.
</event>
<event>
 5   0  0.6222733E-05  0.1947229E+04  0.7818609E-02  0.8631698E-01
       -1   -1    0    0    0  501  0.00000000000E+00  0.00000000000E+00  0.64178312778E+03  0.64178312780E+03  0.50400001928E-02 0. -1.
        1   -1    0    0  501    0  0.00000000000E+00  0.00000000000E+00 -0.14770173905E+04  0.14770173905E+04  0.50400001928E-02 0.  1.
    10030    2    1    2    0    0  0.00000000000E+00  0.00000000000E+00 -0.83523426270E+03  0.21188005183E+04  0.19472286365E+04 0.  0.
        2    1    3    3  502    0 -0.65706683844E+03 -0.55893651109E+03  0.73575402259E+02  0.86577144410E+03  0.25500000920E-02 0. -1.
       -2    1    3    3    0  502  0.65706683844E+03  0.55893651109E+03 -0.90880966496E+03  0.12530290742E+04  0.25500000920E-02 0.  1.
</event>
<event>
 5   0  0.6214547E-05  0.1994244E+04  0.7818609E-02  0.8609317E-01
        1   -1    0    0  501    0  0.00000000000E+00  0.00000000000E+00  0.11234264232E+04  0.11234264232E+04  0.50400001928E-02 0.  1.
       -1   -1    0    0    0  501  0.00000000000E+00  0.00000000000E+00 -0.88501736564E+03  0.88501736565E+03  0.50400001928E-02 0. -1.
    10030    2    1    2    0    0  0.00000000000E+00  0.00000000000E+00  0.23840905755E+03  0.20084437889E+04  0.19942436096E+04 0.  0.
        3    1    3    3  502    0 -0.77359488999E+02 -0.61516752843E+03  0.90568530191E+03  0.10975798171E+04  0.10100000352E+00 0.  1.
       -3    1    3    3    0  502  0.77359488999E+02  0.61516752843E+03 -0.66727624436E+03  0.91086397177E+03  0.10100000352E+00 0. -1.
</event>
<event>
 5   0  0.6168338E-05  0.2001953E+04  0.7818609E-02  0.8605708E-01
       -1   -1    0    0    0  501  0.00000000000E+00  0.00000000000E+00  0.55406086927E+03  0.55406086930E+03  0.50400001928E-02 0.  1.
        1   -1    0    0  501    0  0.00000000000E+00  0.00000000000E+00 -0.18083818816E+04  0.18083818816E+04  0.50400001928E-02 0. -1.
    10030    2    1    2    0    0  0.00000000000E+00  0.00000000000E+00 -0.12543210124E+04  0.23624427509E+04  0.20019526841E+04 0.  0.
        5    1    3    3  502    0  0.72610765233E+03 -0.44816198584E+03 -0.96221978970E+01  0.85334410703E+03  0.46999998093E+01 0.  1.
       -5    1    3    3    0  502 -0.72610765233E+03  0.44816198584E+03 -0.12446988145E+04  0.15090986439E+04  0.46999998093E+01 0. -1.
</event>
<event>
 5   0  0.6222733E-05  0.2014826E+04  0.7818609E-02  0.8599720E-01
       -1   -1    0    0    0  501  0.00000000000E+00  0.00000000000E+00  0.12322754830E+04  0.12322754830E+04  0.50400001928E-02 0. -1.
        1   -1    0    0  501    0  0.00000000000E+00  0.00000000000E+00 -0.82358244026E+03  0.82358244027E+03  0.50400001928E-02 0.  1.
    10030    2    1    2    0    0  0.00000000000E+00  0.00000000000E+00  0.40869304273E+03  0.20558579233E+04  0.20148255005E+04 0.  0.
        2    1    3    3  502    0 -0.65402727511E+03  0.45723253064E+03 -0.42304717579E+03  0.90320660793E+03  0.25500000920E-02 0.  1.
       -2    1    3    3    0  502  0.65402727511E+03 -0.45723253064E+03  0.83174021852E+03  0.11526513153E+04  0.25500000920E-02 0. -1.
</event>
<event>
 5   0  0.1242761E-04  0.1900554E+04  0.7818609E-02  0.8654581E-01
        2   -1    0    0  501    0  0.00000000000E+00  0.00000000000E+00  0.12251757109E+04  0.12251757109E+04  0.25500000920E-02 0.  1.
       -2   -1    0    0    0  501  0.00000000000E+00  0.00000000000E+00 -0.73705849818E+03  0.73705849819E+03  0.25500000920E-02 0. -1.
    10030    2    1    2    0    0  0.00000000000E+00  0.00000000000E+00  0.48811721276E+03  0.19622342091E+04  0.19005537820E+04 0.  0.
        4    1    3    3  502    0  0.85684335373E+03  0.13138163401E+03  0.64603057663E+03  0.10811099784E+04  0.12699999809E+01 0.  1.
       -4    1    3    3    0  502 -0.85684335373E+03 -0.13138163401E+03 -0.15791336387E+03  0.88112423072E+03  0.12699999809E+01 0. -1.
</event>
<event>
 5   0  0.6028501E-05  0.2029696E+04  0.7818609E-02  0.8592861E-01
       -1   -1    0    0    0  501  0.00000000000E+00  0.00000000000E+00  0.14829451133E+04  0.14829451133E+04  0.50400001928E-02 0. -1.
        1   -1    0    0  501    0  0.00000000000E+00  0.00000000000E+00 -0.69450770857E+03  0.69450770859E+03  0.50400001928E-02 0.  1.
    10030    2    1    2    0    0  0.00000000000E+00  0.00000000000E+00  0.78843740476E+03  0.21774528219E+04  0.20296963444E+04 0.  0.
        4    1    3    3  502    0 -0.53418370748E+03 -0.83525551371E+03  0.16186161479E+03  0.10045918583E+04  0.12699999809E+01 0. -1.
       -4    1    3    3    0  502  0.53418370748E+03  0.83525551371E+03  0.62657578996E+03  0.11728609636E+04  0.12699999809E+01 0.  1.
</event>
<event>
 5   0  0.6168338E-05  0.1991436E+04  0.7818609E-02  0.8610635E-01
        1   -1    0    0  501    0  0.00000000000E+00  0.00000000000E+00  0.17076714147E+04  0.17076714147E+04  0.50400001928E-02 0.  1.
       -1   -1    0    0    0  501  0.00000000000E+00  0.00000000000E+00 -0.58058848049E+03  0.58058848051E+03  0.50400001928E-02 0. -1.
    10030    2    1    2    0    0  0.00000000000E+00  0.00000000000E+00  0.11270829342E+04  0.22882598952E+04  0.19914360164E+04 0.  0.
        5    1    3    3  502    0  0.32482537150E+03  0.84715890574E+03  0.92231217136E+02  0.91198597630E+03  0.46999998093E+01 0.  1.
       -5    1    3    3    0  502 -0.32482537150E+03 -0.84715890574E+03  0.10348517171E+04  0.13762739189E+04  0.46999998093E+01 0. -1.
</event>
<event>
 5   0  0.4479000E-05  0.1982858E+04  0.7818609E-02  0.8614677E-01
        4   -1    0    0  501    0  0.00000000000E+00  0.00000000000E+00  0.12348476094E+04  0.12348482625E+04  0.12699999809E+01 0.  1.
       -4   -1    0    0    0  501  0.00000000000E+00  0.00000000000E+00 -0.79599263169E+03  0.79599364483E+03  0.12699999809E+01 0. -1.
    10030    2    1    2    0    0  0.00000000000E+00  0.00000000000E+00  0.43885497768E+03  0.20308419073E+04  0.19828578267E+04 0.  0.
        1    1    3    3  502    0 -0.90727490998E+03 -0.27892261110E+03  0.51268801431E+03  0.10787931152E+04  0.50400001928E-02 0.  1.
       -1    1    3    3    0  502  0.90727490998E+03  0.27892261110E+03 -0.73833036625E+02  0.95204879213E+03  0.50400001928E-02 0. -1.
</event>
<event>
 5   0  0.1274868E-04  0.2004821E+04  0.7818609E-02  0.8604370E-01
       -2   -1    0    0    0  501  0.00000000000E+00  0.00000000000E+00  0.50443100521E+03  0.50443100522E+03  0.25500000920E-02 0.  1.
        2   -1    0    0  501    0  0.00000000000E+00  0.00000000000E+00 -0.19920007691E+04  0.19920007691E+04  0.25500000920E-02 0. -1.
    10030    2    1    2    0    0  0.00000000000E+00  0.00000000000E+00 -0.14875697639E+04  0.24964317743E+04  0.20048211395E+04 0.  0.
        1    1    3    3  502    0 -0.54388635348E+03 -0.17239743750E+03 -0.17700814217E+04  0.18597638241E+04  0.50400001928E-02 0. -1.
       -1    1    3    3    0  502  0.54388635348E+03  0.17239743750E+03  0.28251165785E+03  0.63666795019E+03  0.50400001928E-02 0.  1.
</event>
<event>
 5   0  0.1159914E-04  0.1991268E+04  0.7818609E-02  0.8610714E-01
       -2   -1    0    0    0  501  0.00000000000E+00  0.00000000000E+00  0.74633285526E+03  0.74633285527E+03  0.25500000920E-02 0. -1.
        2   -1    0    0  501    0  0.00000000000E+00  0.00000000000E+00 -0.13282108769E+04  0.13282108769E+04  0.25500000920E-02 0.  1.
    10030    2    1    2    0    0  0.00000000000E+00  0.00000000000E+00 -0.58187802166E+03  0.20745437322E+04  0.19912683558E+04 0.  0.
        3    1    3    3  502    0 -0.25043648051E+03  0.75509506577E+03 -0.91464089380E+03  0.12122107754E+04  0.10100000352E+00 0.  1.
       -3    1    3    3    0  502  0.25043648051E+03 -0.75509506577E+03  0.33276287215E+03  0.86233295681E+03  0.10100000352E+00 0. -1.
</event>
<event>
 5   0  0.1159914E-04  0.2015809E+04  0.7818609E-02  0.8599265E-01
        2   -1    0    0  501    0  0.00000000000E+00  0.00000000000E+00  0.17764835304E+04  0.17764835304E+04  0.25500000920E-02 0.  1.
       -2   -1    0    0    0  501  0.00000000000E+00  0.00000000000E+00 -0.57184380972E+03  0.57184380973E+03  0.25500000920E-02 0. -1.
    10030    2    1    2    0    0  0.00000000000E+00  0.00000000000E+00  0.12046397206E+04  0.23483273401E+04  0.20158086317E+04 0.  0.
        3    1    3    3  502    0 -0.25373752077E+03 -0.61628635123E+03 -0.27849705175E+03  0.72232417528E+03  0.10100000352E+00 0. -1.
       -3    1    3    3    0  502  0.25373752077E+03  0.61628635123E+03  0.14831367724E+04  0.16260031648E+04  0.10100000352E+00 0.  1.
</event>
<event>
 5   0  0.6028501E-05  0.2002040E+04  0.7818609E-02  0.8605667E-01
       -1   -1    0    0    0  501  0.00000000000E+00  0.00000000000E+00  0.49048133782E+03  0.49048133785E+03  0.50400001928E-02 0. -1.
        1   -1    0    0  501    0  0.00000000000E+00  0.00000000000E+00 -0.20429757874E+04  0.20429757874E+04  0.50400001928E-02 0.  1.
    10030    2    1    2    0    0  0.00000000000E+00  0.00000000000E+00 -0.15524944496E+04  0.25334571252E+04  0.20020404565E+04 0.  0.
        4    1    3    3  502    0 -0.62670998240E+03 -0.62272960486E+03 -0.13717862741E+04  0.16316729934E+04  0.12699999809E+01 0.  1.
       -4    1    3    3    0  502  0.62670998240E+03  0.62272960486E+03 -0.18070817549E+03  0.90178413181E+03  0.12699999809E+01 0. -1.
</event>
<event>
 5   0  0.1274868E-04  0.1999989E+04  0.7818609E-02  0.8606626E-01
       -2   -1    0    0    0  501  0.00000000000E+00  0.00000000000E+00  0.56259303152E+03  0.56259303153E+03  0.25500000920E-02 0. -1.
        2   -1    0    0  501    0  0.00000000000E+00  0.00000000000E+00 -0.17774639110E+04  0.17774639110E+04  0.25500000920E-02 0.  1.
    10030    2    1    2    0    0  0.00000000000E+00  0.00000000000E+00 -0.12148708795E+04  0.23400569425E+04  0.19999888101E+04 0.  0.
        1    1    3    3  502    0 -0.14229672704E+03 -0.34596818933E+03  0.47763970888E+03  0.60669764964E+03  0.50400001928E-02 0. -1.
       -1    1    3    3    0  502  0.14229672704E+03  0.34596818933E+03 -0.16925105884E+04  0.17333592929E+04  0.50400001928E-02 0.  1.
</event>
<event>
 5   0  0.6222733E-05  0.1987310E+04  0.7818609E-02  0.8612577E-01
       -1   -1    0    0    0  501  0.00000000000E+00  0.00000000000E+00  0.71101562921E+03  0.71101562922E+03  0.50400001928E-02 0. -1.
        1   -1    0    0  501    0  0.00000000000E+00  0.00000000000E+00 -0.13886482356E+04  0.13886482356E+04  0.50400001928E-02 0.  1.
    10030    2    1    2    0    0  0.00000000000E+00  0.00000000000E+00 -0.67763260643E+03  0.20996638649E+04  0.19873103422E+04 0.  0.
        2    1    3    3  502    0 -0.74613626318E+03 -0.29087813811E+03  0.28267552943E+03  0.84925547947E+03  0.25500000920E-02 0.  1.
       -2    1    3    3    0  502  0.74613626318E+03  0.29087813811E+03 -0.96030813586E+03  0.12504083854E+04  0.25500000920E-02 0. -1.
</event>
<event>
 5   0  0.6256535E-05  0.1990592E+04  0.7818609E-02  0.8611032E-01
       -1   -1    0    0    0  501  0.00000000000E+00  0.00000000000E+00  0.12451433058E+04  0.12451433058E+04  0.50400001928E-02 0. -1.
        1   -1    0    0  501    0  0.00000000000E+00  0.00000000000E+00 -0.79558248488E+03  0.79558248490E+03  0.50400001928E-02 0.  1.
    10030    2    1    2    0    0  0.00000000000E+00  0.00000000000E+00  0.44956082087E+03  0.20407257907E+04  0.19905920780E+04 0.  0.
        1    1    3    3  502    0  0.32219277984E+03  0.78489152872E+03  0.75822296981E+03  0.11378773973E+04  0.50400001928E-02 0. -1.
       -1    1    3    3    0  502 -0.32219277984E+03 -0.78489152872E+03 -0.30866214894E+03  0.90284839339E+03  0.50400001928E-02 0.  1.
</event>
<event>
 5   0  0.6168338E-05  0.2010770E+04  0.7818609E-02  0.8601602E-01
        1   -1    0    0  501    0  0.00000000000E+00  0.00000000000E+00  0.80142348714E+03  0.80142348716E+03  0.50400001928E-02 0. -1.
       -1   -1    0    0    0  501  0.00000000000E+00  0.00000000000E+00 -0.12612549926E+04  0.12612549926E+04  0.50400001928E-02 0.  1.
    10030    2    1    2    0    0  0.00000000000E+00  0.00000000000E+00 -0.45983150542E+03  0.20626784797E+04  0.20107703741E+04 0.  0.
        5    1    3    3  502    0  0.57695110463E+03 -0.53959054443E+01  0.61467059661E+03  0.84305618156E+03  0.46999998093E+01 0. -1.
       -5    1    3    3    0  502 -0.57695110463E+03  0.53959054443E+01 -0.10745021020E+04  0.12196222982E+04  0.46999998093E+01 0.  1.
</event>
<event>
 5   0  0.1281789E-04  0.1950738E+04  0.7818609E-02  0.8630005E-01
       -2   -1    0    0    0  501  0.00000000000E+00  0.00000000000E+00  0.51723095388E+03  0.51723095389E+03  0.25500000920E-02 0. -1.
        2   -1    0    0  501    0  0.00000000000E+00  0.00000000000E+00 -0.18393028570E+04  0.18393028570E+04  0.25500000920E-02 0.  1.
    10030    2    1    2    0    0  0.00000000000E+00  0.00000000000E+00 -0.13220719032E+04  0.23565338109E+04  0.19507376771E+04 0.  0.
        2    1    3    3  502    0 -0.74582918172E+03  0.39662558710E+03 -0.12500892088E+04  0.15087398897E+04  0.25500000920E-02 0.  1.
       -2    1    3    3    0  502  0.74582918172E+03 -0.39662558710E+03 -0.71982694341E+02  0.84779392127E+03  0.25500000920E-02 0. -1.
</event>
<event>
 5   0  0.1274868E-04  0.2016329E+04  0.7818609E-02  0.8599024E-01
        2   -1    0    0  501    0  0.00000000000E+00  0.00000000000E+00  0.80283013855E+03  0.80283013856E+03  0.25500000920E-02 0. -1.
       -2   -1    0    0    0  501  0.00000000000E+00  0.00000000000E+00 -0.12660162799E+04  0.12660162799E+04  0.25500000920E-02 0.  1.
    10030    2    1    2    0    0  0.00000000000E+00  0.00000000000E+00 -0.46318614139E+03  0.20688464185E+04  0.20163293634E+04 0.  0.
        1    1    3    3  502    0 -0.26193287115E+03 -0.48448346246E+02  0.76606966965E+03  0.81106029987E+03  0.50400001928E-02 0. -1.
       -1    1    3    3    0  502  0.26193287115E+03  0.48448346246E+02 -0.12292558110E+04  0.12577861186E+04  0.50400001928E-02 0.  1.
</event>
<event>
 5   0  0.1159914E-04  0.2012003E+04  0.7818609E-02  0.8601030E-01
       -2   -1    0    0    0  501  0.00000000000E+00  0.00000000000E+00  0.83805256835E+03  0.83805256835E+03  0.25500000920E-02 0.  1.
        2   -1    0    0  501    0  0.00000000000E+00  0.00000000000E+00 -0.12076075854E+04  0.12076075854E+04  0.25500000920E-02 0. -1.
    10030    2    1    2    0    0  0.00000000000E+00  0.00000000000E+00 -0.36955501710E+03  0.20456601538E+04  0.20120026228E+04 0.  0.
        3    1    3    3  502    0 -0.27144336711E+03 -0.64390689555E+03 -0.92058337338E+03  0.11557557481E+04  0.10100000352E+00 0. -1.
       -3    1    3    3    0  502  0.27144336711E+03  0.64390689555E+03  0.55102835628E+03  0.88990440571E+03  0.10100000352E+00 0.  1.
</event>
<event>
 5   0  0.4479000E-05  0.1988814E+04  0.7818609E-02  0.8611868E-01
        3   -1    0    0  501    0  0.00000000000E+00  0.00000000000E+00  0.17993967920E+04  0.17993967949E+04  0.10100000352E+00 0.  1.
       -3   -1    0    0    0  501  0.00000000000E+00  0.00000000000E+00 -0.54954259401E+03  0.54954260329E+03  0.10100000352E+00 0. -1.
    10030    2    1    2    0    0  0.00000000000E+00  0.00000000000E+00  0.12498541980E+04  0.23489393981E+04  0.19888139128E+04 0.  0.
        5    1    3    3  502    0 -0.78155160442E+03  0.12304770167E+03 -0.86527000908E+02  0.79590995668E+03  0.46999998093E+01 0. -1.
       -5    1    3    3    0  502  0.78155160442E+03 -0.12304770167E+03  0.13363811989E+04  0.15530294415E+04  0.46999998093E+01 0.  1.
</event>
<event>
 5   0  0.4479000E-05  0.1995702E+04  0.7818609E-02  0.8608633E-01
       -4   -1    0    0    0  501  0.00000000000E+00  0.00000000000E+00  0.13103304491E+04  0.13103310646E+04  0.12699999809E+01 0. -1.
        4   -1    0    0  501    0  0.00000000000E+00  0.00000000000E+00 -0.75988800283E+03  0.75988906411E+03  0.12699999809E+01 0.  1.
    10030    2    1    2    0    0  0.00000000000E+00  0.00000000000E+00  0.55044244631E+03  0.20702201287E+04  0.19957015044E+04 0.  0.
        4    1    3    3  502    0 -0.47872672532E+03  0.84702914183E+03  0.45439700748E+02  0.97401438590E+03  0.12699999809E+01 0. -1.
       -4    1    3    3    0  502  0.47872672532E+03 -0.84702914183E+03  0.50500274556E+03  0.10962057428E+04  0.12699999809E+01 0.  1.
</event>
<event>
 5   0  0.1242761E-04  0.2016378E+04  0.7818609E-02  0.8599002E-01
        2   -1    0    0  501    0  0.00000000000E+00  0.00000000000E+00  0.20007783111E+04  0.20007783111E+04  0.25500000920E-02 0. -1.
       -2   -1    0    0    0  501  0.00000000000E+00  0.00000000000E+00 -0.50802465908E+03  0.50802465908E+03  0.25500000920E-02 0.  1.
    10030    2    1    2    0    0  0.00000000000E+00  0.00000000000E+00  0.14927536520E+04  0.25088029702E+04  0.20163776624E+04 0.  0.
        4    1    3    3  502    0  0.84701837760E+03 -0.37486916046E+03  0.25106745212E+03  0.95968927152E+03  0.12699999809E+01 0.  1.
       -4    1    3    3    0  502 -0.84701837760E+03  0.37486916046E+03  0.12416861999E+04  0.15491136986E+04  0.12699999809E+01 0. -1.
</event>
<event>
 5   0  0.1274868E-04  0.2017685E+04  0.7818609E-02  0.8598397E-01
       -2   -1    0    0    0  501  0.00000000000E+00  0.00000000000E+00  0.96593369800E+03  0.96593369800E+03  0.25500000920E-02 0.  1.
        2   -1    0    0  501    0  0.00000000000E+00  0.00000000000E+00 -0.10536577781E+04  0.10536577781E+04  0.25500000920E-02 0. -1.
    10030    2    1    2    0    0  0.00000000000E+00  0.00000000000E+00 -0.87724080057E+02  0.20195914761E+04  0.20176853610E+04 0.  0.
        1    1    3    3  502    0 -0.68365954573E+02 -0.24728185979E+02 -0.10510323606E+04  0.10535437390E+04  0.50400001928E-02 0. -1.
       -1    1    3    3    0  502  0.68365954573E+02  0.24728185979E+02  0.96330828053E+03  0.96604773707E+03  0.50400001928E-02 0.  1.
</event>
<event>
 5   0  0.6256535E-05  0.2009058E+04  0.7818609E-02  0.8602398E-01
        1   -1    0    0  501    0  0.00000000000E+00  0.00000000000E+00  0.60512484996E+03  0.60512484998E+03  0.50400001928E-02 0. -1.
       -1   -1    0    0    0  501  0.00000000000E+00  0.00000000000E+00 -0.16675538276E+04  0.16675538276E+04  0.50400001928E-02 0.  1.
    10030    2    1    2    0    0  0.00000000000E+00  0.00000000000E+00 -0.10624289777E+04  0.22726786776E+04  0.20090577491E+04 0.  0.
        1    1    3    3  502    0  0.31184693339E+03  0.10447236100E+03 -0.16049259584E+04  0.16382766299E+04  0.50400001928E-02 0.  1.
       -1    1    3    3    0  502 -0.31184693339E+03 -0.10447236100E+03  0.54249698071E+03  0.63440204775E+03  0.50400001928E-02 0. -1.
</event>
<event>
 5   0  0.6168338E-05  0.1994466E+04  0.7818609E-02  0.8609212E-01
       -1   -1    0    0    0  501  0.00000000000E+00  0.00000000000E+00  0.75111012365E+03  0.75111012367E+03  0.50400001928E-02 0. -1.
        1   -1    0    0  501    0  0.00000000000E+00  0.00000000000E+00 -0.13240056292E+04  0.13240056292E+04  0.50400001928E-02 0.  1.
    10030    2    1    2    0    0  0.00000000000E+00  0.00000000000E+00 -0.57289550551E+03  0.20751157528E+04  0.19944663766E+04 0.  0.
        5    1    3    3  502    0  0.11117915147E+03 -0.93100048769E+02 -0.13129656499E+04  0.13209577247E+04  0.46999998093E+01 0.  1.
       -5    1    3    3    0  502 -0.11117915147E+03  0.93100048769E+02  0.74007014436E+03  0.75415802811E+03  0.46999998093E+01 0. -1.
</event>
<event>
 5   0  0.1244229E-04  0.1965384E+04  0.7818609E-02  0.8622978E-01
       -2   -1    0    0    0  501  0.00000000000E+00  0.00000000000E+00  0.49304193911E+03  0.49304193912E+03  0.25500000920E-02 0. -1.
        2   -1    0    0  501    0  0.00000000000E+00  0.00000000000E+00 -0.19586240266E+04  0.19586240266E+04  0.25500000920E-02 0.  1.
    10030    2    1    2    0    0  0.00000000000E+00  0.00000000000E+00 -0.14655820875E+04  0.24516659657E+04  0.19653842251E+04 0.  0.
        5    1    3    3  502    0 -0.93919906823E+03 -0.27830819428E+03 -0.83030856883E+03  0.12841280116E+04  0.46999998093E+01 0.  1.
       -5    1    3    3    0  502  0.93919906823E+03  0.27830819428E+03 -0.63527351867E+03  0.11675379541E+04  0.46999998093E+01 0. -1.
</event>
<event>
 5   0  0.1244229E-04  0.2000314E+04  0.7818609E-02  0.8606474E-01
       -2   -1    0    0    0  501  0.00000000000E+00  0.00000000000E+00  0.11684364416E+04  0.11684364416E+04  0.25500000920E-02 0. -1.
        2   -1    0    0  501    0  0.00000000000E+00  0.00000000000E+00 -0.85611347641E+03  0.85611347642E+03  0.25500000920E-02 0.  1.
    10030    2    1    2    0    0  0.00000000000E+00  0.00000000000E+00  0.31232296523E+03  0.20245499181E+04  0.20003141594E+04 0.  0.
        5    1    3    3  502    0  0.95819957663E+03  0.11100842255E+03 -0.11128007721E+03  0.97101732431E+03  0.46999998093E+01 0.  1.
       -5    1    3    3    0  502 -0.95819957663E+03 -0.11100842255E+03  0.42360304244E+03  0.10535325938E+04  0.46999998093E+01 0. -1.
</event>
<event>
 5   0  0.1244229E-04  0.1944968E+04  0.7818609E-02  0.8632791E-01
        2   -1    0    0  501    0  0.00000000000E+00  0.00000000000E+00  0.58875375466E+03  0.58875375466E+03  0.25500000920E-02 0. -1.
       -2   -1    0    0    0  501  0.00000000000E+00  0.00000000000E+00 -0.16063172504E+04  0.16063172504E+04  0.25500000920E-02 0.  1.
    10030    2    1    2    0    0  0.00000000000E+00  0.00000000000E+00 -0.10175634957E+04  0.21950710051E+04  0.19449681872E+04 0.  0.
        5    1    3    3  502    0 -0.31676782745E+02 -0.84492306152E+03 -0.10509804974E+04  0.13488812010E+04  0.46999998093E+01 0.  1.
       -5    1    3    3    0  502  0.31676782745E+02  0.84492306152E+03  0.33417001712E+02  0.84618980403E+03  0.46999998093E+01 0. -1.
</event>
<event>
 5   0  0.1242761E-04  0.2002176E+04  0.7818609E-02  0.8605604E-01
        2   -1    0    0  501    0  0.00000000000E+00  0.00000000000E+00  0.26724303083E+04  0.26724303083E+04  0.25500000920E-02 0.  1.
       -2   -1    0    0    0  501  0.00000000000E+00  0.00000000000E+00 -0.37500598651E+03  0.37500598652E+03  0.25500000920E-02 0. -1.
    10030    2    1    2    0    0  0.00000000000E+00  0.00000000000E+00  0.22974243218E+04  0.30474362949E+04  0.20021761802E+04 0.  0.
        4    1    3    3  502    0  0.15641037901E+03 -0.87202144077E+03  0.18582121068E+04  0.20586013326E+04  0.12699999809E+01 0.  1.
       -4    1    3    3    0  502 -0.15641037901E+03  0.87202144077E+03  0.43921221500E+03  0.98883496223E+03  0.12699999809E+01 0. -1.
</event>
<event>
 5   0  0.1242761E-04  0.1947009E+04  0.7818609E-02  0.8631804E-01
       -2   -1    0    0    0  501  0.00000000000E+00  0.00000000000E+00  0.14216491381E+04  0.14216491381E+04  0.25500000920E-02 0. -1.
        2   -1    0    0  501    0  0.00000000000E+00  0.00000000000E+00 -0.66662787166E+03  0.66662787167E+03  0.25500000920E-02 0.  1.
    10030    2    1    2    0    0  0.00000000000E+00  0.00000000000E+00  0.75502126641E+03  0.20882770097E+04  0.19470089257E+04 0.  0.
        4    1    3    3  502    0 -0.59407503982E+03 -0.68007953237E+03 -0.12575665422E+02  0.90310192312E+03  0.12699999809E+01 0.  1.
       -4    1    3    3    0  502  0.59407503982E+03  0.68007953237E+03  0.76759693183E+03  0.11851750866E+04  0.12699999809E+01 0. -1.
</event>
<event>
 5   0  0.6168338E-05  0.2011379E+04  0.7818609E-02  0.8601319E-01
       -1   -1    0    0    0  501  0.00000000000E+00  0.00000000000E+00  0.37598313197E+03  0.37598313201E+03  0.50400001928E-02 0.  1.
        1   -1    0    0  501    0  0.00000000000E+00  0.00000000000E+00 -0.26900454882E+04  0.26900454882E+04  0.50400001928E-02 0. -1.
    10030    2    1    2    0    0  0.00000000000E+00  0.00000000000E+00 -0.23140623563E+04  0.30660286202E+04  0.20113793554E+04 0.  0.
        5    1    3    3  502    0  0.64252767774E+03 -0.69680526827E+03 -0.16694689257E+04  0.19197728987E+04  0.46999998093E+01 0.  1.
       -5    1    3    3    0  502 -0.64252767774E+03  0.69680526827E+03 -0.64459343056E+03  0.11462557216E+04  0.46999998093E+01 0. -1.
</event>
<event>
 5   0  0.1159914E-04  0.2015357E+04  0.7818609E-02  0.8599474E-01
       -2   -1    0    0    0  501  0.00000000000E+00  0.00000000000E+00  0.79778815459E+03  0.79778815459E+03  0.25500000920E-02 0.  1.
        2   -1    0    0  501    0  0.00000000000E+00  0.00000000000E+00 -0.12727893878E+04  0.12727893878E+04  0.25500000920E-02 0. -1.
    10030    2    1    2    0    0  0.00000000000E+00  0.00000000000E+00 -0.47500123319E+03  0.20705775424E+04  0.20153573349E+04 0.  0.
        3    1    3    3  502    0  0.80069400558E+03  0.10540046827E+03 -0.85667082159E+03  0.11773296293E+04  0.10100000352E+00 0. -1.
       -3    1    3    3    0  502 -0.80069400558E+03 -0.10540046827E+03  0.38166958840E+03  0.89324791307E+03  0.10100000352E+00 0.  1.
</event>
<event>
 5   0  0.1281789E-04  0.2006996E+04  0.7818609E-02  0.8603357E-01
       -2   -1    0    0    0  501  0.00000000000E+00  0.00000000000E+00  0.88283918105E+03  0.88283918105E+03  0.25500000920E-02 0. -1.
        2   -1    0    0  501    0  0.00000000000E+00  0.00000000000E+00 -0.11406479823E+04  0.11406479823E+04  0.25500000920E-02 0.  1.
    10030    2    1    2    0    0  0.00000000000E+00  0.00000000000E+00 -0.25780880130E+03  0.20234871634E+04  0.20069964929E+04 0.  0.
        2    1    3    3  502    0 -0.20532647783E+02 -0.10965333610E+03  0.87656776350E+03  0.88363821090E+03  0.25500000920E-02 0. -1.
       -2    1    3    3    0  502  0.20532647783E+02  0.10965333610E+03 -0.11343765648E+04  0.11398489525E+04  0.25500000920E-02 0.  1.
</event>
<event>
 5   0  0.6214547E-05  0.1973074E+04  0.7818609E-02  0.8619314E-01
       -1   -1    0    0    0  501  0.00000000000E+00  0.00000000000E+00  0.55995692665E+03  0.55995692667E+03  0.50400001928E-02 0.  1.
        1   -1    0    0  501    0  0.00000000000E+00  0.00000000000E+00 -0.17380897020E+04  0.17380897020E+04  0.50400001928E-02 0. -1.
    10030    2    1    2    0    0  0.00000000000E+00  0.00000000000E+00 -0.11781327753E+04  0.22980466287E+04  0.19730741170E+04 0.  0.
        3    1    3    3  502    0  0.25106418802E+03  0.28908919564E+03  0.46988532870E+03  0.60613366667E+03  0.10100000352E+00 0.  1.
       -3    1    3    3    0  502 -0.25106418802E+03 -0.28908919564E+03 -0.16480181040E+04  0.16919129620E+04  0.10100000352E+00 0. -1.
</event>
<event>
 5   0  0.1244229E-04  0.2002906E+04  0.7818609E-02  0.8605263E-01
        2   -1    0    0  501    0  0.00000000000E+00  0.00000000000E+00  0.61761319358E+03  0.61761319358E+03  0.25500000920E-02 0. -1.
       -2   -1    0    0    0  501  0.00000000000E+00  0.00000000000E+00 -0.16238449209E+04  0.16238449209E+04  0.25500000920E-02 0.  1.
    10030    2    1    2    0    0  0.00000000000E+00  0.00000000000E+00 -0.10062317273E+04  0.22414581144E+04  0.20029059363E+04 0.  0.
        5    1    3    3  502    0 -0.82084472294E+03  0.15844400232E+03 -0.11201420240E+04  0.13977234365E+04  0.46999998093E+01 0.  1.
       -5    1    3    3    0  502  0.82084472294E+03 -0.15844400232E+03  0.11391029672E+03  0.84373467793E+03  0.46999998093E+01 0. -1.
</event>
<event>
 5   0  0.1281789E-04  0.1993929E+04  0.7818609E-02  0.8609464E-01
        2   -1    0    0  501    0  0.00000000000E+00  0.00000000000E+00  0.57118431657E+03  0.57118431658E+03  0.25500000920E-02 0.  1.
       -2   -1    0    0    0  501  0.00000000000E+00  0.00000000000E+00 -0.17401350734E+04  0.17401350734E+04  0.25500000920E-02 0. -1.
    10030    2    1    2    0    0  0.00000000000E+00  0.00000000000E+00 -0.11689507568E+04  0.23113193899E+04  0.19939286473E+04 0.  0.
        2    1    3    3  502    0  0.84103080294E+03  0.47783874536E+03 -0.86430402913E+03  0.12971831532E+04  0.25500000920E-02 0. -1.
       -2    1    3    3    0  502 -0.84103080294E+03 -0.47783874536E+03 -0.30464672766E+03  0.10141362368E+04  0.25500000920E-02 0.  1.
</event>
<event>
 5   0  0.6256535E-05  0.2006921E+04  0.7818609E-02  0.8603392E-01
       -1   -1    0    0    0  501  0.00000000000E+00  0.00000000000E+00  0.10407577003E+04  0.10407577003E+04  0.50400001928E-02 0.  1.
        1   -1    0    0  501    0  0.00000000000E+00  0.00000000000E+00 -0.96750022951E+03  0.96750022953E+03  0.50400001928E-02 0. -1.
    10030    2    1    2    0    0  0.00000000000E+00  0.00000000000E+00  0.73257470817E+02  0.20082579299E+04  0.20069213377E+04 0.  0.
        1    1    3    3  502    0 -0.61611893927E+03  0.34959337510E+03  0.74781666235E+03  0.10300717624E+04  0.50400001928E-02 0.  1.
       -1    1    3    3    0  502  0.61611893927E+03 -0.34959337510E+03 -0.67455919154E+03  0.97818616743E+03  0.50400001928E-02 0. -1.
</event>
<event>
 5   0  0.1244229E-04  0.1995145E+04  0.7818609E-02  0.8608894E-01
       -2   -1    0    0    0  501  0.00000000000E+00  0.00000000000E+00  0.11726143667E+04  0.11726143667E+04  0.25500000920E-02 0.  1.
        2   -1    0    0  501    0  0.00000000000E+00  0.00000000000E+00 -0.84865969801E+03  0.84865969802E+03  0.25500000920E-02 0. -1.
    10030    2    1    2    0    0  0.00000000000E+00  0.00000000000E+00  0.32395466864E+03  0.20212740647E+04  0.19951446607E+04 0.  0.
        5    1    3    3  502    0  0.30863204377E+03  0.51808509779E+03  0.96703059856E+03  0.11396649400E+04  0.46999998093E+01 0.  1.
       -5    1    3    3    0  502 -0.30863204377E+03 -0.51808509779E+03 -0.64307592992E+03  0.88160912463E+03  0.46999998093E+01 0. -1.
</event>
<event>
 5   0  0.1244229E-04  0.1991433E+04  0.7818609E-02  0.8610637E-01
        2   -1    0    0  501    0  0.00000000000E+00  0.00000000000E+00  0.16336570019E+04  0.16336570019E+04  0.25500000920E-02 0. -1.
       -2   -1    0    0    0  501  0.00000000000E+00  0.00000000000E+00 -0.60689071972E+03  0.60689071973E+03  0.25500000920E-02 0.  1.
    10030    2    1    2    0    0  0.00000000000E+00  0.00000000000E+00  0.10267662822E+04  0.22405477217E+04  0.19914329250E+04 0.  0.
        5    1    3    3  502    0 -0.70507132256E+03  0.17532447791E+03 -0.25264338193E+03  0.76923014169E+03  0.46999998093E+01 0.  1.
       -5    1    3    3    0  502  0.70507132256E+03 -0.17532447791E+03  0.12794096641E+04  0.14713175800E+04  0.46999998093E+01 0. -1.
</event>
<event>
 5   0  0.1159914E-04  0.1996081E+04  0.7818609E-02  0.8608455E-01
       -2   -1    0    0    0  501  0.00000000000E+00  0.00000000000E+00  0.41833686669E+03  0.41833686670E+03  0.25500000920E-02 0. -1.
        2   -1    0    0  501    0  0.00000000000E+00  0.00000000000E+00 -0.23810584122E+04  0.23810584122E+04  0.25500000920E-02 0.  1.
    10030    2    1    2    0    0  0.00000000000E+00  0.00000000000E+00 -0.19627215455E+04  0.27993952789E+04  0.19960806753E+04 0.  0.
        3    1    3    3  502    0  0.36757076847E+03  0.53669754512E+02 -0.22804949915E+04  0.23105510444E+04  0.10100000352E+00 0.  1.
       -3    1    3    3    0  502 -0.36757076847E+03 -0.53669754512E+02  0.31777344602E+03  0.48884423447E+03  0.10100000352E+00 0. -1.
</event>
<event>
 5   0  0.6222733E-05  0.2004020E+04  0.7818609E-02  0.8604743E-01
        1   -1    0    0  501    0  0.00000000000E+00  0.00000000000E+00  0.82662652420E+03  0.82662652422E+03  0.50400001928E-02 0.  1.
       -1   -1    0    0    0  501  0.00000000000E+00  0.00000000000E+00 -0.12146043849E+04  0.12146043850E+04  0.50400001928E-02 0. -1.
    10030    2    1    2    0    0  0.00000000000E+00  0.00000000000E+00 -0.38797786074E+03  0.20412309092E+04  0.20040201606E+04 0.  0.
        2    1    3    3  502    0  0.77992322907E+02  0.76142488105E+03  0.46468174563E+03  0.89542156365E+03  0.25500000920E-02 0.  1.
       -2    1    3    3    0  502 -0.77992322907E+02 -0.76142488105E+03 -0.85265960637E+03  0.11458093455E+04  0.25500000920E-02 0. -1.
</event>
<event>
 5   0  0.6168338E-05  0.1999169E+04  0.7818609E-02  0.8607009E-01
        1   -1    0    0  501    0  0.00000000000E+00  0.00000000000E+00  0.14827590753E+04  0.14827590753E+04  0.50400001928E-02 0. -1.
       -1   -1    0    0    0  501  0.00000000000E+00  0.00000000000E+00 -0.67385829448E+03  0.67385829450E+03  0.50400001928E-02 0.  1.
    10030    2    1    2    0    0  0.00000000000E+00  0.00000000000E+00  0.80890078081E+03  0.21566173698E+04  0.19991693291E+04 0.  0.
        5    1    3    3  502    0  0.23251957082E+02  0.93722190923E+03  0.30412823230E+02  0.93801524000E+03  0.46999998093E+01 0.  1.
       -5    1    3    3    0  502 -0.23251957082E+02 -0.93722190923E+03  0.77848795758E+03  0.12186021298E+04  0.46999998093E+01 0. -1.
</event>
<event>
 5   0  0.1281789E-04  0.1982372E+04  0.7818609E-02  0.8614907E-01
       -2   -1    0    0    0  501  0.00000000000E+00  0.00000000000E+00  0.50860796766E+03  0.50860796767E+03  0.25500000920E-02 0.  1.
        2   -1    0    0  501    0  0.00000000000E+00  0.00000000000E+00 -0.19316452546E+04  0.19316452546E+04  0.25500000920E-02 0. -1.
    10030    2    1    2    0    0  0.00000000000E+00  0.00000000000E+00 -0.14230372869E+04  0.24402532223E+04  0.19823724849E+04 0.  0.
        2    1    3    3  502    0 -0.64092567497E+03  0.47105500745E+03  0.16499029226E+02  0.79558202521E+03  0.25500000920E-02 0. -1.
       -2    1    3    3    0  502  0.64092567497E+03 -0.47105500745E+03 -0.14395363162E+04  0.16446711971E+04  0.25500000920E-02 0.  1.
</event>
<event>
 5   0  0.1274868E-04  0.2002099E+04  0.7818609E-02  0.8605640E-01
        2   -1    0    0  501    0  0.00000000000E+00  0.00000000000E+00  0.97820580035E+03  0.97820580036E+03  0.25500000920E-02 0. -1.
       -2   -1    0    0    0  501  0.00000000000E+00  0.00000000000E+00 -0.10244271363E+04  0.10244271363E+04  0.25500000920E-02 0.  1.
    10030    2    1    2    0    0  0.00000000000E+00  0.00000000000E+00 -0.46221335949E+02  0.20026329367E+04  0.20020994648E+04 0.  0.
        1    1    3    3  502    0  0.39640957330E+03  0.72338412442E+03  0.54420482904E+03  0.98822266582E+03  0.50400001928E-02 0. -1.
       -1    1    3    3    0  502 -0.39640957330E+03 -0.72338412442E+03 -0.59042616499E+03  0.10144102708E+04  0.50400001928E-02 0.  1.
</event>
<event>
 5   0  0.6222733E-05  0.2036931E+04  0.7818609E-02  0.8589546E-01
        1   -1    0    0  501    0  0.00000000000E+00  0.00000000000E+00  0.17992435011E+04  0.17992435011E+04  0.50400001928E-02 0.  1.
       -1   -1    0    0    0  501  0.00000000000E+00  0.00000000000E+00 -0.57650448652E+03  0.57650448654E+03  0.50400001928E-02 0. -1.
    10030    2    1    2    0    0  0.00000000000E+00  0.00000000000E+00  0.12227390146E+04  0.23757479876E+04  0.20369309765E+04 0.  0.
        2    1    3    3  502    0 -0.10124848215E+04 -0.47077294489E+02  0.49514377395E+03  0.11280554696E+04  0.25500000920E-02 0.  1.
       -2    1    3    3    0  502  0.10124848215E+04  0.47077294489E+02  0.72759524060E+03  0.12476925181E+04  0.25500000920E-02 0. -1.
</event>
<event>
 5   0  0.6214547E-05  0.1999627E+04  0.7818609E-02  0.8606795E-01
        1   -1    0    0  501    0  0.00000000000E+00  0.00000000000E+00  0.10506070369E+04  0.10506070369E+04  0.50400001928E-02 0.  1.
       -1   -1    0    0    0  501  0.00000000000E+00  0.00000000000E+00 -0.95147568398E+03  0.95147568399E+03  0.50400001928E-02 0. -1.
    10030    2    1    2    0    0  0.00000000000E+00  0.00000000000E+00  0.99131352882E+02  0.20020827209E+04  0.19996270142E+04 0.  0.
        3    1    3    3  502    0 -0.54358980519E+03  0.78404344710E+03 -0.24982167061E+03  0.98621746108E+03  0.10100000352E+00 0. -1.
       -3    1    3    3    0  502  0.54358980519E+03 -0.78404344710E+03  0.34895302349E+03  0.10158652598E+04  0.10100000352E+00 0.  1.
</event>
<event>
 5   0  0.1281789E-04  0.1976086E+04  0.7818609E-02  0.8617884E-01
        2   -1    0    0  501    0  0.00000000000E+00  0.00000000000E+00  0.10145019719E+04  0.10145019719E+04  0.25500000920E-02 0.  1.
       -2   -1    0    0    0  501  0.00000000000E+00  0.00000000000E+00 -0.96227388595E+03  0.96227388595E+03  0.25500000920E-02 0. -1.
    10030    2    1    2    0    0  0.00000000000E+00  0.00000000000E+00  0.52228085981E+02  0.19767758579E+04  0.19760857824E+04 0.  0.
        2    1    3    3  502    0 -0.79850542738E+03  0.41371915069E+03 -0.38324066455E+03  0.97757243219E+03  0.25500000920E-02 0. -1.
       -2    1    3    3    0  502  0.79850542738E+03 -0.41371915069E+03  0.43546875053E+03  0.99920342569E+03  0.25500000920E-02 0.  1.
</event>
<event>
 5   0  0.6256535E-05  0.1988583E+04  0.7818609E-02  0.8611977E-01
       -1   -1    0    0    0  501  0.00000000000E+00  0.00000000000E+00  0.88381915362E+03  0.88381915363E+03  0.50400001928E-02 0.  1.
        1   -1    0    0  501    0  0.00000000000E+00  0.00000000000E+00 -0.11185720885E+04  0.11185720886E+04  0.50400001928E-02 0. -1.
    10030    2    1    2    0    0  0.00000000000E+00  0.00000000000E+00 -0.23475293493E+03  0.20023912422E+04  0.19885828488E+04 0.  0.
        1    1    3    3  502    0 -0.16114077787E+03 -0.99583103620E+02 -0.11002342717E+04  0.11164222308E+04  0.50400001928E-02 0. -1.
       -1    1    3    3    0  502  0.16114077787E+03  0.99583103620E+02  0.86548133676E+03  0.88596901138E+03  0.50400001928E-02 0.  1.
</event>
<event>
 5   0  0.6256535E-05  0.2024047E+04  0.7818609E-02  0.8595460E-01
       -1   -1    0    0    0  501  0.00000000000E+00  0.00000000000E+00  0.11289644035E+04  0.11289644035E+04  0.50400001928E-02 0. -1.
        1   -1    0    0  501    0  0.00000000000E+00  0.00000000000E+00 -0.90719536355E+03  0.90719536357E+03  0.50400001928E-02 0.  1.
    10030    2    1    2    0    0  0.00000000000E+00  0.00000000000E+00  0.22176903992E+03  0.20361597670E+04  0.20240467114E+04 0.  0.
        1    1    3    3  502    0  0.79363795769E+03 -0.61636291597E+03 -0.99459968979E+01  0.10049195863E+04  0.50400001928E-02 0. -1.
       -1    1    3    3    0  502 -0.79363795769E+03  0.61636291597E+03  0.23171503682E+03  0.10312401807E+04  0.50400001928E-02 0.  1.
</event>
<event>
 5   0  0.6222733E-05  0.1960027E+04  0.7818609E-02  0.8625541E-01
        1   -1    0    0  501    0  0.00000000000E+00  0.00000000000E+00  0.18787675093E+04  0.18787675093E+04  0.50400001928E-02 0.  1.
       -1   -1    0    0    0  501  0.00000000000E+00  0.00000000000E+00 -0.51120034971E+03  0.51120034974E+03  0.50400001928E-02 0. -1.
    10030    2    1    2    0    0  0.00000000000E+00  0.00000000000E+00  0.13675671595E+04  0.23899678590E+04  0.19600271506E+04 0.  0.
        2    1    3    3  502    0  0.63825400038E+03  0.68564511032E+03  0.33259844027E+03  0.99403174435E+03  0.25500000920E-02 0.  1.
       -2    1    3    3    0  502 -0.63825400038E+03 -0.68564511032E+03  0.10349687193E+04  0.13959361146E+04  0.25500000920E-02 0. -1.
</event>
<event>
 5   0  0.1242761E-04  0.1904373E+04  0.7818609E-02  0.8652683E-01
        2   -1    0    0  501    0  0.00000000000E+00  0.00000000000E+00  0.89068886006E+03  0.89068886007E+03  0.25500000920E-02 0.  1.
       -2   -1    0    0    0  501  0.00000000000E+00  0.00000000000E+00 -0.10179297906E+04  0.10179297906E+04  0.25500000920E-02 0. -1.
    10030    2    1    2    0    0  0.00000000000E+00  0.00000000000E+00 -0.12724093052E+03  0.19086186507E+04  0.19043725736E+04 0.  0.
        4    1    3    3  502    0 -0.38366513483E+03  0.16180588585E+03 -0.92184571164E+03  0.10115242011E+04  0.12699999809E+01 0. -1.
       -4    1    3    3    0  502  0.38366513483E+03 -0.16180588585E+03  0.79460478113E+03  0.89709444958E+03  0.12699999809E+01 0.  1.
</event>
<event>
 5   0  0.1244229E-04  0.1998393E+04  0.7818609E-02  0.8607372E-01
       -2   -1    0    0    0  501  0.00000000000E+00  0.00000000000E+00  0.11651710202E+04  0.11651710202E+04  0.25500000920E-02 0. -1.
        2   -1    0    0  501    0  0.00000000000E+00  0.00000000000E+00 -0.85686450909E+03  0.85686450909E+03  0.25500000920E-02 0.  1.
    10030    2    1    2    0    0  0.00000000000E+00  0.00000000000E+00  0.30830651107E+03  0.20220355293E+04  0.19983930486E+04 0.  0.
        5    1    3    3  502    0 -0.55473774067E+03 -0.18515642812E+03 -0.66558874083E+03  0.88602896437E+03  0.46999998093E+01 0.  1.
       -5    1    3    3    0  502  0.55473774067E+03  0.18515642812E+03  0.97389525190E+03  0.11360065649E+04  0.46999998093E+01 0. -1.
</event>
<event>
 5   0  0.1242761E-04  0.2004543E+04  0.7818609E-02  0.8604500E-01
        2   -1    0    0  501    0  0.00000000000E+00  0.00000000000E+00  0.73600081420E+03  0.73600081420E+03  0.25500000920E-02 0.  1.
       -2   -1    0    0    0  501  0.00000000000E+00  0.00000000000E+00 -0.13648730292E+04  0.13648730292E+04  0.25500000920E-02 0. -1.
    10030    2    1    2    0    0  0.00000000000E+00  0.00000000000E+00 -0.62887221500E+03  0.21008738434E+04  0.20045425022E+04 0.  0.
        4    1    3    3  502    0 -0.69722878178E+03 -0.70794123998E+03 -0.45203628791E+03  0.10916259395E+04  0.12699999809E+01 0.  1.
       -4    1    3    3    0  502  0.69722878178E+03  0.70794123998E+03 -0.17683592708E+03  0.10092479038E+04  0.12699999809E+01 0. -1.
</event>
<event>
 5   0  0.1274868E-04  0.1861132E+04  0.7818609E-02  0.8674449E-01
        2   -1    0    0  501    0  0.00000000000E+00  0.00000000000E+00  0.15259823757E+04  0.15259823757E+04  0.25500000920E-02 0.  1.
       -2   -1    0    0    0  501  0.00000000000E+00  0.00000000000E+00 -0.56747280409E+03  0.56747280410E+03  0.25500000920E-02 0. -1.
    10030    2    1    2    0    0  0.00000000000E+00  0.00000000000E+00  0.95850957160E+03  0.20934551798E+04  0.18611324485E+04 0.  0.
        1    1    3    3  502    0 -0.74661512312E+03  0.23333048442E+03  0.10462356658E+04  0.13063255052E+04  0.50400001928E-02 0.  1.
       -1    1    3    3    0  502  0.74661512312E+03 -0.23333048442E+03 -0.87726094208E+02  0.78712967461E+03  0.50400001928E-02 0. -1.
</event>
<event>
 5   0  0.1244229E-04  0.1976170E+04  0.7818609E-02  0.8617844E-01
       -2   -1    0    0    0  501  0.00000000000E+00  0.00000000000E+00  0.69743082234E+03  0.69743082235E+03  0.25500000920E-02 0.  1.
        2   -1    0    0  501    0  0.00000000000E+00  0.00000000000E+00 -0.13998686248E+04  0.13998686248E+04  0.25500000920E-02 0. -1.
    10030    2    1    2    0    0  0.00000000000E+00  0.00000000000E+00 -0.70243780249E+03  0.20972994472E+04  0.19761695537E+04 0.  0.
        5    1    3    3  502    0 -0.21937148160E+03 -0.54550674188E+03  0.49155113009E+03  0.76638505718E+03  0.46999998093E+01 0.  1.
       -5    1    3    3    0  502  0.21937148160E+03  0.54550674188E+03 -0.11939889326E+04  0.13309143900E+04  0.46999998093E+01 0. -1.
</event>
<event>
 5   0  0.1159914E-04  0.1993622E+04  0.7818609E-02  0.8609609E-01
       -2   -1    0    0    0  501  0.00000000000E+00  0.00000000000E+00  0.95176141495E+03  0.95176141496E+03  0.25500000920E-02 0. -1.
        2   -1    0    0  501    0  0.00000000000E+00  0.00000000000E+00 -0.10439926527E+04  0.10439926527E+04  0.25500000920E-02 0.  1.
    10030    2    1    2    0    0  0.00000000000E+00  0.00000000000E+00 -0.92231237733E+02  0.19957540676E+04  0.19936217538E+04 0.  0.
        3    1    3    3  502    0 -0.86396887284E+03 -0.46141099979E+03 -0.23148816129E+03  0.10064437903E+04  0.10100000352E+00 0.  1.
       -3    1    3    3    0  502  0.86396887284E+03  0.46141099979E+03  0.13925692356E+03  0.98931027738E+03  0.10100000352E+00 0. -1.
</event>
<event>
 5   0  0.1242761E-04  0.2008977E+04  0.7818609E-02  0.8602435E-01
        2   -1    0    0  501    0  0.00000000000E+00  0.00000000000E+00  0.63123881518E+03  0.63123881519E+03  0.25500000920E-02 0.  1.
       -2   -1    0    0    0  501  0.00000000000E+00  0.00000000000E+00 -0.15984392123E+04  0.15984392123E+04  0.25500000920E-02 0. -1.
    10030    2    1    2    0    0  0.00000000000E+00  0.00000000000E+00 -0.96720039711E+03  0.22296780275E+04  0.20089767291E+04 0.  0.
        4    1    3    3  502    0 -0.72111721875E+03  0.77548016454E+02 -0.12549085087E+04  0.14494208209E+04  0.12699999809E+01 0. -1.
       -4    1    3    3    0  502  0.72111721875E+03 -0.77548016454E+02  0.28770811158E+03  0.78025720656E+03  0.12699999809E+01 0.  1.
</event>
<event>
 5   0  0.6214547E-05  0.2009219E+04  0.7818609E-02  0.8602322E-01
       -1   -1    0    0    0  501  0.00000000000E+00  0.00000000000E+00  0.65360853435E+03  0.65360853437E+03  0.50400001928E-02 0. -1.
        1   -1    0    0  501    0  0.00000000000E+00  0.00000000000E+00 -0.15441055115E+04  0.15441055115E+04  0.50400001928E-02 0.  1.
    10030    2    1    2    0    0  0.00000000000E+00  0.00000000000E+00 -0.89049697712E+03  0.21977140458E+04  0.20092192914E+04 0.  0.
        3    1    3    3  502    0 -0.35882640705E+03  0.33578860078E+03  0.51315446653E+03  0.71051945190E+03  0.10100000352E+00 0. -1.
       -3    1    3    3    0  502  0.35882640705E+03 -0.33578860078E+03 -0.14036514436E+04  0.14871945939E+04  0.10100000352E+00 0.  1.
</event>
<event>
 5   0  0.6222733E-05  0.2021992E+04  0.7818609E-02  0.8596407E-01
       -1   -1    0    0    0  501  0.00000000000E+00  0.00000000000E+00  0.18610658426E+04  0.18610658426E+04  0.50400001928E-02 0.  1.
        1   -1    0    0  501    0  0.00000000000E+00  0.00000000000E+00 -0.54920820763E+03  0.54920820765E+03  0.50400001928E-02 0. -1.
    10030    2    1    2    0    0  0.00000000000E+00  0.00000000000E+00  0.13118576350E+04  0.24102740502E+04  0.20219917267E+04 0.  0.
        2    1    3    3  502    0  0.18296634404E+03  0.13527407713E+03 -0.51828806193E+03  0.56603734341E+03  0.25500000920E-02 0. -1.
       -2    1    3    3    0  502 -0.18296634404E+03 -0.13527407713E+03  0.18301456969E+04  0.18442367068E+04  0.25500000920E-02 0.  1.
</event>
<event>
 5   0  0.6168338E-05  0.2003405E+04  0.7818609E-02  0.8605031E-01
       -1   -1    0    0    0  501  0.00000000000E+00  0.00000000000E+00  0.40700930866E+03  0.40700930869E+03  0.50400001928E-02 0. -1.
        1   -1    0    0  501    0  0.00000000000E+00  0.00000000000E+00 -0.24653182239E+04  0.24653182239E+04  0.50400001928E-02 0.  1.
    10030    2    1    2    0    0  0.00000000000E+00  0.00000000000E+00 -0.20583089152E+04  0.28723275326E+04  0.20034045682E+04 0.  0.
        5    1    3    3  502    0  0.75104475074E+03 -0.65577437726E+03 -0.89106135292E+03  0.13372062953E+04  0.46999998093E+01 0.  1.
       -5    1    3    3    0  502 -0.75104475074E+03  0.65577437726E+03 -0.11672475623E+04  0.15351212373E+04  0.46999998093E+01 0. -1.
</event>
<event>
 5   0  0.1242761E-04  0.1995487E+04  0.7818609E-02  0.8608734E-01
        2   -1    0    0  501    0  0.00000000000E+00  0.00000000000E+00  0.24530424377E+04  0.24530424377E+04  0.25500000920E-02 0. -1.
       -2   -1    0    0    0  501  0.00000000000E+00  0.00000000000E+00 -0.40581929154E+03  0.40581929155E+03  0.25500000920E-02 0.  1.
    10030    2    1    2    0    0  0.00000000000E+00  0.00000000000E+00  0.20472231462E+04  0.28588617293E+04  0.19954868521E+04 0.  0.
        4    1    3    3  502    0  0.27542012580E+03 -0.89898560279E+03  0.54531001445E+03  0.10869204131E+04  0.12699999809E+01 0.  1.
       -4    1    3    3    0  502 -0.27542012580E+03  0.89898560279E+03  0.15019131317E+04  0.17719413162E+04  0.12699999809E+01 0. -1.
</event>
<event>
 5   0  0.6256535E-05  0.1959217E+04  0.7818609E-02  0.8625929E-01
       -1   -1    0    0    0  501  0.00000000000E+00  0.00000000000E+00  0.12561455271E+04  0.12561455271E+04  0.50400001928E-02 0. -1.
        1   -1    0    0  501    0  0.00000000000E+00  0.00000000000E+00 -0.76395038705E+03  0.76395038707E+03  0.50400001928E-02 0.  1.
    10030    2    1    2    0    0  0.00000000000E+00  0.00000000000E+00  0.49219514003E+03  0.20200959142E+04  0.19592170494E+04 0.  0.
        1    1    3    3  502    0 -0.78596310243E+03 -0.41431763886E+03 -0.17931942190E+03  0.90639536592E+03  0.50400001928E-02 0.  1.
       -1    1    3    3    0  502  0.78596310243E+03  0.41431763886E+03  0.67151456193E+03  0.11137005483E+04  0.50400001928E-02 0. -1.
</event>
<event>
 5   0  0.6168338E-05  0.2012175E+04  0.7818609E-02  0.8600949E-01
       -1   -1    0    0    0  501  0.00000000000E+00  0.00000000000E+00  0.95685608807E+03  0.95685608808E+03  0.50400001928E-02 0.  1.
        1   -1    0    0  501    0  0.00000000000E+00  0.00000000000E+00 -0.10578524085E+04  0.10578524086E+04  0.50400001928E-02 0. -1.
    10030    2    1    2    0    0  0.00000000000E+00  0.00000000000E+00 -0.10099632048E+03  0.20147084966E+04  0.20121754570E+04 0.  0.
        5    1    3    3  502    0  0.25313568345E+03 -0.32439578053E+03  0.86874261145E+03  0.96127317221E+03  0.46999998093E+01 0.  1.
       -5    1    3    3    0  502 -0.25313568345E+03  0.32439578053E+03 -0.96973893192E+03  0.10534353244E+04  0.46999998093E+01 0. -1.
</event>
<event>
 5   0  0.6256535E-05  0.1966623E+04  0.7818609E-02  0.8622386E-01
       -1   -1    0    0    0  501  0.00000000000E+00  0.00000000000E+00  0.63124796641E+03  0.63124796643E+03  0.50400001928E-02 0. -1.
        1   -1    0    0  501    0  0.00000000000E+00  0.00000000000E+00 -0.15317307939E+04  0.15317307939E+04  0.50400001928E-02 0.  1.
    10030    2    1    2    0    0  0.00000000000E+00  0.00000000000E+00 -0.90048282747E+03  0.21629787603E+04  0.19666234502E+04 0.  0.
        1    1    3    3  502    0  0.87326786175E+03  0.10410928557E+02  0.46757581188E+02  0.87458070939E+03  0.50400001928E-02 0. -1.
       -1    1    3    3    0  502 -0.87326786175E+03 -0.10410928557E+02 -0.94724040866E+03  0.12883980509E+04  0.50400001928E-02 0.  1.
</event>
<event>
 5   0  0.6222733E-05  0.1996566E+04  0.7818609E-02  0.8608228E-01
       -1   -1    0    0    0  501  0.00000000000E+00  0.00000000000E+00  0.57704127622E+03  0.57704127625E+03  0.50400001928E-02 0.  1.
        1   -1    0    0  501    0  0.00000000000E+00  0.00000000000E+00 -0.17270317063E+04  0.17270317063E+04  0.50400001928E-02 0. -1.
    10030    2    1    2    0    0  0.00000000000E+00  0.00000000000E+00 -0.11499904301E+04  0.23040729826E+04  0.19965656312E+04 0.  0.
        2    1    3    3  502    0  0.67423715827E+03  0.12154670224E+03  0.26291990181E+03  0.73382301762E+03  0.25500000920E-02 0.  1.
       -2    1    3    3    0  502 -0.67423715827E+03 -0.12154670224E+03 -0.14129103319E+04  0.15702499650E+04  0.25500000920E-02 0. -1.
</event>
<event>
 5   0  0.1244229E-04  0.1984185E+04  0.7818609E-02  0.8614050E-01
        2   -1    0    0  501    0  0.00000000000E+00  0.00000000000E+00  0.92050486653E+03  0.92050486654E+03  0.25500000920E-02 0.  1.
       -2   -1    0    0    0  501  0.00000000000E+00  0.00000000000E+00 -0.10692479686E+04  0.10692479686E+04  0.25500000920E-02 0. -1.
    10030    2    1    2    0    0  0.00000000000E+00  0.00000000000E+00 -0.14874310204E+03  0.19897528351E+04  0.19841854335E+04 0.  0.
        5    1    3    3  502    0 -0.55286433609E+03  0.33074077022E+03 -0.83092691222E+03  0.10514323823E+04  0.46999998093E+01 0. -1.
       -5    1    3    3    0  502  0.55286433609E+03 -0.33074077022E+03  0.68218381018E+03  0.93832045276E+03  0.46999998093E+01 0.  1.
</event>
<event>
 5   0  0.1242761E-04  0.1994344E+04  0.7818609E-02  0.8609270E-01
       -2   -1    0    0    0  501  0.00000000000E+00  0.00000000000E+00  0.70195534959E+03  0.70195534959E+03  0.25500000920E-02 0.  1.
        2   -1    0    0  501    0  0.00000000000E+00  0.00000000000E+00 -0.14165453219E+04  0.14165453219E+04  0.25500000920E-02 0. -1.
    10030    2    1    2    0    0  0.00000000000E+00  0.00000000000E+00 -0.71458997233E+03  0.21185006715E+04  0.19943435678E+04 0.  0.
        4    1    3    3  502    0 -0.19435620999E+03  0.73508278107E+03 -0.10426171169E+04  0.12904158619E+04  0.12699999809E+01 0. -1.
       -4    1    3    3    0  502  0.19435620999E+03 -0.73508278107E+03  0.32802714456E+03  0.82808480958E+03  0.12699999809E+01 0.  1.
</event>
<event>
 5   0  0.6214547E-05  0.2007771E+04  0.7818609E-02  0.8602996E-01
        1   -1    0    0  501    0  0.00000000000E+00  0.00000000000E+00  0.88971048162E+03  0.88971048164E+03  0.50400001928E-02 0.  1.
       -1   -1    0    0    0  501  0.00000000000E+00  0.00000000000E+00 -0.11327128090E+04  0.11327128090E+04  0.50400001928E-02 0. -1.
    10030    2    1    2    0    0  0.00000000000E+00  0.00000000000E+00 -0.24300232738E+03  0.20224232907E+04  0.20077713604E+04 0.  0.
        3    1    3    3  502    0 -0.29673691464E+03  0.92765732162E+03 -0.36655732802E+03  0.10406561333E+04  0.10100000352E+00 0. -1.
       -3    1    3    3    0  502  0.29673691464E+03 -0.92765732162E+03  0.12355500064E+03  0.98176715735E+03  0.10100000352E+00 0.  1.
</event>
<event>
 5   0  0.6222733E-05  0.1994724E+04  0.7818609E-02  0.8609091E-01
        1   -1    0    0  501    0  0.00000000000E+00  0.00000000000E+00  0.48080450544E+03  0.48080450546E+03  0.50400001928E-02 0.  1.
       -1   -1    0    0    0  501  0.00000000000E+00  0.00000000000E+00 -0.20688885822E+04  0.20688885822E+04  0.50400001928E-02 0. -1.
    10030    2    1    2    0    0  0.00000000000E+00  0.00000000000E+00 -0.15880840768E+04  0.25496930877E+04  0.19947239925E+04 0.  0.
        2    1    3    3  502    0  0.18330594863E+03  0.78714169979E+03 -0.47035334169E+02  0.80957115130E+03  0.25500000920E-02 0.  1.
       -2    1    3    3    0  502 -0.18330594863E+03 -0.78714169979E+03 -0.15410487426E+04  0.17401219364E+04  0.25500000920E-02 0. -1.
</event>
<event>
 5   0  0.1242761E-04  0.2022758E+04  0.7818609E-02  0.8596054E-01
       -2   -1    0    0    0  501  0.00000000000E+00  0.00000000000E+00  0.12593591733E+04  0.12593591733E+04  0.25500000920E-02 0. -1.
        2   -1    0    0  501    0  0.00000000000E+00  0.00000000000E+00 -0.81222860562E+03  0.81222860562E+03  0.25500000920E-02 0.  1.
    10030    2    1    2    0    0  0.00000000000E+00  0.00000000000E+00  0.44713056766E+03  0.20715877789E+04  0.20227580629E+04 0.  0.
        4    1    3    3  502    0  0.99344812418E+03 -0.11327018289E+03  0.67853460202E+02  0.10021851200E+04  0.12699999809E+01 0.  1.
       -4    1    3    3    0  502 -0.99344812418E+03  0.11327018289E+03  0.37927710746E+03  0.10694026589E+04  0.12699999809E+01 0. -1.
</event>
<event>
 5   0  0.6256535E-05  0.1950477E+04  0.7818609E-02  0.8630131E-01
       -1   -1    0    0    0  501  0.00000000000E+00  0.00000000000E+00  0.10740997154E+04  0.10740997154E+04  0.50400001928E-02 0. -1.
        1   -1    0    0  501    0  0.00000000000E+00  0.00000000000E+00 -0.88547678174E+03  0.88547678175E+03  0.50400001928E-02 0.  1.
    10030    2    1    2    0    0  0.00000000000E+00  0.00000000000E+00  0.18862293368E+03  0.19595764972E+04  0.19504772332E+04 0.  0.
        1    1    3    3  502    0 -0.95038775674E+02 -0.44811693224E+03  0.95928627078E+03  0.10630481189E+04  0.50400001928E-02 0. -1.
       -1    1    3    3    0  502  0.95038775674E+02  0.44811693224E+03 -0.77066333710E+03  0.89652837825E+03  0.50400001928E-02 0.  1.
</event>
<event>
 5   0  0.1274868E-04  0.1993079E+04  0.7818609E-02  0.8609863E-01
       -2   -1    0    0    0  501  0.00000000000E+00  0.00000000000E+00  0.10036260007E+04  0.10036260007E+04  0.25500000920E-02 0.  1.
        2   -1    0    0  501    0  0.00000000000E+00  0.00000000000E+00 -0.98950315201E+03  0.98950315201E+03  0.25500000920E-02 0. -1.
    10030    2    1    2    0    0  0.00000000000E+00  0.00000000000E+00  0.14122848739E+02  0.19931291528E+04  0.19930791165E+04 0.  0.
        1    1    3    3  502    0  0.60932820810E+03  0.64000124153E+03  0.46773407597E+03  0.99982879544E+03  0.50400001928E-02 0.  1.
       -1    1    3    3    0  502 -0.60932820810E+03 -0.64000124153E+03 -0.45361122723E+03  0.99330035731E+03  0.50400001928E-02 0. -1.
</event>
<event>
 5   0  0.6256535E-05  0.2117083E+04  0.7818609E-02  0.8553755E-01
        1   -1    0    0  501    0  0.00000000000E+00  0.00000000000E+00  0.10242230469E+04  0.10242230470E+04  0.50400001928E-02 0.  1.
       -1   -1    0    0    0  501  0.00000000000E+00  0.00000000000E+00 -0.10940096047E+04  0.10940096047E+04  0.50400001928E-02 0. -1.
    10030    2    1    2    0    0  0.00000000000E+00  0.00000000000E+00 -0.69786557764E+02  0.21182326517E+04  0.21170827577E+04 0.  0.
        1    1    3    3  502    0  0.26442403563E+03  0.32141106022E+03 -0.10087074427E+04  0.10911992693E+04  0.50400001928E-02 0. -1.
       -1    1    3    3    0  502 -0.26442403563E+03 -0.32141106022E+03  0.93892088497E+03  0.10270333824E+04  0.50400001928E-02 0.  1.
</event>
<event>
 5   0  0.6256535E-05  0.1977144E+04  0.7818609E-02  0.8617382E-01
       -1   -1    0    0    0  501  0.00000000000E+00  0.00000000000E+00  0.77589690166E+03  0.77589690168E+03  0.50400001928E-02 0. -1.
        1   -1    0    0  501    0  0.00000000000E+00  0.00000000000E+00 -0.12595420535E+04  0.12595420535E+04  0.50400001928E-02 0.  1.
    10030    2    1    2    0    0  0.00000000000E+00  0.00000000000E+00 -0.48364515181E+03  0.20354389552E+04  0.19771441797E+04 0.  0.
        1    1    3    3  502    0 -0.43547150039E+03 -0.88262047288E+03 -0.14623868400E+03  0.99500757762E+03  0.50400001928E-02 0. -1.
       -1    1    3    3    0  502  0.43547150039E+03  0.88262047288E+03 -0.33740646781E+03  0.10404313775E+04  0.50400001928E-02 0.  1.
</event>
<event>
 5   0  0.1159914E-04  0.2000798E+04  0.7818609E-02  0.8606248E-01
        2   -1    0    0  501    0  0.00000000000E+00  0.00000000000E+00  0.13830946423E+04  0.13830946423E+04  0.25500000920E-02 0.  1.
       -2   -1    0    0    0  501  0.00000000000E+00  0.00000000000E+00 -0.72359341720E+03  0.72359341720E+03  0.25500000920E-02 0. -1.
    10030    2    1    2    0    0  0.00000000000E+00  0.00000000000E+00  0.65950122509E+03  0.21066880595E+04  0.20007980193E+04 0.  0.
        3    1    3    3  502    0  0.31729911490E+03 -0.88851820111E+03  0.68000388738E+03  0.11629912377E+04  0.10100000352E+00 0.  1.
       -3    1    3    3    0  502 -0.31729911490E+03  0.88851820111E+03 -0.20502662288E+02  0.94369682175E+03  0.10100000352E+00 0. -1.
</event>
<event>
 5   0  0.4479000E-05  0.2002010E+04  0.7818609E-02  0.8605682E-01
        3   -1    0    0  501    0  0.00000000000E+00  0.00000000000E+00  0.10827279757E+04  0.10827279804E+04  0.10100000352E+00 0.  1.
       -3   -1    0    0    0  501  0.00000000000E+00  0.00000000000E+00 -0.92545005547E+03  0.92545006098E+03  0.10100000352E+00 0. -1.
    10030    2    1    2    0    0  0.00000000000E+00  0.00000000000E+00  0.15727792021E+03  0.20081780414E+04  0.20020096657E+04 0.  0.
        2    1    3    3  502    0 -0.19377513453E+03 -0.31554436840E+03 -0.85422301690E+03  0.93102847099E+03  0.25500000920E-02 0. -1.
       -2    1    3    3    0  502  0.19377513453E+03  0.31554436840E+03  0.10115009371E+04  0.10771495704E+04  0.25500000920E-02 0.  1.
</event>
<event>
 5   0  0.1159914E-04  0.2178615E+04  0.7818609E-02  0.8527382E-01
        2   -1    0    0  501    0  0.00000000000E+00  0.00000000000E+00  0.15515117723E+04  0.15515117723E+04  0.25500000920E-02 0. -1.
       -2   -1    0    0    0  501  0.00000000000E+00  0.00000000000E+00 -0.76479667411E+03  0.76479667411E+03  0.25500000920E-02 0.  1.
    10030    2    1    2    0    0  0.00000000000E+00  0.00000000000E+00  0.78671509816E+03  0.23163084464E+04  0.21786151962E+04 0.  0.
        3    1    3    3  502    0  0.55009155050E+03 -0.61075035248E+03 -0.36664561790E+03  0.90002540315E+03  0.10100000352E+00 0. -1.
       -3    1    3    3    0  502 -0.55009155050E+03  0.61075035248E+03  0.11533607161E+04  0.14162830432E+04  0.10100000352E+00 0.  1.
</event>
<event>
 5   0  0.1242761E-04  0.2003446E+04  0.7818609E-02  0.8605011E-01
       -2   -1    0    0    0  501  0.00000000000E+00  0.00000000000E+00  0.65197542697E+03  0.65197542697E+03  0.25500000920E-02 0.  1.
        2   -1    0    0  501    0  0.00000000000E+00  0.00000000000E+00 -0.15390908624E+04  0.15390908624E+04  0.25500000920E-02 0. -1.
    10030    2    1    2    0    0  0.00000000000E+00  0.00000000000E+00 -0.88711543539E+03  0.21910662893E+04  0.20034464526E+04 0.  0.
        4    1    3    3  502    0 -0.74093945875E+03  0.44117712886E+03 -0.10010173908E+04  0.13212365308E+04  0.12699999809E+01 0. -1.
       -4    1    3    3    0  502  0.74093945875E+03 -0.44117712886E+03  0.11390195544E+03  0.86982975858E+03  0.12699999809E+01 0.  1.
</event>
<event>
 5   0  0.1159914E-04  0.1766303E+04  0.7818609E-02  0.8724427E-01
        2   -1    0    0  501    0  0.00000000000E+00  0.00000000000E+00  0.27659991010E+04  0.27659991010E+04  0.25500000920E-02 0. -1.
       -2   -1    0    0    0  501  0.00000000000E+00  0.00000000000E+00 -0.28197994439E+03  0.28197994440E+03  0.25500000920E-02 0.  1.
    10030    2    1    2    0    0  0.00000000000E+00  0.00000000000E+00  0.24840191566E+04  0.30479790454E+04  0.17663026612E+04 0.  0.
        3    1    3    3  502    0 -0.53296593233E+03 -0.20055512464E+03  0.77139690963E+02  0.57465257779E+03  0.10100000352E+00 0.  1.
       -3    1    3    3    0  502  0.53296593233E+03  0.20055512464E+03  0.24068794656E+04  0.24733264676E+04  0.10100000352E+00 0. -1.
</event>
<event>
 5   0  0.1274868E-04  0.2008458E+04  0.7818609E-02  0.8602677E-01
       -2   -1    0    0    0  501  0.00000000000E+00  0.00000000000E+00  0.62610346772E+03  0.62610346772E+03  0.25500000920E-02 0. -1.
        2   -1    0    0  501    0  0.00000000000E+00  0.00000000000E+00 -0.16107170114E+04  0.16107170114E+04  0.25500000920E-02 0.  1.
    10030    2    1    2    0    0  0.00000000000E+00  0.00000000000E+00 -0.98461354367E+03  0.22368204791E+04  0.20084576235E+04 0.  0.
        1    1    3    3  502    0 -0.98239733733E+02  0.42450632641E+03  0.51534233659E+03  0.67485879290E+03  0.50400001928E-02 0. -1.
       -1    1    3    3    0  502  0.98239733733E+02 -0.42450632641E+03 -0.14999558803E+04  0.15619616862E+04  0.50400001928E-02 0.  1.
</event>
<event>
 5   0  0.6222733E-05  0.2000505E+04  0.7818609E-02  0.8606385E-01
       -1   -1    0    0    0  501  0.00000000000E+00  0.00000000000E+00  0.14232484110E+04  0.14232484110E+04  0.50400001928E-02 0. -1.
        1   -1    0    0  501    0  0.00000000000E+00  0.00000000000E+00 -0.70297260836E+03  0.70297260838E+03  0.50400001928E-02 0.  1.
    10030    2    1    2    0    0  0.00000000000E+00  0.00000000000E+00  0.72027580262E+03  0.21262210194E+04  0.20005045842E+04 0.  0.
        2    1    3    3  502    0 -0.34077977762E+03  0.94037519866E+03  0.35135566204E+03  0.10601354500E+04  0.25500000920E-02 0.  1.
       -2    1    3    3    0  502  0.34077977762E+03 -0.94037519866E+03  0.36892014058E+03  0.10660855694E+04  0.25500000920E-02 0. -1.
</event>
<event>
 5   0  0.6028501E-05  0.2007352E+04  0.7818609E-02  0.8603191E-01
        1   -1    0    0  501    0  0.00000000000E+00  0.00000000000E+00  0.94744942667E+03  0.94744942668E+03  0.50400001928E-02 0.  1.
       -1   -1    0    0    0  501  0.00000000000E+00  0.00000000000E+00 -0.10632388536E+04  0.10632388536E+04  0.50400001928E-02 0. -1.
    10030    2    1    2    0    0  0.00000000000E+00  0.00000000000E+00 -0.11578942694E+03  0.20106882803E+04  0.20073515310E+04 0.  0.
        4    1    3    3  502    0 -0.22263284885E+03  0.56799791001E+03  0.74040963687E+03  0.95937221892E+03  0.12699999809E+01 0.  1.
       -4    1    3    3    0  502  0.22263284885E+03 -0.56799791001E+03 -0.85619906381E+03  0.10513160614E+04  0.12699999809E+01 0. -1.
</event>
<event>
 5   0  0.1244229E-04  0.2178311E+04  0.7818609E-02  0.8527510E-01
        2   -1    0    0  501    0  0.00000000000E+00  0.00000000000E+00  0.12836941300E+04  0.12836941300E+04  0.25500000920E-02 0. -1.
       -2   -1    0    0    0  501  0.00000000000E+00  0.00000000000E+00 -0.92409881835E+03  0.92409881835E+03  0.25500000920E-02 0.  1.
    10030    2    1    2    0    0  0.00000000000E+00  0.00000000000E+00  0.35959531169E+03  0.22077929484E+04  0.21783114825E+04 0.  0.
        5    1    3    3  502    0 -0.18813563120E+03 -0.99641108186E+03 -0.22308447698E+03  0.10382768579E+04  0.46999998093E+01 0.  1.
       -5    1    3    3    0  502  0.18813563120E+03  0.99641108186E+03  0.58267978867E+03  0.11695160905E+04  0.46999998093E+01 0. -1.
</event>
<event>
 5   0  0.6256535E-05  0.1992021E+04  0.7818609E-02  0.8610360E-01
       -1   -1    0    0    0  501  0.00000000000E+00  0.00000000000E+00  0.96523666105E+03  0.96523666106E+03  0.50400001928E-02 0. -1.
        1   -1    0    0  501    0  0.00000000000E+00  0.00000000000E+00 -0.10277649993E+04  0.10277649993E+04  0.50400001928E-02 0.  1.
    10030    2    1    2    0    0  0.00000000000E+00  0.00000000000E+00 -0.62528338215E+02  0.19930016603E+04  0.19920205383E+04 0.  0.
        1    1    3    3  502    0  0.46293857013E+03 -0.79295113082E+03  0.35487000845E+03  0.98438627506E+03  0.50400001928E-02 0. -1.
       -1    1    3    3    0  502 -0.46293857013E+03  0.79295113082E+03 -0.41739834667E+03  0.10086153853E+04  0.50400001928E-02 0.  1.
</event>
<event>
 5   0  0.6028501E-05  0.2000953E+04  0.7818609E-02  0.8606175E-01
        1   -1    0    0  501    0  0.00000000000E+00  0.00000000000E+00  0.22688657801E+04  0.22688657801E+04  0.50400001928E-02 0. -1.
       -1   -1    0    0    0  501  0.00000000000E+00  0.00000000000E+00 -0.44116892290E+03  0.44116892293E+03  0.50400001928E-02 0.  1.
    10030    2    1    2    0    0  0.00000000000E+00  0.00000000000E+00  0.18276968572E+04  0.27100347031E+04  0.20009528455E+04 0.  0.
        4    1    3    3  502    0  0.35666587157E+03  0.55500205809E+03 -0.10482814713E+03  0.66800327975E+03  0.12699999809E+01 0.  1.
       -4    1    3    3    0  502 -0.35666587157E+03 -0.55500205809E+03  0.19325250044E+04  0.20420314233E+04  0.12699999809E+01 0. -1.
</event>
<event>
 5   0  0.6168338E-05  0.2003131E+04  0.7818609E-02  0.8605158E-01
        1   -1    0    0  501    0  0.00000000000E+00  0.00000000000E+00  0.11866572763E+04  0.11866572763E+04  0.50400001928E-02 0. -1.
       -1   -1    0    0    0  501  0.00000000000E+00  0.00000000000E+00 -0.84534410561E+03  0.84534410563E+03  0.50400001928E-02 0.  1.
    10030    2    1    2    0    0  0.00000000000E+00  0.00000000000E+00  0.34131317068E+03  0.20320013819E+04  0.20031312827E+04 0.  0.
        5    1    3    3  502    0  0.87631166103E+03  0.16023546089E+01 -0.32129367514E+03  0.93336831448E+03  0.46999998093E+01 0.  1.
       -5    1    3    3    0  502 -0.87631166103E+03 -0.16023546089E+01  0.66260684582E+03  0.10986330675E+04  0.46999998093E+01 0. -1.
</event>
<event>
 5   0  0.1242761E-04  0.2033362E+04  0.7818609E-02  0.8591180E-01
       -2   -1    0    0    0  501  0.00000000000E+00  0.00000000000E+00  0.50920815846E+03  0.50920815847E+03  0.25500000920E-02 0. -1.
        2   -1    0    0  501    0  0.00000000000E+00  0.00000000000E+00 -0.20298977424E+04  0.20298977424E+04  0.25500000920E-02 0.  1.
    10030    2    1    2    0    0  0.00000000000E+00  0.00000000000E+00 -0.15206895839E+04  0.25391059009E+04  0.20333622317E+04 0.  0.
        4    1    3    3  502    0 -0.63132907237E+03  0.63012136105E+03 -0.15114007851E+03  0.90469567453E+03  0.12699999809E+01 0. -1.
       -4    1    3    3    0  502  0.63132907237E+03 -0.63012136105E+03 -0.13695495054E+04  0.16344102263E+04  0.12699999809E+01 0.  1.
</event>
<event>
 5   0  0.6256535E-05  0.2017971E+04  0.7818609E-02  0.8598264E-01
        1   -1    0    0  501    0  0.00000000000E+00  0.00000000000E+00  0.78035084944E+03  0.78035084946E+03  0.50400001928E-02 0.  1.
       -1   -1    0    0    0  501  0.00000000000E+00  0.00000000000E+00 -0.13046076109E+04  0.13046076109E+04  0.50400001928E-02 0. -1.
    10030    2    1    2    0    0  0.00000000000E+00  0.00000000000E+00 -0.52425676143E+03  0.20849584603E+04  0.20179709189E+04 0.  0.
        1    1    3    3  502    0 -0.52981946769E+03 -0.13788465839E+03  0.61355024763E+03  0.82229237730E+03  0.50400001928E-02 0.  1.
       -1    1    3    3    0  502  0.52981946769E+03  0.13788465839E+03 -0.11378070091E+04  0.12626660830E+04  0.50400001928E-02 0. -1.
</event>
<event>
 5   0  0.1281789E-04  0.2002838E+04  0.7818609E-02  0.8605295E-01
        2   -1    0    0  501    0  0.00000000000E+00  0.00000000000E+00  0.87623583622E+03  0.87623583623E+03  0.25500000920E-02 0. -1.
       -2   -1    0    0    0  501  0.00000000000E+00  0.00000000000E+00 -0.11444863389E+04  0.11444863389E+04  0.25500000920E-02 0.  1.
    10030    2    1    2    0    0  0.00000000000E+00  0.00000000000E+00 -0.26825050268E+03  0.20207221751E+04  0.20028379308E+04 0.  0.
        2    1    3    3  502    0  0.59894043024E+03  0.32821024757E+03  0.60479992418E+03  0.91226890438E+03  0.25500000920E-02 0. -1.
       -2    1    3    3    0  502 -0.59894043024E+03 -0.32821024757E+03 -0.87305042687E+03  0.11084532708E+04  0.25500000920E-02 0.  1.
</event>
<event>
 5   0  0.1244229E-04  0.1999166E+04  0.7818609E-02  0.8607011E-01
        2   -1    0    0  501    0  0.00000000000E+00  0.00000000000E+00  0.86222109910E+03  0.86222109910E+03  0.25500000920E-02 0. -1.
       -2   -1    0    0    0  501  0.00000000000E+00  0.00000000000E+00 -0.11588284970E+04  0.11588284970E+04  0.25500000920E-02 0.  1.
    10030    2    1    2    0    0  0.00000000000E+00  0.00000000000E+00 -0.29660739787E+03  0.20210495961E+04  0.19991662065E+04 0.  0.
        5    1    3    3  502    0  0.41628978403E+03  0.90839517334E+03 -0.17437974620E+03  0.10143516950E+04  0.46999998093E+01 0.  1.
       -5    1    3    3    0  502 -0.41628978403E+03 -0.90839517334E+03 -0.12222765167E+03  0.10066979011E+04  0.46999998093E+01 0. -1.
</event>
<event>
 5   0  0.6214547E-05  0.2050086E+04  0.7818609E-02  0.8583555E-01
       -1   -1    0    0    0  501  0.00000000000E+00  0.00000000000E+00  0.12470788568E+04  0.12470788568E+04  0.50400001928E-02 0. -1.
        1   -1    0    0  501    0  0.00000000000E+00  0.00000000000E+00 -0.84253938897E+03  0.84253938898E+03  0.50400001928E-02 0.  1.
    10030    2    1    2    0    0  0.00000000000E+00  0.00000000000E+00  0.40453946780E+03  0.20896182458E+04  0.20500859084E+04 0.  0.
        3    1    3    3  502    0 -0.89260459182E+03  0.36858192227E+03  0.55257925037E+03  0.11126272641E+04  0.10100000352E+00 0. -1.
       -3    1    3    3    0  502  0.89260459182E+03 -0.36858192227E+03 -0.14803978257E+03  0.97699098163E+03  0.10100000352E+00 0.  1.
</event>
<event>
 5   0  0.6168338E-05  0.2133659E+04  0.7818609E-02  0.8546560E-01
        1   -1    0    0  501    0  0.00000000000E+00  0.00000000000E+00  0.16289405160E+04  0.16289405160E+04  0.50400001928E-02 0. -1.
       -1   -1    0    0    0  501  0.00000000000E+00  0.00000000000E+00 -0.69869033103E+03  0.69869033104E+03  0.50400001928E-02 0.  1.
    10030    2    1    2    0    0  0.00000000000E+00  0.00000000000E+00  0.93025018499E+03  0.23276308471E+04  0.21336588184E+04 0.  0.
        5    1    3    3  502    0  0.71201120606E+03  0.25217945990E+03  0.12869713923E+04  0.14922707168E+04  0.46999998093E+01 0. -1.
       -5    1    3    3    0  502 -0.71201120606E+03 -0.25217945990E+03 -0.35672120731E+03  0.83536013030E+03  0.46999998093E+01 0.  1.
</event>
<event>
 5   0  0.1281789E-04  0.2034222E+04  0.7818609E-02  0.8590786E-01
       -2   -1    0    0    0  501  0.00000000000E+00  0.00000000000E+00  0.96779360912E+03  0.96779360912E+03  0.25500000920E-02 0.  1.
        2   -1    0    0  501    0  0.00000000000E+00  0.00000000000E+00 -0.10689417966E+04  0.10689417966E+04  0.25500000920E-02 0. -1.
    10030    2    1    2    0    0  0.00000000000E+00  0.00000000000E+00 -0.10114818747E+03  0.20367354057E+04  0.20342222487E+04 0.  0.
        2    1    3    3  502    0  0.28929266520E+03  0.77665543469E+03 -0.64090502925E+03  0.10476846696E+04  0.25500000920E-02 0. -1.
       -2    1    3    3    0  502 -0.28929266520E+03 -0.77665543469E+03  0.53975684178E+03  0.98905073612E+03  0.25500000920E-02 0.  1.
</event>
<event>
 5   0  0.6028501E-05  0.2016913E+04  0.7818609E-02  0.8598754E-01
       -1   -1    0    0    0  501  0.00000000000E+00  0.00000000000E+00  0.41701702754E+03  0.41701702757E+03  0.50400001928E-02 0.  1.
        1   -1    0    0  501    0  0.00000000000E+00  0.00000000000E+00 -0.24387111709E+04  0.24387111709E+04  0.50400001928E-02 0. -1.
    10030    2    1    2    0    0  0.00000000000E+00  0.00000000000E+00 -0.20216941434E+04  0.28557281985E+04  0.20169125748E+04 0.  0.
        4    1    3    3  502    0 -0.15094220991E+03  0.82242196376E+03 -0.21262981232E+03  0.86277139915E+03  0.12699999809E+01 0.  1.
       -4    1    3    3    0  502  0.15094220991E+03 -0.82242196376E+03 -0.18090643311E+04  0.19929567994E+04  0.12699999809E+01 0. -1.
</event>
<event>
 5   0  0.1159914E-04  0.2024458E+04  0.7818609E-02  0.8595270E-01
        2   -1    0    0  501    0  0.00000000000E+00  0.00000000000E+00  0.25198119217E+04  0.25198119217E+04  0.25500000920E-02 0. -1.
       -2   -1    0    0    0  501  0.00000000000E+00  0.00000000000E+00 -0.40662083633E+03  0.40662083634E+03  0.25500000920E-02 0.  1.
    10030    2    1    2    0    0  0.00000000000E+00  0.00000000000E+00  0.21131910854E+04  0.29264327581E+04  0.20244584767E+04 0.  0.
        3    1    3    3  502    0 -0.53886628038E+03  0.22909089658E+03  0.22501487277E+04  0.23250868401E+04  0.10100000352E+00 0. -1.
       -3    1    3    3    0  502  0.53886628038E+03 -0.22909089658E+03 -0.13695764233E+03  0.60134591794E+03  0.10100000352E+00 0.  1.
</event>
<event>
 5   0  0.1244229E-04  0.1998005E+04  0.7818609E-02  0.8607554E-01
        2   -1    0    0  501    0  0.00000000000E+00  0.00000000000E+00  0.17345835396E+04  0.17345835396E+04  0.25500000920E-02 0.  1.
       -2   -1    0    0    0  501  0.00000000000E+00  0.00000000000E+00 -0.57535792802E+03  0.57535792803E+03  0.25500000920E-02 0. -1.
    10030    2    1    2    0    0  0.00000000000E+00  0.00000000000E+00  0.11592256115E+04  0.23099414676E+04  0.19980053967E+04 0.  0.
        5    1    3    3  502    0  0.62431823263E+03  0.15112431215E+02 -0.32185436410E+03  0.70257665978E+03  0.46999998093E+01 0. -1.
       -5    1    3    3    0  502 -0.62431823263E+03 -0.15112431215E+02  0.14810799756E+04  0.16073648078E+04  0.46999998093E+01 0.  1.
</event>
<event>
 5   0  0.1274868E-04  0.1989380E+04  0.7818609E-02  0.8611602E-01
        2   -1    0    0  501    0  0.00000000000E+00  0.00000000000E+00  0.95897542777E+03  0.95897542777E+03  0.25500000920E-02 0.  1.
       -2   -1    0    0    0  501  0.00000000000E+00  0.00000000000E+00 -0.10317351511E+04  0.10317351511E+04  0.25500000920E-02 0. -1.
    10030    2    1    2    0    0  0.00000000000E+00  0.00000000000E+00 -0.72759723362E+02  0.19907105789E+04  0.19893804643E+04 0.  0.
        1    1    3    3  502    0 -0.15915612612E+03  0.46063412555E+03  0.83131822408E+03  0.96364125058E+03  0.50400001928E-02 0.  1.
       -1    1    3    3    0  502  0.15915612612E+03 -0.46063412555E+03 -0.90407794744E+03  0.10270693283E+04  0.50400001928E-02 0. -1.
</event>
<event>
 5   0  0.6028501E-05  0.1980524E+04  0.7818609E-02  0.8615781E-01
       -1   -1    0    0    0  501  0.00000000000E+00  0.00000000000E+00  0.94115942283E+03  0.94115942284E+03  0.50400001928E-02 0. -1.
        1   -1    0    0  501    0  0.00000000000E+00  0.00000000000E+00 -0.10419260387E+04  0.10419260387E+04  0.50400001928E-02 0.  1.
    10030    2    1    2    0    0  0.00000000000E+00  0.00000000000E+00 -0.10076661589E+03  0.19830854616E+04  0.19805236775E+04 0.  0.
        4    1    3    3  502    0  0.45643179314E+03 -0.32753251631E+03  0.76615257097E+03  0.95005205433E+03  0.12699999809E+01 0. -1.
       -4    1    3    3    0  502 -0.45643179314E+03  0.32753251631E+03 -0.86691918685E+03  0.10330334072E+04  0.12699999809E+01 0.  1.
</event>
<event>
 5   0  0.1274868E-04  0.1998079E+04  0.7818609E-02  0.8607519E-01
        2   -1    0    0  501    0  0.00000000000E+00  0.00000000000E+00  0.18642773424E+04  0.18642773424E+04  0.25500000920E-02 0.  1.
       -2   -1    0    0    0  501  0.00000000000E+00  0.00000000000E+00 -0.53537075161E+03  0.53537075161E+03  0.25500000920E-02 0. -1.
    10030    2    1    2    0    0  0.00000000000E+00  0.00000000000E+00  0.13289065907E+04  0.23996480940E+04  0.19980786391E+04 0.  0.
        1    1    3    3  502    0  0.19787585989E+03 -0.62078118338E+03  0.15739951269E+04  0.17035212922E+04  0.50400001928E-02 0.  1.
       -1    1    3    3    0  502 -0.19787585989E+03  0.62078118338E+03 -0.24508853612E+03  0.69612680176E+03  0.50400001928E-02 0. -1.
</event>
<event>
 5   0  0.6028501E-05  0.2017042E+04  0.7818609E-02  0.8598694E-01
       -1   -1    0    0    0  501  0.00000000000E+00  0.00000000000E+00  0.56313177738E+03  0.56313177740E+03  0.50400001928E-02 0. -1.
        1   -1    0    0  501    0  0.00000000000E+00  0.00000000000E+00 -0.18061751693E+04  0.18061751693E+04  0.50400001928E-02 0.  1.
    10030    2    1    2    0    0  0.00000000000E+00  0.00000000000E+00 -0.12430433919E+04  0.23693069467E+04  0.20170420257E+04 0.  0.
        4    1    3    3  502    0  0.97846900831E+03 -0.16894032741E+03 -0.41413596852E+03  0.10758497329E+04  0.12699999809E+01 0. -1.
       -4    1    3    3    0  502 -0.97846900831E+03  0.16894032741E+03 -0.82890742337E+03  0.12934572138E+04  0.12699999809E+01 0.  1.
</event>
<event>
 5   0  0.1242761E-04  0.2000017E+04  0.7818609E-02  0.8606613E-01
       -2   -1    0    0    0  501  0.00000000000E+00  0.00000000000E+00  0.65843379130E+03  0.65843379131E+03  0.25500000920E-02 0. -1.
        2   -1    0    0  501    0  0.00000000000E+00  0.00000000000E+00 -0.15187819850E+04  0.15187819850E+04  0.25500000920E-02 0.  1.
    10030    2    1    2    0    0  0.00000000000E+00  0.00000000000E+00 -0.86034819368E+03  0.21772157763E+04  0.20000173805E+04 0.  0.
        4    1    3    3  502    0  0.64423571386E+03  0.56609731320E+03 -0.99004604111E+03  0.13098467847E+04  0.12699999809E+01 0.  1.
       -4    1    3    3    0  502 -0.64423571386E+03 -0.56609731320E+03  0.12969784743E+03  0.86736899158E+03  0.12699999809E+01 0. -1.
</event>
<event>
 5   0  0.6256535E-05  0.1981684E+04  0.7818609E-02  0.8615232E-01
        1   -1    0    0  501    0  0.00000000000E+00  0.00000000000E+00  0.28985555728E+04  0.28985555728E+04  0.50400001928E-02 0.  1.
       -1   -1    0    0    0  501  0.00000000000E+00  0.00000000000E+00 -0.33870927033E+03  0.33870927037E+03  0.50400001928E-02 0. -1.
    10030    2    1    2    0    0  0.00000000000E+00  0.00000000000E+00  0.25598463025E+04  0.32372648432E+04  0.19816837721E+04 0.  0.
        1    1    3    3  502    0  0.19710766019E+02 -0.96125501887E+03  0.88865146639E+03  0.13092368595E+04  0.50400001928E-02 0. -1.
       -1    1    3    3    0  502 -0.19710766019E+02  0.96125501887E+03  0.16711948361E+04  0.19280279837E+04  0.50400001928E-02 0.  1.
</event>
<event>
 5   0  0.1244229E-04  0.1994867E+04  0.7818609E-02  0.8609024E-01
       -2   -1    0    0    0  501  0.00000000000E+00  0.00000000000E+00  0.54320701381E+03  0.54320701382E+03  0.25500000920E-02 0.  1.
        2   -1    0    0  501    0  0.00000000000E+00  0.00000000000E+00 -0.18314812579E+04  0.18314812579E+04  0.25500000920E-02 0. -1.
    10030    2    1    2    0    0  0.00000000000E+00  0.00000000000E+00 -0.12882742441E+04  0.23746882717E+04  0.19948668777E+04 0.  0.
        5    1    3    3  502    0 -0.17022242203E+03  0.81217336234E+03 -0.13029025962E+04  0.15447260303E+04  0.46999998093E+01 0. -1.
       -5    1    3    3    0  502  0.17022242203E+03 -0.81217336234E+03  0.14628352156E+02  0.82996224140E+03  0.46999998093E+01 0.  1.
</event>
<event>
 5   0  0.1244229E-04  0.2007211E+04  0.7818609E-02  0.8603256E-01
       -2   -1    0    0    0  501  0.00000000000E+00  0.00000000000E+00  0.59926770889E+03  0.59926770889E+03  0.25500000920E-02 0.  1.
        2   -1    0    0  501    0  0.00000000000E+00  0.00000000000E+00 -0.16807587792E+04  0.16807587792E+04  0.25500000920E-02 0. -1.
    10030    2    1    2    0    0  0.00000000000E+00  0.00000000000E+00 -0.10814910703E+04  0.22800264881E+04  0.20072114615E+04 0.  0.
        5    1    3    3  502    0  0.79709573352E+03  0.36250439912E+01 -0.12334015178E+04  0.14685626113E+04  0.46999998093E+01 0. -1.
       -5    1    3    3    0  502 -0.79709573352E+03 -0.36250439912E+01  0.15191044741E+03  0.81146387681E+03  0.46999998093E+01 0.  1.
</event>
<event>
 5   0  0.1281789E-04  0.1994967E+04  0.7818609E-02  0.8608977E-01
        2   -1    0    0  501    0  0.00000000000E+00  0.00000000000E+00  0.15331363111E+04  0.15331363111E+04  0.25500000920E-02 0.  1.
       -2   -1    0    0    0  501  0.00000000000E+00  0.00000000000E+00 -0.64897936143E+03  0.64897936143E+03  0.25500000920E-02 0. -1.
    10030    2    1    2    0    0  0.00000000000E+00  0.00000000000E+00  0.88415694962E+03  0.21821156725E+04  0.19949674926E+04 0.  0.
        2    1    3    3  502    0  0.12262260345E+03  0.53597107614E+03 -0.46826634759E+03  0.72220126671E+03  0.25500000920E-02 0. -1.
       -2    1    3    3    0  502 -0.12262260345E+03 -0.53597107614E+03  0.13524232972E+04  0.14599144058E+04  0.25500000920E-02 0.  1.
</event>
<event>
 5   0  0.1281789E-04  0.2119926E+04  0.7818609E-02  0.8552516E-01
       -2   -1    0    0    0  501  0.00000000000E+00  0.00000000000E+00  0.13744367787E+04  0.13744367787E+04  0.25500000920E-02 0.  1.
        2   -1    0    0  501    0  0.00000000000E+00  0.00000000000E+00 -0.81744105847E+03  0.81744105848E+03  0.25500000920E-02 0. -1.
    10030    2    1    2    0    0  0.00000000000E+00  0.00000000000E+00  0.55699572018E+03  0.21918778371E+04  0.21199255224E+04 0.  0.
        2    1    3    3  502    0 -0.88896700002E+03  0.55590073617E+03  0.43945128597E+03  0.11368400892E+04  0.25500000920E-02 0.  1.
       -2    1    3    3    0  502  0.88896700002E+03 -0.55590073617E+03  0.11754443421E+03  0.10550377480E+04  0.25500000920E-02 0. -1.
</event>
<event>
 5   0  0.1274868E-04  0.2045739E+04  0.7818609E-02  0.8585530E-01
       -2   -1    0    0    0  501  0.00000000000E+00  0.00000000000E+00  0.73079500252E+03  0.73079500253E+03  0.25500000920E-02 0. -1.
        2   -1    0    0  501    0  0.00000000000E+00  0.00000000000E+00 -0.14316768742E+04  0.14316768742E+04  0.25500000920E-02 0.  1.
    10030    2    1    2    0    0  0.00000000000E+00  0.00000000000E+00 -0.70088187172E+03  0.21624718768E+04  0.20457392844E+04 0.  0.
        1    1    3    3  502    0 -0.83327940791E+03  0.55594861005E+03 -0.13168062955E+03  0.10103332207E+04  0.50400001928E-02 0. -1.
       -1    1    3    3    0  502  0.83327940791E+03 -0.55594861005E+03 -0.56920124217E+03  0.11521386561E+04  0.50400001928E-02 0.  1.
</event>
<event>
 5   0  0.6168338E-05  0.1988217E+04  0.7818609E-02  0.8612149E-01
        1   -1    0    0  501    0  0.00000000000E+00  0.00000000000E+00  0.25848193812E+04  0.25848193812E+04  0.50400001928E-02 0.  1.
       -1   -1    0    0    0  501  0.00000000000E+00  0.00000000000E+00 -0.38232912494E+03  0.38232912498E+03  0.50400001928E-02 0. -1.
    10030    2    1    2    0    0  0.00000000000E+00  0.00000000000E+00  0.22024902563E+04  0.29671485062E+04  0.19882170226E+04 0.  0.
        5    1    3    3  502    0  0.58384494768E+03  0.32612791475E+03  0.21989162599E+04  0.22983666261E+04  0.46999998093E+01 0.  1.
       -5    1    3    3    0  502 -0.58384494768E+03 -0.32612791475E+03  0.35739963289E+01  0.66878188010E+03  0.46999998093E+01 0. -1.
</event>
<event>
 5   0  0.6214547E-05  0.2046270E+04  0.7818609E-02  0.8585288E-01
        1   -1    0    0  501    0  0.00000000000E+00  0.00000000000E+00  0.62780926094E+03  0.62780926096E+03  0.50400001928E-02 0. -1.
       -1   -1    0    0    0  501  0.00000000000E+00  0.00000000000E+00 -0.16673935780E+04  0.16673935780E+04  0.50400001928E-02 0.  1.
    10030    2    1    2    0    0  0.00000000000E+00  0.00000000000E+00 -0.10395843171E+04  0.22952028390E+04  0.20462699039E+04 0.  0.
        3    1    3    3  502    0  0.27759696783E+03  0.98440510667E+03 -0.49029400694E+03  0.11342405891E+04  0.10100000352E+00 0. -1.
       -3    1    3    3    0  502 -0.27759696783E+03 -0.98440510667E+03 -0.54929031015E+03  0.11609622499E+04  0.10100000352E+00 0.  1.
</event>
<event>
 5   0  0.1159914E-04  0.2003263E+04  0.7818609E-02  0.8605096E-01
       -2   -1    0    0    0  501  0.00000000000E+00  0.00000000000E+00  0.84312411274E+03  0.84312411274E+03  0.25500000920E-02 0.  1.
        2   -1    0    0  501    0  0.00000000000E+00  0.00000000000E+00 -0.11899386237E+04  0.11899386237E+04  0.25500000920E-02 0. -1.
    10030    2    1    2    0    0  0.00000000000E+00  0.00000000000E+00 -0.34681451095E+03  0.20330627364E+04  0.20032632841E+04 0.  0.
        3    1    3    3  502    0 -0.82389830961E+03 -0.36067589660E+02 -0.75033216594E+03  0.11149473822E+04  0.10100000352E+00 0. -1.
       -3    1    3    3    0  502  0.82389830961E+03  0.36067589660E+02  0.40351765498E+03  0.91811535424E+03  0.10100000352E+00 0.  1.
</event>
<event>
 5   0  0.6256535E-05  0.2005210E+04  0.7818609E-02  0.8604189E-01
        1   -1    0    0  501    0  0.00000000000E+00  0.00000000000E+00  0.10722700543E+04  0.10722700543E+04  0.50400001928E-02 0.  1.
       -1   -1    0    0    0  501  0.00000000000E+00  0.00000000000E+00 -0.93746568678E+03  0.93746568679E+03  0.50400001928E-02 0. -1.
    10030    2    1    2    0    0  0.00000000000E+00  0.00000000000E+00  0.13480436749E+03  0.20097357411E+04  0.20052095979E+04 0.  0.
        1    1    3    3  502    0  0.68581325105E+03  0.36575311405E+03  0.70215725120E+03  0.10474444908E+04  0.50400001928E-02 0.  1.
       -1    1    3    3    0  502 -0.68581325105E+03 -0.36575311405E+03 -0.56735288372E+03  0.96229125032E+03  0.50400001928E-02 0. -1.
</event>
<event>
 5   0  0.1281789E-04  0.2074563E+04  0.7818609E-02  0.8572532E-01
       -2   -1    0    0    0  501  0.00000000000E+00  0.00000000000E+00  0.55687356903E+03  0.55687356903E+03  0.25500000920E-02 0. -1.
        2   -1    0    0  501    0  0.00000000000E+00  0.00000000000E+00 -0.19321321161E+04  0.19321321161E+04  0.25500000920E-02 0.  1.
    10030    2    1    2    0    0  0.00000000000E+00  0.00000000000E+00 -0.13752585471E+04  0.24890056851E+04  0.20745633828E+04 0.  0.
        2    1    3    3  502    0  0.44523688544E+02 -0.73184425130E+03  0.19269281449E+03  0.75809556638E+03  0.25500000920E-02 0. -1.
       -2    1    3    3    0  502 -0.44523688544E+02  0.73184425130E+03 -0.15679513615E+04  0.17309101187E+04  0.25500000920E-02 0.  1.
</event>
<event>
 5   0  0.6028501E-05  0.2001792E+04  0.7818609E-02  0.8605783E-01
        1   -1    0    0  501    0  0.00000000000E+00  0.00000000000E+00  0.10005385671E+04  0.10005385671E+04  0.50400001928E-02 0.  1.
       -1   -1    0    0    0  501  0.00000000000E+00  0.00000000000E+00 -0.10012536629E+04  0.10012536629E+04  0.50400001928E-02 0. -1.
    10030    2    1    2    0    0  0.00000000000E+00  0.00000000000E+00 -0.71509586681E+00  0.20017922300E+04  0.20017921023E+04 0.  0.
        4    1    3    3  502    0 -0.97481405596E+03  0.17606032179E+02 -0.22667343944E+03  0.10009769613E+04  0.12699999809E+01 0. -1.
       -4    1    3    3    0  502  0.97481405596E+03 -0.17606032179E+02  0.22595834357E+03  0.10008152687E+04  0.12699999809E+01 0.  1.
</event>
<event>
 5   0  0.6256535E-05  0.2013808E+04  0.7818609E-02  0.8600192E-01
       -1   -1    0    0    0  501  0.00000000000E+00  0.00000000000E+00  0.81265592456E+03  0.81265592458E+03  0.50400001928E-02 0. -1.
        1   -1    0    0  501    0  0.00000000000E+00  0.00000000000E+00 -0.12475831060E+04  0.12475831060E+04  0.50400001928E-02 0.  1.
    10030    2    1    2    0    0  0.00000000000E+00  0.00000000000E+00 -0.43492718140E+03  0.20602390306E+04  0.20138081363E+04 0.  0.
        1    1    3    3  502    0 -0.34825466259E+03 -0.91570623337E+03 -0.45532491288E+03  0.10803332783E+04  0.50400001928E-02 0.  1.
       -1    1    3    3    0  502  0.34825466259E+03  0.91570623337E+03  0.20397731483E+02  0.97990575227E+03  0.50400001928E-02 0. -1.
</event>
<event>
 5   0  0.6222733E-05  0.1944683E+04  0.7818609E-02  0.8632929E-01
        1   -1    0    0  501    0  0.00000000000E+00  0.00000000000E+00  0.63518897729E+03  0.63518897731E+03  0.50400001928E-02 0.  1.
       -1   -1    0    0    0  501  0.00000000000E+00  0.00000000000E+00 -0.14884515574E+04  0.14884515574E+04  0.50400001928E-02 0. -1.
    10030    2    1    2    0    0  0.00000000000E+00  0.00000000000E+00 -0.85326258013E+03  0.21236405347E+04  0.19446830308E+04 0.  0.
        2    1    3    3  502    0  0.52426881107E+03  0.81359649359E+03 -0.52820115685E+03  0.11026302657E+04  0.25500000920E-02 0. -1.
       -2    1    3    3    0  502 -0.52426881107E+03 -0.81359649359E+03 -0.32506142329E+03  0.10210102691E+04  0.25500000920E-02 0.  1.
</event>
<event>
 5   0  0.6168338E-05  0.2011221E+04  0.7818609E-02  0.8601392E-01
        1   -1    0    0  501    0  0.00000000000E+00  0.00000000000E+00  0.12960669914E+04  0.12960669914E+04  0.50400001928E-02 0.  1.
       -1   -1    0    0    0  501  0.00000000000E+00  0.00000000000E+00 -0.78024731040E+03  0.78024731041E+03  0.50400001928E-02 0. -1.
    10030    2    1    2    0    0  0.00000000000E+00  0.00000000000E+00  0.51581968102E+03  0.20763143018E+04  0.20112213048E+04 0.  0.
        5    1    3    3  502    0  0.77031336448E+03 -0.64592493321E+03  0.23201835612E+03  0.10317249180E+04  0.46999998093E+01 0. -1.
       -5    1    3    3    0  502 -0.77031336448E+03  0.64592493321E+03  0.28380132490E+03  0.10445893838E+04  0.46999998093E+01 0.  1.
</event>
<event>
 5   0  0.1242761E-04  0.1770977E+04  0.7818609E-02  0.8721888E-01
       -2   -1    0    0    0  501  0.00000000000E+00  0.00000000000E+00  0.41164440192E+03  0.41164440193E+03  0.25500000920E-02 0. -1.
        2   -1    0    0  501    0  0.00000000000E+00  0.00000000000E+00 -0.19047747662E+04  0.19047747663E+04  0.25500000920E-02 0.  1.
    10030    2    1    2    0    0  0.00000000000E+00  0.00000000000E+00 -0.14931303643E+04  0.23164191682E+04  0.17709769840E+04 0.  0.
        4    1    3    3  502    0 -0.81150114782E+02  0.43781161620E+03 -0.17476889621E+04  0.18035195240E+04  0.12699999809E+01 0.  1.
       -4    1    3    3    0  502  0.81150114782E+02 -0.43781161620E+03  0.25455859775E+03  0.51289964418E+03  0.12699999809E+01 0. -1.
</event>
<event>
 5   0  0.1242761E-04  0.1996902E+04  0.7818609E-02  0.8608071E-01
        2   -1    0    0  501    0  0.00000000000E+00  0.00000000000E+00  0.72058515251E+03  0.72058515251E+03  0.25500000920E-02 0. -1.
       -2   -1    0    0    0  501  0.00000000000E+00  0.00000000000E+00 -0.13834648792E+04  0.13834648792E+04  0.25500000920E-02 0.  1.
    10030    2    1    2    0    0  0.00000000000E+00  0.00000000000E+00 -0.66287972665E+03  0.21040500317E+04  0.19969018513E+04 0.  0.
        4    1    3    3  502    0  0.18391680555E+02 -0.21082343202E+02  0.72017122146E+03  0.72071556125E+03  0.12699999809E+01 0. -1.
       -4    1    3    3    0  502 -0.18391680555E+02  0.21082343202E+02 -0.13830509481E+04  0.13833344704E+04  0.12699999809E+01 0.  1.
</event>
<event>
 5   0  0.6222733E-05  0.1811929E+04  0.7818609E-02  0.8699981E-01
        1   -1    0    0  501    0  0.00000000000E+00  0.00000000000E+00  0.21004374590E+04  0.21004374590E+04  0.50400001928E-02 0.  1.
       -1   -1    0    0    0  501  0.00000000000E+00  0.00000000000E+00 -0.39076236509E+03  0.39076236512E+03  0.50400001928E-02 0. -1.
    10030    2    1    2    0    0  0.00000000000E+00  0.00000000000E+00  0.17096750939E+04  0.24911998241E+04  0.18119292583E+04 0.  0.
        2    1    3    3  502    0  0.15880508649E+02  0.25934346807E+03 -0.33843590063E+03  0.42667327526E+03  0.25500000920E-02 0. -1.
       -2    1    3    3    0  502 -0.15880508649E+02 -0.25934346807E+03  0.20481109946E+04  0.20645265489E+04  0.25500000920E-02 0.  1.
</event>
<event>
 5   0  0.1242761E-04  0.2019890E+04  0.7818609E-02  0.8597377E-01
        2   -1    0    0  501    0  0.00000000000E+00  0.00000000000E+00  0.11746226366E+04  0.11746226366E+04  0.25500000920E-02 0. -1.
       -2   -1    0    0    0  501  0.00000000000E+00  0.00000000000E+00 -0.86835486096E+03  0.86835486097E+03  0.25500000920E-02 0.  1.
    10030    2    1    2    0    0  0.00000000000E+00  0.00000000000E+00  0.30626777565E+03  0.20429774976E+04  0.20198903696E+04 0.  0.
        4    1    3    3  502    0 -0.75570021375E+01  0.10088360684E+04  0.20036173117E+03  0.10285687908E+04  0.12699999809E+01 0. -1.
       -4    1    3    3    0  502  0.75570021375E+01 -0.10088360684E+04  0.10590604448E+03  0.10144087068E+04  0.12699999809E+01 0.  1.
</event>
<event>
 5   0  0.1274868E-04  0.1921876E+04  0.7818609E-02  0.8644043E-01
       -2   -1    0    0    0  501  0.00000000000E+00  0.00000000000E+00  0.11202839567E+04  0.11202839567E+04  0.25500000920E-02 0. -1.
        2   -1    0    0  501    0  0.00000000000E+00  0.00000000000E+00 -0.82425680819E+03  0.82425680820E+03  0.25500000920E-02 0.  1.
    10030    2    1    2    0    0  0.00000000000E+00  0.00000000000E+00  0.29602714849E+03  0.19445407649E+04  0.19218758320E+04 0.  0.
        1    1    3    3  502    0 -0.66845409893E+03  0.44010331513E+03 -0.39012329392E+03  0.89034712043E+03  0.50400001928E-02 0.  1.
       -1    1    3    3    0  502  0.66845409893E+03 -0.44010331513E+03  0.68615044241E+03  0.10541936445E+04  0.50400001928E-02 0. -1.
</event>
<event>
 5   0  0.1242761E-04  0.2002072E+04  0.7818609E-02  0.8605653E-01
       -2   -1    0    0    0  501  0.00000000000E+00  0.00000000000E+00  0.58124415650E+03  0.58124415651E+03  0.25500000920E-02 0. -1.
        2   -1    0    0  501    0  0.00000000000E+00  0.00000000000E+00 -0.17240138809E+04  0.17240138809E+04  0.25500000920E-02 0.  1.
    10030    2    1    2    0    0  0.00000000000E+00  0.00000000000E+00 -0.11427697244E+04  0.23052580374E+04  0.20020719208E+04 0.  0.
        4    1    3    3  502    0  0.92713019143E+03  0.37602315950E+03 -0.53306481746E+03  0.11336328863E+04  0.12699999809E+01 0.  1.
       -4    1    3    3    0  502 -0.92713019143E+03 -0.37602315950E+03 -0.60970490696E+03  0.11716251512E+04  0.12699999809E+01 0. -1.
</event>
<event>
 5   0  0.6168338E-05  0.1995279E+04  0.7818609E-02  0.8608831E-01
        1   -1    0    0  501    0  0.00000000000E+00  0.00000000000E+00  0.17042483242E+04  0.17042483242E+04  0.50400001928E-02 0.  1.
       -1   -1    0    0    0  501  0.00000000000E+00  0.00000000000E+00 -0.58400204968E+03  0.58400204971E+03  0.50400001928E-02 0. -1.
    10030    2    1    2    0    0  0.00000000000E+00  0.00000000000E+00  0.11202462745E+04  0.22882503739E+04  0.19952789424E+04 0.  0.
        5    1    3    3  502    0  0.16939218457E+03 -0.85972640198E+03  0.13192052333E+02  0.87636711411E+03  0.46999998093E+01 0. -1.
       -5    1    3    3    0  502 -0.16939218457E+03  0.85972640198E+03  0.11070542222E+04  0.14118832598E+04  0.46999998093E+01 0.  1.
</event>
<event>
 5   0  0.1244229E-04  0.2019803E+04  0.7818609E-02  0.8597418E-01
       -2   -1    0    0    0  501  0.00000000000E+00  0.00000000000E+00  0.68158440810E+03  0.68158440811E+03  0.25500000920E-02 0.  1.
        2   -1    0    0  501    0  0.00000000000E+00  0.00000000000E+00 -0.14963678067E+04  0.14963678067E+04  0.25500000920E-02 0. -1.
    10030    2    1    2    0    0  0.00000000000E+00  0.00000000000E+00 -0.81478339857E+03  0.21779522148E+04  0.20198029268E+04 0.  0.
        5    1    3    3  502    0 -0.36818971114E+03  0.73859418032E+03 -0.10350266333E+04  0.13237776430E+04  0.46999998093E+01 0. -1.
       -5    1    3    3    0  502  0.36818971114E+03 -0.73859418032E+03  0.22024323471E+03  0.85417457175E+03  0.46999998093E+01 0.  1.
</event>
<event>
 5   0  0.6168338E-05  0.2002720E+04  0.7818609E-02  0.8605350E-01
       -1   -1    0    0    0  501  0.00000000000E+00  0.00000000000E+00  0.12728048362E+04  0.12728048362E+04  0.50400001928E-02 0. -1.
        1   -1    0    0  501    0  0.00000000000E+00  0.00000000000E+00 -0.78780488535E+03  0.78780488537E+03  0.50400001928E-02 0.  1.
    10030    2    1    2    0    0  0.00000000000E+00  0.00000000000E+00  0.48499995084E+03  0.20606097216E+04  0.20027200185E+04 0.  0.
        5    1    3    3  502    0 -0.19748369516E+02  0.67145577107E+03 -0.52156677998E+03  0.85046860411E+03  0.46999998093E+01 0.  1.
       -5    1    3    3    0  502  0.19748369516E+02 -0.67145577107E+03  0.10065667308E+04  0.12101411175E+04  0.46999998093E+01 0. -1.
</event>
<event>
 5   0  0.6214547E-05  0.1986772E+04  0.7818609E-02  0.8612830E-01
        1   -1    0    0  501    0  0.00000000000E+00  0.00000000000E+00  0.11367300526E+04  0.11367300526E+04  0.50400001928E-02 0.  1.
       -1   -1    0    0    0  501  0.00000000000E+00  0.00000000000E+00 -0.86811796635E+03  0.86811796636E+03  0.50400001928E-02 0. -1.
    10030    2    1    2    0    0  0.00000000000E+00  0.00000000000E+00  0.26861208626E+03  0.20048480190E+04  0.19867720368E+04 0.  0.
        3    1    3    3  502    0  0.95070832695E+03  0.22620281184E+03 -0.45646850085E+02  0.97831369209E+03  0.10100000352E+00 0. -1.
       -3    1    3    3    0  502 -0.95070832695E+03 -0.22620281184E+03  0.31425893634E+03  0.10265343269E+04  0.10100000352E+00 0.  1.
</event>
<event>
 5   0  0.1159914E-04  0.1999564E+04  0.7818609E-02  0.8606824E-01
        2   -1    0    0  501    0  0.00000000000E+00  0.00000000000E+00  0.16483527523E+04  0.16483527523E+04  0.25500000920E-02 0. -1.
       -2   -1    0    0    0  501  0.00000000000E+00  0.00000000000E+00 -0.60640204314E+03  0.60640204315E+03  0.25500000920E-02 0.  1.
    10030    2    1    2    0    0  0.00000000000E+00  0.00000000000E+00  0.10419507091E+04  0.22547547954E+04  0.19995644294E+04 0.  0.
        3    1    3    3  502    0 -0.26164155861E+03 -0.71809042668E+03  0.12477931404E+04  0.14632490893E+04  0.10100000352E+00 0.  1.
       -3    1    3    3    0  502  0.26164155861E+03  0.71809042668E+03 -0.20584243124E+03  0.79150570609E+03  0.10100000352E+00 0. -1.
</event>
<event>
 5   0  0.6256535E-05  0.2074400E+04  0.7818609E-02  0.8572605E-01
        1   -1    0    0  501    0  0.00000000000E+00  0.00000000000E+00  0.13071773786E+04  0.13071773786E+04  0.50400001928E-02 0.  1.
       -1   -1    0    0    0  501  0.00000000000E+00  0.00000000000E+00 -0.82298249642E+03  0.82298249643E+03  0.50400001928E-02 0. -1.
    10030    2    1    2    0    0  0.00000000000E+00  0.00000000000E+00  0.48419488214E+03  0.21301598750E+04  0.20744002529E+04 0.  0.
        1    1    3    3  502    0 -0.91784546974E+03 -0.12966167764E+03  0.71993505270E+03  0.11736945672E+04  0.50400001928E-02 0. -1.
       -1    1    3    3    0  502  0.91784546974E+03  0.12966167764E+03 -0.23574017056E+03  0.95646530779E+03  0.50400001928E-02 0.  1.
</event>
<event>
 5   0  0.6028501E-05  0.2047376E+04  0.7818609E-02  0.8584786E-01
       -1   -1    0    0    0  501  0.00000000000E+00  0.00000000000E+00  0.51830235595E+03  0.51830235597E+03  0.50400001928E-02 0.  1.
        1   -1    0    0  501    0  0.00000000000E+00  0.00000000000E+00 -0.20218635143E+04  0.20218635143E+04  0.50400001928E-02 0. -1.
    10030    2    1    2    0    0  0.00000000000E+00  0.00000000000E+00 -0.15035611584E+04  0.25401658703E+04  0.20473755131E+04 0.  0.
        4    1    3    3  502    0  0.58074833607E+03  0.81024652188E+03 -0.10405370856E+04  0.14410021150E+04  0.12699999809E+01 0. -1.
       -4    1    3    3    0  502 -0.58074833607E+03 -0.81024652188E+03 -0.46302407275E+03  0.10991637553E+04  0.12699999809E+01 0.  1.
</event>
<event>
 5   0  0.6168338E-05  0.2059413E+04  0.7818609E-02  0.8579336E-01
        1   -1    0    0  501    0  0.00000000000E+00  0.00000000000E+00  0.80260855806E+03  0.80260855807E+03  0.50400001928E-02 0.  1.
       -1   -1    0    0    0  501  0.00000000000E+00  0.00000000000E+00 -0.13210617744E+04  0.13210617744E+04  0.50400001928E-02 0. -1.
    10030    2    1    2    0    0  0.00000000000E+00  0.00000000000E+00 -0.51845321634E+03  0.21236703325E+04  0.20594130095E+04 0.  0.
        5    1    3    3  502    0  0.36714836985E+03  0.36464094353E+03  0.65878187748E+03  0.83772107248E+03  0.46999998093E+01 0.  1.
       -5    1    3    3    0  502 -0.36714836985E+03 -0.36464094353E+03 -0.11772350938E+04  0.12859492600E+04  0.46999998093E+01 0. -1.
</event>
<event>
 5   0  0.6028501E-05  0.2010680E+04  0.7818609E-02  0.8601644E-01
        1   -1    0    0  501    0  0.00000000000E+00  0.00000000000E+00  0.12831763173E+04  0.12831763173E+04  0.50400001928E-02 0. -1.
       -1   -1    0    0    0  501  0.00000000000E+00  0.00000000000E+00 -0.78766164477E+03  0.78766164479E+03  0.50400001928E-02 0.  1.
    10030    2    1    2    0    0  0.00000000000E+00  0.00000000000E+00  0.49551467249E+03  0.20708379621E+04  0.20106802517E+04 0.  0.
        4    1    3    3  502    0  0.21443848383E+02 -0.81802108372E+03 -0.35374435109E+03  0.89149033134E+03  0.12699999809E+01 0.  1.
       -4    1    3    3    0  502 -0.21443848383E+02  0.81802108372E+03  0.84925902359E+03  0.11793476307E+04  0.12699999809E+01 0. -1.
</event>
<event>
 5   0  0.6256535E-05  0.2005588E+04  0.7818609E-02  0.8604013E-01
        1   -1    0    0  501    0  0.00000000000E+00  0.00000000000E+00  0.11475066905E+04  0.11475066905E+04  0.50400001928E-02 0.  1.
       -1   -1    0    0    0  501  0.00000000000E+00  0.00000000000E+00 -0.87633080683E+03  0.87633080684E+03  0.50400001928E-02 0. -1.
    10030    2    1    2    0    0  0.00000000000E+00  0.00000000000E+00  0.27117588370E+03  0.20238374974E+04  0.20055876585E+04 0.  0.
        1    1    3    3  502    0  0.90645684150E+03  0.89671863703E+02 -0.28762123549E+03  0.95521255424E+03  0.50400001928E-02 0. -1.
       -1    1    3    3    0  502 -0.90645684150E+03 -0.89671863703E+02  0.55879711919E+03  0.10686249431E+04  0.50400001928E-02 0.  1.
</event>
<event>
 5   0  0.1242761E-04  0.2007024E+04  0.7818609E-02  0.8603344E-01
        2   -1    0    0  501    0  0.00000000000E+00  0.00000000000E+00  0.21689117967E+04  0.21689117967E+04  0.25500000920E-02 0. -1.
       -2   -1    0    0    0  501  0.00000000000E+00  0.00000000000E+00 -0.46430483928E+03  0.46430483928E+03  0.25500000920E-02 0.  1.
    10030    2    1    2    0    0  0.00000000000E+00  0.00000000000E+00  0.17046069574E+04  0.26332166359E+04  0.20070239093E+04 0.  0.
        4    1    3    3  502    0  0.50089095149E+03 -0.14039254567E+03  0.19782055315E+04  0.20454585183E+04  0.12699999809E+01 0. -1.
       -4    1    3    3    0  502 -0.50089095149E+03  0.14039254567E+03 -0.27359857416E+03  0.58775811764E+03  0.12699999809E+01 0.  1.
</event>
<event>
 5   0  0.6028501E-05  0.2026183E+04  0.7818609E-02  0.8594476E-01
       -1   -1    0    0    0  501  0.00000000000E+00  0.00000000000E+00  0.72857235555E+03  0.72857235557E+03  0.50400001928E-02 0. -1.
        1   -1    0    0  501    0  0.00000000000E+00  0.00000000000E+00 -0.14087196592E+04  0.14087196592E+04  0.50400001928E-02 0.  1.
    10030    2    1    2    0    0  0.00000000000E+00  0.00000000000E+00 -0.68014730362E+03  0.21372920148E+04  0.20261828155E+04 0.  0.
        4    1    3    3  502    0  0.59218505466E+03 -0.66461399393E+03  0.17014213907E+03  0.90628078445E+03  0.12699999809E+01 0.  1.
       -4    1    3    3    0  502 -0.59218505466E+03  0.66461399393E+03 -0.85028944269E+03  0.12310112303E+04  0.12699999809E+01 0. -1.
</event>
<event>
 5   0  0.6256535E-05  0.2023601E+04  0.7818609E-02  0.8595665E-01
        1   -1    0    0  501    0  0.00000000000E+00  0.00000000000E+00  0.16845300165E+04  0.16845300165E+04  0.50400001928E-02 0.  1.
       -1   -1    0    0    0  501  0.00000000000E+00  0.00000000000E+00 -0.60773075038E+03  0.60773075040E+03  0.50400001928E-02 0. -1.
    10030    2    1    2    0    0  0.00000000000E+00  0.00000000000E+00  0.10767992661E+04  0.22922607669E+04  0.20236014340E+04 0.  0.
        1    1    3    3  502    0  0.43673635626E+03  0.76325056143E+03  0.11052913404E+04  0.14124301793E+04  0.50400001928E-02 0.  1.
       -1    1    3    3    0  502 -0.43673635626E+03 -0.76325056143E+03 -0.28492074310E+02  0.87983058751E+03  0.50400001928E-02 0. -1.
</event>
<event>
 5   0  0.6214547E-05  0.2014087E+04  0.7818609E-02  0.8600063E-01
       -1   -1    0    0    0  501  0.00000000000E+00  0.00000000000E+00  0.12107290949E+04  0.12107290949E+04  0.50400001928E-02 0.  1.
        1   -1    0    0  501    0  0.00000000000E+00  0.00000000000E+00 -0.83762458689E+03  0.83762458691E+03  0.50400001928E-02 0. -1.
    10030    2    1    2    0    0  0.00000000000E+00  0.00000000000E+00  0.37310450804E+03  0.20483536819E+04  0.20140868482E+04 0.  0.
        3    1    3    3  502    0 -0.79655425252E+03 -0.68151204942E+02  0.80933767889E+03  0.11376162589E+04  0.10100000352E+00 0. -1.
       -3    1    3    3    0  502  0.79655425252E+03  0.68151204942E+02 -0.43623317085E+03  0.91073742291E+03  0.10100000352E+00 0.  1.
</event>
<event>
 5   0  0.6214547E-05  0.2025543E+04  0.7818609E-02  0.8594771E-01
       -1   -1    0    0    0  501  0.00000000000E+00  0.00000000000E+00  0.11978013623E+04  0.11978013623E+04  0.50400001928E-02 0. -1.
        1   -1    0    0  501    0  0.00000000000E+00  0.00000000000E+00 -0.85632405383E+03  0.85632405385E+03  0.50400001928E-02 0.  1.
    10030    2    1    2    0    0  0.00000000000E+00  0.00000000000E+00  0.34147730849E+03  0.20541254162E+04  0.20255430070E+04 0.  0.
        3    1    3    3  502    0 -0.83174230777E+03  0.10585881337E+03  0.74682577848E+03  0.11228312912E+04  0.10100000352E+00 0. -1.
       -3    1    3    3    0  502  0.83174230777E+03 -0.10585881337E+03 -0.40534846999E+03  0.93129412498E+03  0.10100000352E+00 0.  1.
</event>
<event>
 5   0  0.1242761E-04  0.1897292E+04  0.7818609E-02  0.8656206E-01
       -2   -1    0    0    0  501  0.00000000000E+00  0.00000000000E+00  0.11882305804E+04  0.11882305804E+04  0.25500000920E-02 0.  1.
        2   -1    0    0  501    0  0.00000000000E+00  0.00000000000E+00 -0.75736907327E+03  0.75736907328E+03  0.25500000920E-02 0. -1.
    10030    2    1    2    0    0  0.00000000000E+00  0.00000000000E+00  0.43086150712E+03  0.19455996537E+04  0.18972918526E+04 0.  0.
        4    1    3    3  502    0  0.88317142882E+03  0.10744393934E+03 -0.12218054113E+03  0.89803433694E+03  0.12699999809E+01 0. -1.
       -4    1    3    3    0  502 -0.88317142882E+03 -0.10744393934E+03  0.55304204825E+03  0.10475653167E+04  0.12699999809E+01 0.  1.
</event>
<event>
 5   0  0.6222733E-05  0.1997050E+04  0.7818609E-02  0.8608001E-01
        1   -1    0    0  501    0  0.00000000000E+00  0.00000000000E+00  0.14985491765E+04  0.14985491765E+04  0.50400001928E-02 0. -1.
       -1   -1    0    0    0  501  0.00000000000E+00  0.00000000000E+00 -0.66534497834E+03  0.66534497836E+03  0.50400001928E-02 0.  1.
    10030    2    1    2    0    0  0.00000000000E+00  0.00000000000E+00  0.83320419817E+03  0.21638941549E+04  0.19970499938E+04 0.  0.
        2    1    3    3  502    0 -0.87412471151E+03  0.11629276699E+03 -0.90971688070E+02  0.88650655213E+03  0.25500000920E-02 0.  1.
       -2    1    3    3    0  502  0.87412471151E+03 -0.11629276699E+03  0.92417588624E+03  0.12773876027E+04  0.25500000920E-02 0. -1.
</event>
<event>
 5   0  0.6028501E-05  0.2008653E+04  0.7818609E-02  0.8602586E-01
       -1   -1    0    0    0  501  0.00000000000E+00  0.00000000000E+00  0.96342675278E+03  0.96342675279E+03  0.50400001928E-02 0. -1.
        1   -1    0    0  501    0  0.00000000000E+00  0.00000000000E+00 -0.10469625800E+04  0.10469625800E+04  0.50400001928E-02 0.  1.
    10030    2    1    2    0    0  0.00000000000E+00  0.00000000000E+00 -0.83535827181E+02  0.20103893328E+04  0.20086530399E+04 0.  0.
        4    1    3    3  502    0  0.29750366214E+03 -0.95136400040E+03 -0.16462684502E+03  0.10102997086E+04  0.12699999809E+01 0.  1.
       -4    1    3    3    0  502 -0.29750366214E+03  0.95136400040E+03  0.81091017842E+02  0.10000896241E+04  0.12699999809E+01 0. -1.
</event>
<event>
 5   0  0.1242761E-04  0.1996577E+04  0.7818609E-02  0.8608223E-01
       -2   -1    0    0    0  501  0.00000000000E+00  0.00000000000E+00  0.57958141722E+03  0.57958141722E+03  0.25500000920E-02 0.  1.
        2   -1    0    0  501    0  0.00000000000E+00  0.00000000000E+00 -0.17194821101E+04  0.17194821101E+04  0.25500000920E-02 0. -1.
    10030    2    1    2    0    0  0.00000000000E+00  0.00000000000E+00 -0.11399006929E+04  0.22990635273E+04  0.19965769489E+04 0.  0.
        4    1    3    3  502    0  0.91263155465E+03 -0.39666708647E+03 -0.47828370063E+03  0.11040824440E+04  0.12699999809E+01 0. -1.
       -4    1    3    3    0  502 -0.91263155465E+03  0.39666708647E+03 -0.66161699224E+03  0.11949810833E+04  0.12699999809E+01 0.  1.
</event>
<event>
 5   0  0.1244229E-04  0.1720814E+04  0.7818609E-02  0.8749582E-01
        2   -1    0    0  501    0  0.00000000000E+00  0.00000000000E+00  0.96162111559E+03  0.96162111560E+03  0.25500000920E-02 0.  1.
       -2   -1    0    0    0  501  0.00000000000E+00  0.00000000000E+00 -0.76984613165E+03  0.76984613166E+03  0.25500000920E-02 0. -1.
    10030    2    1    2    0    0  0.00000000000E+00  0.00000000000E+00  0.19177498394E+03  0.17314672473E+04  0.17208141050E+04 0.  0.
        5    1    3    3  502    0 -0.21659765109E+03  0.17442777935E+03 -0.72336351029E+03  0.77499448429E+03  0.46999998093E+01 0. -1.
       -5    1    3    3    0  502  0.21659765109E+03 -0.17442777935E+03  0.91513849423E+03  0.95647276296E+03  0.46999998093E+01 0.  1.
</event>
<event>
 5   0  0.6028501E-05  0.1986708E+04  0.7818609E-02  0.8612861E-01
        1   -1    0    0  501    0  0.00000000000E+00  0.00000000000E+00  0.12258109609E+04  0.12258109610E+04  0.50400001928E-02 0. -1.
       -1   -1    0    0    0  501  0.00000000000E+00  0.00000000000E+00 -0.80497890040E+03  0.80497890042E+03  0.50400001928E-02 0.  1.
    10030    2    1    2    0    0  0.00000000000E+00  0.00000000000E+00  0.42083206054E+03  0.20307898614E+04  0.19867077887E+04 0.  0.
        4    1    3    3  502    0  0.86934765298E+03  0.43957417651E+03  0.40904582168E+03  0.10565561488E+04  0.12699999809E+01 0.  1.
       -4    1    3    3    0  502 -0.86934765298E+03 -0.43957417651E+03  0.11786238862E+02  0.97423371258E+03  0.12699999809E+01 0. -1.
</event>
<event>
 5   0  0.1242761E-04  0.2059752E+04  0.7818609E-02  0.8579183E-01
        2   -1    0    0  501    0  0.00000000000E+00  0.00000000000E+00  0.18352211354E+04  0.18352211354E+04  0.25500000920E-02 0.  1.
       -2   -1    0    0    0  501  0.00000000000E+00  0.00000000000E+00 -0.57793810679E+03  0.57793810679E+03  0.25500000920E-02 0. -1.
    10030    2    1    2    0    0  0.00000000000E+00  0.00000000000E+00  0.12572830286E+04  0.24131592422E+04  0.20597516632E+04 0.  0.
        4    1    3    3  502    0 -0.45630891283E+02 -0.92453621584E+03  0.11575322847E+04  0.14821376439E+04  0.12699999809E+01 0.  1.
       -4    1    3    3    0  502  0.45630891283E+02  0.92453621584E+03  0.99750743973E+02  0.93102159828E+03  0.12699999809E+01 0. -1.
</event>
<event>
 5   0  0.1159914E-04  0.1991830E+04  0.7818609E-02  0.8610450E-01
        2   -1    0    0  501    0  0.00000000000E+00  0.00000000000E+00  0.11750468606E+04  0.11750468606E+04  0.25500000920E-02 0. -1.
       -2   -1    0    0    0  501  0.00000000000E+00  0.00000000000E+00 -0.84409077800E+03  0.84409077800E+03  0.25500000920E-02 0.  1.
    10030    2    1    2    0    0  0.00000000000E+00  0.00000000000E+00  0.33095608256E+03  0.20191376386E+04  0.19918295296E+04 0.  0.
        3    1    3    3  502    0  0.65618556466E+03  0.74912279059E+03  0.15631206850E+03  0.10080664282E+04  0.10100000352E+00 0.  1.
       -3    1    3    3    0  502 -0.65618556466E+03 -0.74912279059E+03  0.17464401406E+03  0.10110712104E+04  0.10100000352E+00 0. -1.
</event>
<event>
 5   0  0.6168338E-05  0.2005704E+04  0.7818609E-02  0.8603959E-01
       -1   -1    0    0    0  501  0.00000000000E+00  0.00000000000E+00  0.78667969642E+03  0.78667969643E+03  0.50400001928E-02 0.  1.
        1   -1    0    0  501    0  0.00000000000E+00  0.00000000000E+00 -0.12784260355E+04  0.12784260355E+04  0.50400001928E-02 0. -1.
    10030    2    1    2    0    0  0.00000000000E+00  0.00000000000E+00 -0.49174633909E+03  0.20651057319E+04  0.20057036726E+04 0.  0.
        5    1    3    3  502    0  0.11992291818E+03  0.82288633968E+03 -0.82297879546E+03  0.11699741972E+04  0.46999998093E+01 0. -1.
       -5    1    3    3    0  502 -0.11992291818E+03 -0.82288633968E+03  0.33123245637E+03  0.89513153475E+03  0.46999998093E+01 0.  1.
</event>
<event>
 5   0  0.1281789E-04  0.1987917E+04  0.7818609E-02  0.8612291E-01
        2   -1    0    0  501    0  0.00000000000E+00  0.00000000000E+00  0.73175891198E+03  0.73175891198E+03  0.25500000920E-02 0.  1.
       -2   -1    0    0    0  501  0.00000000000E+00  0.00000000000E+00 -0.13501078377E+04  0.13501078377E+04  0.25500000920E-02 0. -1.
    10030    2    1    2    0    0  0.00000000000E+00  0.00000000000E+00 -0.61834892572E+03  0.20818667497E+04  0.19879169423E+04 0.  0.
        2    1    3    3  502    0  0.26571890458E+03  0.18218185286E+03  0.67556039123E+03  0.74845080397E+03  0.25500000920E-02 0.  1.
       -2    1    3    3    0  502 -0.26571890458E+03 -0.18218185286E+03 -0.12939093170E+04  0.13334159457E+04  0.25500000920E-02 0. -1.
</event>
<event>
 5   0  0.4479000E-05  0.1999975E+04  0.7818609E-02  0.8606633E-01
       -3   -1    0    0    0  501  0.00000000000E+00  0.00000000000E+00  0.85697966387E+03  0.85697966982E+03  0.10100000352E+00 0. -1.
        3   -1    0    0  501    0  0.00000000000E+00  0.00000000000E+00 -0.11668591625E+04  0.11668591669E+04  0.10100000352E+00 0.  1.
    10030    2    1    2    0    0  0.00000000000E+00  0.00000000000E+00 -0.30987949863E+03  0.20238388367E+04  0.19999745832E+04 0.  0.
        4    1    3    3  502    0  0.30959196533E+03 -0.94741985633E+03 -0.23665853615E+03  0.10244317668E+04  0.12699999809E+01 0. -1.
       -4    1    3    3    0  502 -0.30959196533E+03  0.94741985633E+03 -0.73220962481E+02  0.99940706992E+03  0.12699999809E+01 0.  1.
</event>
<event>
 5   0  0.1281789E-04  0.1988896E+04  0.7818609E-02  0.8611830E-01
       -2   -1    0    0    0  501  0.00000000000E+00  0.00000000000E+00  0.56761291862E+03  0.56761291863E+03  0.25500000920E-02 0. -1.
        2   -1    0    0  501    0  0.00000000000E+00  0.00000000000E+00 -0.17422553771E+04  0.17422553771E+04  0.25500000920E-02 0.  1.
    10030    2    1    2    0    0  0.00000000000E+00  0.00000000000E+00 -0.11746424585E+04  0.23098682958E+04  0.19888958340E+04 0.  0.
        2    1    3    3  502    0  0.47854979697E+03 -0.51682790489E+03 -0.14026129405E+04  0.15695362539E+04  0.25500000920E-02 0.  1.
       -2    1    3    3    0  502 -0.47854979697E+03  0.51682790489E+03  0.22797048204E+03  0.74033204182E+03  0.25500000920E-02 0. -1.
</event>
<event>
 5   0  0.6214547E-05  0.1976082E+04  0.7818609E-02  0.8617885E-01
        1   -1    0    0  501    0  0.00000000000E+00  0.00000000000E+00  0.13639213172E+04  0.13639213173E+04  0.50400001928E-02 0. -1.
       -1   -1    0    0    0  501  0.00000000000E+00  0.00000000000E+00 -0.71574913291E+03  0.71574913292E+03  0.50400001928E-02 0.  1.
    10030    2    1    2    0    0  0.00000000000E+00  0.00000000000E+00  0.64817218434E+03  0.20796704502E+04  0.19760824884E+04 0.  0.
        3    1    3    3  502    0 -0.55127138636E+03  0.31405596259E+03  0.11212170600E+04  0.12882775303E+04  0.10100000352E+00 0. -1.
       -3    1    3    3    0  502  0.55127138636E+03 -0.31405596259E+03 -0.47304487571E+03  0.79139291991E+03  0.10100000352E+00 0.  1.
</event>
<event>
 5   0  0.1159914E-04  0.1971975E+04  0.7818609E-02  0.8619837E-01
        2   -1    0    0  501    0  0.00000000000E+00  0.00000000000E+00  0.20155150205E+04  0.20155150205E+04  0.25500000920E-02 0. -1.
       -2   -1    0    0    0  501  0.00000000000E+00  0.00000000000E+00 -0.48234377948E+03  0.48234377949E+03  0.25500000920E-02 0.  1.
    10030    2    1    2    0    0  0.00000000000E+00  0.00000000000E+00  0.15331712411E+04  0.24978588000E+04  0.19719747794E+04 0.  0.
        3    1    3    3  502    0 -0.29223989064E+02  0.87453112570E+03  0.19096070196E+03  0.89561416428E+03  0.10100000352E+00 0.  1.
       -3    1    3    3    0  502  0.29223989064E+02 -0.87453112570E+03  0.13422105391E+04  0.16022446358E+04  0.10100000352E+00 0. -1.
</event>
<event>
 5   0  0.6028501E-05  0.2034502E+04  0.7818609E-02  0.8590658E-01
       -1   -1    0    0    0  501  0.00000000000E+00  0.00000000000E+00  0.78280937877E+03  0.78280937879E+03  0.50400001928E-02 0.  1.
        1   -1    0    0  501    0  0.00000000000E+00  0.00000000000E+00 -0.13219050037E+04  0.13219050037E+04  0.50400001928E-02 0. -1.
    10030    2    1    2    0    0  0.00000000000E+00  0.00000000000E+00 -0.53909562492E+03  0.21047143825E+04  0.20345020371E+04 0.  0.
        4    1    3    3  502    0  0.83707033612E+03  0.32320274312E+03 -0.76530549964E+03  0.11793391715E+04  0.12699999809E+01 0.  1.
       -4    1    3    3    0  502 -0.83707033612E+03 -0.32320274312E+03  0.22620987472E+03  0.92537521098E+03  0.12699999809E+01 0. -1.
</event>
<event>
 5   0  0.6256535E-05  0.1993245E+04  0.7818609E-02  0.8609785E-01
       -1   -1    0    0    0  501  0.00000000000E+00  0.00000000000E+00  0.49750337288E+03  0.49750337291E+03  0.50400001928E-02 0. -1.
        1   -1    0    0  501    0  0.00000000000E+00  0.00000000000E+00 -0.19964820791E+04  0.19964820791E+04  0.50400001928E-02 0.  1.
    10030    2    1    2    0    0  0.00000000000E+00  0.00000000000E+00 -0.14989787062E+04  0.24939854520E+04  0.19932451613E+04 0.  0.
        1    1    3    3  502    0 -0.35920746906E+02 -0.36176333989E+03 -0.19105592532E+04  0.19448392412E+04  0.50400001928E-02 0.  1.
       -1    1    3    3    0  502  0.35920746906E+02  0.36176333989E+03  0.41158054699E+03  0.54914621079E+03  0.50400001928E-02 0. -1.
</event>
<event>
 5   0  0.1281789E-04  0.1996378E+04  0.7818609E-02  0.8608316E-01
       -2   -1    0    0    0  501  0.00000000000E+00  0.00000000000E+00  0.69968486358E+03  0.69968486358E+03  0.25500000920E-02 0.  1.
        2   -1    0    0  501    0  0.00000000000E+00  0.00000000000E+00 -0.14240432137E+04  0.14240432137E+04  0.25500000920E-02 0. -1.
    10030    2    1    2    0    0  0.00000000000E+00  0.00000000000E+00 -0.72435835014E+03  0.21237280773E+04  0.19963782024E+04 0.  0.
        2    1    3    3  502    0 -0.34008431071E+02  0.48281130169E+03 -0.12908616353E+04  0.13786178180E+04  0.25500000920E-02 0. -1.
       -2    1    3    3    0  502  0.34008431071E+02 -0.48281130169E+03  0.56650328520E+03  0.74511025933E+03  0.25500000920E-02 0.  1.
</event>
<event>
 5   0  0.6214547E-05  0.1981919E+04  0.7818609E-02  0.8615121E-01
        1   -1    0    0  501    0  0.00000000000E+00  0.00000000000E+00  0.98505660114E+03  0.98505660115E+03  0.50400001928E-02 0.  1.
       -1   -1    0    0    0  501  0.00000000000E+00  0.00000000000E+00 -0.99689731668E+03  0.99689731669E+03  0.50400001928E-02 0. -1.
    10030    2    1    2    0    0  0.00000000000E+00  0.00000000000E+00 -0.11840715543E+02  0.19819539178E+04  0.19819185477E+04 0.  0.
        3    1    3    3  502    0  0.42106794684E+03  0.61771071372E+03 -0.65642065262E+03  0.99486321928E+03  0.10100000352E+00 0. -1.
       -3    1    3    3    0  502 -0.42106794684E+03 -0.61771071372E+03  0.64457993707E+03  0.98709069856E+03  0.10100000352E+00 0.  1.
</event>
<event>
 5   0  0.1242761E-04  0.2171817E+04  0.7818609E-02  0.8530251E-01
       -2   -1    0    0    0  501  0.00000000000E+00  0.00000000000E+00  0.50365133491E+03  0.50365133491E+03  0.25500000920E-02 0.  1.
        2   -1    0    0  501    0  0.00000000000E+00  0.00000000000E+00 -0.23412965410E+04  0.23412965410E+04  0.25500000920E-02 0. -1.
    10030    2    1    2    0    0  0.00000000000E+00  0.00000000000E+00 -0.18376452061E+04  0.28449478759E+04  0.21718168692E+04 0.  0.
        4    1    3    3  502    0 -0.56996611301E+03 -0.45964205631E+03  0.13163367931E+03  0.74394974852E+03  0.12699999809E+01 0.  1.
       -4    1    3    3    0  502  0.56996611301E+03  0.45964205631E+03 -0.19692788854E+04  0.21009981274E+04  0.12699999809E+01 0. -1.
</event>
<event>
 5   0  0.1159914E-04  0.2001546E+04  0.7818609E-02  0.8605898E-01
        2   -1    0    0  501    0  0.00000000000E+00  0.00000000000E+00  0.97381045825E+03  0.97381045825E+03  0.25500000920E-02 0. -1.
       -2   -1    0    0    0  501  0.00000000000E+00  0.00000000000E+00 -0.10284821361E+04  0.10284821361E+04  0.25500000920E-02 0.  1.
    10030    2    1    2    0    0  0.00000000000E+00  0.00000000000E+00 -0.54671677840E+02  0.20022925943E+04  0.20015460627E+04 0.  0.
        3    1    3    3  502    0 -0.34236490544E+03  0.73724504602E+03  0.55666496123E+03  0.98520042408E+03  0.10100000352E+00 0. -1.
       -3    1    3    3    0  502  0.34236490544E+03 -0.73724504602E+03 -0.61133663907E+03  0.10170921703E+04  0.10100000352E+00 0.  1.
</event>
<event>
 5   0  0.1244229E-04  0.1993992E+04  0.7818609E-02  0.8609435E-01
        2   -1    0    0  501    0  0.00000000000E+00  0.00000000000E+00  0.13074499469E+04  0.13074499469E+04  0.25500000920E-02 0.  1.
       -2   -1    0    0    0  501  0.00000000000E+00  0.00000000000E+00 -0.76025945145E+03  0.76025945146E+03  0.25500000920E-02 0. -1.
    10030    2    1    2    0    0  0.00000000000E+00  0.00000000000E+00  0.54719049540E+03  0.20677093983E+04  0.19939921559E+04 0.  0.
        5    1    3    3  502    0  0.60486359707E+03  0.44306254059E+03  0.95501508004E+03  0.12141829677E+04  0.46999998093E+01 0.  1.
       -5    1    3    3    0  502 -0.60486359707E+03 -0.44306254059E+03 -0.40782458465E+03  0.85352643062E+03  0.46999998093E+01 0. -1.
</event>
<event>
 5   0  0.6028501E-05  0.1997886E+04  0.7818609E-02  0.8607609E-01
       -1   -1    0    0    0  501  0.00000000000E+00  0.00000000000E+00  0.64351154864E+03  0.64351154866E+03  0.50400001928E-02 0. -1.
        1   -1    0    0  501    0  0.00000000000E+00  0.00000000000E+00 -0.15506910194E+04  0.15506910194E+04  0.50400001928E-02 0.  1.
    10030    2    1    2    0    0  0.00000000000E+00  0.00000000000E+00 -0.90717947074E+03  0.21942025680E+04  0.19978864626E+04 0.  0.
        4    1    3    3  502    0  0.83181469278E+03 -0.38517879229E+03 -0.88959774448E+03  0.12773660967E+04  0.12699999809E+01 0.  1.
       -4    1    3    3    0  502 -0.83181469278E+03  0.38517879229E+03 -0.17581726257E+02  0.91683647132E+03  0.12699999809E+01 0. -1.
</event>
<event>
 5   0  0.6214547E-05  0.2000963E+04  0.7818609E-02  0.8606171E-01
       -1   -1    0    0    0  501  0.00000000000E+00  0.00000000000E+00  0.11997014121E+04  0.11997014121E+04  0.50400001928E-02 0. -1.
        1   -1    0    0  501    0  0.00000000000E+00  0.00000000000E+00 -0.83434348988E+03  0.83434348989E+03  0.50400001928E-02 0.  1.
    10030    2    1    2    0    0  0.00000000000E+00  0.00000000000E+00  0.36535792222E+03  0.20340449020E+04  0.20009628313E+04 0.  0.
        3    1    3    3  502    0  0.50835434157E+03  0.76664155289E+03 -0.21727177032E+03  0.94518275460E+03  0.10100000352E+00 0.  1.
       -3    1    3    3    0  502 -0.50835434157E+03 -0.76664155289E+03  0.58262969254E+03  0.10888621474E+04  0.10100000352E+00 0. -1.
</event>
<event>
 5   0  0.6168338E-05  0.1989258E+04  0.7818609E-02  0.8611659E-01
       -1   -1    0    0    0  501  0.00000000000E+00  0.00000000000E+00  0.52965890982E+03  0.52965890984E+03  0.50400001928E-02 0. -1.
        1   -1    0    0  501    0  0.00000000000E+00  0.00000000000E+00 -0.18677818267E+04  0.18677818267E+04  0.50400001928E-02 0.  1.
    10030    2    1    2    0    0  0.00000000000E+00  0.00000000000E+00 -0.13381229169E+04  0.23974407366E+04  0.19892584409E+04 0.  0.
        5    1    3    3  502    0 -0.65812977251E+03  0.74553530256E+03 -0.64792718956E+03  0.11869243522E+04  0.46999998093E+01 0. -1.
       -5    1    3    3    0  502  0.65812977251E+03 -0.74553530256E+03 -0.69019572734E+03  0.12105163844E+04  0.46999998093E+01 0.  1.
</event>
<event>
 5   0  0.1242761E-04  0.1901176E+04  0.7818609E-02  0.8654271E-01
        2   -1    0    0  501    0  0.00000000000E+00  0.00000000000E+00  0.14030383281E+04  0.14030383281E+04  0.25500000920E-02 0.  1.
       -2   -1    0    0    0  501  0.00000000000E+00  0.00000000000E+00 -0.64404369938E+03  0.64404369939E+03  0.25500000920E-02 0. -1.
    10030    2    1    2    0    0  0.00000000000E+00  0.00000000000E+00  0.75899462875E+03  0.20470820275E+04  0.19011764729E+04 0.  0.
        4    1    3    3  502    0 -0.62264908305E+03  0.42352721101E+03 -0.24515319365E+03  0.79193994743E+03  0.12699999809E+01 0. -1.
       -4    1    3    3    0  502  0.62264908305E+03 -0.42352721101E+03  0.10041478224E+04  0.12551420801E+04  0.12699999809E+01 0.  1.
</event>
<event>
 5   0  0.1274868E-04  0.2007223E+04  0.7818609E-02  0.8603251E-01
       -2   -1    0    0    0  501  0.00000000000E+00  0.00000000000E+00  0.40904892755E+03  0.40904892756E+03  0.25500000920E-02 0. -1.
        2   -1    0    0  501    0  0.00000000000E+00  0.00000000000E+00 -0.24623853307E+04  0.24623853307E+04  0.25500000920E-02 0.  1.
    10030    2    1    2    0    0  0.00000000000E+00  0.00000000000E+00 -0.20533364031E+04  0.28714342582E+04  0.20072230357E+04 0.  0.
        1    1    3    3  502    0 -0.68845639009E+03  0.48176832735E+03 -0.18117305790E+04  0.19971080625E+04  0.50400001928E-02 0.  1.
       -1    1    3    3    0  502  0.68845639009E+03 -0.48176832735E+03 -0.24160582409E+03  0.87432619574E+03  0.50400001928E-02 0. -1.
</event>
<event>
 5   0  0.1244229E-04  0.1999252E+04  0.7818609E-02  0.8606970E-01
        2   -1    0    0  501    0  0.00000000000E+00  0.00000000000E+00  0.14658160498E+04  0.14658160498E+04  0.25500000920E-02 0.  1.
       -2   -1    0    0    0  501  0.00000000000E+00  0.00000000000E+00 -0.68170377750E+03  0.68170377750E+03  0.25500000920E-02 0. -1.
    10030    2    1    2    0    0  0.00000000000E+00  0.00000000000E+00  0.78411227234E+03  0.21475198273E+04  0.19992521985E+04 0.  0.
        5    1    3    3  502    0  0.18849187689E+02 -0.83511365276E+03 -0.19771640771E+03  0.85841946202E+03  0.46999998093E+01 0. -1.
       -5    1    3    3    0  502 -0.18849187689E+02  0.83511365276E+03  0.98182868005E+03  0.12891003653E+04  0.46999998093E+01 0.  1.
</event>
<event>
 5   0  0.1242761E-04  0.2004546E+04  0.7818609E-02  0.8604498E-01
        2   -1    0    0  501    0  0.00000000000E+00  0.00000000000E+00  0.11250292689E+04  0.11250292689E+04  0.25500000920E-02 0.  1.
       -2   -1    0    0    0  501  0.00000000000E+00  0.00000000000E+00 -0.89291072032E+03  0.89291072032E+03  0.25500000920E-02 0. -1.
    10030    2    1    2    0    0  0.00000000000E+00  0.00000000000E+00  0.23211854860E+03  0.20179399892E+04  0.20045455294E+04 0.  0.
        4    1    3    3  502    0 -0.19983651198E+03  0.73496514475E+03 -0.53978514294E+03  0.93352986506E+03  0.12699999809E+01 0.  1.
       -4    1    3    3    0  502  0.19983651198E+03 -0.73496514475E+03  0.77190369155E+03  0.10844101242E+04  0.12699999809E+01 0. -1.
</event>
<event>
 5   0  0.1281789E-04  0.1993049E+04  0.7818609E-02  0.8609877E-01
       -2   -1    0    0    0  501  0.00000000000E+00  0.00000000000E+00  0.51669019574E+03  0.51669019574E+03  0.25500000920E-02 0.  1.
        2   -1    0    0  501    0  0.00000000000E+00  0.00000000000E+00 -0.19219668232E+04  0.19219668232E+04  0.25500000920E-02 0. -1.
    10030    2    1    2    0    0  0.00000000000E+00  0.00000000000E+00 -0.14052766275E+04  0.24386570190E+04  0.19930493362E+04 0.  0.
        2    1    3    3  502    0 -0.79208982030E+03  0.42348613843E+02  0.35437309523E+02  0.79401227410E+03  0.25500000920E-02 0.  1.
       -2    1    3    3    0  502  0.79208982030E+03 -0.42348613843E+02 -0.14407139370E+04  0.16446447449E+04  0.25500000920E-02 0. -1.
</event>
<event>
 5   0  0.1244229E-04  0.2003771E+04  0.7818609E-02  0.8604860E-01
       -2   -1    0    0    0  501  0.00000000000E+00  0.00000000000E+00  0.49530491343E+03  0.49530491344E+03  0.25500000920E-02 0. -1.
        2   -1    0    0  501    0  0.00000000000E+00  0.00000000000E+00 -0.20265793872E+04  0.20265793872E+04  0.25500000920E-02 0.  1.
    10030    2    1    2    0    0  0.00000000000E+00  0.00000000000E+00 -0.15312744737E+04  0.25218843006E+04  0.20037711725E+04 0.  0.
        5    1    3    3  502    0  0.72116342639E+02  0.62210316347E+03 -0.17498506957E+04  0.18585512261E+04  0.46999998093E+01 0.  1.
       -5    1    3    3    0  502 -0.72116342639E+02 -0.62210316347E+03  0.21857622198E+03  0.66333307447E+03  0.46999998093E+01 0. -1.
</event>
<event>
 5   0  0.1244229E-04  0.1999069E+04  0.7818609E-02  0.8607056E-01
        2   -1    0    0  501    0  0.00000000000E+00  0.00000000000E+00  0.88387648288E+03  0.88387648288E+03  0.25500000920E-02 0.  1.
       -2   -1    0    0    0  501  0.00000000000E+00  0.00000000000E+00 -0.11303266183E+04  0.11303266183E+04  0.25500000920E-02 0. -1.
    10030    2    1    2    0    0  0.00000000000E+00  0.00000000000E+00 -0.24645013538E+03  0.20142031011E+04  0.19990688991E+04 0.  0.
        5    1    3    3  502    0  0.48009566966E+03 -0.11435426702E+03 -0.99898785603E+03  0.11142565131E+04  0.46999998093E+01 0. -1.
       -5    1    3    3    0  502 -0.48009566966E+03  0.11435426702E+03  0.75253772064E+03  0.89994658808E+03  0.46999998093E+01 0.  1.
</event>
<event>
 5   0  0.6222733E-05  0.1613267E+04  0.7818609E-02  0.8812439E-01
       -1   -1    0    0    0  501  0.00000000000E+00  0.00000000000E+00  0.62407784764E+03  0.62407784766E+03  0.50400001928E-02 0. -1.
        1   -1    0    0  501    0  0.00000000000E+00  0.00000000000E+00 -0.10425909867E+04  0.10425909867E+04  0.50400001928E-02 0.  1.
    10030    2    1    2    0    0  0.00000000000E+00  0.00000000000E+00 -0.41851313903E+03  0.16666688343E+04  0.16132674161E+04 0.  0.
        2    1    3    3  502    0 -0.25930672979E+02 -0.47664186410E+03  0.46249617830E+03  0.66465222588E+03  0.25500000920E-02 0. -1.
       -2    1    3    3    0  502  0.25930672979E+02  0.47664186410E+03 -0.88100931733E+03  0.10020166085E+04  0.25500000920E-02 0.  1.
</event>
<event>
 5   0  0.6222733E-05  0.1963953E+04  0.7818609E-02  0.8623662E-01
        1   -1    0    0  501    0  0.00000000000E+00  0.00000000000E+00  0.10879906853E+04  0.10879906853E+04  0.50400001928E-02 0.  1.
       -1   -1    0    0    0  501  0.00000000000E+00  0.00000000000E+00 -0.88629205600E+03  0.88629205601E+03  0.50400001928E-02 0. -1.
    10030    2    1    2    0    0  0.00000000000E+00  0.00000000000E+00  0.20169862928E+03  0.19742827413E+04  0.19639526485E+04 0.  0.
        2    1    3    3  502    0 -0.72457010608E+03  0.43242890641E+03  0.60576693345E+03  0.10387252646E+04  0.25500000920E-02 0.  1.
       -2    1    3    3    0  502  0.72457010608E+03 -0.43242890641E+03 -0.40406830417E+03  0.93555747667E+03  0.25500000920E-02 0. -1.
</event>
<event>
 5   0  0.4479000E-05  0.1968619E+04  0.7818609E-02  0.8621435E-01
       -4   -1    0    0    0  501  0.00000000000E+00  0.00000000000E+00  0.13971347727E+04  0.13971353499E+04  0.12699999809E+01 0. -1.
        4   -1    0    0  501    0  0.00000000000E+00  0.00000000000E+00 -0.69346441619E+03  0.69346557912E+03  0.12699999809E+01 0.  1.
    10030    2    1    2    0    0  0.00000000000E+00  0.00000000000E+00  0.70367035650E+03  0.20906009290E+04  0.19686188747E+04 0.  0.
        1    1    3    3  502    0 -0.66867080228E+03  0.45825395041E+03 -0.24110537422E+03  0.84572402496E+03  0.50400001928E-02 0.  1.
       -1    1    3    3    0  502  0.66867080228E+03 -0.45825395041E+03  0.94477573073E+03  0.12448769041E+04  0.50400001928E-02 0. -1.
</event>
<event>
 5   0  0.6168338E-05  0.2006679E+04  0.7818609E-02  0.8603504E-01
        1   -1    0    0  501    0  0.00000000000E+00  0.00000000000E+00  0.80542785954E+03  0.80542785956E+03  0.50400001928E-02 0.  1.
       -1   -1    0    0    0  501  0.00000000000E+00  0.00000000000E+00 -0.12498827923E+04  0.12498827923E+04  0.50400001928E-02 0. -1.
    10030    2    1    2    0    0  0.00000000000E+00  0.00000000000E+00 -0.44445493274E+03  0.20553106519E+04  0.20066792689E+04 0.  0.
        5    1    3    3  502    0 -0.53786594560E+03 -0.11877700890E+03 -0.10811572176E+04  0.12133963790E+04  0.46999998093E+01 0. -1.
       -5    1    3    3    0  502  0.53786594560E+03  0.11877700890E+03  0.63670228490E+03  0.84191427287E+03  0.46999998093E+01 0.  1.
</event>
<event>
 5   0  0.1159914E-04  0.2009739E+04  0.7818609E-02  0.8602081E-01
       -2   -1    0    0    0  501  0.00000000000E+00  0.00000000000E+00  0.56245890068E+03  0.56245890069E+03  0.25500000920E-02 0.  1.
        2   -1    0    0  501    0  0.00000000000E+00  0.00000000000E+00 -0.17952643173E+04  0.17952643173E+04  0.25500000920E-02 0. -1.
    10030    2    1    2    0    0  0.00000000000E+00  0.00000000000E+00 -0.12328054166E+04  0.23577232180E+04  0.20097386839E+04 0.  0.
        3    1    3    3  502    0 -0.12257047760E+02 -0.64321226485E+03 -0.15220025227E+04  0.16523812944E+04  0.10100000352E+00 0. -1.
       -3    1    3    3    0  502  0.12257047760E+02  0.64321226485E+03  0.28919710602E+03  0.70534192361E+03  0.10100000352E+00 0.  1.
</event>
<event>
 5   0  0.6256535E-05  0.1999326E+04  0.7818609E-02  0.8606936E-01
        1   -1    0    0  501    0  0.00000000000E+00  0.00000000000E+00  0.92650201585E+03  0.92650201586E+03  0.50400001928E-02 0.  1.
       -1   -1    0    0    0  501  0.00000000000E+00  0.00000000000E+00 -0.10786010462E+04  0.10786010463E+04  0.50400001928E-02 0. -1.
    10030    2    1    2    0    0  0.00000000000E+00  0.00000000000E+00 -0.15209903040E+03  0.20051030621E+04  0.19993259301E+04 0.  0.
        1    1    3    3  502    0 -0.25848454547E+02  0.99716928694E+03 -0.10199187628E+02  0.99755639083E+03  0.50400001928E-02 0. -1.
       -1    1    3    3    0  502  0.25848454547E+02 -0.99716928694E+03 -0.14189984277E+03  0.10075466713E+04  0.50400001928E-02 0.  1.
</event>
<event>
 5   0  0.6222733E-05  0.1924586E+04  0.7818609E-02  0.8642714E-01
       -1   -1    0    0    0  501  0.00000000000E+00  0.00000000000E+00  0.80225675880E+03  0.80225675882E+03  0.50400001928E-02 0. -1.
        1   -1    0    0  501    0  0.00000000000E+00  0.00000000000E+00 -0.11542535550E+04  0.11542535550E+04  0.50400001928E-02 0.  1.
    10030    2    1    2    0    0  0.00000000000E+00  0.00000000000E+00 -0.35199679619E+03  0.19565103138E+04  0.19245858940E+04 0.  0.
        2    1    3    3  502    0 -0.39689646246E+03  0.49380271420E+03 -0.91233342058E+03  0.11107295768E+04  0.25500000920E-02 0.  1.
       -2    1    3    3    0  502  0.39689646246E+03 -0.49380271420E+03  0.56033662440E+03  0.84578073701E+03  0.25500000920E-02 0. -1.
</event>
<event>
 5   0  0.6168338E-05  0.1987335E+04  0.7818609E-02  0.8612565E-01
       -1   -1    0    0    0  501  0.00000000000E+00  0.00000000000E+00  0.65446150662E+03  0.65446150664E+03  0.50400001928E-02 0.  1.
        1   -1    0    0  501    0  0.00000000000E+00  0.00000000000E+00 -0.15086835172E+04  0.15086835172E+04  0.50400001928E-02 0. -1.
    10030    2    1    2    0    0  0.00000000000E+00  0.00000000000E+00 -0.85422201056E+03  0.21631450238E+04  0.19873351883E+04 0.  0.
        5    1    3    3  502    0 -0.98790491118E+02  0.97779621469E+03 -0.58674174961E+03  0.11446104007E+04  0.46999998093E+01 0. -1.
       -5    1    3    3    0  502  0.98790491118E+02 -0.97779621469E+03 -0.26748026095E+03  0.10185346232E+04  0.46999998093E+01 0.  1.
</event>
<event>
 5   0  0.1281789E-04  0.2033834E+04  0.7818609E-02  0.8590964E-01
       -2   -1    0    0    0  501  0.00000000000E+00  0.00000000000E+00  0.57050819428E+03  0.57050819428E+03  0.25500000920E-02 0.  1.
        2   -1    0    0  501    0  0.00000000000E+00  0.00000000000E+00 -0.18126297164E+04  0.18126297164E+04  0.25500000920E-02 0. -1.
    10030    2    1    2    0    0  0.00000000000E+00  0.00000000000E+00 -0.12421215222E+04  0.23831379107E+04  0.20338339228E+04 0.  0.
        2    1    3    3  502    0  0.99100776715E+03  0.22382431141E+03 -0.67248948370E+03  0.12183742539E+04  0.25500000920E-02 0. -1.
       -2    1    3    3    0  502 -0.99100776715E+03 -0.22382431141E+03 -0.56963203845E+03  0.11647636568E+04  0.25500000920E-02 0.  1.
</event>
<event>
 5   0  0.1242761E-04  0.1896007E+04  0.7818609E-02  0.8656847E-01
        2   -1    0    0  501    0  0.00000000000E+00  0.00000000000E+00  0.91146803960E+03  0.91146803961E+03  0.25500000920E-02 0. -1.
       -2   -1    0    0    0  501  0.00000000000E+00  0.00000000000E+00 -0.98600343223E+03  0.98600343223E+03  0.25500000920E-02 0.  1.
    10030    2    1    2    0    0  0.00000000000E+00  0.00000000000E+00 -0.74535392624E+02  0.18974714718E+04  0.18960069783E+04 0.  0.
        4    1    3    3  502    0  0.64174393366E+02  0.94223610346E+03  0.45147446455E+02  0.94549835126E+03  0.12699999809E+01 0.  1.
       -4    1    3    3    0  502 -0.64174393366E+02 -0.94223610346E+03 -0.11968283908E+03  0.95197312057E+03  0.12699999809E+01 0. -1.
</event>
<event>
 5   0  0.6214547E-05  0.2014150E+04  0.7818609E-02  0.8600033E-01
       -1   -1    0    0    0  501  0.00000000000E+00  0.00000000000E+00  0.47793350247E+03  0.47793350250E+03  0.50400001928E-02 0. -1.
        1   -1    0    0  501    0  0.00000000000E+00  0.00000000000E+00 -0.21220529278E+04  0.21220529278E+04  0.50400001928E-02 0.  1.
    10030    2    1    2    0    0  0.00000000000E+00  0.00000000000E+00 -0.16441194253E+04  0.25999864303E+04  0.20141501317E+04 0.  0.
        3    1    3    3  502    0 -0.38922749446E+03  0.76147151308E+03 -0.13551706370E+03  0.86585321645E+03  0.10100000352E+00 0. -1.
       -3    1    3    3    0  502  0.38922749446E+03 -0.76147151308E+03 -0.15086023616E+04  0.17341332138E+04  0.10100000352E+00 0.  1.
</event>
<event>
 5   0  0.1281789E-04  0.1991162E+04  0.7818609E-02  0.8610764E-01
        2   -1    0    0  501    0  0.00000000000E+00  0.00000000000E+00  0.24521204873E+04  0.24521204873E+04  0.25500000920E-02 0. -1.
       -2   -1    0    0    0  501  0.00000000000E+00  0.00000000000E+00 -0.40421418515E+03  0.40421418515E+03  0.25500000920E-02 0.  1.
    10030    2    1    2    0    0  0.00000000000E+00  0.00000000000E+00  0.20479063021E+04  0.28563346724E+04  0.19911623587E+04 0.  0.
        2    1    3    3  502    0  0.31280285923E+03 -0.78583733647E+03  0.17773023826E+04  0.19682961432E+04  0.25500000920E-02 0. -1.
       -2    1    3    3    0  502 -0.31280285923E+03  0.78583733647E+03  0.27060391953E+03  0.88803852923E+03  0.25500000920E-02 0.  1.
</event>
<event>
 5   0  0.6168338E-05  0.2007956E+04  0.7818609E-02  0.8602910E-01
       -1   -1    0    0    0  501  0.00000000000E+00  0.00000000000E+00  0.11525084430E+04  0.11525084430E+04  0.50400001928E-02 0.  1.
        1   -1    0    0  501    0  0.00000000000E+00  0.00000000000E+00 -0.87458931840E+03  0.87458931842E+03  0.50400001928E-02 0. -1.
    10030    2    1    2    0    0  0.00000000000E+00  0.00000000000E+00  0.27791912457E+03  0.20270977614E+04  0.20079557501E+04 0.  0.
        5    1    3    3  502    0  0.35075102501E+03  0.48772120425E+03  0.95102287295E+03  0.11248843716E+04  0.46999998093E+01 0.  1.
       -5    1    3    3    0  502 -0.35075102501E+03 -0.48772120425E+03 -0.67310374839E+03  0.90221338979E+03  0.46999998093E+01 0. -1.
</event>
<event>
 5   0  0.6028501E-05  0.1996577E+04  0.7818609E-02  0.8608223E-01
        1   -1    0    0  501    0  0.00000000000E+00  0.00000000000E+00  0.70284196513E+03  0.70284196514E+03  0.50400001928E-02 0.  1.
       -1   -1    0    0    0  501  0.00000000000E+00  0.00000000000E+00 -0.14179291509E+04  0.14179291510E+04  0.50400001928E-02 0. -1.
    10030    2    1    2    0    0  0.00000000000E+00  0.00000000000E+00 -0.71508718582E+03  0.21207711161E+04  0.19965771820E+04 0.  0.
        4    1    3    3  502    0 -0.54073831234E+03 -0.24855403483E+03  0.49381193165E+03  0.77332326190E+03  0.12699999809E+01 0.  1.
       -4    1    3    3    0  502  0.54073831234E+03  0.24855403483E+03 -0.12088991175E+04  0.13474478542E+04  0.12699999809E+01 0. -1.
</event>
<event>
 5   0  0.6222733E-05  0.1983232E+04  0.7818609E-02  0.8614500E-01
       -1   -1    0    0    0  501  0.00000000000E+00  0.00000000000E+00  0.44242414399E+03  0.44242414402E+03  0.50400001928E-02 0. -1.
        1   -1    0    0  501    0  0.00000000000E+00  0.00000000000E+00 -0.22225338054E+04  0.22225338054E+04  0.50400001928E-02 0.  1.
    10030    2    1    2    0    0  0.00000000000E+00  0.00000000000E+00 -0.17801096614E+04  0.26649579494E+04  0.19832323277E+04 0.  0.
        2    1    3    3  502    0  0.69419949176E+03  0.21775293011E+03  0.15327352567E+02  0.72771161917E+03  0.25500000920E-02 0. -1.
       -2    1    3    3    0  502 -0.69419949176E+03 -0.21775293011E+03 -0.17954370139E+04  0.19372463302E+04  0.25500000920E-02 0.  1.
</event>
<event>
 5   0  0.6168338E-05  0.1982500E+04  0.7818609E-02  0.8614847E-01
        1   -1    0    0  501    0  0.00000000000E+00  0.00000000000E+00  0.94410560693E+03  0.94410560694E+03  0.50400001928E-02 0.  1.
       -1   -1    0    0    0  501  0.00000000000E+00  0.00000000000E+00 -0.10407484422E+04  0.10407484422E+04  0.50400001928E-02 0. -1.
    10030    2    1    2    0    0  0.00000000000E+00  0.00000000000E+00 -0.96642835270E+02  0.19848540492E+04  0.19824998761E+04 0.  0.
        5    1    3    3  502    0 -0.91056284324E+03  0.31271976891E+03  0.18783153228E+03  0.98092870275E+03  0.46999998093E+01 0.  1.
       -5    1    3    3    0  502  0.91056284324E+03 -0.31271976891E+03 -0.28447436755E+03  0.10039253464E+04  0.46999998093E+01 0. -1.
</event>
<event>
 5   0  0.6256535E-05  0.1732688E+04  0.7818609E-02  0.8742937E-01
       -1   -1    0    0    0  501  0.00000000000E+00  0.00000000000E+00  0.83299327548E+03  0.83299327550E+03  0.50400001928E-02 0.  1.
        1   -1    0    0  501    0  0.00000000000E+00  0.00000000000E+00 -0.90103050587E+03  0.90103050588E+03  0.50400001928E-02 0. -1.
    10030    2    1    2    0    0  0.00000000000E+00  0.00000000000E+00 -0.68037230384E+02  0.17340237814E+04  0.17326884918E+04 0.  0.
        1    1    3    3  502    0 -0.33206162111E+03  0.26292008867E+03  0.72231538740E+03  0.83733590162E+03  0.50400001928E-02 0.  1.
       -1    1    3    3    0  502  0.33206162111E+03 -0.26292008867E+03 -0.79035261779E+03  0.89668787976E+03  0.50400001928E-02 0. -1.
</event>
<event>
 5   0  0.1159914E-04  0.1995048E+04  0.7818609E-02  0.8608939E-01
        2   -1    0    0  501    0  0.00000000000E+00  0.00000000000E+00  0.19341713245E+04  0.19341713245E+04  0.25500000920E-02 0. -1.
       -2   -1    0    0    0  501  0.00000000000E+00  0.00000000000E+00 -0.51446029936E+03  0.51446029937E+03  0.25500000920E-02 0.  1.
    10030    2    1    2    0    0  0.00000000000E+00  0.00000000000E+00  0.14197110251E+04  0.24486316239E+04  0.19950482286E+04 0.  0.
        3    1    3    3  502    0 -0.35933159227E+03  0.53858933110E+03  0.16412362734E+04  0.17643282507E+04  0.10100000352E+00 0. -1.
       -3    1    3    3    0  502  0.35933159227E+03 -0.53858933110E+03 -0.22152524825E+03  0.68430337321E+03  0.10100000352E+00 0.  1.
</event>
<event>
 5   0  0.1159914E-04  0.1988782E+04  0.7818609E-02  0.8611884E-01
       -2   -1    0    0    0  501  0.00000000000E+00  0.00000000000E+00  0.58690274711E+03  0.58690274712E+03  0.25500000920E-02 0.  1.
        2   -1    0    0  501    0  0.00000000000E+00  0.00000000000E+00 -0.16847992996E+04  0.16847992996E+04  0.25500000920E-02 0. -1.
    10030    2    1    2    0    0  0.00000000000E+00  0.00000000000E+00 -0.10978965524E+04  0.22717020467E+04  0.19887818757E+04 0.  0.
        3    1    3    3  502    0  0.76019749001E+03  0.41553693061E+03 -0.11064850621E+04  0.14053043682E+04  0.10100000352E+00 0. -1.
       -3    1    3    3    0  502 -0.76019749001E+03 -0.41553693061E+03  0.85885096559E+01  0.86639767844E+03  0.10100000352E+00 0.  1.
</event>
<event>
 5   0  0.6168338E-05  0.2005881E+04  0.7818609E-02  0.8603876E-01
       -1   -1    0    0    0  501  0.00000000000E+00  0.00000000000E+00  0.53713512504E+03  0.53713512507E+03  0.50400001928E-02 0. -1.
        1   -1    0    0  501    0  0.00000000000E+00  0.00000000000E+00 -0.18726935567E+04  0.18726935567E+04  0.50400001928E-02 0.  1.
    10030    2    1    2    0    0  0.00000000000E+00  0.00000000000E+00 -0.13355584317E+04  0.24098286818E+04  0.20058808417E+04 0.  0.
        5    1    3    3  502    0 -0.93856204161E+03  0.19054374676E+02 -0.10918612345E+04  0.14399461172E+04  0.46999998093E+01 0.  1.
       -5    1    3    3    0  502  0.93856204161E+03 -0.19054374676E+02 -0.24369719719E+03  0.96988256457E+03  0.46999998093E+01 0. -1.
</event>
<event>
 5   0  0.6214547E-05  0.2001733E+04  0.7818609E-02  0.8605811E-01
       -1   -1    0    0    0  501  0.00000000000E+00  0.00000000000E+00  0.64747555132E+03  0.64747555134E+03  0.50400001928E-02 0. -1.
        1   -1    0    0  501    0  0.00000000000E+00  0.00000000000E+00 -0.15471377823E+04  0.15471377823E+04  0.50400001928E-02 0.  1.
    10030    2    1    2    0    0  0.00000000000E+00  0.00000000000E+00 -0.89966223094E+03  0.21946133336E+04  0.20017331376E+04 0.  0.
        3    1    3    3  502    0 -0.78657389094E+03  0.37343000984E+03 -0.99093104797E+03  0.13191257750E+04  0.10100000352E+00 0.  1.
       -3    1    3    3    0  502  0.78657389094E+03 -0.37343000984E+03  0.91268817031E+02  0.87548755863E+03  0.10100000352E+00 0. -1.
</event>
<event>
 5   0  0.6214547E-05  0.1964369E+04  0.7818609E-02  0.8623463E-01
       -1   -1    0    0    0  501  0.00000000000E+00  0.00000000000E+00  0.57513263907E+03  0.57513263910E+03  0.50400001928E-02 0. -1.
        1   -1    0    0  501    0  0.00000000000E+00  0.00000000000E+00 -0.16773280327E+04  0.16773280327E+04  0.50400001928E-02 0.  1.
    10030    2    1    2    0    0  0.00000000000E+00  0.00000000000E+00 -0.11021953936E+04  0.22524606718E+04  0.19643687007E+04 0.  0.
        3    1    3    3  502    0  0.89740793865E+03  0.39580847951E+03 -0.49172859076E+03  0.10971792825E+04  0.10100000352E+00 0. -1.
       -3    1    3    3    0  502 -0.89740793865E+03 -0.39580847951E+03 -0.61046680282E+03  0.11552813893E+04  0.10100000352E+00 0.  1.
</event>
<event>
 5   0  0.1281789E-04  0.1992283E+04  0.7818609E-02  0.8610237E-01
       -2   -1    0    0    0  501  0.00000000000E+00  0.00000000000E+00  0.12781467521E+04  0.12781467521E+04  0.25500000920E-02 0. -1.
        2   -1    0    0  501    0  0.00000000000E+00  0.00000000000E+00 -0.77635658895E+03  0.77635658896E+03  0.25500000920E-02 0.  1.
    10030    2    1    2    0    0  0.00000000000E+00  0.00000000000E+00  0.50179016312E+03  0.20545033410E+04  0.19922827637E+04 0.  0.
        2    1    3    3  502    0  0.62874525269E+03 -0.35785223847E+03 -0.45526751905E+03  0.85477911256E+03  0.25500000920E-02 0.  1.
       -2    1    3    3    0  502 -0.62874525269E+03  0.35785223847E+03  0.95705768218E+03  0.11997242285E+04  0.25500000920E-02 0. -1.
</event>
<event>
 5   0  0.1281789E-04  0.1999108E+04  0.7818609E-02  0.8607038E-01
        2   -1    0    0  501    0  0.00000000000E+00  0.00000000000E+00  0.99306909504E+03  0.99306909504E+03  0.25500000920E-02 0. -1.
       -2   -1    0    0    0  501  0.00000000000E+00  0.00000000000E+00 -0.10060807708E+04  0.10060807708E+04  0.25500000920E-02 0.  1.
    10030    2    1    2    0    0  0.00000000000E+00  0.00000000000E+00 -0.13011675757E+02  0.19991498658E+04  0.19991075215E+04 0.  0.
        2    1    3    3  502    0  0.33104804909E+03 -0.91521801278E+03  0.22129472658E+03  0.99809226915E+03  0.25500000920E-02 0. -1.
       -2    1    3    3    0  502 -0.33104804909E+03  0.91521801278E+03 -0.23430640233E+03  0.10010575967E+04  0.25500000920E-02 0.  1.
</event>
<event>
 5   0  0.6028501E-05  0.1999051E+04  0.7818609E-02  0.8607064E-01
       -1   -1    0    0    0  501  0.00000000000E+00  0.00000000000E+00  0.80435695676E+03  0.80435695677E+03  0.50400001928E-02 0.  1.
        1   -1    0    0  501    0  0.00000000000E+00  0.00000000000E+00 -0.12420498267E+04  0.12420498267E+04  0.50400001928E-02 0. -1.
    10030    2    1    2    0    0  0.00000000000E+00  0.00000000000E+00 -0.43769286989E+03  0.20464067834E+04  0.19990511937E+04 0.  0.
        4    1    3    3  502    0 -0.52312974191E+03 -0.54686800288E+03  0.44955310423E+03  0.88024368551E+03  0.12699999809E+01 0.  1.
       -4    1    3    3    0  502  0.52312974191E+03  0.54686800288E+03 -0.88724597413E+03  0.11661630979E+04  0.12699999809E+01 0. -1.
</event>
<event>
 5   0  0.1274868E-04  0.1991487E+04  0.7818609E-02  0.8610611E-01
       -2   -1    0    0    0  501  0.00000000000E+00  0.00000000000E+00  0.10018994288E+04  0.10018994288E+04  0.25500000920E-02 0.  1.
        2   -1    0    0  501    0  0.00000000000E+00  0.00000000000E+00 -0.98962563852E+03  0.98962563852E+03  0.25500000920E-02 0. -1.
    10030    2    1    2    0    0  0.00000000000E+00  0.00000000000E+00  0.12273790310E+02  0.19915250674E+04  0.19914872452E+04 0.  0.
        1    1    3    3  502    0  0.24657740561E+03 -0.96369879529E+03  0.50742416623E+02  0.99603743798E+03  0.50400001928E-02 0.  1.
       -1    1    3    3    0  502 -0.24657740561E+03  0.96369879529E+03 -0.38468626313E+02  0.99548762937E+03  0.50400001928E-02 0. -1.
</event>
<event>
 5   0  0.1244229E-04  0.2008692E+04  0.7818609E-02  0.8602568E-01
       -2   -1    0    0    0  501  0.00000000000E+00  0.00000000000E+00  0.73188171174E+03  0.73188171174E+03  0.25500000920E-02 0.  1.
        2   -1    0    0  501    0  0.00000000000E+00  0.00000000000E+00 -0.13782426167E+04  0.13782426167E+04  0.25500000920E-02 0. -1.
    10030    2    1    2    0    0  0.00000000000E+00  0.00000000000E+00 -0.64636090491E+03  0.21101243284E+04  0.20086916792E+04 0.  0.
        5    1    3    3  502    0 -0.77370138715E+03 -0.24173571341E+03  0.29975487870E+03  0.86424826810E+03  0.46999998093E+01 0.  1.
       -5    1    3    3    0  502  0.77370138715E+03  0.24173571341E+03 -0.94611578361E+03  0.12458760603E+04  0.46999998093E+01 0. -1.
</event>
<event>
 5   0  0.1244229E-04  0.1992699E+04  0.7818609E-02  0.8610042E-01
       -2   -1    0    0    0  501  0.00000000000E+00  0.00000000000E+00  0.80847517827E+03  0.80847517827E+03  0.25500000920E-02 0.  1.
        2   -1    0    0  501    0  0.00000000000E+00  0.00000000000E+00 -0.12278827743E+04  0.12278827744E+04  0.25500000920E-02 0. -1.
    10030    2    1    2    0    0  0.00000000000E+00  0.00000000000E+00 -0.41940759608E+03  0.20363579526E+04  0.19926994203E+04 0.  0.
        5    1    3    3  502    0 -0.34490203168E+03  0.56949925953E+02  0.74373804397E+03  0.82180841659E+03  0.46999998093E+01 0.  1.
       -5    1    3    3    0  502  0.34490203168E+03 -0.56949925953E+02 -0.11631456401E+04  0.12145495360E+04  0.46999998093E+01 0. -1.
</event>
<event>
 5   0  0.1281789E-04  0.1981165E+04  0.7818609E-02  0.8615478E-01
       -2   -1    0    0    0  501  0.00000000000E+00  0.00000000000E+00  0.70682240730E+03  0.70682240730E+03  0.25500000920E-02 0. -1.
        2   -1    0    0  501    0  0.00000000000E+00  0.00000000000E+00 -0.13882601643E+04  0.13882601643E+04  0.25500000920E-02 0.  1.
    10030    2    1    2    0    0  0.00000000000E+00  0.00000000000E+00 -0.68143775698E+03  0.20950825716E+04  0.19811646991E+04 0.  0.
        2    1    3    3  502    0 -0.95002909942E+03  0.21790723733E+03 -0.15388354354E+03  0.98677200954E+03  0.25500000920E-02 0. -1.
       -2    1    3    3    0  502  0.95002909942E+03 -0.21790723733E+03 -0.52755421343E+03  0.11083105620E+04  0.25500000920E-02 0.  1.
</event>
<event>
 5   0  0.4479000E-05  0.1979833E+04  0.7818609E-02  0.8616108E-01
        3   -1    0    0  501    0  0.00000000000E+00  0.00000000000E+00  0.86223208824E+03  0.86223209416E+03  0.10100000352E+00 0.  1.
       -3   -1    0    0    0  501  0.00000000000E+00  0.00000000000E+00 -0.11365086367E+04  0.11365086412E+04  0.10100000352E+00 0. -1.
    10030    2    1    2    0    0  0.00000000000E+00  0.00000000000E+00 -0.27427654850E+03  0.19987407354E+04  0.19798325440E+04 0.  0.
        2    1    3    3  502    0 -0.87651936387E+03  0.21213224784E+03 -0.54926234351E+03  0.10559239593E+04  0.25500000920E-02 0. -1.
       -2    1    3    3    0  502  0.87651936387E+03 -0.21213224784E+03  0.27498579501E+03  0.94281677609E+03  0.25500000920E-02 0.  1.
</event>
<event>
 5   0  0.1159914E-04  0.2022242E+04  0.7818609E-02  0.8596292E-01
       -2   -1    0    0    0  501  0.00000000000E+00  0.00000000000E+00  0.75849765105E+03  0.75849765106E+03  0.25500000920E-02 0.  1.
        2   -1    0    0  501    0  0.00000000000E+00  0.00000000000E+00 -0.13478822310E+04  0.13478822310E+04  0.25500000920E-02 0. -1.
    10030    2    1    2    0    0  0.00000000000E+00  0.00000000000E+00 -0.58938457999E+03  0.21063798821E+04  0.20222418314E+04 0.  0.
        3    1    3    3  502    0 -0.49440471870E+03 -0.21843669027E+03 -0.11847720969E+04  0.13022425064E+04  0.10100000352E+00 0. -1.
       -3    1    3    3    0  502  0.49440471870E+03  0.21843669027E+03  0.59538751694E+03  0.80413737574E+03  0.10100000352E+00 0.  1.
</event>
<event>
 5   0  0.6214547E-05  0.2013524E+04  0.7818609E-02  0.8600324E-01
       -1   -1    0    0    0  501  0.00000000000E+00  0.00000000000E+00  0.68886682298E+03  0.68886682300E+03  0.50400001928E-02 0. -1.
        1   -1    0    0  501    0  0.00000000000E+00  0.00000000000E+00 -0.14713583444E+04  0.14713583444E+04  0.50400001928E-02 0.  1.
    10030    2    1    2    0    0  0.00000000000E+00  0.00000000000E+00 -0.78249152137E+03  0.21602251674E+04  0.20135242220E+04 0.  0.
        3    1    3    3  502    0  0.93334612943E+03  0.15255783924E+03 -0.20898346174E+02  0.94596281254E+03  0.10100000352E+00 0. -1.
       -3    1    3    3    0  502 -0.93334612943E+03 -0.15255783924E+03 -0.76159317519E+03  0.12142623548E+04  0.10100000352E+00 0.  1.
</event>
<event>
 5   0  0.1242761E-04  0.2001751E+04  0.7818609E-02  0.8605802E-01
       -2   -1    0    0    0  501  0.00000000000E+00  0.00000000000E+00  0.80805137597E+03  0.80805137597E+03  0.25500000920E-02 0. -1.
        2   -1    0    0  501    0  0.00000000000E+00  0.00000000000E+00 -0.12397133166E+04  0.12397133166E+04  0.25500000920E-02 0.  1.
    10030    2    1    2    0    0  0.00000000000E+00  0.00000000000E+00 -0.43166194061E+03  0.20477646926E+04  0.20017512845E+04 0.  0.
        4    1    3    3  502    0 -0.59555507233E+03  0.31427801578E+03 -0.97332052922E+03  0.11835586090E+04  0.12699999809E+01 0.  1.
       -4    1    3    3    0  502  0.59555507233E+03 -0.31427801578E+03  0.54165858861E+03  0.86420608358E+03  0.12699999809E+01 0. -1.
</event>
<event>
 5   0  0.6222733E-05  0.2025528E+04  0.7818609E-02  0.8594778E-01
       -1   -1    0    0    0  501  0.00000000000E+00  0.00000000000E+00  0.61456160959E+03  0.61456160961E+03  0.50400001928E-02 0. -1.
        1   -1    0    0  501    0  0.00000000000E+00  0.00000000000E+00 -0.16689795645E+04  0.16689795645E+04  0.50400001928E-02 0.  1.
    10030    2    1    2    0    0  0.00000000000E+00  0.00000000000E+00 -0.10544179549E+04  0.22835411741E+04  0.20255278498E+04 0.  0.
        2    1    3    3  502    0  0.54341275193E+03  0.50108955404E+03  0.25329572438E+03  0.78137499584E+03  0.25500000920E-02 0. -1.
       -2    1    3    3    0  502 -0.54341275193E+03 -0.50108955404E+03 -0.13077136793E+04  0.15021661782E+04  0.25500000920E-02 0.  1.
</event>
<event>
 5   0  0.6256535E-05  0.1992477E+04  0.7818609E-02  0.8610146E-01
        1   -1    0    0  501    0  0.00000000000E+00  0.00000000000E+00  0.16074353730E+04  0.16074353730E+04  0.50400001928E-02 0. -1.
       -1   -1    0    0    0  501  0.00000000000E+00  0.00000000000E+00 -0.61743782629E+03  0.61743782632E+03  0.50400001928E-02 0.  1.
    10030    2    1    2    0    0  0.00000000000E+00  0.00000000000E+00  0.98999754669E+03  0.22248731993E+04  0.19924772547E+04 0.  0.
        1    1    3    3  502    0 -0.78225473019E+03 -0.47242934501E+03  0.52016947448E+02  0.91532382891E+03  0.50400001928E-02 0. -1.
       -1    1    3    3    0  502  0.78225473019E+03  0.47242934501E+03  0.93798059924E+03  0.13095493704E+04  0.50400001928E-02 0.  1.
</event>
<event>
 5   0  0.1244229E-04  0.2011256E+04  0.7818609E-02  0.8601376E-01
       -2   -1    0    0    0  501  0.00000000000E+00  0.00000000000E+00  0.67583234445E+03  0.67583234445E+03  0.25500000920E-02 0.  1.
        2   -1    0    0  501    0  0.00000000000E+00  0.00000000000E+00 -0.14963594196E+04  0.14963594196E+04  0.25500000920E-02 0. -1.
    10030    2    1    2    0    0  0.00000000000E+00  0.00000000000E+00 -0.82052707517E+03  0.21721917641E+04  0.20112564180E+04 0.  0.
        5    1    3    3  502    0 -0.30063280201E+03 -0.73793582730E+03 -0.10728140132E+04  0.13363687230E+04  0.46999998093E+01 0. -1.
       -5    1    3    3    0  502  0.30063280201E+03  0.73793582730E+03  0.25228693806E+03  0.83582304106E+03  0.46999998093E+01 0.  1.
</event>
<event>
 5   0  0.6168338E-05  0.2047127E+04  0.7818609E-02  0.8584899E-01
       -1   -1    0    0    0  501  0.00000000000E+00  0.00000000000E+00  0.88484052234E+03  0.88484052236E+03  0.50400001928E-02 0. -1.
        1   -1    0    0  501    0  0.00000000000E+00  0.00000000000E+00 -0.11840349878E+04  0.11840349878E+04  0.50400001928E-02 0.  1.
    10030    2    1    2    0    0  0.00000000000E+00  0.00000000000E+00 -0.29919446549E+03  0.20688755102E+04  0.20471269009E+04 0.  0.
        5    1    3    3  502    0 -0.67719522382E+03  0.23752704786E+03 -0.88717797925E+03  0.11411044328E+04  0.46999998093E+01 0.  1.
       -5    1    3    3    0  502  0.67719522382E+03 -0.23752704786E+03  0.58798351377E+03  0.92777107742E+03  0.46999998093E+01 0. -1.
</event>
<event>
 5   0  0.1159914E-04  0.1993298E+04  0.7818609E-02  0.8609760E-01
       -2   -1    0    0    0  501  0.00000000000E+00  0.00000000000E+00  0.10674184559E+04  0.10674184559E+04  0.25500000920E-02 0.  1.
        2   -1    0    0  501    0  0.00000000000E+00  0.00000000000E+00 -0.93057166857E+03  0.93057166858E+03  0.25500000920E-02 0. -1.
    10030    2    1    2    0    0  0.00000000000E+00  0.00000000000E+00  0.13684678735E+03  0.19979901245E+04  0.19932981449E+04 0.  0.
        3    1    3    3  502    0  0.55761065619E+03 -0.62267169415E+03 -0.47567999632E+03  0.96172821093E+03  0.10100000352E+00 0. -1.
       -3    1    3    3    0  502 -0.55761065619E+03  0.62267169415E+03  0.61252678367E+03  0.10362619136E+04  0.10100000352E+00 0.  1.
</event>
<event>
 5   0  0.1274868E-04  0.1966212E+04  0.7818609E-02  0.8622582E-01
       -2   -1    0    0    0  501  0.00000000000E+00  0.00000000000E+00  0.79582091583E+03  0.79582091583E+03  0.25500000920E-02 0.  1.
        2   -1    0    0  501    0  0.00000000000E+00  0.00000000000E+00 -0.12144662688E+04  0.12144662688E+04  0.25500000920E-02 0. -1.
    10030    2    1    2    0    0  0.00000000000E+00  0.00000000000E+00 -0.41864535298E+03  0.20102871846E+04  0.19662122554E+04 0.  0.
        1    1    3    3  502    0  0.32422867652E+03 -0.69177596525E+03 -0.84191613365E+03  0.11368821385E+04  0.50400001928E-02 0. -1.
       -1    1    3    3    0  502 -0.32422867652E+03  0.69177596525E+03  0.42327078067E+03  0.87340504611E+03  0.50400001928E-02 0.  1.
</event>
<event>
 5   0  0.6222733E-05  0.2086945E+04  0.7818609E-02  0.8567016E-01
       -1   -1    0    0    0  501  0.00000000000E+00  0.00000000000E+00  0.11748391179E+04  0.11748391179E+04  0.50400001928E-02 0. -1.
        1   -1    0    0  501    0  0.00000000000E+00  0.00000000000E+00 -0.92679487174E+03  0.92679487176E+03  0.50400001928E-02 0.  1.
    10030    2    1    2    0    0  0.00000000000E+00  0.00000000000E+00  0.24804424618E+03  0.21016339897E+04  0.20869450109E+04 0.  0.
        2    1    3    3  502    0  0.26394056891E+03  0.81120893427E+03 -0.48113203561E+03  0.97939399357E+03  0.25500000920E-02 0.  1.
       -2    1    3    3    0  502 -0.26394056891E+03 -0.81120893427E+03  0.72917628179E+03  0.11222399961E+04  0.25500000920E-02 0. -1.
</event>
<event>
 5   0  0.6222733E-05  0.1950441E+04  0.7818609E-02  0.8630148E-01
        1   -1    0    0  501    0  0.00000000000E+00  0.00000000000E+00  0.19280213191E+04  0.19280213192E+04  0.50400001928E-02 0. -1.
       -1   -1    0    0    0  501  0.00000000000E+00  0.00000000000E+00 -0.49328055518E+03  0.49328055521E+03  0.50400001928E-02 0.  1.
    10030    2    1    2    0    0  0.00000000000E+00  0.00000000000E+00  0.14347407640E+04  0.24213018744E+04  0.19504414134E+04 0.  0.
        2    1    3    3  502    0 -0.13513722191E+03  0.71572930045E+03 -0.87659312869E+02  0.73363114397E+03  0.25500000920E-02 0.  1.
       -2    1    3    3    0  502  0.13513722191E+03 -0.71572930045E+03  0.15224000768E+04  0.16876707304E+04  0.25500000920E-02 0. -1.
</event>
<event>
 5   0  0.1159914E-04  0.2024425E+04  0.7818609E-02  0.8595286E-01
       -2   -1    0    0    0  501  0.00000000000E+00  0.00000000000E+00  0.12124749720E+04  0.12124749720E+04  0.25500000920E-02 0. -1.
        2   -1    0    0  501    0  0.00000000000E+00  0.00000000000E+00 -0.84502717819E+03  0.84502717820E+03  0.25500000920E-02 0.  1.
    10030    2    1    2    0    0  0.00000000000E+00  0.00000000000E+00  0.36744779384E+03  0.20575021502E+04  0.20244251572E+04 0.  0.
        3    1    3    3  502    0 -0.15325387429E+03 -0.23672766176E+03  0.11717431427E+04  0.12052007046E+04  0.10100000352E+00 0. -1.
       -3    1    3    3    0  502  0.15325387429E+03  0.23672766176E+03 -0.80429534883E+03  0.85230144561E+03  0.10100000352E+00 0.  1.
</event>
<event>
 5   0  0.1159914E-04  0.1999275E+04  0.7818609E-02  0.8606960E-01
        2   -1    0    0  501    0  0.00000000000E+00  0.00000000000E+00  0.13005916772E+04  0.13005916772E+04  0.25500000920E-02 0. -1.
       -2   -1    0    0    0  501  0.00000000000E+00  0.00000000000E+00 -0.76832323768E+03  0.76832323768E+03  0.25500000920E-02 0.  1.
    10030    2    1    2    0    0  0.00000000000E+00  0.00000000000E+00  0.53226843953E+03  0.20689149149E+04  0.19992746768E+04 0.  0.
        3    1    3    3  502    0  0.58530120414E+03 -0.30165792335E+02 -0.57188055194E+03  0.81886192395E+03  0.10100000352E+00 0.  1.
       -3    1    3    3    0  502 -0.58530120414E+03  0.30165792335E+02  0.11041489915E+04  0.12500529909E+04  0.10100000352E+00 0. -1.
</event>
<event>
 5   0  0.6028501E-05  0.1955349E+04  0.7818609E-02  0.8627786E-01
       -1   -1    0    0    0  501  0.00000000000E+00  0.00000000000E+00  0.60710958656E+03  0.60710958658E+03  0.50400001928E-02 0.  1.
        1   -1    0    0  501    0  0.00000000000E+00  0.00000000000E+00 -0.15744236365E+04  0.15744236365E+04  0.50400001928E-02 0. -1.
    10030    2    1    2    0    0  0.00000000000E+00  0.00000000000E+00 -0.96731404992E+03  0.21815332231E+04  0.19553492609E+04 0.  0.
        4    1    3    3  502    0 -0.30796847258E+03  0.71680035689E+03  0.17373822086E+03  0.79927086399E+03  0.12699999809E+01 0.  1.
       -4    1    3    3    0  502  0.30796847258E+03 -0.71680035689E+03 -0.11410522708E+04  0.13822623591E+04  0.12699999809E+01 0. -1.
</event>
<event>
 5   0  0.6028501E-05  0.2012750E+04  0.7818609E-02  0.8600683E-01
        1   -1    0    0  501    0  0.00000000000E+00  0.00000000000E+00  0.14229779600E+04  0.14229779600E+04  0.50400001928E-02 0.  1.
       -1   -1    0    0    0  501  0.00000000000E+00  0.00000000000E+00 -0.71173995208E+03  0.71173995210E+03  0.50400001928E-02 0. -1.
    10030    2    1    2    0    0  0.00000000000E+00  0.00000000000E+00  0.71123800794E+03  0.21347179121E+04  0.20127496269E+04 0.  0.
        4    1    3    3  502    0 -0.83391555355E+03 -0.20208538294E+03 -0.20211329055E+03  0.88153561900E+03  0.12699999809E+01 0.  1.
       -4    1    3    3    0  502  0.83391555355E+03  0.20208538294E+03  0.91335129849E+03  0.12531822931E+04  0.12699999809E+01 0. -1.
</event>
<event>
 5   0  0.6256535E-05  0.1981589E+04  0.7818609E-02  0.8615277E-01
       -1   -1    0    0    0  501  0.00000000000E+00  0.00000000000E+00  0.93944055402E+03  0.93944055403E+03  0.50400001928E-02 0. -1.
        1   -1    0    0  501    0  0.00000000000E+00  0.00000000000E+00 -0.10449558956E+04  0.10449558956E+04  0.50400001928E-02 0.  1.
    10030    2    1    2    0    0  0.00000000000E+00  0.00000000000E+00 -0.10551534160E+03  0.19843964497E+04  0.19815892062E+04 0.  0.
        1    1    3    3  502    0  0.86093646491E+02  0.25511813308E+03  0.90210063564E+03  0.94142601124E+03  0.50400001928E-02 0. -1.
       -1    1    3    3    0  502 -0.86093646491E+02 -0.25511813308E+03 -0.10076159772E+04  0.10429704384E+04  0.50400001928E-02 0.  1.
</event>
<event>
 5   0  0.6256535E-05  0.2003863E+04  0.7818609E-02  0.8604817E-01
       -1   -1    0    0    0  501  0.00000000000E+00  0.00000000000E+00  0.14803526661E+04  0.14803526661E+04  0.50400001928E-02 0. -1.
        1   -1    0    0  501    0  0.00000000000E+00  0.00000000000E+00 -0.67812701888E+03  0.67812701890E+03  0.50400001928E-02 0.  1.
    10030    2    1    2    0    0  0.00000000000E+00  0.00000000000E+00  0.80222564719E+03  0.21584796850E+04  0.20038634089E+04 0.  0.
        1    1    3    3  502    0  0.21654177730E+03 -0.52410825921E+03 -0.48862797291E+03  0.74855668097E+03  0.50400001928E-02 0.  1.
       -1    1    3    3    0  502 -0.21654177730E+03  0.52410825921E+03  0.12908536201E+04  0.14099230040E+04  0.50400001928E-02 0. -1.
</event>
<event>
 5   0  0.6222733E-05  0.2001619E+04  0.7818609E-02  0.8605864E-01
        1   -1    0    0  501    0  0.00000000000E+00  0.00000000000E+00  0.11747363762E+04  0.11747363762E+04  0.50400001928E-02 0. -1.
       -1   -1    0    0    0  501  0.00000000000E+00  0.00000000000E+00 -0.85263347436E+03  0.85263347437E+03  0.50400001928E-02 0.  1.
    10030    2    1    2    0    0  0.00000000000E+00  0.00000000000E+00  0.32210290182E+03  0.20273698506E+04  0.20016189027E+04 0.  0.
        2    1    3    3  502    0 -0.20551477454E+03  0.30268056728E+03 -0.78247337727E+03  0.86378031611E+03  0.25500000920E-02 0.  1.
       -2    1    3    3    0  502  0.20551477454E+03 -0.30268056728E+03  0.11045762791E+04  0.11635895345E+04  0.25500000920E-02 0. -1.
</event>
<event>
 5   0  0.6168338E-05  0.1999906E+04  0.7818609E-02  0.8606665E-01
        1   -1    0    0  501    0  0.00000000000E+00  0.00000000000E+00  0.19142528796E+04  0.19142528796E+04  0.50400001928E-02 0. -1.
       -1   -1    0    0    0  501  0.00000000000E+00  0.00000000000E+00 -0.52234799407E+03  0.52234799409E+03  0.50400001928E-02 0.  1.
    10030    2    1    2    0    0  0.00000000000E+00  0.00000000000E+00  0.13919048855E+04  0.24366008737E+04  0.19999061496E+04 0.  0.
        5    1    3    3  502    0  0.29213116347E+03  0.14527001129E+03  0.18475679191E+04  0.18761591880E+04  0.46999998093E+01 0. -1.
       -5    1    3    3    0  502 -0.29213116347E+03 -0.14527001129E+03 -0.45566303363E+03  0.56044168569E+03  0.46999998093E+01 0.  1.
</event>
<event>
 5   0  0.6222733E-05  0.1965186E+04  0.7818609E-02  0.8623073E-01
        1   -1    0    0  501    0  0.00000000000E+00  0.00000000000E+00  0.16321945549E+04  0.16321945549E+04  0.50400001928E-02 0.  1.
       -1   -1    0    0    0  501  0.00000000000E+00  0.00000000000E+00 -0.59152787159E+03  0.59152787161E+03  0.50400001928E-02 0. -1.
    10030    2    1    2    0    0  0.00000000000E+00  0.00000000000E+00  0.10406666833E+04  0.22237224265E+04  0.19651855598E+04 0.  0.
        2    1    3    3  502    0  0.57378612482E+02 -0.26771519025E+02  0.16298837508E+04  0.16311131354E+04  0.25500000920E-02 0.  1.
       -2    1    3    3    0  502 -0.57378612482E+02  0.26771519025E+02 -0.58921706743E+03  0.59260929115E+03  0.25500000920E-02 0. -1.
</event>
<event>
 5   0  0.1274868E-04  0.2000412E+04  0.7818609E-02  0.8606428E-01
        2   -1    0    0  501    0  0.00000000000E+00  0.00000000000E+00  0.85952051682E+03  0.85952051683E+03  0.25500000920E-02 0.  1.
       -2   -1    0    0    0  501  0.00000000000E+00  0.00000000000E+00 -0.11639190346E+04  0.11639190346E+04  0.25500000920E-02 0. -1.
    10030    2    1    2    0    0  0.00000000000E+00  0.00000000000E+00 -0.30439851780E+03  0.20234395514E+04  0.20004122477E+04 0.  0.
        1    1    3    3  502    0  0.94597795781E+03  0.32177939173E+03 -0.19739034719E+03  0.10185181504E+04  0.50400001928E-02 0.  1.
       -1    1    3    3    0  502 -0.94597795781E+03 -0.32177939173E+03 -0.10700817061E+03  0.10049214010E+04  0.50400001928E-02 0. -1.
</event>
<event>
 5   0  0.1274868E-04  0.2003410E+04  0.7818609E-02  0.8605028E-01
       -2   -1    0    0    0  501  0.00000000000E+00  0.00000000000E+00  0.69390820629E+03  0.69390820630E+03  0.25500000920E-02 0. -1.
        2   -1    0    0  501    0  0.00000000000E+00  0.00000000000E+00 -0.14460314370E+04  0.14460314370E+04  0.25500000920E-02 0.  1.
    10030    2    1    2    0    0  0.00000000000E+00  0.00000000000E+00 -0.75212323073E+03  0.21399396433E+04  0.20034101734E+04 0.  0.
        1    1    3    3  502    0 -0.62016801672E+03  0.76524288560E+03 -0.57071109933E+03  0.11383831525E+04  0.50400001928E-02 0.  1.
       -1    1    3    3    0  502  0.62016801672E+03 -0.76524288560E+03 -0.18141213140E+03  0.10015564908E+04  0.50400001928E-02 0. -1.
</event>
<event>
 5   0  0.1281789E-04  0.2017271E+04  0.7818609E-02  0.8598588E-01
        2   -1    0    0  501    0  0.00000000000E+00  0.00000000000E+00  0.12778842632E+04  0.12778842632E+04  0.25500000920E-02 0. -1.
       -2   -1    0    0    0  501  0.00000000000E+00  0.00000000000E+00 -0.79611717544E+03  0.79611717544E+03  0.25500000920E-02 0.  1.
    10030    2    1    2    0    0  0.00000000000E+00  0.00000000000E+00  0.48176708779E+03  0.20740014387E+04  0.20172710380E+04 0.  0.
        2    1    3    3  502    0  0.65153824367E+03 -0.73008624408E+03 -0.10570893785E+02  0.97859069613E+03  0.25500000920E-02 0.  1.
       -2    1    3    3    0  502 -0.65153824367E+03  0.73008624408E+03  0.49233798157E+03  0.10954107425E+04  0.25500000920E-02 0. -1.
</event>
<event>
 5   0  0.6028501E-05  0.1987146E+04  0.7818609E-02  0.8612654E-01
       -1   -1    0    0    0  501  0.00000000000E+00  0.00000000000E+00  0.15187325351E+04  0.15187325351E+04  0.50400001928E-02 0.  1.
        1   -1    0    0  501    0  0.00000000000E+00  0.00000000000E+00 -0.65000723307E+03  0.65000723309E+03  0.50400001928E-02 0. -1.
    10030    2    1    2    0    0  0.00000000000E+00  0.00000000000E+00  0.86872530201E+03  0.21687397682E+04  0.19871458255E+04 0.  0.
        4    1    3    3  502    0 -0.20187574997E+03 -0.53864682955E+03 -0.44978750171E+03  0.73020862430E+03  0.12699999809E+01 0. -1.
       -4    1    3    3    0  502  0.20187574997E+03  0.53864682955E+03  0.13185128037E+04  0.14385311439E+04  0.12699999809E+01 0.  1.
</event>
<event>
 5   0  0.6028501E-05  0.1978895E+04  0.7818609E-02  0.8616552E-01
        1   -1    0    0  501    0  0.00000000000E+00  0.00000000000E+00  0.13354696838E+04  0.13354696838E+04  0.50400001928E-02 0. -1.
       -1   -1    0    0    0  501  0.00000000000E+00  0.00000000000E+00 -0.73308037968E+03  0.73308037969E+03  0.50400001928E-02 0.  1.
    10030    2    1    2    0    0  0.00000000000E+00  0.00000000000E+00  0.60238930409E+03  0.20685500635E+04  0.19788952704E+04 0.  0.
        4    1    3    3  502    0 -0.87774028414E+03  0.43250872267E+03  0.14787570867E+03  0.98962651525E+03  0.12699999809E+01 0. -1.
       -4    1    3    3    0  502  0.87774028414E+03 -0.43250872267E+03  0.45451359542E+03  0.10789235482E+04  0.12699999809E+01 0.  1.
</event>
<event>
 5   0  0.6256535E-05  0.2051532E+04  0.7818609E-02  0.8582900E-01
        1   -1    0    0  501    0  0.00000000000E+00  0.00000000000E+00  0.95883779019E+03  0.95883779020E+03  0.50400001928E-02 0.  1.
       -1   -1    0    0    0  501  0.00000000000E+00  0.00000000000E+00 -0.10973662665E+04  0.10973662666E+04  0.50400001928E-02 0. -1.
    10030    2    1    2    0    0  0.00000000000E+00  0.00000000000E+00 -0.13852847636E+03  0.20562040568E+04  0.20515323503E+04 0.  0.
        1    1    3    3  502    0  0.42368872394E+03 -0.89837572026E+03  0.18745410194E+03  0.10108066630E+04  0.50400001928E-02 0.  1.
       -1    1    3    3    0  502 -0.42368872394E+03  0.89837572026E+03 -0.32598257830E+03  0.10453973938E+04  0.50400001928E-02 0. -1.
</event>
<event>
 5   0  0.6222733E-05  0.1977654E+04  0.7818609E-02  0.8617140E-01
       -1   -1    0    0    0  501  0.00000000000E+00  0.00000000000E+00  0.17071948830E+04  0.17071948830E+04  0.50400001928E-02 0.  1.
        1   -1    0    0  501    0  0.00000000000E+00  0.00000000000E+00 -0.57273984033E+03  0.57273984035E+03  0.50400001928E-02 0. -1.
    10030    2    1    2    0    0  0.00000000000E+00  0.00000000000E+00  0.11344550427E+04  0.22799347234E+04  0.19776536853E+04 0.  0.
        2    1    3    3  502    0 -0.55714533345E+03 -0.67070543116E+03  0.11049071605E+04  0.14075072047E+04  0.25500000920E-02 0.  1.
       -2    1    3    3    0  502  0.55714533345E+03  0.67070543116E+03  0.29547882167E+02  0.87242751866E+03  0.25500000920E-02 0. -1.
</event>
<event>
 5   0  0.6222733E-05  0.2066430E+04  0.7818609E-02  0.8576177E-01
       -1   -1    0    0    0  501  0.00000000000E+00  0.00000000000E+00  0.18002780970E+04  0.18002780970E+04  0.50400001928E-02 0.  1.
        1   -1    0    0  501    0  0.00000000000E+00  0.00000000000E+00 -0.59298230490E+03  0.59298230492E+03  0.50400001928E-02 0. -1.
    10030    2    1    2    0    0  0.00000000000E+00  0.00000000000E+00  0.12072957921E+04  0.23932604020E+04  0.20664298251E+04 0.  0.
        2    1    3    3  502    0  0.57950412533E+03 -0.85492566278E+03  0.63661251605E+03  0.12132594182E+04  0.25500000920E-02 0.  1.
       -2    1    3    3    0  502 -0.57950412533E+03  0.85492566278E+03  0.57068327608E+03  0.11800009838E+04  0.25500000920E-02 0. -1.
</event>
<event>
 5   0  0.1159914E-04  0.2039356E+04  0.7818609E-02  0.8588438E-01
       -2   -1    0    0    0  501  0.00000000000E+00  0.00000000000E+00  0.18496016051E+04  0.18496016051E+04  0.25500000920E-02 0.  1.
        2   -1    0    0  501    0  0.00000000000E+00  0.00000000000E+00 -0.56214425822E+03  0.56214425822E+03  0.25500000920E-02 0. -1.
    10030    2    1    2    0    0  0.00000000000E+00  0.00000000000E+00  0.12874573469E+04  0.24117458633E+04  0.20393557044E+04 0.  0.
        3    1    3    3  502    0  0.48034195111E+03 -0.50548571648E+03 -0.23609748047E+03  0.73619714075E+03  0.10100000352E+00 0. -1.
       -3    1    3    3    0  502 -0.48034195111E+03  0.50548571648E+03  0.15235548273E+04  0.16755487225E+04  0.10100000352E+00 0.  1.
</event>
<event>
 5   0  0.1274868E-04  0.1954416E+04  0.7818609E-02  0.8628234E-01
        2   -1    0    0  501    0  0.00000000000E+00  0.00000000000E+00  0.25891800405E+04  0.25891800405E+04  0.25500000920E-02 0. -1.
       -2   -1    0    0    0  501  0.00000000000E+00  0.00000000000E+00 -0.36881785388E+03  0.36881785388E+03  0.25500000920E-02 0.  1.
    10030    2    1    2    0    0  0.00000000000E+00  0.00000000000E+00  0.22203621866E+04  0.29579978944E+04  0.19544163588E+04 0.  0.
        1    1    3    3  502    0 -0.95076192260E+03 -0.21621455030E+03  0.12087194552E+04  0.15529648054E+04  0.50400001928E-02 0.  1.
       -1    1    3    3    0  502  0.95076192260E+03  0.21621455030E+03  0.10116427314E+04  0.14050330890E+04  0.50400001928E-02 0. -1.
</event>
<event>
 5   0  0.1159914E-04  0.1936960E+04  0.7818609E-02  0.8636675E-01
       -2   -1    0    0    0  501  0.00000000000E+00  0.00000000000E+00  0.66629821548E+03  0.66629821549E+03  0.25500000920E-02 0.  1.
        2   -1    0    0  501    0  0.00000000000E+00  0.00000000000E+00 -0.14077076861E+04  0.14077076861E+04  0.25500000920E-02 0. -1.
    10030    2    1    2    0    0  0.00000000000E+00  0.00000000000E+00 -0.74140947062E+03  0.20740059016E+04  0.19369595960E+04 0.  0.
        3    1    3    3  502    0 -0.83526670454E+03  0.47918717926E+02 -0.89305946376E+03  0.12237327679E+04  0.10100000352E+00 0. -1.
       -3    1    3    3    0  502  0.83526670454E+03 -0.47918717926E+02  0.15164999315E+03  0.85027313368E+03  0.10100000352E+00 0.  1.
</event>
<event>
 5   0  0.6256535E-05  0.2045328E+04  0.7818609E-02  0.8585717E-01
       -1   -1    0    0    0  501  0.00000000000E+00  0.00000000000E+00  0.75307122902E+03  0.75307122904E+03  0.50400001928E-02 0. -1.
        1   -1    0    0  501    0  0.00000000000E+00  0.00000000000E+00 -0.13887682171E+04  0.13887682171E+04  0.50400001928E-02 0.  1.
    10030    2    1    2    0    0  0.00000000000E+00  0.00000000000E+00 -0.63569698806E+03  0.21418394461E+04  0.20453277372E+04 0.  0.
        1    1    3    3  502    0 -0.94552840741E+03 -0.38939350543E+03 -0.30340958995E+03  0.10666342628E+04  0.50400001928E-02 0.  1.
       -1    1    3    3    0  502  0.94552840741E+03  0.38939350543E+03 -0.33228739810E+03  0.10752051833E+04  0.50400001928E-02 0. -1.
</event>
<event>
 5   0  0.1281789E-04  0.2005657E+04  0.7818609E-02  0.8603980E-01
       -2   -1    0    0    0  501  0.00000000000E+00  0.00000000000E+00  0.13616870600E+04  0.13616870600E+04  0.25500000920E-02 0. -1.
        2   -1    0    0  501    0  0.00000000000E+00  0.00000000000E+00 -0.73854356398E+03  0.73854356399E+03  0.25500000920E-02 0.  1.
    10030    2    1    2    0    0  0.00000000000E+00  0.00000000000E+00  0.62314349605E+03  0.21002306240E+04  0.20056572133E+04 0.  0.
        2    1    3    3  502    0  0.71330631037E+03  0.13586150820E+03  0.10358514327E+04  0.12650108429E+04  0.25500000920E-02 0. -1.
       -2    1    3    3    0  502 -0.71330631037E+03 -0.13586150820E+03 -0.41270793670E+03  0.83521978116E+03  0.25500000920E-02 0.  1.
</event>
<event>
 5   0  0.1281789E-04  0.2000944E+04  0.7818609E-02  0.8606179E-01
        2   -1    0    0  501    0  0.00000000000E+00  0.00000000000E+00  0.81515603474E+03  0.81515603474E+03  0.25500000920E-02 0. -1.
       -2   -1    0    0    0  501  0.00000000000E+00  0.00000000000E+00 -0.12279172247E+04  0.12279172247E+04  0.25500000920E-02 0.  1.
    10030    2    1    2    0    0  0.00000000000E+00  0.00000000000E+00 -0.41276118996E+03  0.20430732595E+04  0.20009439131E+04 0.  0.
        2    1    3    3  502    0 -0.41677712177E+03  0.90506371752E+03 -0.29827911680E+03  0.10401028476E+04  0.25500000920E-02 0.  1.
       -2    1    3    3    0  502  0.41677712177E+03 -0.90506371752E+03 -0.11448207316E+03  0.10029704119E+04  0.25500000920E-02 0. -1.
</event>
<event>
 5   0  0.6256535E-05  0.1978013E+04  0.7818609E-02  0.8616970E-01
        1   -1    0    0  501    0  0.00000000000E+00  0.00000000000E+00  0.76594977807E+03  0.76594977809E+03  0.50400001928E-02 0.  1.
       -1   -1    0    0    0  501  0.00000000000E+00  0.00000000000E+00 -0.12770203558E+04  0.12770203559E+04  0.50400001928E-02 0. -1.
    10030    2    1    2    0    0  0.00000000000E+00  0.00000000000E+00 -0.51107057778E+03  0.20429701339E+04  0.19780125967E+04 0.  0.
        1    1    3    3  502    0  0.91147846511E+03  0.84209522594E+02  0.13126179862E+03  0.92472368622E+03  0.50400001928E-02 0.  1.
       -1    1    3    3    0  502 -0.91147846511E+03 -0.84209522594E+02 -0.64233237639E+03  0.11182464477E+04  0.50400001928E-02 0. -1.
</event>
<event>
 5   0  0.6028501E-05  0.1990316E+04  0.7818609E-02  0.8611162E-01
       -1   -1    0    0    0  501  0.00000000000E+00  0.00000000000E+00  0.65894378003E+03  0.65894378005E+03  0.50400001928E-02 0.  1.
        1   -1    0    0  501    0  0.00000000000E+00  0.00000000000E+00 -0.15029190823E+04  0.15029190823E+04  0.50400001928E-02 0. -1.
    10030    2    1    2    0    0  0.00000000000E+00  0.00000000000E+00 -0.84397530224E+03  0.21618628623E+04  0.19903157349E+04 0.  0.
        4    1    3    3  502    0  0.68789242044E+03 -0.58625121356E+03 -0.87435858738E+03  0.12575337052E+04  0.12699999809E+01 0. -1.
       -4    1    3    3    0  502 -0.68789242044E+03  0.58625121356E+03  0.30383285142E+02  0.90432915712E+03  0.12699999809E+01 0.  1.
</event>
<event>
 5   0  0.6168338E-05  0.1950211E+04  0.7818609E-02  0.8630259E-01
       -1   -1    0    0    0  501  0.00000000000E+00  0.00000000000E+00  0.62238170266E+03  0.62238170268E+03  0.50400001928E-02 0. -1.
        1   -1    0    0  501    0  0.00000000000E+00  0.00000000000E+00 -0.15277289823E+04  0.15277289823E+04  0.50400001928E-02 0.  1.
    10030    2    1    2    0    0  0.00000000000E+00  0.00000000000E+00 -0.90534727963E+03  0.21501106850E+04  0.19502108247E+04 0.  0.
        5    1    3    3  502    0 -0.60694385368E+03 -0.22425491858E+03  0.35157647619E+03  0.73640968125E+03  0.46999998093E+01 0. -1.
       -5    1    3    3    0  502  0.60694385368E+03  0.22425491858E+03 -0.12569237558E+04  0.14137010037E+04  0.46999998093E+01 0.  1.
</event>
<event>
 5   0  0.1242761E-04  0.2001720E+04  0.7818609E-02  0.8605817E-01
       -2   -1    0    0    0  501  0.00000000000E+00  0.00000000000E+00  0.42537829063E+03  0.42537829063E+03  0.25500000920E-02 0.  1.
        2   -1    0    0  501    0  0.00000000000E+00  0.00000000000E+00 -0.23548940828E+04  0.23548940828E+04  0.25500000920E-02 0. -1.
    10030    2    1    2    0    0  0.00000000000E+00  0.00000000000E+00 -0.19295157922E+04  0.27802723735E+04  0.20017200799E+04 0.  0.
        4    1    3    3  502    0  0.82021196619E+03  0.17484656305E+03 -0.17234814483E+04  0.19166921781E+04  0.12699999809E+01 0. -1.
       -4    1    3    3    0  502 -0.82021196619E+03 -0.17484656305E+03 -0.20603434394E+03  0.86358019539E+03  0.12699999809E+01 0.  1.
</event>
<event>
 5   0  0.6168338E-05  0.1983128E+04  0.7818609E-02  0.8614550E-01
       -1   -1    0    0    0  501  0.00000000000E+00  0.00000000000E+00  0.60493418284E+03  0.60493418286E+03  0.50400001928E-02 0. -1.
        1   -1    0    0  501    0  0.00000000000E+00  0.00000000000E+00 -0.16252989570E+04  0.16252989570E+04  0.50400001928E-02 0.  1.
    10030    2    1    2    0    0  0.00000000000E+00  0.00000000000E+00 -0.10203647742E+04  0.22302331399E+04  0.19831277281E+04 0.  0.
        5    1    3    3  502    0  0.23450482912E+03 -0.95275030338E+03 -0.34935557420E+03  0.10415359152E+04  0.46999998093E+01 0. -1.
       -5    1    3    3    0  502 -0.23450482912E+03  0.95275030338E+03 -0.67100919999E+03  0.11886972247E+04  0.46999998093E+01 0.  1.
</event>
<event>
 5   0  0.1159914E-04  0.1977790E+04  0.7818609E-02  0.8617076E-01
       -2   -1    0    0    0  501  0.00000000000E+00  0.00000000000E+00  0.59115055742E+03  0.59115055742E+03  0.25500000920E-02 0. -1.
        2   -1    0    0  501    0  0.00000000000E+00  0.00000000000E+00 -0.16542534165E+04  0.16542534165E+04  0.25500000920E-02 0.  1.
    10030    2    1    2    0    0  0.00000000000E+00  0.00000000000E+00 -0.10631028591E+04  0.22454039740E+04  0.19777895028E+04 0.  0.
        3    1    3    3  502    0 -0.80071088950E+03 -0.15052833586E+03  0.10474505690E+03  0.82144278291E+03  0.10100000352E+00 0. -1.
       -3    1    3    3    0  502  0.80071088950E+03  0.15052833586E+03 -0.11678479160E+04  0.14239611910E+04  0.10100000352E+00 0.  1.
</event>
<event>
 5   0  0.6168338E-05  0.2011968E+04  0.7818609E-02  0.8601046E-01
        1   -1    0    0  501    0  0.00000000000E+00  0.00000000000E+00  0.25246566642E+04  0.25246566643E+04  0.50400001928E-02 0.  1.
       -1   -1    0    0    0  501  0.00000000000E+00  0.00000000000E+00 -0.40084802677E+03  0.40084802680E+03  0.50400001928E-02 0. -1.
    10030    2    1    2    0    0  0.00000000000E+00  0.00000000000E+00  0.21238086375E+04  0.29255046911E+04  0.20119678349E+04 0.  0.
        5    1    3    3  502    0  0.66680446206E+03  0.75321583018E+03  0.10682880420E+04  0.14673866935E+04  0.46999998093E+01 0.  1.
       -5    1    3    3    0  502 -0.66680446206E+03 -0.75321583018E+03  0.10555205954E+04  0.14581179976E+04  0.46999998093E+01 0. -1.
</event>
<event>
 5   0  0.6214547E-05  0.1990243E+04  0.7818609E-02  0.8611196E-01
        1   -1    0    0  501    0  0.00000000000E+00  0.00000000000E+00  0.13382610736E+04  0.13382610736E+04  0.50400001928E-02 0.  1.
       -1   -1    0    0    0  501  0.00000000000E+00  0.00000000000E+00 -0.73996499837E+03  0.73996499838E+03  0.50400001928E-02 0. -1.
    10030    2    1    2    0    0  0.00000000000E+00  0.00000000000E+00  0.59829607520E+03  0.20782260720E+04  0.19902425512E+04 0.  0.
        3    1    3    3  502    0  0.93899138038E+03 -0.13514335086E+03  0.61292812452E+03  0.11294465165E+04  0.10100000352E+00 0.  1.
       -3    1    3    3    0  502 -0.93899138038E+03  0.13514335086E+03 -0.14632049321E+02  0.94877955541E+03  0.10100000352E+00 0. -1.
</event>
<event>
 5   0  0.6214547E-05  0.2025612E+04  0.7818609E-02  0.8594739E-01
       -1   -1    0    0    0  501  0.00000000000E+00  0.00000000000E+00  0.97531228086E+03  0.97531228087E+03  0.50400001928E-02 0. -1.
        1   -1    0    0  501    0  0.00000000000E+00  0.00000000000E+00 -0.10517412529E+04  0.10517412529E+04  0.50400001928E-02 0.  1.
    10030    2    1    2    0    0  0.00000000000E+00  0.00000000000E+00 -0.76428972033E+02  0.20270535338E+04  0.20256121645E+04 0.  0.
        3    1    3    3  502    0 -0.17678951740E+03  0.99167508538E+03  0.67227190762E+02  0.10095511447E+04  0.10100000352E+00 0. -1.
       -3    1    3    3    0  502  0.17678951740E+03 -0.99167508538E+03 -0.14365616280E+03  0.10175023891E+04  0.10100000352E+00 0.  1.
</event>
<event>
 5   0  0.6168338E-05  0.1989080E+04  0.7818609E-02  0.8611743E-01
        1   -1    0    0  501    0  0.00000000000E+00  0.00000000000E+00  0.28457777408E+04  0.28457777408E+04  0.50400001928E-02 0.  1.
       -1   -1    0    0    0  501  0.00000000000E+00  0.00000000000E+00 -0.34757101144E+03  0.34757101148E+03  0.50400001928E-02 0. -1.
    10030    2    1    2    0    0  0.00000000000E+00  0.00000000000E+00  0.24982067293E+04  0.31933487522E+04  0.19890800364E+04 0.  0.
        5    1    3    3  502    0  0.89614004289E+03 -0.36834191844E+03  0.16093270946E+04  0.18784830403E+04  0.46999998093E+01 0. -1.
       -5    1    3    3    0  502 -0.89614004289E+03  0.36834191844E+03  0.88887963469E+03  0.13148657119E+04  0.46999998093E+01 0.  1.
</event>
<event>
 5   0  0.1242761E-04  0.1696547E+04  0.7818609E-02  0.8763336E-01
        2   -1    0    0  501    0  0.00000000000E+00  0.00000000000E+00  0.36772239546E+03  0.36772239547E+03  0.25500000920E-02 0.  1.
       -2   -1    0    0    0  501  0.00000000000E+00  0.00000000000E+00 -0.19568235154E+04  0.19568235154E+04  0.25500000920E-02 0. -1.
    10030    2    1    2    0    0  0.00000000000E+00  0.00000000000E+00 -0.15891011199E+04  0.23245459109E+04  0.16965468819E+04 0.  0.
        4    1    3    3  502    0  0.27987274845E+03  0.43665422525E+03  0.12516527491E+03  0.53353877712E+03  0.12699999809E+01 0.  1.
       -4    1    3    3    0  502 -0.27987274845E+03 -0.43665422525E+03 -0.17142663948E+04  0.17910071337E+04  0.12699999809E+01 0. -1.
</event>
<event>
 5   0  0.1159914E-04  0.1995119E+04  0.7818609E-02  0.8608906E-01
        2   -1    0    0  501    0  0.00000000000E+00  0.00000000000E+00  0.18612504279E+04  0.18612504279E+04  0.25500000920E-02 0. -1.
       -2   -1    0    0    0  501  0.00000000000E+00  0.00000000000E+00 -0.53465405362E+03  0.53465405363E+03  0.25500000920E-02 0.  1.
    10030    2    1    2    0    0  0.00000000000E+00  0.00000000000E+00  0.13265963742E+04  0.23959044815E+04  0.19951191304E+04 0.  0.
        3    1    3    3  502    0 -0.32192789508E+03  0.88321059144E+02  0.17921836348E+04  0.18230086040E+04  0.10100000352E+00 0. -1.
       -3    1    3    3    0  502  0.32192789508E+03 -0.88321059144E+02 -0.46558726054E+03  0.57289587754E+03  0.10100000352E+00 0.  1.
</event>
<event>
 5   0  0.1281789E-04  0.2017075E+04  0.7818609E-02  0.8598679E-01
        2   -1    0    0  501    0  0.00000000000E+00  0.00000000000E+00  0.11031698603E+04  0.11031698603E+04  0.25500000920E-02 0. -1.
       -2   -1    0    0    0  501  0.00000000000E+00  0.00000000000E+00 -0.92202304135E+03  0.92202304135E+03  0.25500000920E-02 0.  1.
    10030    2    1    2    0    0  0.00000000000E+00  0.00000000000E+00  0.18114681897E+03  0.20251929017E+04  0.20170751396E+04 0.  0.
        2    1    3    3  502    0  0.15492082986E+03 -0.46210923423E+03 -0.79593113294E+03  0.93330154627E+03  0.25500000920E-02 0.  1.
       -2    1    3    3    0  502 -0.15492082986E+03  0.46210923423E+03  0.97707795191E+03  0.10918913554E+04  0.25500000920E-02 0. -1.
</event>
<event>
 5   0  0.1274868E-04  0.1956471E+04  0.7818609E-02  0.8627247E-01
       -2   -1    0    0    0  501  0.00000000000E+00  0.00000000000E+00  0.11338771407E+04  0.11338771407E+04  0.25500000920E-02 0. -1.
        2   -1    0    0  501    0  0.00000000000E+00  0.00000000000E+00 -0.84395809887E+03  0.84395809888E+03  0.25500000920E-02 0.  1.
    10030    2    1    2    0    0  0.00000000000E+00  0.00000000000E+00  0.28991904180E+03  0.19778352396E+04  0.19564711048E+04 0.  0.
        1    1    3    3  502    0  0.79337756878E+03 -0.54381875365E+03  0.32511322392E+03  0.10153252739E+04  0.50400001928E-02 0. -1.
       -1    1    3    3    0  502 -0.79337756878E+03  0.54381875365E+03 -0.35194182120E+02  0.96250996564E+03  0.50400001928E-02 0.  1.
</event>
<event>
 5   0  0.1244229E-04  0.1976882E+04  0.7818609E-02  0.8617506E-01
        2   -1    0    0  501    0  0.00000000000E+00  0.00000000000E+00  0.11235142313E+04  0.11235142313E+04  0.25500000920E-02 0. -1.
       -2   -1    0    0    0  501  0.00000000000E+00  0.00000000000E+00 -0.86960700411E+03  0.86960700412E+03  0.25500000920E-02 0.  1.
    10030    2    1    2    0    0  0.00000000000E+00  0.00000000000E+00  0.25390722716E+03  0.19931212354E+04  0.19768822370E+04 0.  0.
        5    1    3    3  502    0 -0.71866234221E+03  0.58492740050E+03 -0.21993388807E+03  0.95237000745E+03  0.46999998093E+01 0.  1.
       -5    1    3    3    0  502  0.71866234221E+03 -0.58492740050E+03  0.47384111523E+03  0.10407512279E+04  0.46999998093E+01 0. -1.
</event>
<event>
 5   0  0.1159914E-04  0.2002951E+04  0.7818609E-02  0.8605242E-01
        2   -1    0    0  501    0  0.00000000000E+00  0.00000000000E+00  0.11243288348E+04  0.11243288348E+04  0.25500000920E-02 0.  1.
       -2   -1    0    0    0  501  0.00000000000E+00  0.00000000000E+00 -0.89204609117E+03  0.89204609117E+03  0.25500000920E-02 0. -1.
    10030    2    1    2    0    0  0.00000000000E+00  0.00000000000E+00  0.23228274362E+03  0.20163749260E+04  0.20029509652E+04 0.  0.
        3    1    3    3  502    0  0.76288070973E+02  0.87766760748E+03  0.59560308122E+03  0.10634205845E+04  0.10100000352E+00 0.  1.
       -3    1    3    3    0  502 -0.76288070973E+02 -0.87766760748E+03 -0.36332033760E+03  0.95295434146E+03  0.10100000352E+00 0. -1.
</event>
<event>
 5   0  0.6256535E-05  0.1968390E+04  0.7818609E-02  0.8621543E-01
       -1   -1    0    0    0  501  0.00000000000E+00  0.00000000000E+00  0.47456325504E+03  0.47456325507E+03  0.50400001928E-02 0. -1.
        1   -1    0    0  501    0  0.00000000000E+00  0.00000000000E+00 -0.20411193592E+04  0.20411193592E+04  0.50400001928E-02 0.  1.
    10030    2    1    2    0    0  0.00000000000E+00  0.00000000000E+00 -0.15665561041E+04  0.25156826142E+04  0.19683904562E+04 0.  0.
        1    1    3    3  502    0  0.38321373165E+03  0.36446953377E+03  0.27753358192E+03  0.59725680765E+03  0.50400001928E-02 0. -1.
       -1    1    3    3    0  502 -0.38321373165E+03 -0.36446953377E+03 -0.18440896860E+04  0.19184258066E+04  0.50400001928E-02 0.  1.
</event>
<event>
 5   0  0.6214547E-05  0.2007521E+04  0.7818609E-02  0.8603112E-01
        1   -1    0    0  501    0  0.00000000000E+00  0.00000000000E+00  0.11928293235E+04  0.11928293235E+04  0.50400001928E-02 0. -1.
       -1   -1    0    0    0  501  0.00000000000E+00  0.00000000000E+00 -0.84465991789E+03  0.84465991791E+03  0.50400001928E-02 0.  1.
    10030    2    1    2    0    0  0.00000000000E+00  0.00000000000E+00  0.34816940562E+03  0.20374892414E+04  0.20075209772E+04 0.  0.
        3    1    3    3  502    0  0.96482309108E+03 -0.26096003677E+03  0.80230636881E+02  0.10027066885E+04  0.10100000352E+00 0.  1.
       -3    1    3    3    0  502 -0.96482309108E+03  0.26096003677E+03  0.26793876874E+03  0.10347825529E+04  0.10100000352E+00 0. -1.
</event>
<event>
 5   0  0.6168338E-05  0.2020029E+04  0.7818609E-02  0.8597313E-01
       -1   -1    0    0    0  501  0.00000000000E+00  0.00000000000E+00  0.61033154356E+03  0.61033154358E+03  0.50400001928E-02 0.  1.
        1   -1    0    0  501    0  0.00000000000E+00  0.00000000000E+00 -0.16714352342E+04  0.16714352342E+04  0.50400001928E-02 0. -1.
    10030    2    1    2    0    0  0.00000000000E+00  0.00000000000E+00 -0.10611036906E+04  0.22817667777E+04  0.20200293527E+04 0.  0.
        5    1    3    3  502    0 -0.26088401307E+03  0.97482583534E+03 -0.57796260926E+03  0.11629311008E+04  0.46999998093E+01 0. -1.
       -5    1    3    3    0  502  0.26088401307E+03 -0.97482583534E+03 -0.48314108135E+03  0.11188356769E+04  0.46999998093E+01 0.  1.
</event>
<event>
 5   0  0.6214547E-05  0.2003290E+04  0.7818609E-02  0.8605084E-01
        1   -1    0    0  501    0  0.00000000000E+00  0.00000000000E+00  0.12934188680E+04  0.12934188680E+04  0.50400001928E-02 0.  1.
       -1   -1    0    0    0  501  0.00000000000E+00  0.00000000000E+00 -0.77569024275E+03  0.77569024276E+03  0.50400001928E-02 0. -1.
    10030    2    1    2    0    0  0.00000000000E+00  0.00000000000E+00  0.51772862522E+03  0.20691091107E+04  0.20032896902E+04 0.  0.
        3    1    3    3  502    0 -0.37757061971E+03  0.74782773161E+03  0.82598249249E+03  0.11764578093E+04  0.10100000352E+00 0.  1.
       -3    1    3    3    0  502  0.37757061971E+03 -0.74782773161E+03 -0.30825386727E+03  0.89265130141E+03  0.10100000352E+00 0. -1.
</event>
<event>
 5   0  0.1281789E-04  0.2027559E+04  0.7818609E-02  0.8593843E-01
        2   -1    0    0  501    0  0.00000000000E+00  0.00000000000E+00  0.93152074863E+03  0.93152074864E+03  0.25500000920E-02 0. -1.
       -2   -1    0    0    0  501  0.00000000000E+00  0.00000000000E+00 -0.11033025159E+04  0.11033025159E+04  0.25500000920E-02 0.  1.
    10030    2    1    2    0    0  0.00000000000E+00  0.00000000000E+00 -0.17178176730E+03  0.20348232646E+04  0.20275593068E+04 0.  0.
        2    1    3    3  502    0  0.57560454681E+03  0.75357684442E+03 -0.44571483242E+03  0.10477883215E+04  0.25500000920E-02 0.  1.
       -2    1    3    3    0  502 -0.57560454681E+03 -0.75357684442E+03  0.27393306511E+03  0.98703494311E+03  0.25500000920E-02 0. -1.
</event>
<event>
 5   0  0.1159914E-04  0.1968959E+04  0.7818609E-02  0.8621273E-01
        2   -1    0    0  501    0  0.00000000000E+00  0.00000000000E+00  0.48278190779E+03  0.48278190779E+03  0.25500000920E-02 0. -1.
       -2   -1    0    0    0  501  0.00000000000E+00  0.00000000000E+00 -0.20075308740E+04  0.20075308740E+04  0.25500000920E-02 0.  1.
    10030    2    1    2    0    0  0.00000000000E+00  0.00000000000E+00 -0.15247489662E+04  0.24903127818E+04  0.19689586946E+04 0.  0.
        3    1    3    3  502    0  0.62008607686E+02 -0.29903239600E+03 -0.19461054727E+04  0.19699218163E+04  0.10100000352E+00 0.  1.
       -3    1    3    3    0  502 -0.62008607686E+02  0.29903239600E+03  0.42135650644E+03  0.52039096553E+03  0.10100000352E+00 0. -1.
</event>
<event>
 5   0  0.6214547E-05  0.2017722E+04  0.7818609E-02  0.8598379E-01
        1   -1    0    0  501    0  0.00000000000E+00  0.00000000000E+00  0.66652770841E+03  0.66652770843E+03  0.50400001928E-02 0.  1.
       -1   -1    0    0    0  501  0.00000000000E+00  0.00000000000E+00 -0.15270195633E+04  0.15270195633E+04  0.50400001928E-02 0. -1.
    10030    2    1    2    0    0  0.00000000000E+00  0.00000000000E+00 -0.86049185490E+03  0.21935472718E+04  0.20177223300E+04 0.  0.
        3    1    3    3  502    0 -0.45303027972E+03  0.61976998484E+03 -0.11418451324E+04  0.13759220854E+04  0.10100000352E+00 0. -1.
       -3    1    3    3    0  502  0.45303027972E+03 -0.61976998484E+03  0.28135327749E+03  0.81762518638E+03  0.10100000352E+00 0.  1.
</event>
<event>
 5   0  0.6222733E-05  0.1997210E+04  0.7818609E-02  0.8607926E-01
        1   -1    0    0  501    0  0.00000000000E+00  0.00000000000E+00  0.16695736028E+04  0.16695736028E+04  0.50400001928E-02 0. -1.
       -1   -1    0    0    0  501  0.00000000000E+00  0.00000000000E+00 -0.59728528043E+03  0.59728528045E+03  0.50400001928E-02 0.  1.
    10030    2    1    2    0    0  0.00000000000E+00  0.00000000000E+00  0.10722883224E+04  0.22668588833E+04  0.19972097913E+04 0.  0.
        2    1    3    3  502    0  0.26228335478E+03 -0.94027879347E+03  0.77502317881E+03  0.12464259687E+04  0.25500000920E-02 0. -1.
       -2    1    3    3    0  502 -0.26228335478E+03  0.94027879347E+03  0.29726514357E+03  0.10204329146E+04  0.25500000920E-02 0.  1.
</event>
<event>
 5   0  0.1281789E-04  0.1988871E+04  0.7818609E-02  0.8611842E-01
       -2   -1    0    0    0  501  0.00000000000E+00  0.00000000000E+00  0.20182120806E+04  0.20182120806E+04  0.25500000920E-02 0. -1.
        2   -1    0    0  501    0  0.00000000000E+00  0.00000000000E+00 -0.48998918011E+03  0.48998918012E+03  0.25500000920E-02 0.  1.
    10030    2    1    2    0    0  0.00000000000E+00  0.00000000000E+00  0.15282229005E+04  0.25082012607E+04  0.19888711197E+04 0.  0.
        2    1    3    3  502    0 -0.38877913506E+03  0.41676836822E+03 -0.26356976439E+03  0.62794435208E+03  0.25500000920E-02 0.  1.
       -2    1    3    3    0  502  0.38877913506E+03 -0.41676836822E+03  0.17917926648E+04  0.18802569086E+04  0.25500000920E-02 0. -1.
</event>
<event>
 5   0  0.6028501E-05  0.2004846E+04  0.7818609E-02  0.8604358E-01
        1   -1    0    0  501    0  0.00000000000E+00  0.00000000000E+00  0.13666649745E+04  0.13666649745E+04  0.50400001928E-02 0.  1.
       -1   -1    0    0    0  501  0.00000000000E+00  0.00000000000E+00 -0.73525815885E+03  0.73525815887E+03  0.50400001928E-02 0. -1.
    10030    2    1    2    0    0  0.00000000000E+00  0.00000000000E+00  0.63140681565E+03  0.21019231334E+04  0.20048457027E+04 0.  0.
        4    1    3    3  502    0 -0.77550552178E+03  0.50752002429E+03  0.71611881972E+03  0.11712442812E+04  0.12699999809E+01 0.  1.
       -4    1    3    3    0  502  0.77550552178E+03 -0.50752002429E+03 -0.84712004077E+02  0.93067885218E+03  0.12699999809E+01 0. -1.
</event>
<event>
 5   0  0.1274868E-04  0.2002934E+04  0.7818609E-02  0.8605250E-01
        2   -1    0    0  501    0  0.00000000000E+00  0.00000000000E+00  0.17170368011E+04  0.17170368011E+04  0.25500000920E-02 0. -1.
       -2   -1    0    0    0  501  0.00000000000E+00  0.00000000000E+00 -0.58410851085E+03  0.58410851086E+03  0.25500000920E-02 0.  1.
    10030    2    1    2    0    0  0.00000000000E+00  0.00000000000E+00  0.11329282903E+04  0.23011453120E+04  0.20029336574E+04 0.  0.
        1    1    3    3  502    0  0.92497164088E+01 -0.90586598687E+03  0.10569422968E+04  0.13920509194E+04  0.50400001928E-02 0. -1.
       -1    1    3    3    0  502 -0.92497164088E+01  0.90586598687E+03  0.75985993490E+02  0.90909439259E+03  0.50400001928E-02 0.  1.
</event>
<event>
 5   0  0.6028501E-05  0.1993002E+04  0.7818609E-02  0.8609900E-01
        1   -1    0    0  501    0  0.00000000000E+00  0.00000000000E+00  0.15100971687E+04  0.15100971687E+04  0.50400001928E-02 0. -1.
       -1   -1    0    0    0  501  0.00000000000E+00  0.00000000000E+00 -0.65758280091E+03  0.65758280093E+03  0.50400001928E-02 0.  1.
    10030    2    1    2    0    0  0.00000000000E+00  0.00000000000E+00  0.85251436780E+03  0.21676799697E+04  0.19930016818E+04 0.  0.
        4    1    3    3  502    0  0.41584002255E+03 -0.83241418923E+03  0.81413066737E+03  0.12363845127E+04  0.12699999809E+01 0. -1.
       -4    1    3    3    0  502 -0.41584002255E+03  0.83241418923E+03  0.38383700436E+02  0.93129545696E+03  0.12699999809E+01 0.  1.
</event>
<event>
 5   0  0.6214547E-05  0.1662043E+04  0.7818609E-02  0.8783314E-01
       -1   -1    0    0    0  501  0.00000000000E+00  0.00000000000E+00  0.50812132791E+03  0.50812132794E+03  0.50400001928E-02 0. -1.
        1   -1    0    0  501    0  0.00000000000E+00  0.00000000000E+00 -0.13591174520E+04  0.13591174520E+04  0.50400001928E-02 0.  1.
    10030    2    1    2    0    0  0.00000000000E+00  0.00000000000E+00 -0.85099612410E+03  0.18672387800E+04  0.16620427967E+04 0.  0.
        3    1    3    3  502    0  0.55429032107E+03  0.27857822146E+03 -0.10467145835E+04  0.12167395017E+04  0.10100000352E+00 0.  1.
       -3    1    3    3    0  502 -0.55429032107E+03 -0.27857822146E+03  0.19571845937E+03  0.65049927828E+03  0.10100000352E+00 0. -1.
</event>
<event>
 5   0  0.6222733E-05  0.2014571E+04  0.7818609E-02  0.8599838E-01
       -1   -1    0    0    0  501  0.00000000000E+00  0.00000000000E+00  0.15017667013E+04  0.15017667013E+04  0.50400001928E-02 0.  1.
        1   -1    0    0  501    0  0.00000000000E+00  0.00000000000E+00 -0.67562018462E+03  0.67562018464E+03  0.50400001928E-02 0. -1.
    10030    2    1    2    0    0  0.00000000000E+00  0.00000000000E+00  0.82614651666E+03  0.21773868859E+04  0.20145708188E+04 0.  0.
        2    1    3    3  502    0  0.19791456420E+03 -0.83039762935E+03  0.99097659712E+03  0.13079621606E+04  0.25500000920E-02 0. -1.
       -2    1    3    3    0  502 -0.19791456420E+03  0.83039762935E+03 -0.16483008046E+03  0.86942472531E+03  0.25500000920E-02 0.  1.
</event>
<event>
 5   0  0.1274868E-04  0.1991496E+04  0.7818609E-02  0.8610607E-01
       -2   -1    0    0    0  501  0.00000000000E+00  0.00000000000E+00  0.49066326966E+03  0.49066326967E+03  0.25500000920E-02 0. -1.
        2   -1    0    0  501    0  0.00000000000E+00  0.00000000000E+00 -0.20207629599E+04  0.20207629599E+04  0.25500000920E-02 0.  1.
    10030    2    1    2    0    0  0.00000000000E+00  0.00000000000E+00 -0.15300996902E+04  0.25114262295E+04  0.19914960820E+04 0.  0.
        1    1    3    3  502    0 -0.96456522965E+03  0.57710801287E+02 -0.10682264289E+04  0.14404250492E+04  0.50400001928E-02 0.  1.
       -1    1    3    3    0  502  0.96456522965E+03 -0.57710801287E+02 -0.46187326131E+03  0.10710011804E+04  0.50400001928E-02 0. -1.
</event>
<event>
 5   0  0.1244229E-04  0.2009711E+04  0.7818609E-02  0.8602094E-01
       -2   -1    0    0    0  501  0.00000000000E+00  0.00000000000E+00  0.96105721621E+03  0.96105721621E+03  0.25500000920E-02 0. -1.
        2   -1    0    0  501    0  0.00000000000E+00  0.00000000000E+00 -0.10506494949E+04  0.10506494949E+04  0.25500000920E-02 0.  1.
    10030    2    1    2    0    0  0.00000000000E+00  0.00000000000E+00 -0.89592278711E+02  0.20117067111E+04  0.20097107044E+04 0.  0.
        5    1    3    3  502    0 -0.52714326710E+03  0.84822343612E+03 -0.15603331510E+03  0.10108073541E+04  0.46999998093E+01 0.  1.
       -5    1    3    3    0  502  0.52714326710E+03 -0.84822343612E+03  0.66441036392E+02  0.10008993571E+04  0.46999998093E+01 0. -1.
</event>
<event>
 5   0  0.6168338E-05  0.2009638E+04  0.7818609E-02  0.8602128E-01
       -1   -1    0    0    0  501  0.00000000000E+00  0.00000000000E+00  0.10722221547E+04  0.10722221547E+04  0.50400001928E-02 0.  1.
        1   -1    0    0  501    0  0.00000000000E+00  0.00000000000E+00 -0.94165307626E+03  0.94165307627E+03  0.50400001928E-02 0. -1.
    10030    2    1    2    0    0  0.00000000000E+00  0.00000000000E+00  0.13056907842E+03  0.20138752310E+04  0.20096380673E+04 0.  0.
        5    1    3    3  502    0  0.48173907793E+03  0.87996022947E+03  0.82729736840E+01  0.10032412854E+04  0.46999998093E+01 0. -1.
       -5    1    3    3    0  502 -0.48173907793E+03 -0.87996022947E+03  0.12229610473E+03  0.10106339455E+04  0.46999998093E+01 0.  1.
</event>
<event>
 5   0  0.1242761E-04  0.2021154E+04  0.7818609E-02  0.8596794E-01
        2   -1    0    0  501    0  0.00000000000E+00  0.00000000000E+00  0.10832948246E+04  0.10832948246E+04  0.25500000920E-02 0.  1.
       -2   -1    0    0    0  501  0.00000000000E+00  0.00000000000E+00 -0.94274051661E+03  0.94274051661E+03  0.25500000920E-02 0. -1.
    10030    2    1    2    0    0  0.00000000000E+00  0.00000000000E+00  0.14055430796E+03  0.20260353412E+04  0.20211540491E+04 0.  0.
        4    1    3    3  502    0 -0.51498194866E+03 -0.84035983375E+03 -0.15354050423E+03  0.99749052976E+03  0.12699999809E+01 0. -1.
       -4    1    3    3    0  502  0.51498194866E+03  0.84035983375E+03  0.29409481219E+03  0.10285448114E+04  0.12699999809E+01 0.  1.
</event>
<event>
 5   0  0.6256535E-05  0.2001716E+04  0.7818609E-02  0.8605819E-01
       -1   -1    0    0    0  501  0.00000000000E+00  0.00000000000E+00  0.53894551866E+03  0.53894551868E+03  0.50400001928E-02 0.  1.
        1   -1    0    0  501    0  0.00000000000E+00  0.00000000000E+00 -0.18586612443E+04  0.18586612443E+04  0.50400001928E-02 0. -1.
    10030    2    1    2    0    0  0.00000000000E+00  0.00000000000E+00 -0.13197157256E+04  0.23976067630E+04  0.20017164118E+04 0.  0.
        1    1    3    3  502    0 -0.45418716496E+03 -0.86716674082E+03 -0.90953877568E+03  0.13362353542E+04  0.50400001928E-02 0.  1.
       -1    1    3    3    0  502  0.45418716496E+03  0.86716674082E+03 -0.41017694996E+03  0.10613714088E+04  0.50400001928E-02 0. -1.
</event>
<event>
 5   0  0.6168338E-05  0.2030070E+04  0.7818609E-02  0.8592690E-01
       -1   -1    0    0    0  501  0.00000000000E+00  0.00000000000E+00  0.89557451758E+03  0.89557451760E+03  0.50400001928E-02 0.  1.
        1   -1    0    0  501    0  0.00000000000E+00  0.00000000000E+00 -0.11504302186E+04  0.11504302186E+04  0.50400001928E-02 0. -1.
    10030    2    1    2    0    0  0.00000000000E+00  0.00000000000E+00 -0.25485570097E+03  0.20460047362E+04  0.20300699377E+04 0.  0.
        5    1    3    3  502    0 -0.27646523357E+02 -0.64593668860E+03  0.66119440061E+03  0.92476951796E+03  0.46999998093E+01 0.  1.
       -5    1    3    3    0  502  0.27646523357E+02  0.64593668860E+03 -0.91605010159E+03  0.11212352182E+04  0.46999998093E+01 0. -1.
</event>
<event>
 5   0  0.6222733E-05  0.1982986E+04  0.7818609E-02  0.8614617E-01
        1   -1    0    0  501    0  0.00000000000E+00  0.00000000000E+00  0.10492509979E+04  0.10492509979E+04  0.50400001928E-02 0. -1.
       -1   -1    0    0    0  501  0.00000000000E+00  0.00000000000E+00 -0.93691394432E+03  0.93691394433E+03  0.50400001928E-02 0.  1.
    10030    2    1    2    0    0  0.00000000000E+00  0.00000000000E+00  0.11233705359E+03  0.19861649422E+04  0.19829855179E+04 0.  0.
        2    1    3    3  502    0 -0.38950536420E+03  0.86215205340E+03 -0.24101800561E+03  0.97627366602E+03  0.25500000920E-02 0.  1.
       -2    1    3    3    0  502  0.38950536420E+03 -0.86215205340E+03  0.35335505920E+03  0.10098912762E+04  0.25500000920E-02 0. -1.
</event>
<event>
 5   0  0.6222733E-05  0.1990828E+04  0.7818609E-02  0.8610921E-01
        1   -1    0    0  501    0  0.00000000000E+00  0.00000000000E+00  0.11442861845E+04  0.11442861845E+04  0.50400001928E-02 0. -1.
       -1   -1    0    0    0  501  0.00000000000E+00  0.00000000000E+00 -0.86590985170E+03  0.86590985172E+03  0.50400001928E-02 0.  1.
    10030    2    1    2    0    0  0.00000000000E+00  0.00000000000E+00  0.27837633279E+03  0.20101960362E+04  0.19908276473E+04 0.  0.
        2    1    3    3  502    0  0.35003519220E+03  0.53677444441E+03 -0.62992913042E+03  0.89858897685E+03  0.25500000920E-02 0.  1.
       -2    1    3    3    0  502 -0.35003519220E+03 -0.53677444441E+03  0.90830546321E+03  0.11116070594E+04  0.25500000920E-02 0. -1.
</event>
<event>
 5   0  0.6168338E-05  0.1998474E+04  0.7818609E-02  0.8607334E-01
        1   -1    0    0  501    0  0.00000000000E+00  0.00000000000E+00  0.15693409562E+04  0.15693409562E+04  0.50400001928E-02 0.  1.
       -1   -1    0    0    0  501  0.00000000000E+00  0.00000000000E+00 -0.63623816159E+03  0.63623816161E+03  0.50400001928E-02 0. -1.
    10030    2    1    2    0    0  0.00000000000E+00  0.00000000000E+00  0.93310279458E+03  0.22055791178E+04  0.19984740227E+04 0.  0.
        5    1    3    3  502    0 -0.53845617523E+03  0.67058594862E+03  0.10280298237E+04  0.13403312932E+04  0.46999998093E+01 0.  1.
       -5    1    3    3    0  502  0.53845617523E+03 -0.67058594862E+03 -0.94927029097E+02  0.86524782460E+03  0.46999998093E+01 0. -1.
</event>
<event>
 5   0  0.6168338E-05  0.1882243E+04  0.7818609E-02  0.8663746E-01
       -1   -1    0    0    0  501  0.00000000000E+00  0.00000000000E+00  0.97426240127E+03  0.97426240128E+03  0.50400001928E-02 0.  1.
        1   -1    0    0  501    0  0.00000000000E+00  0.00000000000E+00 -0.90910829202E+03  0.90910829203E+03  0.50400001928E-02 0. -1.
    10030    2    1    2    0    0  0.00000000000E+00  0.00000000000E+00  0.65154109251E+02  0.18833706933E+04  0.18822433717E+04 0.  0.
        5    1    3    3  502    0  0.38723049469E+03 -0.78948561843E+03 -0.30296382495E+03  0.93007750588E+03  0.46999998093E+01 0. -1.
       -5    1    3    3    0  502 -0.38723049469E+03  0.78948561843E+03  0.36811793420E+03  0.95329318743E+03  0.46999998093E+01 0.  1.
</event>
<event>
 5   0  0.6222733E-05  0.1970261E+04  0.7818609E-02  0.8620652E-01
        1   -1    0    0  501    0  0.00000000000E+00  0.00000000000E+00  0.12572541095E+04  0.12572541095E+04  0.50400001928E-02 0.  1.
       -1   -1    0    0    0  501  0.00000000000E+00  0.00000000000E+00 -0.77190587549E+03  0.77190587550E+03  0.50400001928E-02 0. -1.
    10030    2    1    2    0    0  0.00000000000E+00  0.00000000000E+00  0.48534823400E+03  0.20291599850E+04  0.19702607280E+04 0.  0.
        2    1    3    3  502    0 -0.20473185674E+03  0.91374503617E+03 -0.72474685438E+02  0.93920056661E+03  0.25500000920E-02 0. -1.
       -2    1    3    3    0  502  0.20473185674E+03 -0.91374503617E+03  0.55782291944E+03  0.10899594184E+04  0.25500000920E-02 0.  1.
</event>
<event>
 5   0  0.6222733E-05  0.1986038E+04  0.7818609E-02  0.8613176E-01
        1   -1    0    0  501    0  0.00000000000E+00  0.00000000000E+00  0.14301897612E+04  0.14301897612E+04  0.50400001928E-02 0.  1.
       -1   -1    0    0    0  501  0.00000000000E+00  0.00000000000E+00 -0.68947959489E+03  0.68947959491E+03  0.50400001928E-02 0. -1.
    10030    2    1    2    0    0  0.00000000000E+00  0.00000000000E+00  0.74071016634E+03  0.21196693561E+04  0.19860379223E+04 0.  0.
        2    1    3    3  502    0 -0.48595883106E+03  0.49562613407E+03  0.11282670858E+04  0.13246840631E+04  0.25500000920E-02 0.  1.
       -2    1    3    3    0  502  0.48595883106E+03 -0.49562613407E+03 -0.38755691945E+03  0.79498529300E+03  0.25500000920E-02 0. -1.
</event>
<event>
 5   0  0.4479000E-05  0.1987943E+04  0.7818609E-02  0.8612279E-01
        4   -1    0    0  501    0  0.00000000000E+00  0.00000000000E+00  0.14470809543E+04  0.14470815116E+04  0.12699999809E+01 0. -1.
       -4   -1    0    0    0  501  0.00000000000E+00  0.00000000000E+00 -0.68273794373E+03  0.68273912492E+03  0.12699999809E+01 0.  1.
    10030    2    1    2    0    0  0.00000000000E+00  0.00000000000E+00  0.76434301059E+03  0.21298206365E+04  0.19879425812E+04 0.  0.
        4    1    3    3  502    0 -0.57997330010E+03  0.80650863621E+03  0.41853663387E+03  0.10779609158E+04  0.12699999809E+01 0. -1.
       -4    1    3    3    0  502  0.57997330010E+03 -0.80650863621E+03  0.34580637672E+03  0.10518597208E+04  0.12699999809E+01 0.  1.
</event>
<event>
 5   0  0.1274868E-04  0.2012668E+04  0.7818609E-02  0.8600721E-01
        2   -1    0    0  501    0  0.00000000000E+00  0.00000000000E+00  0.14240154681E+04  0.14240154681E+04  0.25500000920E-02 0. -1.
       -2   -1    0    0    0  501  0.00000000000E+00  0.00000000000E+00 -0.71116365886E+03  0.71116365886E+03  0.25500000920E-02 0.  1.
    10030    2    1    2    0    0  0.00000000000E+00  0.00000000000E+00  0.71285180927E+03  0.21351791270E+04  0.20126679315E+04 0.  0.
        1    1    3    3  502    0  0.28707518867E+01 -0.92020105884E+03 -0.75714038307E+02  0.92331513879E+03  0.50400001928E-02 0.  1.
       -1    1    3    3    0  502 -0.28707518867E+01  0.92020105884E+03  0.78856584758E+03  0.12118639882E+04  0.50400001928E-02 0. -1.
</event>
<event>
 5   0  0.6168338E-05  0.1878346E+04  0.7818609E-02  0.8665711E-01
        1   -1    0    0  501    0  0.00000000000E+00  0.00000000000E+00  0.97309935339E+03  0.97309935340E+03  0.50400001928E-02 0.  1.
       -1   -1    0    0    0  501  0.00000000000E+00  0.00000000000E+00 -0.90642898833E+03  0.90642898834E+03  0.50400001928E-02 0. -1.
    10030    2    1    2    0    0  0.00000000000E+00  0.00000000000E+00  0.66670365059E+02  0.18795283417E+04  0.18783455086E+04 0.  0.
        5    1    3    3  502    0 -0.21613316128E+03  0.82817750383E+03 -0.35347240674E+03  0.92604338645E+03  0.46999998093E+01 0. -1.
       -5    1    3    3    0  502  0.21613316128E+03 -0.82817750383E+03  0.42014277180E+03  0.95348495529E+03  0.46999998093E+01 0.  1.
</event>
<event>
 5   0  0.6222733E-05  0.1996017E+04  0.7818609E-02  0.8608485E-01
        1   -1    0    0  501    0  0.00000000000E+00  0.00000000000E+00  0.12892500247E+04  0.12892500247E+04  0.50400001928E-02 0. -1.
       -1   -1    0    0    0  501  0.00000000000E+00  0.00000000000E+00 -0.77255815170E+03  0.77255815171E+03  0.50400001928E-02 0.  1.
    10030    2    1    2    0    0  0.00000000000E+00  0.00000000000E+00  0.51669187299E+03  0.20618081764E+04  0.19960166494E+04 0.  0.
        2    1    3    3  502    0 -0.47326875446E+03  0.37992859088E+03 -0.56003828084E+03  0.82581591419E+03  0.25500000920E-02 0.  1.
       -2    1    3    3    0  502  0.47326875446E+03 -0.37992859088E+03  0.10767301538E+04  0.12359922622E+04  0.25500000920E-02 0. -1.
</event>
<event>
 5   0  0.6256535E-05  0.2004732E+04  0.7818609E-02  0.8604411E-01
       -1   -1    0    0    0  501  0.00000000000E+00  0.00000000000E+00  0.98318359498E+03  0.98318359500E+03  0.50400001928E-02 0.  1.
        1   -1    0    0  501    0  0.00000000000E+00  0.00000000000E+00 -0.10219231416E+04  0.10219231416E+04  0.50400001928E-02 0. -1.
    10030    2    1    2    0    0  0.00000000000E+00  0.00000000000E+00 -0.38739546652E+02  0.20051067366E+04  0.20047324692E+04 0.  0.
        1    1    3    3  502    0 -0.75360256889E+02  0.23711253415E+03 -0.99054875732E+03  0.10213169747E+04  0.50400001928E-02 0. -1.
       -1    1    3    3    0  502  0.75360256889E+02 -0.23711253415E+03  0.95180921067E+03  0.98378976194E+03  0.50400001928E-02 0.  1.
</event>
<event>
 5   0  0.1244229E-04  0.2002949E+04  0.7818609E-02  0.8605243E-01
       -2   -1    0    0    0  501  0.00000000000E+00  0.00000000000E+00  0.59711900429E+03  0.59711900429E+03  0.25500000920E-02 0.  1.
        2   -1    0    0  501    0  0.00000000000E+00  0.00000000000E+00 -0.16796502741E+04  0.16796502741E+04  0.25500000920E-02 0. -1.
    10030    2    1    2    0    0  0.00000000000E+00  0.00000000000E+00 -0.10825312698E+04  0.22767692783E+04  0.20029489252E+04 0.  0.
        5    1    3    3  502    0 -0.84617015475E+03 -0.42138386768E+03 -0.16535915074E+03  0.95965307974E+03  0.46999998093E+01 0. -1.
       -5    1    3    3    0  502  0.84617015475E+03  0.42138386768E+03 -0.91717211903E+03  0.13171161986E+04  0.46999998093E+01 0.  1.
</event>
<event>
 5   0  0.1244229E-04  0.2001209E+04  0.7818609E-02  0.8606055E-01
        2   -1    0    0  501    0  0.00000000000E+00  0.00000000000E+00  0.20176867116E+04  0.20176867116E+04  0.25500000920E-02 0.  1.
       -2   -1    0    0    0  501  0.00000000000E+00  0.00000000000E+00 -0.49621660957E+03  0.49621660958E+03  0.25500000920E-02 0. -1.
    10030    2    1    2    0    0  0.00000000000E+00  0.00000000000E+00  0.15214701020E+04  0.25139033212E+04  0.20012092936E+04 0.  0.
        5    1    3    3  502    0 -0.13022336048E+03 -0.95078545876E+03  0.11165645363E+04  0.14723075650E+04  0.46999998093E+01 0.  1.
       -5    1    3    3    0  502  0.13022336048E+03  0.95078545876E+03  0.40490556576E+03  0.10415957562E+04  0.46999998093E+01 0. -1.
</event>
<event>
 5   0  0.1242761E-04  0.1986770E+04  0.7818609E-02  0.8612831E-01
       -2   -1    0    0    0  501  0.00000000000E+00  0.00000000000E+00  0.11761191345E+04  0.11761191345E+04  0.25500000920E-02 0. -1.
        2   -1    0    0  501    0  0.00000000000E+00  0.00000000000E+00 -0.83904218497E+03  0.83904218498E+03  0.25500000920E-02 0.  1.
    10030    2    1    2    0    0  0.00000000000E+00  0.00000000000E+00  0.33707694953E+03  0.20151613195E+04  0.19867698089E+04 0.  0.
        4    1    3    3  502    0 -0.44711161623E+03 -0.10869946658E+03  0.10615100949E+04  0.11569484284E+04  0.12699999809E+01 0. -1.
       -4    1    3    3    0  502  0.44711161623E+03  0.10869946658E+03 -0.72443314540E+03  0.85821289110E+03  0.12699999809E+01 0.  1.
</event>
<event>
 5   0  0.6168338E-05  0.1986258E+04  0.7818609E-02  0.8613073E-01
        1   -1    0    0  501    0  0.00000000000E+00  0.00000000000E+00  0.67984874047E+03  0.67984874049E+03  0.50400001928E-02 0.  1.
       -1   -1    0    0    0  501  0.00000000000E+00  0.00000000000E+00 -0.14507716496E+04  0.14507716496E+04  0.50400001928E-02 0. -1.
    10030    2    1    2    0    0  0.00000000000E+00  0.00000000000E+00 -0.77092290915E+03  0.21306203901E+04  0.19862580686E+04 0.  0.
        5    1    3    3  502    0  0.28652744138E+03  0.75072097340E+03  0.24056803037E+03  0.83879378980E+03  0.46999998093E+01 0.  1.
       -5    1    3    3    0  502 -0.28652744138E+03 -0.75072097340E+03 -0.10114909395E+04  0.12918266003E+04  0.46999998093E+01 0. -1.
</event>
<event>
 5   0  0.1281789E-04  0.1984805E+04  0.7818609E-02  0.8613758E-01
       -2   -1    0    0    0  501  0.00000000000E+00  0.00000000000E+00  0.88592211595E+03  0.88592211595E+03  0.25500000920E-02 0. -1.
        2   -1    0    0  501    0  0.00000000000E+00  0.00000000000E+00 -0.11116806820E+04  0.11116806820E+04  0.25500000920E-02 0.  1.
    10030    2    1    2    0    0  0.00000000000E+00  0.00000000000E+00 -0.22575856608E+03  0.19976027980E+04  0.19848047784E+04 0.  0.
        2    1    3    3  502    0  0.20925520208E+03  0.16578138893E+03  0.84910353879E+03  0.89008315798E+03  0.25500000920E-02 0. -1.
       -2    1    3    3    0  502 -0.20925520208E+03 -0.16578138893E+03 -0.10748621049E+04  0.11075196400E+04  0.25500000920E-02 0.  1.
</event>
<event>
 5   0  0.6222733E-05  0.1998757E+04  0.7818609E-02  0.8607202E-01
       -1   -1    0    0    0  501  0.00000000000E+00  0.00000000000E+00  0.79888009257E+03  0.79888009259E+03  0.50400001928E-02 0. -1.
        1   -1    0    0  501    0  0.00000000000E+00  0.00000000000E+00 -0.12501966652E+04  0.12501966652E+04  0.50400001928E-02 0.  1.
    10030    2    1    2    0    0  0.00000000000E+00  0.00000000000E+00 -0.45131657259E+03  0.20490767578E+04  0.19987568413E+04 0.  0.
        2    1    3    3  502    0 -0.58241841360E+02  0.85546886370E+03  0.30062551296E+03  0.90862246720E+03  0.25500000920E-02 0. -1.
       -2    1    3    3    0  502  0.58241841360E+02 -0.85546886370E+03 -0.75194208555E+03  0.11404542906E+04  0.25500000920E-02 0.  1.
</event>
<event>
 5   0  0.1281789E-04  0.2011007E+04  0.7818609E-02  0.8601492E-01
       -2   -1    0    0    0  501  0.00000000000E+00  0.00000000000E+00  0.56419873619E+03  0.56419873619E+03  0.25500000920E-02 0. -1.
        2   -1    0    0  501    0  0.00000000000E+00  0.00000000000E+00 -0.17919873283E+04  0.17919873283E+04  0.25500000920E-02 0.  1.
    10030    2    1    2    0    0  0.00000000000E+00  0.00000000000E+00 -0.12277885921E+04  0.23561860645E+04  0.20110066990E+04 0.  0.
        2    1    3    3  502    0 -0.92171477034E+03  0.32151682351E+03 -0.89632103343E+03  0.13252632118E+04  0.25500000920E-02 0.  1.
       -2    1    3    3    0  502  0.92171477034E+03 -0.32151682351E+03 -0.33146755867E+03  0.10309228526E+04  0.25500000920E-02 0. -1.
</event>
<event>
 5   0  0.6168338E-05  0.2008427E+04  0.7818609E-02  0.8602691E-01
        1   -1    0    0  501    0  0.00000000000E+00  0.00000000000E+00  0.11490896498E+04  0.11490896498E+04  0.50400001928E-02 0. -1.
       -1   -1    0    0    0  501  0.00000000000E+00  0.00000000000E+00 -0.87760334347E+03  0.87760334348E+03  0.50400001928E-02 0.  1.
    10030    2    1    2    0    0  0.00000000000E+00  0.00000000000E+00  0.27148630629E+03  0.20266929933E+04  0.20084271643E+04 0.  0.
        5    1    3    3  502    0  0.98453696925E+03  0.90385997149E+02  0.31324101711E+03  0.10371232796E+04  0.46999998093E+01 0. -1.
       -5    1    3    3    0  502 -0.98453696925E+03 -0.90385997149E+02 -0.41754710820E+02  0.98956971365E+03  0.46999998093E+01 0.  1.
</event>
<event>
 5   0  0.1242761E-04  0.1999059E+04  0.7818609E-02  0.8607061E-01
       -2   -1    0    0    0  501  0.00000000000E+00  0.00000000000E+00  0.66240930402E+03  0.66240930402E+03  0.25500000920E-02 0. -1.
        2   -1    0    0  501    0  0.00000000000E+00  0.00000000000E+00 -0.15082204074E+04  0.15082204074E+04  0.25500000920E-02 0.  1.
    10030    2    1    2    0    0  0.00000000000E+00  0.00000000000E+00 -0.84581110341E+03  0.21706297115E+04  0.19990590090E+04 0.  0.
        4    1    3    3  502    0 -0.29131745437E+02 -0.53088906490E+03 -0.13419310036E+04  0.14434238079E+04  0.12699999809E+01 0.  1.
       -4    1    3    3    0  502  0.29131745437E+02  0.53088906490E+03  0.49611990024E+03  0.72720590353E+03  0.12699999809E+01 0. -1.
</event>
<event>
 5   0  0.6256535E-05  0.2001314E+04  0.7818609E-02  0.8606006E-01
       -1   -1    0    0    0  501  0.00000000000E+00  0.00000000000E+00  0.12349868172E+04  0.12349868172E+04  0.50400001928E-02 0. -1.
        1   -1    0    0  501    0  0.00000000000E+00  0.00000000000E+00 -0.81078989058E+03  0.81078989059E+03  0.50400001928E-02 0.  1.
    10030    2    1    2    0    0  0.00000000000E+00  0.00000000000E+00  0.42419692659E+03  0.20457767078E+04  0.20013143945E+04 0.  0.
        1    1    3    3  502    0 -0.89006853358E+03  0.19694635271E+02  0.67909029984E+03  0.11197202814E+04  0.50400001928E-02 0. -1.
       -1    1    3    3    0  502  0.89006853358E+03 -0.19694635271E+02 -0.25489337325E+03  0.92605642641E+03  0.50400001928E-02 0.  1.
</event>
<event>
 5   0  0.6168338E-05  0.1988992E+04  0.7818609E-02  0.8611785E-01
        1   -1    0    0  501    0  0.00000000000E+00  0.00000000000E+00  0.12098798485E+04  0.12098798485E+04  0.50400001928E-02 0.  1.
       -1   -1    0    0    0  501  0.00000000000E+00  0.00000000000E+00 -0.81745508251E+03  0.81745508252E+03  0.50400001928E-02 0. -1.
    10030    2    1    2    0    0  0.00000000000E+00  0.00000000000E+00  0.39242476597E+03  0.20273349310E+04  0.19889921381E+04 0.  0.
        5    1    3    3  502    0  0.32014686301E+03 -0.94048542819E+03  0.24172157492E+03  0.10224765349E+04  0.46999998093E+01 0.  1.
       -5    1    3    3    0  502 -0.32014686301E+03  0.94048542819E+03  0.15070319105E+03  0.10048583962E+04  0.46999998093E+01 0. -1.
</event>
<event>
 5   0  0.6256535E-05  0.1999123E+04  0.7818609E-02  0.8607031E-01
       -1   -1    0    0    0  501  0.00000000000E+00  0.00000000000E+00  0.91444503004E+03  0.91444503005E+03  0.50400001928E-02 0. -1.
        1   -1    0    0  501    0  0.00000000000E+00  0.00000000000E+00 -0.10926008935E+04  0.10926008935E+04  0.50400001928E-02 0.  1.
    10030    2    1    2    0    0  0.00000000000E+00  0.00000000000E+00 -0.17815586348E+03  0.20070459236E+04  0.19991232648E+04 0.  0.
        1    1    3    3  502    0 -0.11163342555E+03  0.64100327812E+03 -0.85088430802E+03  0.10711448688E+04  0.50400001928E-02 0.  1.
       -1    1    3    3    0  502  0.11163342555E+03 -0.64100327812E+03  0.67272844454E+03  0.93590105480E+03  0.50400001928E-02 0. -1.
</event>
<event>
 5   0  0.1281789E-04  0.1967327E+04  0.7818609E-02  0.8622050E-01
        2   -1    0    0  501    0  0.00000000000E+00  0.00000000000E+00  0.85613803542E+03  0.85613803542E+03  0.25500000920E-02 0.  1.
       -2   -1    0    0    0  501  0.00000000000E+00  0.00000000000E+00 -0.11301849423E+04  0.11301849423E+04  0.25500000920E-02 0. -1.
    10030    2    1    2    0    0  0.00000000000E+00  0.00000000000E+00 -0.27404690686E+03  0.19863229777E+04  0.19673274421E+04 0.  0.
        2    1    3    3  502    0 -0.22187381111E+03  0.85508078389E+02 -0.11007314047E+04  0.11261213278E+04  0.25500000920E-02 0. -1.
       -2    1    3    3    0  502  0.22187381111E+03 -0.85508078389E+02  0.82668449786E+03  0.86020164993E+03  0.25500000920E-02 0.  1.
</event>
<event>
 5   0  0.1159914E-04  0.2031115E+04  0.7818609E-02  0.8592210E-01
        2   -1    0    0  501    0  0.00000000000E+00  0.00000000000E+00  0.17013061703E+04  0.17013061703E+04  0.25500000920E-02 0.  1.
       -2   -1    0    0    0  501  0.00000000000E+00  0.00000000000E+00 -0.60621470962E+03  0.60621470963E+03  0.25500000920E-02 0. -1.
    10030    2    1    2    0    0  0.00000000000E+00  0.00000000000E+00  0.10950914607E+04  0.23075208799E+04  0.20311147934E+04 0.  0.
        3    1    3    3  502    0  0.35580794768E+03  0.29857357474E+03  0.15735585758E+04  0.16406803701E+04  0.10100000352E+00 0.  1.
       -3    1    3    3    0  502 -0.35580794768E+03 -0.29857357474E+03 -0.47846711509E+03  0.66684050986E+03  0.10100000352E+00 0. -1.
</event>
<event>
 5   0  0.6168338E-05  0.2016571E+04  0.7818609E-02  0.8598912E-01
       -1   -1    0    0    0  501  0.00000000000E+00  0.00000000000E+00  0.84502538560E+03  0.84502538562E+03  0.50400001928E-02 0. -1.
        1   -1    0    0  501    0  0.00000000000E+00  0.00000000000E+00 -0.12030876725E+04  0.12030876725E+04  0.50400001928E-02 0.  1.
    10030    2    1    2    0    0  0.00000000000E+00  0.00000000000E+00 -0.35806228685E+03  0.20481130581E+04  0.20165709751E+04 0.  0.
        5    1    3    3  502    0 -0.72328807158E+03  0.56317023978E+03 -0.60549314570E+03  0.10986129405E+04  0.46999998093E+01 0.  1.
       -5    1    3    3    0  502  0.72328807158E+03 -0.56317023978E+03  0.24743085885E+03  0.94950011762E+03  0.46999998093E+01 0. -1.
</event>
<event>
 5   0  0.1244229E-04  0.1995250E+04  0.7818609E-02  0.8608845E-01
       -2   -1    0    0    0  501  0.00000000000E+00  0.00000000000E+00  0.82282493339E+03  0.82282493339E+03  0.25500000920E-02 0. -1.
        2   -1    0    0  501    0  0.00000000000E+00  0.00000000000E+00 -0.12095591326E+04  0.12095591326E+04  0.25500000920E-02 0.  1.
    10030    2    1    2    0    0  0.00000000000E+00  0.00000000000E+00 -0.38673419922E+03  0.20323840660E+04  0.19952497716E+04 0.  0.
        5    1    3    3  502    0 -0.47070351965E+03  0.38213741007E+03 -0.10003506647E+04  0.11697496937E+04  0.46999998093E+01 0.  1.
       -5    1    3    3    0  502  0.47070351965E+03 -0.38213741007E+03  0.61361646547E+03  0.86263437230E+03  0.46999998093E+01 0. -1.
</event>
<event>
 5   0  0.1244229E-04  0.1920726E+04  0.7818609E-02  0.8644608E-01
       -2   -1    0    0    0  501  0.00000000000E+00  0.00000000000E+00  0.31643509323E+03  0.31643509324E+03  0.25500000920E-02 0.  1.
        2   -1    0    0  501    0  0.00000000000E+00  0.00000000000E+00 -0.29146483759E+04  0.29146483759E+04  0.25500000920E-02 0. -1.
    10030    2    1    2    0    0  0.00000000000E+00  0.00000000000E+00 -0.25982132826E+04  0.32310834691E+04  0.19207259363E+04 0.  0.
        5    1    3    3  502    0 -0.98286645146E+02  0.89496280578E+03 -0.73699277354E+03  0.11635287390E+04  0.46999998093E+01 0.  1.
       -5    1    3    3    0  502  0.98286645146E+02 -0.89496280578E+03 -0.18612205091E+04  0.20675547301E+04  0.46999998093E+01 0. -1.
</event>
<event>
 5   0  0.1244229E-04  0.1968690E+04  0.7818609E-02  0.8621401E-01
        2   -1    0    0  501    0  0.00000000000E+00  0.00000000000E+00  0.18297891523E+04  0.18297891523E+04  0.25500000920E-02 0.  1.
       -2   -1    0    0    0  501  0.00000000000E+00  0.00000000000E+00 -0.52953362486E+03  0.52953362486E+03  0.25500000920E-02 0. -1.
    10030    2    1    2    0    0  0.00000000000E+00  0.00000000000E+00  0.13002555275E+04  0.23593227772E+04  0.19686898004E+04 0.  0.
        5    1    3    3  502    0 -0.44051234295E+03  0.94317249896E+02 -0.39872564514E+03  0.60162371796E+03  0.46999998093E+01 0. -1.
       -5    1    3    3    0  502  0.44051234295E+03 -0.94317249896E+02  0.16989811726E+04  0.17576990592E+04  0.46999998093E+01 0.  1.
</event>
<event>
 5   0  0.6256535E-05  0.1965438E+04  0.7818609E-02  0.8622952E-01
        1   -1    0    0  501    0  0.00000000000E+00  0.00000000000E+00  0.10615575947E+04  0.10615575947E+04  0.50400001928E-02 0.  1.
       -1   -1    0    0    0  501  0.00000000000E+00  0.00000000000E+00 -0.90973590165E+03  0.90973590166E+03  0.50400001928E-02 0. -1.
    10030    2    1    2    0    0  0.00000000000E+00  0.00000000000E+00  0.15182169302E+03  0.19712934963E+04  0.19654384300E+04 0.  0.
        1    1    3    3  502    0 -0.98156072114E+03 -0.29089966060E+02  0.11383061837E+03  0.98856718796E+03  0.50400001928E-02 0. -1.
       -1    1    3    3    0  502  0.98156072114E+03  0.29089966060E+02  0.37991074651E+02  0.98272630838E+03  0.50400001928E-02 0.  1.
</event>
<event>
 5   0  0.1242761E-04  0.2010438E+04  0.7818609E-02  0.8601756E-01
        2   -1    0    0  501    0  0.00000000000E+00  0.00000000000E+00  0.75671029408E+03  0.75671029408E+03  0.25500000920E-02 0.  1.
       -2   -1    0    0    0  501  0.00000000000E+00  0.00000000000E+00 -0.13353393000E+04  0.13353393000E+04  0.25500000920E-02 0. -1.
    10030    2    1    2    0    0  0.00000000000E+00  0.00000000000E+00 -0.57862900591E+03  0.20920495941E+04  0.20104377577E+04 0.  0.
        4    1    3    3  502    0  0.39703063228E+03  0.72623378847E+02 -0.12473145275E+04  0.13109929906E+04  0.12699999809E+01 0. -1.
       -4    1    3    3    0  502 -0.39703063228E+03 -0.72623378847E+02  0.66868552157E+03  0.78105660344E+03  0.12699999809E+01 0.  1.
</event>
<event>
 5   0  0.6256535E-05  0.1995107E+04  0.7818609E-02  0.8608912E-01
        1   -1    0    0  501    0  0.00000000000E+00  0.00000000000E+00  0.11739657775E+04  0.11739657775E+04  0.50400001928E-02 0. -1.
       -1   -1    0    0    0  501  0.00000000000E+00  0.00000000000E+00 -0.84765062387E+03  0.84765062389E+03  0.50400001928E-02 0.  1.
    10030    2    1    2    0    0  0.00000000000E+00  0.00000000000E+00  0.32631515360E+03  0.20216164014E+04  0.19951068379E+04 0.  0.
        1    1    3    3  502    0  0.25804357911E+02 -0.46754376182E+02 -0.84620117613E+03  0.84788458359E+03  0.50400001928E-02 0.  1.
       -1    1    3    3    0  502 -0.25804357911E+02  0.46754376182E+02  0.11725163297E+04  0.11737318178E+04  0.50400001928E-02 0. -1.
</event>
<event>
 5   0  0.6214547E-05  0.2010379E+04  0.7818609E-02  0.8601784E-01
       -1   -1    0    0    0  501  0.00000000000E+00  0.00000000000E+00  0.34937615294E+03  0.34937615297E+03  0.50400001928E-02 0.  1.
        1   -1    0    0  501    0  0.00000000000E+00  0.00000000000E+00 -0.28920285804E+04  0.28920285804E+04  0.50400001928E-02 0. -1.
    10030    2    1    2    0    0  0.00000000000E+00  0.00000000000E+00 -0.25426524275E+04  0.32414047334E+04  0.20103788893E+04 0.  0.
        3    1    3    3  502    0  0.53432756408E+03 -0.83425825132E+03 -0.15454850066E+04  0.18357605212E+04  0.10100000352E+00 0. -1.
       -3    1    3    3    0  502 -0.53432756408E+03  0.83425825132E+03 -0.99716742090E+03  0.14056442121E+04  0.10100000352E+00 0.  1.
</event>
<event>
 5   0  0.6222733E-05  0.2000234E+04  0.7818609E-02  0.8606511E-01
        1   -1    0    0  501    0  0.00000000000E+00  0.00000000000E+00  0.22857161711E+04  0.22857161711E+04  0.50400001928E-02 0.  1.
       -1   -1    0    0    0  501  0.00000000000E+00  0.00000000000E+00 -0.43760185743E+03  0.43760185746E+03  0.50400001928E-02 0. -1.
    10030    2    1    2    0    0  0.00000000000E+00  0.00000000000E+00  0.18481143137E+04  0.27233180286E+04  0.20002336284E+04 0.  0.
        2    1    3    3  502    0  0.39937950312E+03  0.45123458523E+03  0.20108011155E+04  0.20991516774E+04  0.25500000920E-02 0.  1.
       -2    1    3    3    0  502 -0.39937950312E+03 -0.45123458523E+03 -0.16268680187E+03  0.62416635117E+03  0.25500000920E-02 0. -1.
</event>
<event>
 5   0  0.1242761E-04  0.1984305E+04  0.7818609E-02  0.8613994E-01
       -2   -1    0    0    0  501  0.00000000000E+00  0.00000000000E+00  0.61465476929E+03  0.61465476930E+03  0.25500000920E-02 0. -1.
        2   -1    0    0  501    0  0.00000000000E+00  0.00000000000E+00 -0.16014948885E+04  0.16014948885E+04  0.25500000920E-02 0.  1.
    10030    2    1    2    0    0  0.00000000000E+00  0.00000000000E+00 -0.98684011921E+03  0.22161496578E+04  0.19843048871E+04 0.  0.
        4    1    3    3  502    0  0.68005878826E+03  0.13316876563E+03  0.29957593228E+03  0.75495776552E+03  0.12699999809E+01 0. -1.
       -4    1    3    3    0  502 -0.68005878826E+03 -0.13316876563E+03 -0.12864160515E+04  0.14611918923E+04  0.12699999809E+01 0.  1.
</event>
<event>
 5   0  0.6028501E-05  0.2005094E+04  0.7818609E-02  0.8604243E-01
        1   -1    0    0  501    0  0.00000000000E+00  0.00000000000E+00  0.20238453873E+04  0.20238453874E+04  0.50400001928E-02 0.  1.
       -1   -1    0    0    0  501  0.00000000000E+00  0.00000000000E+00 -0.49662897268E+03  0.49662897270E+03  0.50400001928E-02 0. -1.
    10030    2    1    2    0    0  0.00000000000E+00  0.00000000000E+00  0.15272164147E+04  0.25204743601E+04  0.20050937690E+04 0.  0.
        4    1    3    3  502    0 -0.53010380356E+03 -0.60979230427E+03  0.17557867978E+02  0.80818722368E+03  0.12699999809E+01 0. -1.
       -4    1    3    3    0  502  0.53010380356E+03  0.60979230427E+03  0.15096585467E+04  0.17122871364E+04  0.12699999809E+01 0.  1.
</event>
<event>
 5   0  0.6214547E-05  0.2008137E+04  0.7818609E-02  0.8602826E-01
       -1   -1    0    0    0  501  0.00000000000E+00  0.00000000000E+00  0.54162272174E+03  0.54162272177E+03  0.50400001928E-02 0.  1.
        1   -1    0    0  501    0  0.00000000000E+00  0.00000000000E+00 -0.18613568510E+04  0.18613568510E+04  0.50400001928E-02 0. -1.
    10030    2    1    2    0    0  0.00000000000E+00  0.00000000000E+00 -0.13197341292E+04  0.24029795727E+04  0.20081366127E+04 0.  0.
        3    1    3    3  502    0 -0.82855408758E+03 -0.29141043200E+03 -0.12420836984E+04  0.15212474617E+04  0.10100000352E+00 0. -1.
       -3    1    3    3    0  502  0.82855408758E+03  0.29141043200E+03 -0.77650430851E+02  0.88173211098E+03  0.10100000352E+00 0.  1.
</event>
<event>
 5   0  0.1274868E-04  0.1993132E+04  0.7818609E-02  0.8609838E-01
       -2   -1    0    0    0  501  0.00000000000E+00  0.00000000000E+00  0.90590188049E+03  0.90590188049E+03  0.25500000920E-02 0. -1.
        2   -1    0    0  501    0  0.00000000000E+00  0.00000000000E+00 -0.10963037851E+04  0.10963037851E+04  0.25500000920E-02 0.  1.
    10030    2    1    2    0    0  0.00000000000E+00  0.00000000000E+00 -0.19040190466E+03  0.20022056656E+04  0.19931318677E+04 0.  0.
        1    1    3    3  502    0  0.92878947019E+03 -0.19552559934E+03  0.20993098337E+03  0.97208598269E+03  0.50400001928E-02 0. -1.
       -1    1    3    3    0  502 -0.92878947019E+03  0.19552559934E+03 -0.40033288803E+03  0.10301196829E+04  0.50400001928E-02 0.  1.
</event>
<event>
 5   0  0.1244229E-04  0.1976244E+04  0.7818609E-02  0.8617809E-01
       -2   -1    0    0    0  501  0.00000000000E+00  0.00000000000E+00  0.15181229779E+04  0.15181229779E+04  0.25500000920E-02 0.  1.
        2   -1    0    0  501    0  0.00000000000E+00  0.00000000000E+00 -0.64315277895E+03  0.64315277896E+03  0.25500000920E-02 0. -1.
    10030    2    1    2    0    0  0.00000000000E+00  0.00000000000E+00  0.87497019892E+03  0.21612757568E+04  0.19762439242E+04 0.  0.
        5    1    3    3  502    0  0.13432156558E+03  0.26037437443E+03 -0.59454625811E+03  0.66283062759E+03  0.46999998093E+01 0. -1.
       -5    1    3    3    0  502 -0.13432156558E+03 -0.26037437443E+03  0.14695164570E+04  0.14984451292E+04  0.46999998093E+01 0.  1.
</event>
<event>
 5   0  0.6028501E-05  0.1980160E+04  0.7818609E-02  0.8615953E-01
       -1   -1    0    0    0  501  0.00000000000E+00  0.00000000000E+00  0.11759271849E+04  0.11759271849E+04  0.50400001928E-02 0. -1.
        1   -1    0    0  501    0  0.00000000000E+00  0.00000000000E+00 -0.83360506904E+03  0.83360506906E+03  0.50400001928E-02 0.  1.
    10030    2    1    2    0    0  0.00000000000E+00  0.00000000000E+00  0.34232211588E+03  0.20095322540E+04  0.19801604604E+04 0.  0.
        4    1    3    3  502    0 -0.64407569323E+03 -0.59152523795E+03 -0.29996816372E+03  0.92450966349E+03  0.12699999809E+01 0.  1.
       -4    1    3    3    0  502  0.64407569323E+03  0.59152523795E+03  0.64229027960E+03  0.10850225905E+04  0.12699999809E+01 0. -1.
</event>
<event>
 5   0  0.1242761E-04  0.1995150E+04  0.7818609E-02  0.8608892E-01
        2   -1    0    0  501    0  0.00000000000E+00  0.00000000000E+00  0.10381464595E+04  0.10381464595E+04  0.25500000920E-02 0. -1.
       -2   -1    0    0    0  501  0.00000000000E+00  0.00000000000E+00 -0.95858910568E+03  0.95858910569E+03  0.25500000920E-02 0.  1.
    10030    2    1    2    0    0  0.00000000000E+00  0.00000000000E+00  0.79557353796E+02  0.19967355652E+04  0.19951500056E+04 0.  0.
        4    1    3    3  502    0  0.54087833690E+03 -0.17302445137E+03 -0.78103616763E+03  0.96566347355E+03  0.12699999809E+01 0.  1.
       -4    1    3    3    0  502 -0.54087833690E+03  0.17302445137E+03  0.86059352142E+03  0.10310720916E+04  0.12699999809E+01 0. -1.
</event>
<event>
 5   0  0.1281789E-04  0.1965696E+04  0.7818609E-02  0.8622829E-01
       -2   -1    0    0    0  501  0.00000000000E+00  0.00000000000E+00  0.15830611232E+04  0.15830611232E+04  0.25500000920E-02 0. -1.
        2   -1    0    0  501    0  0.00000000000E+00  0.00000000000E+00 -0.61020405836E+03  0.61020405837E+03  0.25500000920E-02 0.  1.
    10030    2    1    2    0    0  0.00000000000E+00  0.00000000000E+00  0.97285706488E+03  0.21932651816E+04  0.19656961332E+04 0.  0.
        2    1    3    3  502    0  0.39085303733E+03  0.23918634860E+03 -0.48372331065E+03  0.66630657165E+03  0.25500000920E-02 0.  1.
       -2    1    3    3    0  502 -0.39085303733E+03 -0.23918634860E+03  0.14565803755E+04  0.15269586100E+04  0.25500000920E-02 0. -1.
</event>
<event>
 5   0  0.6256535E-05  0.1992132E+04  0.7818609E-02  0.8610308E-01
        1   -1    0    0  501    0  0.00000000000E+00  0.00000000000E+00  0.10407079969E+04  0.10407079969E+04  0.50400001928E-02 0.  1.
       -1   -1    0    0    0  501  0.00000000000E+00  0.00000000000E+00 -0.95333884952E+03  0.95333884953E+03  0.50400001928E-02 0. -1.
    10030    2    1    2    0    0  0.00000000000E+00  0.00000000000E+00  0.87369147380E+02  0.19940468464E+04  0.19921318877E+04 0.  0.
        1    1    3    3  502    0 -0.70875226386E+03 -0.36707475957E+03  0.64013799094E+03  0.10231570252E+04  0.50400001928E-02 0.  1.
       -1    1    3    3    0  502  0.70875226386E+03  0.36707475957E+03 -0.55276884356E+03  0.97088982129E+03  0.50400001928E-02 0. -1.
</event>
<event>
 5   0  0.1281789E-04  0.1960036E+04  0.7818609E-02  0.8625537E-01
       -2   -1    0    0    0  501  0.00000000000E+00  0.00000000000E+00  0.80472793403E+03  0.80472793403E+03  0.25500000920E-02 0.  1.
        2   -1    0    0  501    0  0.00000000000E+00  0.00000000000E+00 -0.11934902386E+04  0.11934902386E+04  0.25500000920E-02 0. -1.
    10030    2    1    2    0    0  0.00000000000E+00  0.00000000000E+00 -0.38876230458E+03  0.19982181726E+04  0.19600356466E+04 0.  0.
        2    1    3    3  502    0 -0.54041938992E+03 -0.61026810623E+03 -0.74899603896E+03  0.11070118992E+04  0.25500000920E-02 0. -1.
       -2    1    3    3    0  502  0.54041938992E+03  0.61026810623E+03  0.36023373438E+03  0.89120627348E+03  0.25500000920E-02 0.  1.
</event>
<event>
 5   0  0.6222733E-05  0.1928521E+04  0.7818609E-02  0.8640789E-01
        1   -1    0    0  501    0  0.00000000000E+00  0.00000000000E+00  0.85910130808E+03  0.85910130810E+03  0.50400001928E-02 0. -1.
       -1   -1    0    0    0  501  0.00000000000E+00  0.00000000000E+00 -0.10822917239E+04  0.10822917240E+04  0.50400001928E-02 0.  1.
    10030    2    1    2    0    0  0.00000000000E+00  0.00000000000E+00 -0.22319041586E+03  0.19413930321E+04  0.19285209211E+04 0.  0.
        2    1    3    3  502    0  0.45512315880E+03 -0.26862539372E+03  0.70032486371E+03  0.87735489203E+03  0.25500000920E-02 0. -1.
       -2    1    3    3    0  502 -0.45512315880E+03  0.26862539372E+03 -0.92351527957E+03  0.10640381400E+04  0.25500000920E-02 0.  1.
</event>
<event>
 5   0  0.6028501E-05  0.1996469E+04  0.7818609E-02  0.8608273E-01
       -1   -1    0    0    0  501  0.00000000000E+00  0.00000000000E+00  0.74439589114E+03  0.74439589115E+03  0.50400001928E-02 0. -1.
        1   -1    0    0  501    0  0.00000000000E+00  0.00000000000E+00 -0.13386319970E+04  0.13386319971E+04  0.50400001928E-02 0.  1.
    10030    2    1    2    0    0  0.00000000000E+00  0.00000000000E+00 -0.59423610591E+03  0.20830278882E+04  0.19964690415E+04 0.  0.
        4    1    3    3  502    0 -0.47999919921E+03  0.74674678696E+03 -0.77346524551E+03  0.11774039638E+04  0.12699999809E+01 0.  1.
       -4    1    3    3    0  502  0.47999919921E+03 -0.74674678696E+03  0.17922913960E+03  0.90562392440E+03  0.12699999809E+01 0. -1.
</event>
<event>
 5   0  0.1274868E-04  0.1993465E+04  0.7818609E-02  0.8609682E-01
        2   -1    0    0  501    0  0.00000000000E+00  0.00000000000E+00  0.11658542658E+04  0.11658542658E+04  0.25500000920E-02 0. -1.
       -2   -1    0    0    0  501  0.00000000000E+00  0.00000000000E+00 -0.85214378650E+03  0.85214378650E+03  0.25500000920E-02 0.  1.
    10030    2    1    2    0    0  0.00000000000E+00  0.00000000000E+00  0.31371047931E+03  0.20179980523E+04  0.19934647913E+04 0.  0.
        1    1    3    3  502    0  0.36789911489E+03 -0.44027119470E+03 -0.66821333319E+03  0.88073693138E+03  0.50400001928E-02 0.  1.
       -1    1    3    3    0  502 -0.36789911489E+03  0.44027119470E+03  0.98192381251E+03  0.11372611209E+04  0.50400001928E-02 0. -1.
</event>
<event>
 5   0  0.1281789E-04  0.1978806E+04  0.7818609E-02  0.8616594E-01
       -2   -1    0    0    0  501  0.00000000000E+00  0.00000000000E+00  0.74139219467E+03  0.74139219467E+03  0.25500000920E-02 0.  1.
        2   -1    0    0  501    0  0.00000000000E+00  0.00000000000E+00 -0.13203782722E+04  0.13203782722E+04  0.25500000920E-02 0. -1.
    10030    2    1    2    0    0  0.00000000000E+00  0.00000000000E+00 -0.57898607757E+03  0.20617704669E+04  0.19788058470E+04 0.  0.
        2    1    3    3  502    0 -0.52059799555E+03  0.29416287141E+03 -0.11108088819E+04  0.12615270270E+04  0.25500000920E-02 0. -1.
       -2    1    3    3    0  502  0.52059799555E+03 -0.29416287141E+03  0.53182280430E+03  0.80024343988E+03  0.25500000920E-02 0.  1.
</event>
<event>
 5   0  0.6256535E-05  0.1969593E+04  0.7818609E-02  0.8620971E-01
        1   -1    0    0  501    0  0.00000000000E+00  0.00000000000E+00  0.11868111544E+04  0.11868111544E+04  0.50400001928E-02 0. -1.
       -1   -1    0    0    0  501  0.00000000000E+00  0.00000000000E+00 -0.81716772775E+03  0.81716772776E+03  0.50400001928E-02 0.  1.
    10030    2    1    2    0    0  0.00000000000E+00  0.00000000000E+00  0.36964342669E+03  0.20039788822E+04  0.19695926222E+04 0.  0.
        1    1    3    3  502    0  0.14002318772E+03 -0.50842953874E+03 -0.66139355625E+03  0.84590101385E+03  0.50400001928E-02 0.  1.
       -1    1    3    3    0  502 -0.14002318772E+03  0.50842953874E+03  0.10310369829E+04  0.11580778684E+04  0.50400001928E-02 0. -1.
</event>
<event>
 5   0  0.6222733E-05  0.2023575E+04  0.7818609E-02  0.8595677E-01
        1   -1    0    0  501    0  0.00000000000E+00  0.00000000000E+00  0.14892759560E+04  0.14892759560E+04  0.50400001928E-02 0. -1.
       -1   -1    0    0    0  501  0.00000000000E+00  0.00000000000E+00 -0.68739066678E+03  0.68739066680E+03  0.50400001928E-02 0.  1.
    10030    2    1    2    0    0  0.00000000000E+00  0.00000000000E+00  0.80188528924E+03  0.21766666228E+04  0.20235754421E+04 0.  0.
        2    1    3    3  502    0  0.51539950995E+03  0.81583203406E+03  0.72808260297E+03  0.12088518683E+04  0.25500000920E-02 0.  1.
       -2    1    3    3    0  502 -0.51539950995E+03 -0.81583203406E+03  0.73802686274E+02  0.96781475457E+03  0.25500000920E-02 0. -1.
</event>
<event>
 5   0  0.1274868E-04  0.2002615E+04  0.7818609E-02  0.8605399E-01
        2   -1    0    0  501    0  0.00000000000E+00  0.00000000000E+00  0.15316650310E+04  0.15316650310E+04  0.25500000920E-02 0.  1.
       -2   -1    0    0    0  501  0.00000000000E+00  0.00000000000E+00 -0.65459248025E+03  0.65459248026E+03  0.25500000920E-02 0. -1.
    10030    2    1    2    0    0  0.00000000000E+00  0.00000000000E+00  0.87707255072E+03  0.21862575112E+04  0.20026147024E+04 0.  0.
        1    1    3    3  502    0 -0.89132992836E+03 -0.26091592035E+03  0.29956495021E+02  0.92921663260E+03  0.50400001928E-02 0. -1.
       -1    1    3    3    0  502  0.89132992836E+03  0.26091592035E+03  0.84711605570E+03  0.12570408786E+04  0.50400001928E-02 0.  1.
</event>
<event>
 5   0  0.6222733E-05  0.1983404E+04  0.7818609E-02  0.8614420E-01
       -1   -1    0    0    0  501  0.00000000000E+00  0.00000000000E+00  0.17690187877E+04  0.17690187877E+04  0.50400001928E-02 0.  1.
        1   -1    0    0  501    0  0.00000000000E+00  0.00000000000E+00 -0.55594238702E+03  0.55594238704E+03  0.50400001928E-02 0. -1.
    10030    2    1    2    0    0  0.00000000000E+00  0.00000000000E+00  0.12130764007E+04  0.23249611748E+04  0.19834036680E+04 0.  0.
        2    1    3    3  502    0 -0.21059912856E+03  0.86525990331E+03  0.11180908420E+04  0.14293893186E+04  0.25500000920E-02 0.  1.
       -2    1    3    3    0  502  0.21059912856E+03 -0.86525990331E+03  0.94985558752E+02  0.89557185619E+03  0.25500000920E-02 0. -1.
</event>
<event>
 5   0  0.6214547E-05  0.1992962E+04  0.7818609E-02  0.8609918E-01
       -1   -1    0    0    0  501  0.00000000000E+00  0.00000000000E+00  0.99785539972E+03  0.99785539973E+03  0.50400001928E-02 0. -1.
        1   -1    0    0  501    0  0.00000000000E+00  0.00000000000E+00 -0.99510810201E+03  0.99510810203E+03  0.50400001928E-02 0.  1.
    10030    2    1    2    0    0  0.00000000000E+00  0.00000000000E+00  0.27472977084E+01  0.19929635018E+04  0.19929616082E+04 0.  0.
        3    1    3    3  502    0 -0.55265371502E+03  0.50894881479E+03 -0.65324056748E+03  0.99557936600E+03  0.10100000352E+00 0.  1.
       -3    1    3    3    0  502  0.55265371502E+03 -0.50894881479E+03  0.65598786519E+03  0.99738413576E+03  0.10100000352E+00 0. -1.
</event>
<event>
 5   0  0.1242761E-04  0.2032633E+04  0.7818609E-02  0.8591514E-01
        2   -1    0    0  501    0  0.00000000000E+00  0.00000000000E+00  0.71354295144E+03  0.71354295144E+03  0.25500000920E-02 0.  1.
       -2   -1    0    0    0  501  0.00000000000E+00  0.00000000000E+00 -0.14475646905E+04  0.14475646905E+04  0.25500000920E-02 0. -1.
    10030    2    1    2    0    0  0.00000000000E+00  0.00000000000E+00 -0.73402173901E+03  0.21611076419E+04  0.20326333478E+04 0.  0.
        4    1    3    3  502    0  0.34632413543E+03  0.91109981927E+03 -0.67304923805E+03  0.11844999693E+04  0.12699999809E+01 0. -1.
       -4    1    3    3    0  502 -0.34632413543E+03 -0.91109981927E+03 -0.60972500964E+02  0.97660767263E+03  0.12699999809E+01 0.  1.
</event>
<event>
 5   0  0.1242761E-04  0.2009444E+04  0.7818609E-02  0.8602218E-01
        2   -1    0    0  501    0  0.00000000000E+00  0.00000000000E+00  0.84197793256E+03  0.84197793257E+03  0.25500000920E-02 0.  1.
       -2   -1    0    0    0  501  0.00000000000E+00  0.00000000000E+00 -0.11989230122E+04  0.11989230122E+04  0.25500000920E-02 0. -1.
    10030    2    1    2    0    0  0.00000000000E+00  0.00000000000E+00 -0.35694507963E+03  0.20409009448E+04  0.20094444199E+04 0.  0.
        4    1    3    3  502    0 -0.21849369378E+03  0.42998361982E+03 -0.10736551437E+04  0.11770141835E+04  0.12699999809E+01 0. -1.
       -4    1    3    3    0  502  0.21849369378E+03 -0.42998361982E+03  0.71671006407E+03  0.86388676132E+03  0.12699999809E+01 0.  1.
</event>
<event>
 5   0  0.1242761E-04  0.2039961E+04  0.7818609E-02  0.8588162E-01
       -2   -1    0    0    0  501  0.00000000000E+00  0.00000000000E+00  0.12828396941E+04  0.12828396941E+04  0.25500000920E-02 0.  1.
        2   -1    0    0  501    0  0.00000000000E+00  0.00000000000E+00 -0.81098208561E+03  0.81098208561E+03  0.25500000920E-02 0. -1.
    10030    2    1    2    0    0  0.00000000000E+00  0.00000000000E+00  0.47185760851E+03  0.20938217797E+04  0.20399607944E+04 0.  0.
        4    1    3    3  502    0  0.89639352749E+03 -0.15403042551E+03  0.70975766279E+03  0.11536915883E+04  0.12699999809E+01 0.  1.
       -4    1    3    3    0  502 -0.89639352749E+03  0.15403042551E+03 -0.23790005429E+03  0.94013019143E+03  0.12699999809E+01 0. -1.
</event>
<event>
 5   0  0.1159914E-04  0.2020824E+04  0.7818609E-02  0.8596946E-01
        2   -1    0    0  501    0  0.00000000000E+00  0.00000000000E+00  0.14628991634E+04  0.14628991634E+04  0.25500000920E-02 0. -1.
       -2   -1    0    0    0  501  0.00000000000E+00  0.00000000000E+00 -0.69788320027E+03  0.69788320028E+03  0.25500000920E-02 0.  1.
    10030    2    1    2    0    0  0.00000000000E+00  0.00000000000E+00  0.76501596316E+03  0.21607823637E+04  0.20208243366E+04 0.  0.
        3    1    3    3  502    0 -0.32238732574E+03 -0.68599955334E+03  0.10969161101E+04  0.13333243933E+04  0.10100000352E+00 0. -1.
       -3    1    3    3    0  502  0.32238732574E+03  0.68599955334E+03 -0.33190014697E+03  0.82745797038E+03  0.10100000352E+00 0.  1.
</event>
<event>
 5   0  0.6256535E-05  0.1973082E+04  0.7818609E-02  0.8619310E-01
       -1   -1    0    0    0  501  0.00000000000E+00  0.00000000000E+00  0.55185271623E+03  0.55185271625E+03  0.50400001928E-02 0.  1.
        1   -1    0    0  501    0  0.00000000000E+00  0.00000000000E+00 -0.17636275852E+04  0.17636275852E+04  0.50400001928E-02 0. -1.
    10030    2    1    2    0    0  0.00000000000E+00  0.00000000000E+00 -0.12117748690E+04  0.23154803015E+04  0.19730815223E+04 0.  0.
        1    1    3    3  502    0 -0.44541012027E+03  0.17870946824E+03  0.40562585840E+03  0.62837853743E+03  0.50400001928E-02 0.  1.
       -1    1    3    3    0  502  0.44541012027E+03 -0.17870946824E+03 -0.16174007274E+04  0.16871017641E+04  0.50400001928E-02 0. -1.
</event>
<event>
 5   0  0.1281789E-04  0.1929877E+04  0.7818609E-02  0.8640126E-01
        2   -1    0    0  501    0  0.00000000000E+00  0.00000000000E+00  0.18580344363E+04  0.18580344363E+04  0.25500000920E-02 0. -1.
       -2   -1    0    0    0  501  0.00000000000E+00  0.00000000000E+00 -0.50112443530E+03  0.50112443531E+03  0.25500000920E-02 0.  1.
    10030    2    1    2    0    0  0.00000000000E+00  0.00000000000E+00  0.13569100010E+04  0.23591588717E+04  0.19298771543E+04 0.  0.
        2    1    3    3  502    0  0.31795335915E+03  0.78039713565E+03  0.10378804935E+03  0.84905004983E+03  0.25500000920E-02 0.  1.
       -2    1    3    3    0  502 -0.31795335915E+03 -0.78039713565E+03  0.12531219517E+04  0.15101088218E+04  0.25500000920E-02 0. -1.
</event>
<event>
 5   0  0.1274868E-04  0.1946814E+04  0.7818609E-02  0.8631899E-01
       -2   -1    0    0    0  501  0.00000000000E+00  0.00000000000E+00  0.13952472338E+04  0.13952472338E+04  0.25500000920E-02 0. -1.
        2   -1    0    0  501    0  0.00000000000E+00  0.00000000000E+00 -0.67910627828E+03  0.67910627828E+03  0.25500000920E-02 0.  1.
    10030    2    1    2    0    0  0.00000000000E+00  0.00000000000E+00  0.71614095551E+03  0.20743535121E+04  0.19468139677E+04 0.  0.
        1    1    3    3  502    0 -0.11910773405E+03  0.94773510928E+03  0.55778694454E+03  0.11061260169E+04  0.50400001928E-02 0. -1.
       -1    1    3    3    0  502  0.11910773405E+03 -0.94773510928E+03  0.15835401097E+03  0.96822749521E+03  0.50400001928E-02 0.  1.
</event>
<event>
 5   0  0.6222733E-05  0.1744305E+04  0.7818609E-02  0.8736492E-01
        1   -1    0    0  501    0  0.00000000000E+00  0.00000000000E+00  0.15507847921E+04  0.15507847921E+04  0.50400001928E-02 0. -1.
       -1   -1    0    0    0  501  0.00000000000E+00  0.00000000000E+00 -0.49049337451E+03  0.49049337453E+03  0.50400001928E-02 0.  1.
    10030    2    1    2    0    0  0.00000000000E+00  0.00000000000E+00  0.10602914176E+04  0.20412781667E+04  0.17443046361E+04 0.  0.
        2    1    3    3  502    0  0.30211758523E+03  0.26339915243E+02 -0.42680439707E+03  0.52357503742E+03  0.25500000920E-02 0.  1.
       -2    1    3    3    0  502 -0.30211758523E+03 -0.26339915243E+02  0.14870958147E+04  0.15177031292E+04  0.25500000920E-02 0. -1.
</event>
<event>
 5   0  0.6222733E-05  0.1984624E+04  0.7818609E-02  0.8613843E-01
       -1   -1    0    0    0  501  0.00000000000E+00  0.00000000000E+00  0.30960721641E+03  0.30960721645E+03  0.50400001928E-02 0. -1.
        1   -1    0    0  501    0  0.00000000000E+00  0.00000000000E+00 -0.31804270568E+04  0.31804270568E+04  0.50400001928E-02 0.  1.
    10030    2    1    2    0    0  0.00000000000E+00  0.00000000000E+00 -0.28708198404E+04  0.34900342732E+04  0.19846240633E+04 0.  0.
        2    1    3    3  502    0 -0.93420789338E+03  0.27681527413E+03 -0.11049543217E+04  0.14731921589E+04  0.25500000920E-02 0.  1.
       -2    1    3    3    0  502  0.93420789338E+03 -0.27681527413E+03 -0.17658655187E+04  0.20168421143E+04  0.25500000920E-02 0. -1.
</event>
<event>
 5   0  0.1274868E-04  0.2008050E+04  0.7818609E-02  0.8602866E-01
       -2   -1    0    0    0  501  0.00000000000E+00  0.00000000000E+00  0.51730111136E+03  0.51730111137E+03  0.25500000920E-02 0.  1.
        2   -1    0    0  501    0  0.00000000000E+00  0.00000000000E+00 -0.19487021113E+04  0.19487021113E+04  0.25500000920E-02 0. -1.
    10030    2    1    2    0    0  0.00000000000E+00  0.00000000000E+00 -0.14314009999E+04  0.24660032226E+04  0.20080495690E+04 0.  0.
        1    1    3    3  502    0 -0.68209584311E+03 -0.73323937090E+03 -0.62739073447E+03  0.11817418703E+04  0.50400001928E-02 0. -1.
       -1    1    3    3    0  502  0.68209584311E+03  0.73323937090E+03 -0.80401026543E+03  0.12842613524E+04  0.50400001928E-02 0.  1.
</event>
<event>
 5   0  0.1242761E-04  0.2013089E+04  0.7818609E-02  0.8600526E-01
       -2   -1    0    0    0  501  0.00000000000E+00  0.00000000000E+00  0.71959532823E+03  0.71959532823E+03  0.25500000920E-02 0.  1.
        2   -1    0    0  501    0  0.00000000000E+00  0.00000000000E+00 -0.14079187569E+04  0.14079187569E+04  0.25500000920E-02 0. -1.
    10030    2    1    2    0    0  0.00000000000E+00  0.00000000000E+00 -0.68832342870E+03  0.21275140852E+04  0.20130889300E+04 0.  0.
        4    1    3    3  502    0 -0.45494322657E+03  0.59274788162E+03 -0.10568882646E+04  0.12943484103E+04  0.12699999809E+01 0. -1.
       -4    1    3    3    0  502  0.45494322657E+03 -0.59274788162E+03  0.36856483590E+03  0.83316567484E+03  0.12699999809E+01 0.  1.
</event>
<event>
 5   0  0.1242761E-04  0.1998597E+04  0.7818609E-02  0.8607277E-01
       -2   -1    0    0    0  501  0.00000000000E+00  0.00000000000E+00  0.82969668991E+03  0.82969668991E+03  0.25500000920E-02 0.  1.
        2   -1    0    0  501    0  0.00000000000E+00  0.00000000000E+00 -0.12035690715E+04  0.12035690715E+04  0.25500000920E-02 0. -1.
    10030    2    1    2    0    0  0.00000000000E+00  0.00000000000E+00 -0.37387238159E+03  0.20332657614E+04  0.19985967824E+04 0.  0.
        4    1    3    3  502    0 -0.62715331052E+03 -0.76177113137E+03 -0.26146714553E+02  0.98706726978E+03  0.12699999809E+01 0.  1.
       -4    1    3    3    0  502  0.62715331052E+03  0.76177113137E+03 -0.34772566703E+03  0.10461984916E+04  0.12699999809E+01 0. -1.
</event>
<event>
 5   0  0.6214547E-05  0.1965060E+04  0.7818609E-02  0.8623133E-01
        1   -1    0    0  501    0  0.00000000000E+00  0.00000000000E+00  0.11067124508E+04  0.11067124508E+04  0.50400001928E-02 0.  1.
       -1   -1    0    0    0  501  0.00000000000E+00  0.00000000000E+00 -0.87228212565E+03  0.87228212567E+03  0.50400001928E-02 0. -1.
    10030    2    1    2    0    0  0.00000000000E+00  0.00000000000E+00  0.23443032514E+03  0.19789945765E+04  0.19650602933E+04 0.  0.
        3    1    3    3  502    0  0.61725074121E+03  0.27277183038E+03  0.83639558625E+03  0.10746909025E+04  0.10100000352E+00 0.  1.
       -3    1    3    3    0  502 -0.61725074121E+03 -0.27277183038E+03 -0.60196526112E+03  0.90430367398E+03  0.10100000352E+00 0. -1.
</event>
<event>
 5   0  0.6168338E-05  0.1992691E+04  0.7818609E-02  0.8610046E-01
        1   -1    0    0  501    0  0.00000000000E+00  0.00000000000E+00  0.47666088372E+03  0.47666088375E+03  0.50400001928E-02 0.  1.
       -1   -1    0    0    0  501  0.00000000000E+00  0.00000000000E+00 -0.20826213490E+04  0.20826213490E+04  0.50400001928E-02 0. -1.
    10030    2    1    2    0    0  0.00000000000E+00  0.00000000000E+00 -0.16059604653E+04  0.25592822328E+04  0.19926907765E+04 0.  0.
        5    1    3    3  502    0  0.52790073653E+03 -0.80956097845E+03 -0.49203887076E+03  0.10845240918E+04  0.46999998093E+01 0. -1.
       -5    1    3    3    0  502 -0.52790073653E+03  0.80956097845E+03 -0.11139215945E+04  0.14747581409E+04  0.46999998093E+01 0.  1.
</event>
<event>
 5   0  0.1281789E-04  0.1969891E+04  0.7818609E-02  0.8620829E-01
        2   -1    0    0  501    0  0.00000000000E+00  0.00000000000E+00  0.18023832858E+04  0.18023832858E+04  0.25500000920E-02 0. -1.
       -2   -1    0    0    0  501  0.00000000000E+00  0.00000000000E+00 -0.53824134460E+03  0.53824134460E+03  0.25500000920E-02 0.  1.
    10030    2    1    2    0    0  0.00000000000E+00  0.00000000000E+00  0.12641419412E+04  0.23406246304E+04  0.19698905586E+04 0.  0.
        2    1    3    3  502    0 -0.60139109900E+03 -0.60498682031E+02  0.15561103633E+04  0.16693743760E+04  0.25500000920E-02 0. -1.
       -2    1    3    3    0  502  0.60139109900E+03  0.60498682031E+02 -0.29196842212E+03  0.67125025438E+03  0.25500000920E-02 0.  1.
</event>
<event>
 5   0  0.6222733E-05  0.1998790E+04  0.7818609E-02  0.8607187E-01
        1   -1    0    0  501    0  0.00000000000E+00  0.00000000000E+00  0.13638570927E+04  0.13638570927E+04  0.50400001928E-02 0. -1.
       -1   -1    0    0    0  501  0.00000000000E+00  0.00000000000E+00 -0.73232752727E+03  0.73232752728E+03  0.50400001928E-02 0.  1.
    10030    2    1    2    0    0  0.00000000000E+00  0.00000000000E+00  0.63152956547E+03  0.20961846200E+04  0.19987897261E+04 0.  0.
        2    1    3    3  502    0 -0.28342258674E+03 -0.78183149192E+03 -0.26549986405E+03  0.87297137539E+03  0.25500000920E-02 0.  1.
       -2    1    3    3    0  502  0.28342258674E+03  0.78183149192E+03  0.89702942952E+03  0.12232132446E+04  0.25500000920E-02 0. -1.
</event>
<event>
 5   0  0.6222733E-05  0.1993728E+04  0.7818609E-02  0.8609558E-01
        1   -1    0    0  501    0  0.00000000000E+00  0.00000000000E+00  0.14914282789E+04  0.14914282789E+04  0.50400001928E-02 0. -1.
       -1   -1    0    0    0  501  0.00000000000E+00  0.00000000000E+00 -0.66629970596E+03  0.66629970598E+03  0.50400001928E-02 0.  1.
    10030    2    1    2    0    0  0.00000000000E+00  0.00000000000E+00  0.82512857298E+03  0.21577279849E+04  0.19937283905E+04 0.  0.
        2    1    3    3  502    0  0.49858190949E+03 -0.49205144013E+03  0.11801587338E+04  0.13723968730E+04  0.25500000920E-02 0. -1.
       -2    1    3    3    0  502 -0.49858190949E+03  0.49205144013E+03 -0.35503016080E+03  0.78533111188E+03  0.25500000920E-02 0.  1.
</event>
<event>
 5   0  0.6256535E-05  0.1999276E+04  0.7818609E-02  0.8606959E-01
        1   -1    0    0  501    0  0.00000000000E+00  0.00000000000E+00  0.15249011711E+04  0.15249011711E+04  0.50400001928E-02 0. -1.
       -1   -1    0    0    0  501  0.00000000000E+00  0.00000000000E+00 -0.65530522598E+03  0.65530522600E+03  0.50400001928E-02 0.  1.
    10030    2    1    2    0    0  0.00000000000E+00  0.00000000000E+00  0.86959594513E+03  0.21802063971E+04  0.19992755754E+04 0.  0.
        1    1    3    3  502    0 -0.52240724037E+03 -0.53683122815E+03 -0.28705797322E+03  0.80218412619E+03  0.50400001928E-02 0.  1.
       -1    1    3    3    0  502  0.52240724037E+03  0.53683122815E+03  0.11566539184E+04  0.13780222709E+04  0.50400001928E-02 0. -1.
</event>
<event>
 5   0  0.1281789E-04  0.2013327E+04  0.7818609E-02  0.8600415E-01
        2   -1    0    0  501    0  0.00000000000E+00  0.00000000000E+00  0.13941460783E+04  0.13941460783E+04  0.25500000920E-02 0. -1.
       -2   -1    0    0    0  501  0.00000000000E+00  0.00000000000E+00 -0.72687618892E+03  0.72687618892E+03  0.25500000920E-02 0.  1.
    10030    2    1    2    0    0  0.00000000000E+00  0.00000000000E+00  0.66726988941E+03  0.21210222673E+04  0.20133271848E+04 0.  0.
        2    1    3    3  502    0  0.24782335533E+02  0.92387566123E+03 -0.86721451367E+02  0.92826774785E+03  0.25500000920E-02 0.  1.
       -2    1    3    3    0  502 -0.24782335533E+02 -0.92387566123E+03  0.75399134077E+03  0.11927545194E+04  0.25500000920E-02 0. -1.
</event>
<event>
 5   0  0.1242761E-04  0.1993113E+04  0.7818609E-02  0.8609847E-01
       -2   -1    0    0    0  501  0.00000000000E+00  0.00000000000E+00  0.66442510621E+03  0.66442510621E+03  0.25500000920E-02 0. -1.
        2   -1    0    0  501    0  0.00000000000E+00  0.00000000000E+00 -0.14947134288E+04  0.14947134288E+04  0.25500000920E-02 0.  1.
    10030    2    1    2    0    0  0.00000000000E+00  0.00000000000E+00 -0.83028832255E+03  0.21591385350E+04  0.19931132719E+04 0.  0.
        4    1    3    3  502    0  0.95355644896E+02 -0.98900296813E+03 -0.33190653101E+03  0.10475605606E+04  0.12699999809E+01 0. -1.
       -4    1    3    3    0  502 -0.95355644896E+02  0.98900296813E+03 -0.49838179154E+03  0.11115779743E+04  0.12699999809E+01 0.  1.
</event>
<event>
 5   0  0.6256535E-05  0.2007023E+04  0.7818609E-02  0.8603344E-01
       -1   -1    0    0    0  501  0.00000000000E+00  0.00000000000E+00  0.10169511075E+04  0.10169511075E+04  0.50400001928E-02 0.  1.
        1   -1    0    0  501    0  0.00000000000E+00  0.00000000000E+00 -0.99024918402E+03  0.99024918404E+03  0.50400001928E-02 0. -1.
    10030    2    1    2    0    0  0.00000000000E+00  0.00000000000E+00  0.26701923431E+02  0.20072002915E+04  0.20070226749E+04 0.  0.
        1    1    3    3  502    0  0.61687900083E+03 -0.10987221939E+03 -0.77057005016E+03  0.99317159065E+03  0.50400001928E-02 0. -1.
       -1    1    3    3    0  502 -0.61687900083E+03  0.10987221939E+03  0.79727197359E+03  0.10140287009E+04  0.50400001928E-02 0.  1.
</event>
<event>
 5   0  0.1274868E-04  0.1995742E+04  0.7818609E-02  0.8608614E-01
       -2   -1    0    0    0  501  0.00000000000E+00  0.00000000000E+00  0.88937320484E+03  0.88937320484E+03  0.25500000920E-02 0. -1.
        2   -1    0    0  501    0  0.00000000000E+00  0.00000000000E+00 -0.11196049072E+04  0.11196049072E+04  0.25500000920E-02 0.  1.
    10030    2    1    2    0    0  0.00000000000E+00  0.00000000000E+00 -0.23023170239E+03  0.20089781121E+04  0.19957420720E+04 0.  0.
        1    1    3    3  502    0  0.35802423319E+03 -0.15282287632E+03 -0.10400187634E+04  0.11104842238E+04  0.50400001928E-02 0.  1.
       -1    1    3    3    0  502 -0.35802423319E+03  0.15282287632E+03  0.80978706100E+03  0.89849388828E+03  0.50400001928E-02 0. -1.
</event>
<event>
 5   0  0.6222733E-05  0.2005102E+04  0.7818609E-02  0.8604239E-01
        1   -1    0    0  501    0  0.00000000000E+00  0.00000000000E+00  0.20553321865E+04  0.20553321865E+04  0.50400001928E-02 0.  1.
       -1   -1    0    0    0  501  0.00000000000E+00  0.00000000000E+00 -0.48902501246E+03  0.48902501249E+03  0.50400001928E-02 0. -1.
    10030    2    1    2    0    0  0.00000000000E+00  0.00000000000E+00  0.15663071741E+04  0.25443571990E+04  0.20051023397E+04 0.  0.
        2    1    3    3  502    0  0.61706428284E+03  0.18899202459E+03  0.17567074389E+04  0.18714986883E+04  0.25500000920E-02 0.  1.
       -2    1    3    3    0  502 -0.61706428284E+03 -0.18899202459E+03 -0.19040026486E+03  0.67285851067E+03  0.25500000920E-02 0. -1.
</event>
<event>
 5   0  0.6256535E-05  0.1991982E+04  0.7818609E-02  0.8610379E-01
        1   -1    0    0  501    0  0.00000000000E+00  0.00000000000E+00  0.15185542496E+04  0.15185542496E+04  0.50400001928E-02 0. -1.
       -1   -1    0    0    0  501  0.00000000000E+00  0.00000000000E+00 -0.65325147253E+03  0.65325147255E+03  0.50400001928E-02 0.  1.
    10030    2    1    2    0    0  0.00000000000E+00  0.00000000000E+00  0.86530277711E+03  0.21718057222E+04  0.19919817265E+04 0.  0.
        1    1    3    3  502    0  0.48285288868E+03  0.80369444180E+03  0.79903230863E+03  0.12318783618E+04  0.50400001928E-02 0. -1.
       -1    1    3    3    0  502 -0.48285288868E+03 -0.80369444180E+03  0.66270468482E+02  0.93992736044E+03  0.50400001928E-02 0.  1.
</event>
<event>
 5   0  0.6214547E-05  0.1987809E+04  0.7818609E-02  0.8612342E-01
       -1   -1    0    0    0  501  0.00000000000E+00  0.00000000000E+00  0.88293141459E+03  0.88293141461E+03  0.50400001928E-02 0.  1.
        1   -1    0    0  501    0  0.00000000000E+00  0.00000000000E+00 -0.11188249826E+04  0.11188249826E+04  0.50400001928E-02 0. -1.
    10030    2    1    2    0    0  0.00000000000E+00  0.00000000000E+00 -0.23589356799E+03  0.20017563972E+04  0.19878085668E+04 0.  0.
        3    1    3    3  502    0 -0.50570121674E+03  0.38040299120E+03  0.65385484863E+03  0.90992655176E+03  0.10100000352E+00 0.  1.
       -3    1    3    3    0  502  0.50570121674E+03 -0.38040299120E+03 -0.88974841661E+03  0.10918298454E+04  0.10100000352E+00 0. -1.
</event>
<event>
 5   0  0.6256535E-05  0.2002080E+04  0.7818609E-02  0.8605649E-01
        1   -1    0    0  501    0  0.00000000000E+00  0.00000000000E+00  0.27178642001E+04  0.27178642001E+04  0.50400001928E-02 0. -1.
       -1   -1    0    0    0  501  0.00000000000E+00  0.00000000000E+00 -0.36870165768E+03  0.36870165771E+03  0.50400001928E-02 0.  1.
    10030    2    1    2    0    0  0.00000000000E+00  0.00000000000E+00  0.23491625424E+04  0.30865658578E+04  0.20020799544E+04 0.  0.
        1    1    3    3  502    0 -0.88379008177E+03 -0.46565256309E+03  0.12740622361E+04  0.16189971586E+04  0.50400001928E-02 0. -1.
       -1    1    3    3    0  502  0.88379008177E+03  0.46565256309E+03  0.10751003063E+04  0.14675686992E+04  0.50400001928E-02 0.  1.
</event>
<event>
 5   0  0.6256535E-05  0.2257216E+04  0.7818609E-02  0.8494984E-01
        1   -1    0    0  501    0  0.00000000000E+00  0.00000000000E+00  0.17414643229E+04  0.17414643229E+04  0.50400001928E-02 0. -1.
       -1   -1    0    0    0  501  0.00000000000E+00  0.00000000000E+00 -0.73142793962E+03  0.73142793964E+03  0.50400001928E-02 0.  1.
    10030    2    1    2    0    0  0.00000000000E+00  0.00000000000E+00  0.10100363833E+04  0.24728922626E+04  0.22572156846E+04 0.  0.
        1    1    3    3  502    0  0.84720761777E+03 -0.46363224815E+03 -0.13476795140E+03  0.97512974003E+03  0.50400001928E-02 0.  1.
       -1    1    3    3    0  502 -0.84720761777E+03  0.46363224815E+03  0.11448043347E+04  0.14977625225E+04  0.50400001928E-02 0. -1.
</event>
<event>
 5   0  0.6222733E-05  0.2035304E+04  0.7818609E-02  0.8590290E-01
       -1   -1    0    0    0  501  0.00000000000E+00  0.00000000000E+00  0.11889605002E+04  0.11889605002E+04  0.50400001928E-02 0. -1.
        1   -1    0    0  501    0  0.00000000000E+00  0.00000000000E+00 -0.87102643252E+03  0.87102643253E+03  0.50400001928E-02 0.  1.
    10030    2    1    2    0    0  0.00000000000E+00  0.00000000000E+00  0.31793406767E+03  0.20599869327E+04  0.20353044223E+04 0.  0.
        2    1    3    3  502    0 -0.68966594970E+03  0.52704075461E+03 -0.37870493820E+03  0.94701030058E+03  0.25500000920E-02 0.  1.
       -2    1    3    3    0  502  0.68966594970E+03 -0.52704075461E+03  0.69663900587E+03  0.11129766321E+04  0.25500000920E-02 0. -1.
</event>
<event>
 5   0  0.6256535E-05  0.2011304E+04  0.7818609E-02  0.8601354E-01
        1   -1    0    0  501    0  0.00000000000E+00  0.00000000000E+00  0.13795427259E+04  0.13795427259E+04  0.50400001928E-02 0.  1.
       -1   -1    0    0    0  501  0.00000000000E+00  0.00000000000E+00 -0.73309515923E+03  0.73309515925E+03  0.50400001928E-02 0. -1.
    10030    2    1    2    0    0  0.00000000000E+00  0.00000000000E+00  0.64644756669E+03  0.21126378852E+04  0.20113041484E+04 0.  0.
        1    1    3    3  502    0  0.83467311448E+03  0.25252632761E+02 -0.26538319857E+03  0.87621067421E+03  0.50400001928E-02 0. -1.
       -1    1    3    3    0  502 -0.83467311448E+03 -0.25252632761E+02  0.91183076526E+03  0.12364272110E+04  0.50400001928E-02 0.  1.
</event>
<event>
 5   0  0.1281789E-04  0.1999981E+04  0.7818609E-02  0.8606630E-01
        2   -1    0    0  501    0  0.00000000000E+00  0.00000000000E+00  0.71444280995E+03  0.71444280996E+03  0.25500000920E-02 0. -1.
       -2   -1    0    0    0  501  0.00000000000E+00  0.00000000000E+00 -0.13996651250E+04  0.13996651250E+04  0.25500000920E-02 0.  1.
    10030    2    1    2    0    0  0.00000000000E+00  0.00000000000E+00 -0.68522231501E+03  0.21141079349E+04  0.19999806848E+04 0.  0.
        2    1    3    3  502    0 -0.24245589600E+03 -0.87521387740E+03 -0.78506101345E+03  0.12004603232E+04  0.25500000920E-02 0. -1.
       -2    1    3    3    0  502  0.24245589600E+03  0.87521387740E+03  0.99838698443E+02  0.91364761173E+03  0.25500000920E-02 0.  1.
</event>
<event>
 5   0  0.6222733E-05  0.2032937E+04  0.7818609E-02  0.8591374E-01
       -1   -1    0    0    0  501  0.00000000000E+00  0.00000000000E+00  0.64351997391E+03  0.64351997393E+03  0.50400001928E-02 0.  1.
        1   -1    0    0  501    0  0.00000000000E+00  0.00000000000E+00 -0.16055577236E+04  0.16055577236E+04  0.50400001928E-02 0. -1.
    10030    2    1    2    0    0  0.00000000000E+00  0.00000000000E+00 -0.96203774965E+03  0.22490776975E+04  0.20329372488E+04 0.  0.
        2    1    3    3  502    0  0.30745806543E+03  0.50436707479E+03 -0.13961876025E+04  0.15160001417E+04  0.25500000920E-02 0. -1.
       -2    1    3    3    0  502 -0.30745806543E+03 -0.50436707479E+03  0.43414985285E+03  0.73307755583E+03  0.25500000920E-02 0.  1.
</event>
<event>
 5   0  0.6168338E-05  0.2004278E+04  0.7818609E-02  0.8604623E-01
        1   -1    0    0  501    0  0.00000000000E+00  0.00000000000E+00  0.11828750546E+04  0.11828750546E+04  0.50400001928E-02 0. -1.
       -1   -1    0    0    0  501  0.00000000000E+00  0.00000000000E+00 -0.84901827019E+03  0.84901827021E+03  0.50400001928E-02 0.  1.
    10030    2    1    2    0    0  0.00000000000E+00  0.00000000000E+00  0.33385678443E+03  0.20318933248E+04  0.20042779575E+04 0.  0.
        5    1    3    3  502    0 -0.45436789540E+03 -0.33777955088E+03 -0.67133515623E+03  0.87821306717E+03  0.46999998093E+01 0.  1.
       -5    1    3    3    0  502  0.45436789540E+03  0.33777955088E+03  0.10051919407E+04  0.11536802577E+04  0.46999998093E+01 0. -1.
</event>
<event>
 5   0  0.1274868E-04  0.2001236E+04  0.7818609E-02  0.8606043E-01
       -2   -1    0    0    0  501  0.00000000000E+00  0.00000000000E+00  0.57188214688E+03  0.57188214688E+03  0.25500000920E-02 0.  1.
        2   -1    0    0  501    0  0.00000000000E+00  0.00000000000E+00 -0.17507737895E+04  0.17507737895E+04  0.25500000920E-02 0. -1.
    10030    2    1    2    0    0  0.00000000000E+00  0.00000000000E+00 -0.11788916426E+04  0.23226559364E+04  0.20012358916E+04 0.  0.
        1    1    3    3  502    0  0.13927474892E+03 -0.39730172226E+03 -0.16429775272E+04  0.16960605146E+04  0.50400001928E-02 0. -1.
       -1    1    3    3    0  502 -0.13927474892E+03  0.39730172226E+03  0.46408588465E+03  0.62659542174E+03  0.50400001928E-02 0.  1.
</event>
<event>
 5   0  0.1274868E-04  0.2010713E+04  0.7818609E-02  0.8601628E-01
       -2   -1    0    0    0  501  0.00000000000E+00  0.00000000000E+00  0.32255946327E+04  0.32255946327E+04  0.25500000920E-02 0.  1.
        2   -1    0    0  501    0  0.00000000000E+00  0.00000000000E+00 -0.31335063665E+03  0.31335063666E+03  0.25500000920E-02 0. -1.
    10030    2    1    2    0    0  0.00000000000E+00  0.00000000000E+00  0.29122439961E+04  0.35389452694E+04  0.20107134373E+04 0.  0.
        1    1    3    3  502    0  0.41676951901E+02  0.41633170145E+03 -0.15282549531E+03  0.44544885901E+03  0.50400001928E-02 0. -1.
       -1    1    3    3    0  502 -0.41676951901E+02 -0.41633170145E+03  0.30650694914E+04  0.30934964104E+04  0.50400001928E-02 0.  1.
</event>
<event>
 5   0  0.1281789E-04  0.1984069E+04  0.7818609E-02  0.8614105E-01
       -2   -1    0    0    0  501  0.00000000000E+00  0.00000000000E+00  0.14234132766E+04  0.14234132766E+04  0.25500000920E-02 0. -1.
        2   -1    0    0  501    0  0.00000000000E+00  0.00000000000E+00 -0.69138887206E+03  0.69138887206E+03  0.25500000920E-02 0.  1.
    10030    2    1    2    0    0  0.00000000000E+00  0.00000000000E+00  0.73202440454E+03  0.21148021487E+04  0.19840686478E+04 0.  0.
        2    1    3    3  502    0  0.69458925886E+03 -0.33093997319E+03  0.10334992000E+04  0.12884471664E+04  0.25500000920E-02 0. -1.
       -2    1    3    3    0  502 -0.69458925886E+03  0.33093997319E+03 -0.30147479541E+03  0.82635498223E+03  0.25500000920E-02 0.  1.
</event>
<event>
 5   0  0.1244229E-04  0.1985452E+04  0.7818609E-02  0.8613453E-01
        2   -1    0    0  501    0  0.00000000000E+00  0.00000000000E+00  0.98125579709E+03  0.98125579709E+03  0.25500000920E-02 0. -1.
       -2   -1    0    0    0  501  0.00000000000E+00  0.00000000000E+00 -0.10043302366E+04  0.10043302366E+04  0.25500000920E-02 0.  1.
    10030    2    1    2    0    0  0.00000000000E+00  0.00000000000E+00 -0.23074439499E+02  0.19855860337E+04  0.19854519554E+04 0.  0.
        5    1    3    3  502    0 -0.61882981121E+03  0.64245297726E+03  0.42413725413E+03  0.98773005602E+03  0.46999998093E+01 0. -1.
       -5    1    3    3    0  502  0.61882981121E+03 -0.64245297726E+03 -0.44721169363E+03  0.99785597766E+03  0.46999998093E+01 0.  1.
</event>
<event>
 5   0  0.6028501E-05  0.2004652E+04  0.7818609E-02  0.8604449E-01
        1   -1    0    0  501    0  0.00000000000E+00  0.00000000000E+00  0.77636012095E+03  0.77636012097E+03  0.50400001928E-02 0.  1.
       -1   -1    0    0    0  501  0.00000000000E+00  0.00000000000E+00 -0.12940606577E+04  0.12940606577E+04  0.50400001928E-02 0. -1.
    10030    2    1    2    0    0  0.00000000000E+00  0.00000000000E+00 -0.51770053670E+03  0.20704207786E+04  0.20046516792E+04 0.  0.
        4    1    3    3  502    0 -0.59355013631E+03 -0.80498937610E+03 -0.19076465469E+03  0.10181858506E+04  0.12699999809E+01 0. -1.
       -4    1    3    3    0  502  0.59355013631E+03  0.80498937610E+03 -0.32693588200E+03  0.10522349280E+04  0.12699999809E+01 0.  1.
</event>
<event>
 5   0  0.1274868E-04  0.2021172E+04  0.7818609E-02  0.8596786E-01
       -2   -1    0    0    0  501  0.00000000000E+00  0.00000000000E+00  0.11695509378E+04  0.11695509378E+04  0.25500000920E-02 0. -1.
        2   -1    0    0  501    0  0.00000000000E+00  0.00000000000E+00 -0.87322721619E+03  0.87322721620E+03  0.25500000920E-02 0.  1.
    10030    2    1    2    0    0  0.00000000000E+00  0.00000000000E+00  0.29632372165E+03  0.20427781540E+04  0.20211716500E+04 0.  0.
        1    1    3    3  502    0 -0.48866457433E+03  0.88096381390E+03  0.67348342660E+02  0.10096663344E+04  0.50400001928E-02 0.  1.
       -1    1    3    3    0  502  0.48866457433E+03 -0.88096381390E+03  0.22897537899E+03  0.10331118196E+04  0.50400001928E-02 0. -1.
</event>
<event>
 5   0  0.6256535E-05  0.1810143E+04  0.7818609E-02  0.8700924E-01
        1   -1    0    0  501    0  0.00000000000E+00  0.00000000000E+00  0.97215420933E+03  0.97215420934E+03  0.50400001928E-02 0.  1.
       -1   -1    0    0    0  501  0.00000000000E+00  0.00000000000E+00 -0.84261749917E+03  0.84261749919E+03  0.50400001928E-02 0. -1.
    10030    2    1    2    0    0  0.00000000000E+00  0.00000000000E+00  0.12953671015E+03  0.18147717085E+04  0.18101427001E+04 0.  0.
        1    1    3    3  502    0 -0.46534591869E+03  0.21843928738E+01 -0.71349157488E+03  0.85183438710E+03  0.50400001928E-02 0. -1.
       -1    1    3    3    0  502  0.46534591869E+03 -0.21843928738E+01  0.84302828503E+03  0.96293732142E+03  0.50400001928E-02 0.  1.
</event>
<event>
 5   0  0.6222733E-05  0.1969739E+04  0.7818609E-02  0.8620901E-01
        1   -1    0    0  501    0  0.00000000000E+00  0.00000000000E+00  0.91247679611E+03  0.91247679613E+03  0.50400001928E-02 0.  1.
       -1   -1    0    0    0  501  0.00000000000E+00  0.00000000000E+00 -0.10630059714E+04  0.10630059714E+04  0.50400001928E-02 0. -1.
    10030    2    1    2    0    0  0.00000000000E+00  0.00000000000E+00 -0.15052917528E+03  0.19754827675E+04  0.19697393564E+04 0.  0.
        2    1    3    3  502    0 -0.33164339685E+03 -0.45449653773E+03  0.73543256356E+03  0.92596733259E+03  0.25500000920E-02 0.  1.
       -2    1    3    3    0  502  0.33164339685E+03  0.45449653773E+03 -0.88596173884E+03  0.10495154349E+04  0.25500000920E-02 0. -1.
</event>
<event>
 5   0  0.6256535E-05  0.2007114E+04  0.7818609E-02  0.8603302E-01
        1   -1    0    0  501    0  0.00000000000E+00  0.00000000000E+00  0.18870321966E+04  0.18870321966E+04  0.50400001928E-02 0. -1.
       -1   -1    0    0    0  501  0.00000000000E+00  0.00000000000E+00 -0.53370950142E+03  0.53370950144E+03  0.50400001928E-02 0.  1.
    10030    2    1    2    0    0  0.00000000000E+00  0.00000000000E+00  0.13533226952E+04  0.24207416981E+04  0.20071143593E+04 0.  0.
        1    1    3    3  502    0  0.40738155382E+03  0.86265533842E+03  0.30104313636E+03  0.10003803943E+04  0.50400001928E-02 0. -1.
       -1    1    3    3    0  502 -0.40738155382E+03 -0.86265533842E+03  0.10522795589E+04  0.14203613038E+04  0.50400001928E-02 0.  1.
</event>
<event>
 5   0  0.6168338E-05  0.2095167E+04  0.7818609E-02  0.8563375E-01
       -1   -1    0    0    0  501  0.00000000000E+00  0.00000000000E+00  0.71838151914E+03  0.71838151915E+03  0.50400001928E-02 0. -1.
        1   -1    0    0  501    0  0.00000000000E+00  0.00000000000E+00 -0.15276438130E+04  0.15276438130E+04  0.50400001928E-02 0.  1.
    10030    2    1    2    0    0  0.00000000000E+00  0.00000000000E+00 -0.80926229389E+03  0.22460253322E+04  0.20951668985E+04 0.  0.
        5    1    3    3  502    0  0.98910277158E+03 -0.54888737123E+02 -0.39406882336E+02  0.99141921435E+03  0.46999998093E+01 0. -1.
       -5    1    3    3    0  502 -0.98910277158E+03  0.54888737123E+02 -0.76985541155E+03  0.12546061178E+04  0.46999998093E+01 0.  1.
</event>
<event>
 5   0  0.6222733E-05  0.1971527E+04  0.7818609E-02  0.8620050E-01
        1   -1    0    0  501    0  0.00000000000E+00  0.00000000000E+00  0.18882392936E+04  0.18882392936E+04  0.50400001928E-02 0. -1.
       -1   -1    0    0    0  501  0.00000000000E+00  0.00000000000E+00 -0.51462203094E+03  0.51462203097E+03  0.50400001928E-02 0.  1.
    10030    2    1    2    0    0  0.00000000000E+00  0.00000000000E+00  0.13736172627E+04  0.24028613246E+04  0.19715268603E+04 0.  0.
        2    1    3    3  502    0 -0.29522879184E+03  0.68613346422E+03  0.14708088766E+04  0.16496114457E+04  0.25500000920E-02 0. -1.
       -2    1    3    3    0  502  0.29522879184E+03 -0.68613346422E+03 -0.97191613922E+02  0.75324987891E+03  0.25500000920E-02 0.  1.
</event>
<event>
 5   0  0.1274868E-04  0.2005004E+04  0.7818609E-02  0.8604285E-01
       -2   -1    0    0    0  501  0.00000000000E+00  0.00000000000E+00  0.14360799959E+04  0.14360799959E+04  0.25500000920E-02 0. -1.
        2   -1    0    0  501    0  0.00000000000E+00  0.00000000000E+00 -0.69982898497E+03  0.69982898498E+03  0.25500000920E-02 0.  1.
    10030    2    1    2    0    0  0.00000000000E+00  0.00000000000E+00  0.73625101094E+03  0.21359089809E+04  0.20050041455E+04 0.  0.
        1    1    3    3  502    0 -0.98259781654E+03  0.93607053121E+02  0.55493012021E+03  0.11323463197E+04  0.50400001928E-02 0.  1.
       -1    1    3    3    0  502  0.98259781654E+03 -0.93607053121E+02  0.18132089073E+03  0.10035626612E+04  0.50400001928E-02 0. -1.
</event>
<event>
 5   0  0.1159914E-04  0.1809384E+04  0.7818609E-02  0.8701325E-01
        2   -1    0    0  501    0  0.00000000000E+00  0.00000000000E+00  0.61245729380E+03  0.61245729380E+03  0.25500000920E-02 0. -1.
       -2   -1    0    0    0  501  0.00000000000E+00  0.00000000000E+00 -0.13363664617E+04  0.13363664617E+04  0.25500000920E-02 0.  1.
    10030    2    1    2    0    0  0.00000000000E+00  0.00000000000E+00 -0.72390916793E+03  0.19488237555E+04  0.18093837478E+04 0.  0.
        3    1    3    3  502    0  0.82831836090E+03 -0.20946809409E+03 -0.41576764195E+02  0.85540448150E+03  0.10100000352E+00 0. -1.
       -3    1    3    3    0  502 -0.82831836090E+03  0.20946809409E+03 -0.68233240373E+03  0.10934192740E+04  0.10100000352E+00 0.  1.
</event>
<event>
 5   0  0.6256535E-05  0.2004290E+04  0.7818609E-02  0.8604618E-01
        1   -1    0    0  501    0  0.00000000000E+00  0.00000000000E+00  0.11877725061E+04  0.11877725061E+04  0.50400001928E-02 0.  1.
       -1   -1    0    0    0  501  0.00000000000E+00  0.00000000000E+00 -0.84552773692E+03  0.84552773693E+03  0.50400001928E-02 0. -1.
    10030    2    1    2    0    0  0.00000000000E+00  0.00000000000E+00  0.34224476915E+03  0.20333002430E+04  0.20042899980E+04 0.  0.
        1    1    3    3  502    0  0.71015443620E+03  0.23091002772E+03 -0.50687412678E+03  0.90252985800E+03  0.50400001928E-02 0. -1.
       -1    1    3    3    0  502 -0.71015443620E+03 -0.23091002772E+03  0.84911889593E+03  0.11307703850E+04  0.50400001928E-02 0.  1.
</event>
<event>
 5   0  0.6222733E-05  0.1988725E+04  0.7818609E-02  0.8611910E-01
       -1   -1    0    0    0  501  0.00000000000E+00  0.00000000000E+00  0.71058289290E+03  0.71058289292E+03  0.50400001928E-02 0. -1.
        1   -1    0    0  501    0  0.00000000000E+00  0.00000000000E+00 -0.13914728780E+04  0.13914728780E+04  0.50400001928E-02 0.  1.
    10030    2    1    2    0    0  0.00000000000E+00  0.00000000000E+00 -0.68088998510E+03  0.21020557709E+04  0.19887250419E+04 0.  0.
        2    1    3    3  502    0 -0.56333113374E+03  0.36421888494E+03  0.43538568225E+03  0.79972373649E+03  0.25500000920E-02 0. -1.
       -2    1    3    3    0  502  0.56333113374E+03 -0.36421888494E+03 -0.11162756674E+04  0.13023320344E+04  0.25500000920E-02 0.  1.
</event>
<event>
 5   0  0.6256535E-05  0.2010739E+04  0.7818609E-02  0.8601616E-01
       -1   -1    0    0    0  501  0.00000000000E+00  0.00000000000E+00  0.13666859553E+04  0.13666859553E+04  0.50400001928E-02 0. -1.
        1   -1    0    0  501    0  0.00000000000E+00  0.00000000000E+00 -0.73957593946E+03  0.73957593948E+03  0.50400001928E-02 0.  1.
    10030    2    1    2    0    0  0.00000000000E+00  0.00000000000E+00  0.62711001580E+03  0.21062618947E+04  0.20107392166E+04 0.  0.
        1    1    3    3  502    0 -0.15754955511E+03 -0.76286857667E+02  0.13506002153E+04  0.13618966512E+04  0.50400001928E-02 0. -1.
       -1    1    3    3    0  502  0.15754955511E+03  0.76286857667E+02 -0.72349019951E+03  0.74436524353E+03  0.50400001928E-02 0.  1.
</event>
<event>
 5   0  0.6222733E-05  0.1986934E+04  0.7818609E-02  0.8612754E-01
        1   -1    0    0  501    0  0.00000000000E+00  0.00000000000E+00  0.16555210891E+04  0.16555210891E+04  0.50400001928E-02 0.  1.
       -1   -1    0    0    0  501  0.00000000000E+00  0.00000000000E+00 -0.59617263794E+03  0.59617263796E+03  0.50400001928E-02 0. -1.
    10030    2    1    2    0    0  0.00000000000E+00  0.00000000000E+00  0.10593484511E+04  0.22516937270E+04  0.19869336928E+04 0.  0.
        2    1    3    3  502    0  0.79919787493E+03 -0.16098349155E+03 -0.11373215968E+03  0.82314514637E+03  0.25500000920E-02 0. -1.
       -2    1    3    3    0  502 -0.79919787493E+03  0.16098349155E+03  0.11730806108E+04  0.14285485807E+04  0.25500000920E-02 0.  1.
</event>
<event>
 5   0  0.6214547E-05  0.1999719E+04  0.7818609E-02  0.8606752E-01
        1   -1    0    0  501    0  0.00000000000E+00  0.00000000000E+00  0.21888543447E+04  0.21888543447E+04  0.50400001928E-02 0.  1.
       -1   -1    0    0    0  501  0.00000000000E+00  0.00000000000E+00 -0.45673165951E+03  0.45673165954E+03  0.50400001928E-02 0. -1.
    10030    2    1    2    0    0  0.00000000000E+00  0.00000000000E+00  0.17321226852E+04  0.26455860042E+04  0.19997190576E+04 0.  0.
        3    1    3    3  502    0  0.44032075541E+03  0.83055802853E+03  0.13166712394E+04  0.16178171001E+04  0.10100000352E+00 0. -1.
       -3    1    3    3    0  502 -0.44032075541E+03 -0.83055802853E+03  0.41545144578E+03  0.10277689042E+04  0.10100000352E+00 0.  1.
</event>
<event>
 5   0  0.1274868E-04  0.2039390E+04  0.7818609E-02  0.8588423E-01
       -2   -1    0    0    0  501  0.00000000000E+00  0.00000000000E+00  0.12375740982E+04  0.12375740982E+04  0.25500000920E-02 0. -1.
        2   -1    0    0  501    0  0.00000000000E+00  0.00000000000E+00 -0.84017434720E+03  0.84017434720E+03  0.25500000920E-02 0.  1.
    10030    2    1    2    0    0  0.00000000000E+00  0.00000000000E+00  0.39739975103E+03  0.20777484454E+04  0.20393901148E+04 0.  0.
        1    1    3    3  502    0  0.20947353985E+03  0.57824599421E+03 -0.62994331303E+03  0.88038410446E+03  0.50400001928E-02 0.  1.
       -1    1    3    3    0  502 -0.20947353985E+03 -0.57824599421E+03  0.10273430641E+04  0.11973643410E+04  0.50400001928E-02 0. -1.
</event>
<event>
 5   0  0.6168338E-05  0.1741236E+04  0.7818609E-02  0.8738189E-01
       -1   -1    0    0    0  501  0.00000000000E+00  0.00000000000E+00  0.49237263268E+03  0.49237263270E+03  0.50400001928E-02 0.  1.
        1   -1    0    0  501    0  0.00000000000E+00  0.00000000000E+00 -0.15394345685E+04  0.15394345685E+04  0.50400001928E-02 0. -1.
    10030    2    1    2    0    0  0.00000000000E+00  0.00000000000E+00 -0.10470619359E+04  0.20318072013E+04  0.17412357122E+04 0.  0.
        5    1    3    3  502    0  0.66484790279E+03 -0.48780751344E+03 -0.84936850174E+03  0.11838191778E+04  0.46999998093E+01 0. -1.
       -5    1    3    3    0  502 -0.66484790279E+03  0.48780751344E+03 -0.19769343412E+03  0.84798802344E+03  0.46999998093E+01 0.  1.
</event>
<event>
 5   0  0.1281789E-04  0.1988175E+04  0.7818609E-02  0.8612169E-01
        2   -1    0    0  501    0  0.00000000000E+00  0.00000000000E+00  0.79501806055E+03  0.79501806056E+03  0.25500000920E-02 0. -1.
       -2   -1    0    0    0  501  0.00000000000E+00  0.00000000000E+00 -0.12430026733E+04  0.12430026733E+04  0.25500000920E-02 0.  1.
    10030    2    1    2    0    0  0.00000000000E+00  0.00000000000E+00 -0.44798461279E+03  0.20380207339E+04  0.19881746147E+04 0.  0.
        2    1    3    3  502    0  0.42590090280E+03 -0.89778182729E+03 -0.25309036341E+03  0.10254065147E+04  0.25500000920E-02 0. -1.
       -2    1    3    3    0  502 -0.42590090280E+03  0.89778182729E+03 -0.19489424938E+03  0.10126142192E+04  0.25500000920E-02 0.  1.
</event>
<event>
 5   0  0.6222733E-05  0.2002764E+04  0.7818609E-02  0.8605330E-01
       -1   -1    0    0    0  501  0.00000000000E+00  0.00000000000E+00  0.48231193727E+03  0.48231193730E+03  0.50400001928E-02 0. -1.
        1   -1    0    0  501    0  0.00000000000E+00  0.00000000000E+00 -0.20790812102E+04  0.20790812103E+04  0.50400001928E-02 0.  1.
    10030    2    1    2    0    0  0.00000000000E+00  0.00000000000E+00 -0.15967692730E+04  0.25613931475E+04  0.20027637767E+04 0.  0.
        2    1    3    3  502    0 -0.63537492036E+03  0.34436685154E+03  0.88122642071E+02  0.72804904911E+03  0.25500000920E-02 0. -1.
       -2    1    3    3    0  502  0.63537492036E+03 -0.34436685154E+03 -0.16848919150E+04  0.18333440984E+04  0.25500000920E-02 0.  1.
</event>
<event>
 5   0  0.1159914E-04  0.1819496E+04  0.7818609E-02  0.8696000E-01
        2   -1    0    0  501    0  0.00000000000E+00  0.00000000000E+00  0.14651403887E+04  0.14651403887E+04  0.25500000920E-02 0.  1.
       -2   -1    0    0    0  501  0.00000000000E+00  0.00000000000E+00 -0.56488868476E+03  0.56488868477E+03  0.25500000920E-02 0. -1.
    10030    2    1    2    0    0  0.00000000000E+00  0.00000000000E+00  0.90025170390E+03  0.20300290734E+04  0.18194957842E+04 0.  0.
        3    1    3    3  502    0  0.20243875041E+03  0.54778026260E+03  0.12284055796E+04  0.13601562197E+04  0.10100000352E+00 0.  1.
       -3    1    3    3    0  502 -0.20243875041E+03 -0.54778026260E+03 -0.32815387575E+03  0.66987285370E+03  0.10100000352E+00 0. -1.
</event>
<event>
 5   0  0.6256535E-05  0.1983461E+04  0.7818609E-02  0.8614392E-01
       -1   -1    0    0    0  501  0.00000000000E+00  0.00000000000E+00  0.54388602348E+03  0.54388602350E+03  0.50400001928E-02 0. -1.
        1   -1    0    0  501    0  0.00000000000E+00  0.00000000000E+00 -0.18083377541E+04  0.18083377541E+04  0.50400001928E-02 0.  1.
    10030    2    1    2    0    0  0.00000000000E+00  0.00000000000E+00 -0.12644517306E+04  0.23522237776E+04  0.19834612476E+04 0.  0.
        1    1    3    3  502    0  0.61798396802E+02 -0.85146798712E+03 -0.33703548894E+02  0.85437269629E+03  0.50400001928E-02 0. -1.
       -1    1    3    3    0  502 -0.61798396802E+02  0.85146798712E+03 -0.12307481817E+04  0.14978510813E+04  0.50400001928E-02 0.  1.
</event>
<event>
 5   0  0.1159914E-04  0.2072677E+04  0.7818609E-02  0.8573376E-01
       -2   -1    0    0    0  501  0.00000000000E+00  0.00000000000E+00  0.78494178220E+03  0.78494178220E+03  0.25500000920E-02 0. -1.
        2   -1    0    0  501    0  0.00000000000E+00  0.00000000000E+00 -0.13682505265E+04  0.13682505265E+04  0.25500000920E-02 0.  1.
    10030    2    1    2    0    0  0.00000000000E+00  0.00000000000E+00 -0.58330874429E+03  0.21531923087E+04  0.20726765370E+04 0.  0.
        3    1    3    3  502    0 -0.37855638868E+03  0.17019601742E+03 -0.12781347105E+04  0.13438377774E+04  0.10100000352E+00 0.  1.
       -3    1    3    3    0  502  0.37855638868E+03 -0.17019601742E+03  0.69482596619E+03  0.80935453125E+03  0.10100000352E+00 0. -1.
</event>
<event>
 5   0  0.6214547E-05  0.2013994E+04  0.7818609E-02  0.8600106E-01
        1   -1    0    0  501    0  0.00000000000E+00  0.00000000000E+00  0.19950779798E+04  0.19950779798E+04  0.50400001928E-02 0. -1.
       -1   -1    0    0    0  501  0.00000000000E+00  0.00000000000E+00 -0.50827237708E+03  0.50827237711E+03  0.50400001928E-02 0.  1.
    10030    2    1    2    0    0  0.00000000000E+00  0.00000000000E+00  0.14868056027E+04  0.25033503569E+04  0.20139940688E+04 0.  0.
        3    1    3    3  502    0 -0.60230561843E+03  0.51728186931E+03  0.15133375669E+04  0.17089596812E+04  0.10100000352E+00 0. -1.
       -3    1    3    3    0  502  0.60230561843E+03 -0.51728186931E+03 -0.26531964221E+02  0.79439067570E+03  0.10100000352E+00 0.  1.
</event>
<event>
 5   0  0.6168338E-05  0.1888505E+04  0.7818609E-02  0.8660599E-01
       -1   -1    0    0    0  501  0.00000000000E+00  0.00000000000E+00  0.10246856931E+04  0.10246856931E+04  0.50400001928E-02 0.  1.
        1   -1    0    0  501    0  0.00000000000E+00  0.00000000000E+00 -0.87013318517E+03  0.87013318519E+03  0.50400001928E-02 0. -1.
    10030    2    1    2    0    0  0.00000000000E+00  0.00000000000E+00  0.15455250790E+03  0.18948188783E+04  0.18885052565E+04 0.  0.
        5    1    3    3  502    0  0.58375614465E+03  0.10150400917E+03 -0.66038001477E+03  0.88724188032E+03  0.46999998093E+01 0. -1.
       -5    1    3    3    0  502 -0.58375614465E+03 -0.10150400917E+03  0.81493252266E+03  0.10075769979E+04  0.46999998093E+01 0.  1.
</event>
<event>
 5   0  0.6214547E-05  0.2000902E+04  0.7818609E-02  0.8606199E-01
        1   -1    0    0  501    0  0.00000000000E+00  0.00000000000E+00  0.16962511843E+04  0.16962511844E+04  0.50400001928E-02 0.  1.
       -1   -1    0    0    0  501  0.00000000000E+00  0.00000000000E+00 -0.59006724032E+03  0.59006724035E+03  0.50400001928E-02 0. -1.
    10030    2    1    2    0    0  0.00000000000E+00  0.00000000000E+00  0.11061839440E+04  0.22863184247E+04  0.20009020519E+04 0.  0.
        3    1    3    3  502    0  0.28932674276E+03  0.91298917550E+03  0.88355722935E+03  0.13030474229E+04  0.10100000352E+00 0.  1.
       -3    1    3    3    0  502 -0.28932674276E+03 -0.91298917550E+03  0.22262671467E+03  0.98327100178E+03  0.10100000352E+00 0. -1.
</event>
<event>
 5   0  0.1244229E-04  0.2032224E+04  0.7818609E-02  0.8591701E-01
        2   -1    0    0  501    0  0.00000000000E+00  0.00000000000E+00  0.76033359487E+03  0.76033359488E+03  0.25500000920E-02 0.  1.
       -2   -1    0    0    0  501  0.00000000000E+00  0.00000000000E+00 -0.13579353187E+04  0.13579353187E+04  0.25500000920E-02 0. -1.
    10030    2    1    2    0    0  0.00000000000E+00  0.00000000000E+00 -0.59760172385E+03  0.21182689136E+04  0.20322242421E+04 0.  0.
        5    1    3    3  502    0  0.69175258386E+03 -0.20435764364E+03  0.44716671968E+03  0.84868359769E+03  0.46999998093E+01 0.  1.
       -5    1    3    3    0  502 -0.69175258386E+03  0.20435764364E+03 -0.10447684435E+04  0.12695853159E+04  0.46999998093E+01 0. -1.
</event>
<event>
 5   0  0.1274868E-04  0.1999348E+04  0.7818609E-02  0.8606926E-01
        2   -1    0    0  501    0  0.00000000000E+00  0.00000000000E+00  0.72893606855E+03  0.72893606856E+03  0.25500000920E-02 0.  1.
       -2   -1    0    0    0  501  0.00000000000E+00  0.00000000000E+00 -0.13709681440E+04  0.13709681440E+04  0.25500000920E-02 0. -1.
    10030    2    1    2    0    0  0.00000000000E+00  0.00000000000E+00 -0.64203207546E+03  0.20999042126E+04  0.19993480227E+04 0.  0.
        1    1    3    3  502    0 -0.26697550634E+03  0.21753555632E+03 -0.13066996450E+04  0.13513184678E+04  0.50400001928E-02 0. -1.
       -1    1    3    3    0  502  0.26697550634E+03 -0.21753555632E+03  0.66466756952E+03  0.74858574475E+03  0.50400001928E-02 0.  1.
</event>
<event>
 5   0  0.1274868E-04  0.2030710E+04  0.7818609E-02  0.8592396E-01
        2   -1    0    0  501    0  0.00000000000E+00  0.00000000000E+00  0.90533195339E+03  0.90533195339E+03  0.25500000920E-02 0. -1.
       -2   -1    0    0    0  501  0.00000000000E+00  0.00000000000E+00 -0.11387483844E+04  0.11387483844E+04  0.25500000920E-02 0.  1.
    10030    2    1    2    0    0  0.00000000000E+00  0.00000000000E+00 -0.23341643099E+03  0.20440803378E+04  0.20307095304E+04 0.  0.
        1    1    3    3  502    0 -0.55885667943E+03  0.37037692800E+03  0.65083818436E+03  0.93439295759E+03  0.50400001928E-02 0. -1.
       -1    1    3    3    0  502  0.55885667943E+03 -0.37037692800E+03 -0.88425461535E+03  0.11096873802E+04  0.50400001928E-02 0.  1.
</event>
<event>
 5   0  0.6222733E-05  0.1991587E+04  0.7818609E-02  0.8610564E-01
       -1   -1    0    0    0  501  0.00000000000E+00  0.00000000000E+00  0.79085235908E+03  0.79085235910E+03  0.50400001928E-02 0. -1.
        1   -1    0    0  501    0  0.00000000000E+00  0.00000000000E+00 -0.12538427143E+04  0.12538427144E+04  0.50400001928E-02 0.  1.
    10030    2    1    2    0    0  0.00000000000E+00  0.00000000000E+00 -0.46299035526E+03  0.20446950735E+04  0.19915867730E+04 0.  0.
        2    1    3    3  502    0  0.84023281026E+03  0.52394910142E+03 -0.33961553440E+03  0.10468297605E+04  0.25500000920E-02 0. -1.
       -2    1    3    3    0  502 -0.84023281026E+03 -0.52394910142E+03 -0.12337482087E+03  0.99786531293E+03  0.25500000920E-02 0.  1.
</event>
<event>
 5   0  0.4479000E-05  0.2003164E+04  0.7818609E-02  0.8605143E-01
        4   -1    0    0  501    0  0.00000000000E+00  0.00000000000E+00  0.87281703091E+03  0.87281795488E+03  0.12699999809E+01 0.  1.
       -4   -1    0    0    0  501  0.00000000000E+00  0.00000000000E+00 -0.11493414055E+04  0.11493421072E+04  0.12699999809E+01 0. -1.
    10030    2    1    2    0    0  0.00000000000E+00  0.00000000000E+00 -0.27652437463E+03  0.20221600621E+04  0.20031638942E+04 0.  0.
        2    1    3    3  502    0  0.61034103452E+02 -0.86070209038E+02 -0.11437160303E+04  0.11485728539E+04  0.25500000920E-02 0. -1.
       -2    1    3    3    0  502 -0.61034103452E+02  0.86070209038E+02  0.86719165568E+03  0.87358720821E+03  0.25500000920E-02 0.  1.
</event>
<event>
 5   0  0.1281789E-04  0.1991130E+04  0.7818609E-02  0.8610779E-01
        2   -1    0    0  501    0  0.00000000000E+00  0.00000000000E+00  0.93842902451E+03  0.93842902452E+03  0.25500000920E-02 0.  1.
       -2   -1    0    0    0  501  0.00000000000E+00  0.00000000000E+00 -0.10561793047E+04  0.10561793047E+04  0.25500000920E-02 0. -1.
    10030    2    1    2    0    0  0.00000000000E+00  0.00000000000E+00 -0.11775028019E+03  0.19946083292E+04  0.19911296438E+04 0.  0.
        2    1    3    3  502    0  0.53043811327E+03 -0.84080673747E+03 -0.11215408203E+03  0.10004494490E+04  0.25500000920E-02 0.  1.
       -2    1    3    3    0  502 -0.53043811327E+03  0.84080673747E+03 -0.55961981651E+01  0.99415888027E+03  0.25500000920E-02 0. -1.
</event>
<event>
 5   0  0.6168338E-05  0.1995343E+04  0.7818609E-02  0.8608801E-01
        1   -1    0    0  501    0  0.00000000000E+00  0.00000000000E+00  0.15512881789E+04  0.15512881789E+04  0.50400001928E-02 0.  1.
       -1   -1    0    0    0  501  0.00000000000E+00  0.00000000000E+00 -0.64162674315E+03  0.64162674317E+03  0.50400001928E-02 0. -1.
    10030    2    1    2    0    0  0.00000000000E+00  0.00000000000E+00  0.90966143572E+03  0.21929149221E+04  0.19953425590E+04 0.  0.
        5    1    3    3  502    0  0.46604081964E+03 -0.85370712171E+03  0.69889162687E+03  0.11976984142E+04  0.46999998093E+01 0.  1.
       -5    1    3    3    0  502 -0.46604081964E+03  0.85370712171E+03  0.21076980885E+03  0.99521650787E+03  0.46999998093E+01 0. -1.
</event>
<event>
 5   0  0.6028501E-05  0.1998754E+04  0.7818609E-02  0.8607203E-01
        1   -1    0    0  501    0  0.00000000000E+00  0.00000000000E+00  0.19095647289E+04  0.19095647289E+04  0.50400001928E-02 0.  1.
       -1   -1    0    0    0  501  0.00000000000E+00  0.00000000000E+00 -0.52302728561E+03  0.52302728563E+03  0.50400001928E-02 0. -1.
    10030    2    1    2    0    0  0.00000000000E+00  0.00000000000E+00  0.13865374433E+04  0.24325920145E+04  0.19987540688E+04 0.  0.
        4    1    3    3  502    0 -0.20912023693E+03  0.35255840748E+03  0.18025414381E+04  0.18485632132E+04  0.12699999809E+01 0.  1.
       -4    1    3    3    0  502  0.20912023693E+03 -0.35255840748E+03 -0.41600399483E+03  0.58402880134E+03  0.12699999809E+01 0. -1.
</event>
<event>
 5   0  0.6214547E-05  0.2023798E+04  0.7818609E-02  0.8595574E-01
       -1   -1    0    0    0  501  0.00000000000E+00  0.00000000000E+00  0.75068248748E+03  0.75068248750E+03  0.50400001928E-02 0.  1.
        1   -1    0    0  501    0  0.00000000000E+00  0.00000000000E+00 -0.13640116927E+04  0.13640116927E+04  0.50400001928E-02 0. -1.
    10030    2    1    2    0    0  0.00000000000E+00  0.00000000000E+00 -0.61332920521E+03  0.21146941802E+04  0.20237981030E+04 0.  0.
        3    1    3    3  502    0  0.22193772363E+03 -0.19271240666E+03  0.70509306821E+03  0.76390488275E+03  0.10100000352E+00 0.  1.
       -3    1    3    3    0  502 -0.22193772363E+03  0.19271240666E+03 -0.13184222734E+04  0.13507892974E+04  0.10100000352E+00 0. -1.
</event>
<event>
 5   0  0.6168338E-05  0.2013741E+04  0.7818609E-02  0.8600223E-01
        1   -1    0    0  501    0  0.00000000000E+00  0.00000000000E+00  0.99894115937E+03  0.99894115938E+03  0.50400001928E-02 0. -1.
       -1   -1    0    0    0  501  0.00000000000E+00  0.00000000000E+00 -0.10148624921E+04  0.10148624921E+04  0.50400001928E-02 0.  1.
    10030    2    1    2    0    0  0.00000000000E+00  0.00000000000E+00 -0.15921332736E+02  0.20138036515E+04  0.20137407127E+04 0.  0.
        5    1    3    3  502    0  0.75470857057E+03  0.57794569907E+03  0.32395265521E+03  0.10042776859E+04  0.46999998093E+01 0.  1.
       -5    1    3    3    0  502 -0.75470857057E+03 -0.57794569907E+03 -0.33987398795E+03  0.10095259656E+04  0.46999998093E+01 0. -1.
</event>
<event>
 5   0  0.1281789E-04  0.1971671E+04  0.7818609E-02  0.8619981E-01
       -2   -1    0    0    0  501  0.00000000000E+00  0.00000000000E+00  0.12492122151E+04  0.12492122151E+04  0.25500000920E-02 0.  1.
        2   -1    0    0  501    0  0.00000000000E+00  0.00000000000E+00 -0.77798775348E+03  0.77798775348E+03  0.25500000920E-02 0. -1.
    10030    2    1    2    0    0  0.00000000000E+00  0.00000000000E+00  0.47122446161E+03  0.20271999686E+04  0.19716711743E+04 0.  0.
        2    1    3    3  502    0  0.17864734204E+03  0.96905413861E+03  0.26630266401E+03  0.10207340032E+04  0.25500000920E-02 0.  1.
       -2    1    3    3    0  502 -0.17864734204E+03 -0.96905413861E+03  0.20492179761E+03  0.10064659654E+04  0.25500000920E-02 0. -1.
</event>
<event>
 5   0  0.1281789E-04  0.2008632E+04  0.7818609E-02  0.8602596E-01
        2   -1    0    0  501    0  0.00000000000E+00  0.00000000000E+00  0.96871991354E+03  0.96871991355E+03  0.25500000920E-02 0.  1.
       -2   -1    0    0    0  501  0.00000000000E+00  0.00000000000E+00 -0.10412197361E+04  0.10412197361E+04  0.25500000920E-02 0. -1.
    10030    2    1    2    0    0  0.00000000000E+00  0.00000000000E+00 -0.72499822582E+02  0.20099396497E+04  0.20086316663E+04 0.  0.
        2    1    3    3  502    0 -0.56400649158E+03 -0.49210503127E+03 -0.70629748524E+03  0.10291388740E+04  0.25500000920E-02 0. -1.
       -2    1    3    3    0  502  0.56400649158E+03  0.49210503127E+03  0.63379766266E+03  0.98080077566E+03  0.25500000920E-02 0.  1.
</event>
<event>
 5   0  0.6028501E-05  0.1992461E+04  0.7818609E-02  0.8610154E-01
        1   -1    0    0  501    0  0.00000000000E+00  0.00000000000E+00  0.17015464642E+04  0.17015464642E+04  0.50400001928E-02 0. -1.
       -1   -1    0    0    0  501  0.00000000000E+00  0.00000000000E+00 -0.58327809471E+03  0.58327809473E+03  0.50400001928E-02 0.  1.
    10030    2    1    2    0    0  0.00000000000E+00  0.00000000000E+00  0.11182683695E+04  0.22848245590E+04  0.19924605690E+04 0.  0.
        4    1    3    3  502    0  0.98457072148E+03  0.97952613007E+02  0.42590079835E+03  0.10772034733E+04  0.12699999809E+01 0. -1.
       -4    1    3    3    0  502 -0.98457072148E+03 -0.97952613007E+02  0.69236757117E+03  0.12076210856E+04  0.12699999809E+01 0.  1.
</event>
<event>
 5   0  0.6256535E-05  0.2041201E+04  0.7818609E-02  0.8587596E-01
       -1   -1    0    0    0  501  0.00000000000E+00  0.00000000000E+00  0.10067938184E+04  0.10067938184E+04  0.50400001928E-02 0. -1.
        1   -1    0    0  501    0  0.00000000000E+00  0.00000000000E+00 -0.10345966169E+04  0.10345966169E+04  0.50400001928E-02 0.  1.
    10030    2    1    2    0    0  0.00000000000E+00  0.00000000000E+00 -0.27802798440E+02  0.20413904353E+04  0.20412010959E+04 0.  0.
        1    1    3    3  502    0 -0.37991384320E+03 -0.19092914675E+03  0.91399768957E+03  0.10080576590E+04  0.50400001928E-02 0. -1.
       -1    1    3    3    0  502  0.37991384320E+03  0.19092914675E+03 -0.94180048801E+03  0.10333327763E+04  0.50400001928E-02 0.  1.
</event>
<event>
 5   0  0.6256535E-05  0.1974948E+04  0.7818609E-02  0.8618424E-01
       -1   -1    0    0    0  501  0.00000000000E+00  0.00000000000E+00  0.57613165437E+03  0.57613165440E+03  0.50400001928E-02 0.  1.
        1   -1    0    0  501    0  0.00000000000E+00  0.00000000000E+00 -0.16925035189E+04  0.16925035189E+04  0.50400001928E-02 0. -1.
    10030    2    1    2    0    0  0.00000000000E+00  0.00000000000E+00 -0.11163718645E+04  0.22686351733E+04  0.19749479511E+04 0.  0.
        1    1    3    3  502    0  0.21417824479E+03 -0.18629339617E+03  0.52825421799E+03  0.59969164480E+03  0.50400001928E-02 0.  1.
       -1    1    3    3    0  502 -0.21417824479E+03  0.18629339617E+03 -0.16446260825E+04  0.16689435285E+04  0.50400001928E-02 0. -1.
</event>
<event>
 5   0  0.6168338E-05  0.2018011E+04  0.7818609E-02  0.8598246E-01
       -1   -1    0    0    0  501  0.00000000000E+00  0.00000000000E+00  0.39705191017E+03  0.39705191020E+03  0.50400001928E-02 0. -1.
        1   -1    0    0  501    0  0.00000000000E+00  0.00000000000E+00 -0.25641291376E+04  0.25641291376E+04  0.50400001928E-02 0.  1.
    10030    2    1    2    0    0  0.00000000000E+00  0.00000000000E+00 -0.21670772275E+04  0.29611810478E+04  0.20180112706E+04 0.  0.
        5    1    3    3  502    0  0.40399776704E+03  0.83087989925E+03 -0.16786760931E+04  0.19161292018E+04  0.46999998093E+01 0.  1.
       -5    1    3    3    0  502 -0.40399776704E+03 -0.83087989925E+03 -0.48840113441E+03  0.10450518460E+04  0.46999998093E+01 0. -1.
</event>
<event>
 5   0  0.1274868E-04  0.2031751E+04  0.7818609E-02  0.8591918E-01
       -2   -1    0    0    0  501  0.00000000000E+00  0.00000000000E+00  0.89770457793E+03  0.89770457793E+03  0.25500000920E-02 0. -1.
        2   -1    0    0  501    0  0.00000000000E+00  0.00000000000E+00 -0.11496022921E+04  0.11496022921E+04  0.25500000920E-02 0.  1.
    10030    2    1    2    0    0  0.00000000000E+00  0.00000000000E+00 -0.25189771413E+03  0.20473068700E+04  0.20317512056E+04 0.  0.
        1    1    3    3  502    0  0.16168837328E+03 -0.83520270698E+03  0.43354683764E+03  0.95481388357E+03  0.50400001928E-02 0. -1.
       -1    1    3    3    0  502 -0.16168837328E+03  0.83520270698E+03 -0.68544455177E+03  0.10924929864E+04  0.50400001928E-02 0.  1.
</event>
<event>
 5   0  0.1159914E-04  0.2013204E+04  0.7818609E-02  0.8600472E-01
       -2   -1    0    0    0  501  0.00000000000E+00  0.00000000000E+00  0.54685764494E+03  0.54685764495E+03  0.25500000920E-02 0. -1.
        2   -1    0    0  501    0  0.00000000000E+00  0.00000000000E+00 -0.18528546963E+04  0.18528546963E+04  0.25500000920E-02 0.  1.
    10030    2    1    2    0    0  0.00000000000E+00  0.00000000000E+00 -0.13059970514E+04  0.23997123413E+04  0.20132041681E+04 0.  0.
        3    1    3    3  502    0 -0.77875595691E+02  0.89456215584E+02  0.53849966545E+03  0.55140631371E+03  0.10100000352E+00 0. -1.
       -3    1    3    3    0  502  0.77875595691E+02 -0.89456215584E+02 -0.18444967168E+04  0.18483060276E+04  0.10100000352E+00 0.  1.
</event>
<event>
 5   0  0.1274868E-04  0.1986264E+04  0.7818609E-02  0.8613070E-01
        2   -1    0    0  501    0  0.00000000000E+00  0.00000000000E+00  0.10653867247E+04  0.10653867247E+04  0.25500000920E-02 0. -1.
       -2   -1    0    0    0  501  0.00000000000E+00  0.00000000000E+00 -0.92577725774E+03  0.92577725775E+03  0.25500000920E-02 0.  1.
    10030    2    1    2    0    0  0.00000000000E+00  0.00000000000E+00  0.13960946691E+03  0.19911639824E+04  0.19862636284E+04 0.  0.
        1    1    3    3  502    0  0.82572499206E+03  0.19423425817E+03  0.58756914279E+03  0.10318847838E+04  0.50400001928E-02 0. -1.
       -1    1    3    3    0  502 -0.82572499206E+03 -0.19423425817E+03 -0.44795967587E+03  0.95927919856E+03  0.50400001928E-02 0.  1.
</event>
<event>
 5   0  0.1159914E-04  0.1979117E+04  0.7818609E-02  0.8616447E-01
       -2   -1    0    0    0  501  0.00000000000E+00  0.00000000000E+00  0.66769611268E+03  0.66769611269E+03  0.25500000920E-02 0.  1.
        2   -1    0    0  501    0  0.00000000000E+00  0.00000000000E+00 -0.14665742992E+04  0.14665742992E+04  0.25500000920E-02 0. -1.
    10030    2    1    2    0    0  0.00000000000E+00  0.00000000000E+00 -0.79887818653E+03  0.21342704119E+04  0.19791169329E+04 0.  0.
        3    1    3    3  502    0 -0.84777927515E+02 -0.57750980600E+03  0.46227978470E+03  0.74458544342E+03  0.10100000352E+00 0. -1.
       -3    1    3    3    0  502  0.84777927515E+02  0.57750980600E+03 -0.12611579712E+04  0.13896849685E+04  0.10100000352E+00 0.  1.
</event>
<event>
 5   0  0.1244229E-04  0.1992923E+04  0.7818609E-02  0.8609937E-01
       -2   -1    0    0    0  501  0.00000000000E+00  0.00000000000E+00  0.64270903390E+03  0.64270903391E+03  0.25500000920E-02 0. -1.
        2   -1    0    0  501    0  0.00000000000E+00  0.00000000000E+00 -0.15449224173E+04  0.15449224173E+04  0.25500000920E-02 0.  1.
    10030    2    1    2    0    0  0.00000000000E+00  0.00000000000E+00 -0.90221338339E+03  0.21876314512E+04  0.19929230736E+04 0.  0.
        5    1    3    3  502    0  0.22168119561E+03  0.49846386784E+03 -0.13664230274E+04  0.14713064806E+04  0.46999998093E+01 0.  1.
       -5    1    3    3    0  502 -0.22168119561E+03 -0.49846386784E+03  0.46420964397E+03  0.71632497065E+03  0.46999998093E+01 0. -1.
</event>
<event>
 5   0  0.1244229E-04  0.2003698E+04  0.7818609E-02  0.8604894E-01
        2   -1    0    0  501    0  0.00000000000E+00  0.00000000000E+00  0.51808472222E+03  0.51808472223E+03  0.25500000920E-02 0.  1.
       -2   -1    0    0    0  501  0.00000000000E+00  0.00000000000E+00 -0.19373304416E+04  0.19373304416E+04  0.25500000920E-02 0. -1.
    10030    2    1    2    0    0  0.00000000000E+00  0.00000000000E+00 -0.14192457194E+04  0.24554151638E+04  0.20036978851E+04 0.  0.
        5    1    3    3  502    0  0.74064341666E+03  0.14577442841E+03  0.97566981176E+02  0.76114667472E+03  0.46999998093E+01 0.  1.
       -5    1    3    3    0  502 -0.74064341666E+03 -0.14577442841E+03 -0.15168127006E+04  0.16942684891E+04  0.46999998093E+01 0. -1.
</event>
<event>
 5   0  0.6214547E-05  0.1902434E+04  0.7818609E-02  0.8653646E-01
        1   -1    0    0  501    0  0.00000000000E+00  0.00000000000E+00  0.15789812031E+04  0.15789812031E+04  0.50400001928E-02 0. -1.
       -1   -1    0    0    0  501  0.00000000000E+00  0.00000000000E+00 -0.57303657432E+03  0.57303657435E+03  0.50400001928E-02 0.  1.
    10030    2    1    2    0    0  0.00000000000E+00  0.00000000000E+00  0.10059446288E+04  0.21520177775E+04  0.19024342087E+04 0.  0.
        3    1    3    3  502    0 -0.11051600524E+03 -0.66614613861E+03 -0.25488349281E+03  0.72175485485E+03  0.10100000352E+00 0.  1.
       -3    1    3    3    0  502  0.11051600524E+03  0.66614613861E+03  0.12608281216E+04  0.14302629226E+04  0.10100000352E+00 0. -1.
</event>
<event>
 5   0  0.1274868E-04  0.2069271E+04  0.7818609E-02  0.8574902E-01
        2   -1    0    0  501    0  0.00000000000E+00  0.00000000000E+00  0.73566299054E+03  0.73566299055E+03  0.25500000920E-02 0.  1.
       -2   -1    0    0    0  501  0.00000000000E+00  0.00000000000E+00 -0.14551098662E+04  0.14551098662E+04  0.25500000920E-02 0. -1.
    10030    2    1    2    0    0  0.00000000000E+00  0.00000000000E+00 -0.71944687567E+03  0.21907728568E+04  0.20692708627E+04 0.  0.
        1    1    3    3  502    0  0.19421971044E+03 -0.54805206365E+03  0.54632340858E+03  0.79784185600E+03  0.50400001928E-02 0.  1.
       -1    1    3    3    0  502 -0.19421971044E+03  0.54805206365E+03 -0.12657702842E+04  0.13929310008E+04  0.50400001928E-02 0. -1.
</event>
<event>
 5   0  0.6214547E-05  0.2013000E+04  0.7818609E-02  0.8600567E-01
        1   -1    0    0  501    0  0.00000000000E+00  0.00000000000E+00  0.13103715873E+04  0.13103715873E+04  0.50400001928E-02 0.  1.
       -1   -1    0    0    0  501  0.00000000000E+00  0.00000000000E+00 -0.77309522421E+03  0.77309522423E+03  0.50400001928E-02 0. -1.
    10030    2    1    2    0    0  0.00000000000E+00  0.00000000000E+00  0.53727636305E+03  0.20834668115E+04  0.20129997676E+04 0.  0.
        3    1    3    3  502    0 -0.47215959452E+03 -0.58674533351E+03 -0.42244612548E+03  0.86351925759E+03  0.10100000352E+00 0. -1.
       -3    1    3    3    0  502  0.47215959452E+03  0.58674533351E+03  0.95972248853E+03  0.12199475539E+04  0.10100000352E+00 0.  1.
</event>
<event>
 5   0  0.6222733E-05  0.1988708E+04  0.7818609E-02  0.8611918E-01
        1   -1    0    0  501    0  0.00000000000E+00  0.00000000000E+00  0.23851647834E+04  0.23851647834E+04  0.50400001928E-02 0. -1.
       -1   -1    0    0    0  501  0.00000000000E+00  0.00000000000E+00 -0.41453720240E+03  0.41453720243E+03  0.50400001928E-02 0.  1.
    10030    2    1    2    0    0  0.00000000000E+00  0.00000000000E+00  0.19706275810E+04  0.27997019859E+04  0.19887076574E+04 0.  0.
        2    1    3    3  502    0  0.71769127994E+03 -0.14222390434E+03  0.19332880023E+04  0.20671020566E+04  0.25500000920E-02 0. -1.
       -2    1    3    3    0  502 -0.71769127994E+03  0.14222390434E+03  0.37339578701E+02  0.73259992930E+03  0.25500000920E-02 0.  1.
</event>
<event>
 5   0  0.6028501E-05  0.2006946E+04  0.7818609E-02  0.8603380E-01
        1   -1    0    0  501    0  0.00000000000E+00  0.00000000000E+00  0.10782979275E+04  0.10782979275E+04  0.50400001928E-02 0. -1.
       -1   -1    0    0    0  501  0.00000000000E+00  0.00000000000E+00 -0.93384011633E+03  0.93384011634E+03  0.50400001928E-02 0.  1.
    10030    2    1    2    0    0  0.00000000000E+00  0.00000000000E+00  0.14445781121E+03  0.20121380439E+04  0.20069458011E+04 0.  0.
        4    1    3    3  502    0  0.52370225506E+03 -0.21452843924E+03 -0.75857032337E+03  0.94642329409E+03  0.12699999809E+01 0.  1.
       -4    1    3    3    0  502 -0.52370225506E+03  0.21452843924E+03  0.90302813458E+03  0.10657147498E+04  0.12699999809E+01 0. -1.
</event>
<event>
 5   0  0.1242761E-04  0.2028113E+04  0.7818609E-02  0.8593589E-01
        2   -1    0    0  501    0  0.00000000000E+00  0.00000000000E+00  0.10064190685E+04  0.10064190685E+04  0.25500000920E-02 0. -1.
       -2   -1    0    0    0  501  0.00000000000E+00  0.00000000000E+00 -0.10217514183E+04  0.10217514183E+04  0.25500000920E-02 0.  1.
    10030    2    1    2    0    0  0.00000000000E+00  0.00000000000E+00 -0.15332349835E+02  0.20281704869E+04  0.20281125321E+04 0.  0.
        4    1    3    3  502    0  0.44629196244E+02 -0.12407421411E+03 -0.10131412360E+04  0.10216863280E+04  0.12699999809E+01 0.  1.
       -4    1    3    3    0  502 -0.44629196244E+02  0.12407421411E+03  0.99780888620E+03  0.10064841589E+04  0.12699999809E+01 0. -1.
</event>
<event>
 5   0  0.4479000E-05  0.1990282E+04  0.7818609E-02  0.8611178E-01
        3   -1    0    0  501    0  0.00000000000E+00  0.00000000000E+00  0.59076707994E+03  0.59076708857E+03  0.10100000352E+00 0.  1.
       -3   -1    0    0    0  501  0.00000000000E+00  0.00000000000E+00 -0.16763047918E+04  0.16763047948E+04  0.10100000352E+00 0. -1.
    10030    2    1    2    0    0  0.00000000000E+00  0.00000000000E+00 -0.10855377118E+04  0.22670718834E+04  0.19902820907E+04 0.  0.
        2    1    3    3  502    0  0.81993388210E+03 -0.51355489678E+03 -0.27739840602E+03  0.10064691146E+04  0.25500000920E-02 0.  1.
       -2    1    3    3    0  502 -0.81993388210E+03  0.51355489678E+03 -0.80813930581E+03  0.12606027688E+04  0.25500000920E-02 0. -1.
</event>
<event>
 5   0  0.6168338E-05  0.2051424E+04  0.7818609E-02  0.8582949E-01
        1   -1    0    0  501    0  0.00000000000E+00  0.00000000000E+00  0.12957403791E+04  0.12957403791E+04  0.50400001928E-02 0. -1.
       -1   -1    0    0    0  501  0.00000000000E+00  0.00000000000E+00 -0.81195651338E+03  0.81195651340E+03  0.50400001928E-02 0.  1.
    10030    2    1    2    0    0  0.00000000000E+00  0.00000000000E+00  0.48378386574E+03  0.21076968925E+04  0.20514237402E+04 0.  0.
        5    1    3    3  502    0 -0.28320747934E+03 -0.96375474238E+03  0.28757338584E+02  0.10049272383E+04  0.46999998093E+01 0.  1.
       -5    1    3    3    0  502  0.28320747934E+03  0.96375474238E+03  0.45502652715E+03  0.11027696542E+04  0.46999998093E+01 0. -1.
</event>
<event>
 5   0  0.6168338E-05  0.2020412E+04  0.7818609E-02  0.8597137E-01
       -1   -1    0    0    0  501  0.00000000000E+00  0.00000000000E+00  0.51434992909E+03  0.51434992912E+03  0.50400001928E-02 0. -1.
        1   -1    0    0  501    0  0.00000000000E+00  0.00000000000E+00 -0.19840884497E+04  0.19840884498E+04  0.50400001928E-02 0.  1.
    10030    2    1    2    0    0  0.00000000000E+00  0.00000000000E+00 -0.14697385207E+04  0.24984383789E+04  0.20204115952E+04 0.  0.
        5    1    3    3  502    0  0.62307307109E+03 -0.16566914462E+03  0.22684155390E+03  0.68348042984E+03  0.46999998093E+01 0. -1.
       -5    1    3    3    0  502 -0.62307307109E+03  0.16566914462E+03 -0.16965800746E+04  0.18149579490E+04  0.46999998093E+01 0.  1.
</event>
<event>
 5   0  0.1244229E-04  0.1990158E+04  0.7818609E-02  0.8611236E-01
        2   -1    0    0  501    0  0.00000000000E+00  0.00000000000E+00  0.15319279358E+04  0.15319279358E+04  0.25500000920E-02 0. -1.
       -2   -1    0    0    0  501  0.00000000000E+00  0.00000000000E+00 -0.64636342032E+03  0.64636342033E+03  0.25500000920E-02 0.  1.
    10030    2    1    2    0    0  0.00000000000E+00  0.00000000000E+00  0.88556451544E+03  0.21782913561E+04  0.19901579638E+04 0.  0.
        5    1    3    3  502    0 -0.14173589139E+03  0.47808776048E+03  0.13852899662E+04  0.14723136045E+04  0.46999998093E+01 0. -1.
       -5    1    3    3    0  502  0.14173589139E+03 -0.47808776048E+03 -0.49972545073E+03  0.70597775159E+03  0.46999998093E+01 0.  1.
</event>
<event>
 5   0  0.1274868E-04  0.1963589E+04  0.7818609E-02  0.8623836E-01
       -2   -1    0    0    0  501  0.00000000000E+00  0.00000000000E+00  0.97632610789E+03  0.97632610789E+03  0.25500000920E-02 0. -1.
        2   -1    0    0  501    0  0.00000000000E+00  0.00000000000E+00 -0.98729335969E+03  0.98729335970E+03  0.25500000920E-02 0.  1.
    10030    2    1    2    0    0  0.00000000000E+00  0.00000000000E+00 -0.10967251807E+02  0.19636194676E+04  0.19635888401E+04 0.  0.
        1    1    3    3  502    0 -0.36156566800E+03 -0.64116003405E+03  0.64422209940E+03  0.97818098270E+03  0.50400001928E-02 0. -1.
       -1    1    3    3    0  502  0.36156566800E+03  0.64116003405E+03 -0.65518935121E+03  0.98543848489E+03  0.50400001928E-02 0.  1.
</event>
<event>
 5   0  0.6222733E-05  0.2012651E+04  0.7818609E-02  0.8600729E-01
       -1   -1    0    0    0  501  0.00000000000E+00  0.00000000000E+00  0.77692005509E+03  0.77692005510E+03  0.50400001928E-02 0.  1.
        1   -1    0    0  501    0  0.00000000000E+00  0.00000000000E+00 -0.13034686725E+04  0.13034686725E+04  0.50400001928E-02 0. -1.
    10030    2    1    2    0    0  0.00000000000E+00  0.00000000000E+00 -0.52654861745E+03  0.20803887277E+04  0.20126509413E+04 0.  0.
        2    1    3    3  502    0  0.50704620761E+03 -0.91668669400E+02 -0.11567693030E+04  0.12663389048E+04  0.25500000920E-02 0. -1.
       -2    1    3    3    0  502 -0.50704620761E+03  0.91668669400E+02  0.63022068551E+03  0.81404982283E+03  0.25500000920E-02 0.  1.
</event>
<event>
 5   0  0.1244229E-04  0.2001915E+04  0.7818609E-02  0.8605726E-01
        2   -1    0    0  501    0  0.00000000000E+00  0.00000000000E+00  0.11073036610E+04  0.11073036610E+04  0.25500000920E-02 0.  1.
       -2   -1    0    0    0  501  0.00000000000E+00  0.00000000000E+00 -0.90482527268E+03  0.90482527268E+03  0.25500000920E-02 0. -1.
    10030    2    1    2    0    0  0.00000000000E+00  0.00000000000E+00  0.20247838832E+03  0.20121289337E+04  0.20019154198E+04 0.  0.
        5    1    3    3  502    0  0.81430435051E+03 -0.12802889766E+03 -0.46947042248E+03  0.94863456688E+03  0.46999998093E+01 0. -1.
       -5    1    3    3    0  502 -0.81430435051E+03  0.12802889766E+03  0.67194881081E+03  0.10634943668E+04  0.46999998093E+01 0.  1.
</event>
<event>
 5   0  0.1274868E-04  0.2008482E+04  0.7818609E-02  0.8602665E-01
        2   -1    0    0  501    0  0.00000000000E+00  0.00000000000E+00  0.17911669428E+04  0.17911669428E+04  0.25500000920E-02 0.  1.
       -2   -1    0    0    0  501  0.00000000000E+00  0.00000000000E+00 -0.56304060851E+03  0.56304060852E+03  0.25500000920E-02 0. -1.
    10030    2    1    2    0    0  0.00000000000E+00  0.00000000000E+00  0.12281263343E+04  0.23542075514E+04  0.20084817405E+04 0.  0.
        1    1    3    3  502    0 -0.30781113695E+03 -0.63768471770E+03  0.14487586179E+04  0.16125417912E+04  0.50400001928E-02 0.  1.
       -1    1    3    3    0  502  0.30781113695E+03  0.63768471770E+03 -0.22063228362E+03  0.74166576018E+03  0.50400001928E-02 0. -1.
</event>
<event>
 5   0  0.1274868E-04  0.2023482E+04  0.7818609E-02  0.8595720E-01
       -2   -1    0    0    0  501  0.00000000000E+00  0.00000000000E+00  0.61265008929E+03  0.61265008930E+03  0.25500000920E-02 0.  1.
        2   -1    0    0  501    0  0.00000000000E+00  0.00000000000E+00 -0.16708063263E+04  0.16708063263E+04  0.25500000920E-02 0. -1.
    10030    2    1    2    0    0  0.00000000000E+00  0.00000000000E+00 -0.10581562370E+04  0.22834564156E+04  0.20234817963E+04 0.  0.
        1    1    3    3  502    0 -0.12896828110E+03 -0.37460034612E+03 -0.15796315701E+04  0.16285558431E+04  0.50400001928E-02 0. -1.
       -1    1    3    3    0  502  0.12896828110E+03  0.37460034612E+03  0.52147533307E+03  0.65490057251E+03  0.50400001928E-02 0.  1.
</event>
<event>
 5   0  0.1159914E-04  0.2001455E+04  0.7818609E-02  0.8605941E-01
       -2   -1    0    0    0  501  0.00000000000E+00  0.00000000000E+00  0.40676678707E+03  0.40676678708E+03  0.25500000920E-02 0. -1.
        2   -1    0    0  501    0  0.00000000000E+00  0.00000000000E+00 -0.24619896240E+04  0.24619896240E+04  0.25500000920E-02 0.  1.
    10030    2    1    2    0    0  0.00000000000E+00  0.00000000000E+00 -0.20552228369E+04  0.28687564111E+04  0.20014550798E+04 0.  0.
        3    1    3    3  502    0 -0.55219856360E+03  0.23920403034E+03  0.11844199196E+03  0.61332726780E+03  0.10100000352E+00 0. -1.
       -3    1    3    3    0  502  0.55219856360E+03 -0.23920403034E+03 -0.21736648289E+04  0.22554291433E+04  0.10100000352E+00 0.  1.
</event>
<event>
 5   0  0.6028501E-05  0.2011602E+04  0.7818609E-02  0.8601215E-01
        1   -1    0    0  501    0  0.00000000000E+00  0.00000000000E+00  0.67079887789E+03  0.67079887791E+03  0.50400001928E-02 0. -1.
       -1   -1    0    0    0  501  0.00000000000E+00  0.00000000000E+00 -0.15081062074E+04  0.15081062074E+04  0.50400001928E-02 0.  1.
    10030    2    1    2    0    0  0.00000000000E+00  0.00000000000E+00 -0.83730732947E+03  0.21789050853E+04  0.20116022983E+04 0.  0.
        4    1    3    3  502    0 -0.93579140832E+03  0.35864818493E+03 -0.32610603439E+03  0.10538884377E+04  0.12699999809E+01 0.  1.
       -4    1    3    3    0  502  0.93579140832E+03 -0.35864818493E+03 -0.51120129507E+03  0.11250166476E+04  0.12699999809E+01 0. -1.
</event>
<event>
 5   0  0.6028501E-05  0.2009880E+04  0.7818609E-02  0.8602015E-01
        1   -1    0    0  501    0  0.00000000000E+00  0.00000000000E+00  0.10676847760E+04  0.10676847760E+04  0.50400001928E-02 0.  1.
       -1   -1    0    0    0  501  0.00000000000E+00  0.00000000000E+00 -0.94588283948E+03  0.94588283949E+03  0.50400001928E-02 0. -1.
    10030    2    1    2    0    0  0.00000000000E+00  0.00000000000E+00  0.12180193650E+03  0.20135676155E+04  0.20098803025E+04 0.  0.
        4    1    3    3  502    0 -0.45020252930E+03  0.46725406780E+03 -0.70790145045E+03  0.96027847925E+03  0.12699999809E+01 0. -1.
       -4    1    3    3    0  502  0.45020252930E+03 -0.46725406780E+03  0.82970338695E+03  0.10532891362E+04  0.12699999809E+01 0.  1.
</event>
<event>
 5   0  0.6256535E-05  0.2049908E+04  0.7818609E-02  0.8583636E-01
        1   -1    0    0  501    0  0.00000000000E+00  0.00000000000E+00  0.95388796932E+03  0.95388796933E+03  0.50400001928E-02 0. -1.
       -1   -1    0    0    0  501  0.00000000000E+00  0.00000000000E+00 -0.11013147530E+04  0.11013147530E+04  0.50400001928E-02 0.  1.
    10030    2    1    2    0    0  0.00000000000E+00  0.00000000000E+00 -0.14742678366E+03  0.20552027223E+04  0.20499081866E+04 0.  0.
        1    1    3    3  502    0  0.62275450875E+03 -0.44291922273E+03  0.61108096653E+03  0.97847869865E+03  0.50400001928E-02 0. -1.
       -1    1    3    3    0  502 -0.62275450875E+03  0.44291922273E+03 -0.75850775019E+03  0.10767240237E+04  0.50400001928E-02 0.  1.
</event>
<event>
 5   0  0.1244229E-04  0.1989392E+04  0.7818609E-02  0.8611597E-01
       -2   -1    0    0    0  501  0.00000000000E+00  0.00000000000E+00  0.67976841550E+03  0.67976841550E+03  0.25500000920E-02 0.  1.
        2   -1    0    0  501    0  0.00000000000E+00  0.00000000000E+00 -0.14555247355E+04  0.14555247355E+04  0.25500000920E-02 0. -1.
    10030    2    1    2    0    0  0.00000000000E+00  0.00000000000E+00 -0.77575631999E+03  0.21352931510E+04  0.19893916087E+04 0.  0.
        5    1    3    3  502    0 -0.54457869814E+03 -0.11929595070E+03 -0.12720653276E+04  0.13888735616E+04  0.46999998093E+01 0. -1.
       -5    1    3    3    0  502  0.54457869814E+03  0.11929595070E+03  0.49630900766E+03  0.74641958938E+03  0.46999998093E+01 0.  1.
</event>
<event>
 5   0  0.6256535E-05  0.1997597E+04  0.7818609E-02  0.8607745E-01
        1   -1    0    0  501    0  0.00000000000E+00  0.00000000000E+00  0.93504039210E+03  0.93504039212E+03  0.50400001928E-02 0.  1.
       -1   -1    0    0    0  501  0.00000000000E+00  0.00000000000E+00 -0.10669044637E+04  0.10669044637E+04  0.50400001928E-02 0. -1.
    10030    2    1    2    0    0  0.00000000000E+00  0.00000000000E+00 -0.13186407161E+03  0.20019448558E+04  0.19975973249E+04 0.  0.
        1    1    3    3  502    0 -0.81872215687E+03 -0.33305858172E+02 -0.63829980338E+03  0.10386731388E+04  0.50400001928E-02 0. -1.
       -1    1    3    3    0  502  0.81872215687E+03  0.33305858172E+02  0.50643573177E+03  0.96327171700E+03  0.50400001928E-02 0.  1.
</event>
<event>
 5   0  0.1244229E-04  0.2004537E+04  0.7818609E-02  0.8604502E-01
        2   -1    0    0  501    0  0.00000000000E+00  0.00000000000E+00  0.11574347790E+04  0.11574347790E+04  0.25500000920E-02 0. -1.
       -2   -1    0    0    0  501  0.00000000000E+00  0.00000000000E+00 -0.86790385864E+03  0.86790385864E+03  0.25500000920E-02 0.  1.
    10030    2    1    2    0    0  0.00000000000E+00  0.00000000000E+00  0.28953092041E+03  0.20253386377E+04  0.20045369648E+04 0.  0.
        5    1    3    3  502    0 -0.10002841414E+04 -0.16370593284E+02  0.20608846288E+03  0.10214357074E+04  0.46999998093E+01 0. -1.
       -5    1    3    3    0  502  0.10002841414E+04  0.16370593284E+02  0.83442457533E+02  0.10039029303E+04  0.46999998093E+01 0.  1.
</event>
<event>
 5   0  0.1274868E-04  0.2050488E+04  0.7818609E-02  0.8583373E-01
       -2   -1    0    0    0  501  0.00000000000E+00  0.00000000000E+00  0.84029492270E+03  0.84029492270E+03  0.25500000920E-02 0. -1.
        2   -1    0    0  501    0  0.00000000000E+00  0.00000000000E+00 -0.12509003986E+04  0.12509003986E+04  0.25500000920E-02 0.  1.
    10030    2    1    2    0    0  0.00000000000E+00  0.00000000000E+00 -0.41060547588E+03  0.20911953213E+04  0.20504879943E+04 0.  0.
        1    1    3    3  502    0  0.10308792523E+03 -0.15710643502E+03  0.82258297221E+03  0.84377265803E+03  0.50400001928E-02 0. -1.
       -1    1    3    3    0  502 -0.10308792523E+03  0.15710643502E+03 -0.12331884481E+04  0.12474226632E+04  0.50400001928E-02 0.  1.
</event>
<event>
 5   0  0.1242761E-04  0.1990667E+04  0.7818609E-02  0.8610997E-01
        2   -1    0    0  501    0  0.00000000000E+00  0.00000000000E+00  0.12517657305E+04  0.12517657305E+04  0.25500000920E-02 0. -1.
       -2   -1    0    0    0  501  0.00000000000E+00  0.00000000000E+00 -0.79143318951E+03  0.79143318951E+03  0.25500000920E-02 0.  1.
    10030    2    1    2    0    0  0.00000000000E+00  0.00000000000E+00  0.46033254100E+03  0.20431989200E+04  0.19906671692E+04 0.  0.
        4    1    3    3  502    0  0.74135245311E+03  0.25946393959E+03  0.85766054013E+03  0.11629738650E+04  0.12699999809E+01 0. -1.
       -4    1    3    3    0  502 -0.74135245311E+03 -0.25946393959E+03 -0.39732799914E+03  0.88022505502E+03  0.12699999809E+01 0.  1.
</event>
<event>
 5   0  0.1244229E-04  0.1960326E+04  0.7818609E-02  0.8625397E-01
       -2   -1    0    0    0  501  0.00000000000E+00  0.00000000000E+00  0.10551817151E+04  0.10551817151E+04  0.25500000920E-02 0. -1.
        2   -1    0    0  501    0  0.00000000000E+00  0.00000000000E+00 -0.91047789604E+03  0.91047789604E+03  0.25500000920E-02 0.  1.
    10030    2    1    2    0    0  0.00000000000E+00  0.00000000000E+00  0.14470381904E+03  0.19656596111E+04  0.19603261238E+04 0.  0.
        5    1    3    3  502    0  0.18636903333E+03 -0.42164517995E+03  0.93967893373E+03  0.10466788728E+04  0.46999998093E+01 0. -1.
       -5    1    3    3    0  502 -0.18636903333E+03  0.42164517995E+03 -0.79497511469E+03  0.91898073828E+03  0.46999998093E+01 0.  1.
</event>
<event>
 5   0  0.6028501E-05  0.2016946E+04  0.7818609E-02  0.8598739E-01
        1   -1    0    0  501    0  0.00000000000E+00  0.00000000000E+00  0.10391828496E+04  0.10391828496E+04  0.50400001928E-02 0.  1.
       -1   -1    0    0    0  501  0.00000000000E+00  0.00000000000E+00 -0.97867088030E+03  0.97867088031E+03  0.50400001928E-02 0. -1.
    10030    2    1    2    0    0  0.00000000000E+00  0.00000000000E+00  0.60511969311E+02  0.20178537299E+04  0.20169462008E+04 0.  0.
        4    1    3    3  502    0  0.98487195739E+03  0.21686282100E+03  0.26495868635E+02  0.10088141055E+04  0.12699999809E+01 0. -1.
       -4    1    3    3    0  502 -0.98487195739E+03 -0.21686282100E+03  0.34016100676E+02  0.10090396244E+04  0.12699999809E+01 0.  1.
</event>
<event>
 5   0  0.1274868E-04  0.2043488E+04  0.7818609E-02  0.8586554E-01
        2   -1    0    0  501    0  0.00000000000E+00  0.00000000000E+00  0.11268347544E+04  0.11268347544E+04  0.25500000920E-02 0. -1.
       -2   -1    0    0    0  501  0.00000000000E+00  0.00000000000E+00 -0.92645447971E+03  0.92645447971E+03  0.25500000920E-02 0.  1.
    10030    2    1    2    0    0  0.00000000000E+00  0.00000000000E+00  0.20038027466E+03  0.20532892341E+04  0.20434882981E+04 0.  0.
        1    1    3    3  502    0  0.63268259004E+03 -0.10855728887E+03 -0.69853697763E+03  0.94869692413E+03  0.50400001928E-02 0.  1.
       -1    1    3    3    0  502 -0.63268259004E+03  0.10855728887E+03  0.89891725229E+03  0.11045923099E+04  0.50400001928E-02 0. -1.
</event>
<event>
 5   0  0.6028501E-05  0.2017354E+04  0.7818609E-02  0.8598550E-01
        1   -1    0    0  501    0  0.00000000000E+00  0.00000000000E+00  0.11170360572E+04  0.11170360572E+04  0.50400001928E-02 0.  1.
       -1   -1    0    0    0  501  0.00000000000E+00  0.00000000000E+00 -0.91082914896E+03  0.91082914898E+03  0.50400001928E-02 0. -1.
    10030    2    1    2    0    0  0.00000000000E+00  0.00000000000E+00  0.20620690822E+03  0.20278652062E+04  0.20173537135E+04 0.  0.
        4    1    3    3  502    0  0.40279732662E+03  0.88142854667E+03  0.38432072521E+03  0.10425286576E+04  0.12699999809E+01 0.  1.
       -4    1    3    3    0  502 -0.40279732662E+03 -0.88142854667E+03 -0.17811381699E+03  0.98533654856E+03  0.12699999809E+01 0. -1.
</event>
<event>
 5   0  0.6222733E-05  0.1810036E+04  0.7818609E-02  0.8700981E-01
       -1   -1    0    0    0  501  0.00000000000E+00  0.00000000000E+00  0.63785501847E+03  0.63785501849E+03  0.50400001928E-02 0. -1.
        1   -1    0    0  501    0  0.00000000000E+00  0.00000000000E+00 -0.12840806782E+04  0.12840806782E+04  0.50400001928E-02 0.  1.
    10030    2    1    2    0    0  0.00000000000E+00  0.00000000000E+00 -0.64622565975E+03  0.19219356967E+04  0.18100356955E+04 0.  0.
        2    1    3    3  502    0 -0.25637125186E+03 -0.70046320211E+02 -0.12417113474E+04  0.12698345467E+04  0.25500000920E-02 0.  1.
       -2    1    3    3    0  502  0.25637125186E+03  0.70046320211E+02  0.59548568760E+03  0.65210115005E+03  0.25500000920E-02 0. -1.
</event>
<event>
 5   0  0.4479000E-05  0.2004116E+04  0.7818609E-02  0.8604699E-01
        4   -1    0    0  501    0  0.00000000000E+00  0.00000000000E+00  0.56952982540E+03  0.56953124139E+03  0.12699999809E+01 0.  1.
       -4   -1    0    0    0  501  0.00000000000E+00  0.00000000000E+00 -0.17630647013E+04  0.17630651587E+04  0.12699999809E+01 0. -1.
    10030    2    1    2    0    0  0.00000000000E+00  0.00000000000E+00 -0.11935348759E+04  0.23325964001E+04  0.20041158813E+04 0.  0.
        5    1    3    3  502    0 -0.70852381923E+03  0.43680694387E+03 -0.12461498987E+04  0.14985719765E+04  0.46999998093E+01 0. -1.
       -5    1    3    3    0  502  0.70852381923E+03 -0.43680694387E+03  0.52615022785E+02  0.83402442365E+03  0.46999998093E+01 0.  1.
</event>
<event>
 5   0  0.6256535E-05  0.2004453E+04  0.7818609E-02  0.8604541E-01
       -1   -1    0    0    0  501  0.00000000000E+00  0.00000000000E+00  0.66937458683E+03  0.66937458685E+03  0.50400001928E-02 0.  1.
        1   -1    0    0  501    0  0.00000000000E+00  0.00000000000E+00 -0.15005919445E+04  0.15005919445E+04  0.50400001928E-02 0. -1.
    10030    2    1    2    0    0  0.00000000000E+00  0.00000000000E+00 -0.83121735765E+03  0.21699665313E+04  0.20044531552E+04 0.  0.
        1    1    3    3  502    0 -0.72564384447E+03 -0.55159353077E+03  0.35505669667E+02  0.91218148677E+03  0.50400001928E-02 0.  1.
       -1    1    3    3    0  502  0.72564384447E+03  0.55159353077E+03 -0.86672302732E+03  0.12577850446E+04  0.50400001928E-02 0. -1.
</event>
<event>
 5   0  0.6028501E-05  0.1997589E+04  0.7818609E-02  0.8607749E-01
       -1   -1    0    0    0  501  0.00000000000E+00  0.00000000000E+00  0.68129731161E+03  0.68129731163E+03  0.50400001928E-02 0. -1.
        1   -1    0    0  501    0  0.00000000000E+00  0.00000000000E+00 -0.14642519126E+04  0.14642519126E+04  0.50400001928E-02 0.  1.
    10030    2    1    2    0    0  0.00000000000E+00  0.00000000000E+00 -0.78295460102E+03  0.21455492243E+04  0.19975894389E+04 0.  0.
        4    1    3    3  502    0 -0.18327810338E+03  0.71589235525E+03 -0.11131818918E+04  0.13361393133E+04  0.12699999809E+01 0.  1.
       -4    1    3    3    0  502  0.18327810338E+03 -0.71589235525E+03  0.33022729077E+03  0.80940991096E+03  0.12699999809E+01 0. -1.
</event>
<event>
 5   0  0.1242761E-04  0.2015486E+04  0.7818609E-02  0.8599415E-01
        2   -1    0    0  501    0  0.00000000000E+00  0.00000000000E+00  0.10975711332E+04  0.10975711332E+04  0.25500000920E-02 0.  1.
       -2   -1    0    0    0  501  0.00000000000E+00  0.00000000000E+00 -0.92526633715E+03  0.92526633716E+03  0.25500000920E-02 0. -1.
    10030    2    1    2    0    0  0.00000000000E+00  0.00000000000E+00  0.17230479601E+03  0.20228374703E+04  0.20154856707E+04 0.  0.
        4    1    3    3  502    0 -0.27197808894E+02  0.83520675179E+03  0.65144215761E+03  0.10595699772E+04  0.12699999809E+01 0.  1.
       -4    1    3    3    0  502  0.27197808894E+02 -0.83520675179E+03 -0.47913736160E+03  0.96326749309E+03  0.12699999809E+01 0. -1.
</event>
<event>
 5   0  0.1242761E-04  0.2007704E+04  0.7818609E-02  0.8603027E-01
        2   -1    0    0  501    0  0.00000000000E+00  0.00000000000E+00  0.17121692943E+04  0.17121692943E+04  0.25500000920E-02 0. -1.
       -2   -1    0    0    0  501  0.00000000000E+00  0.00000000000E+00 -0.58856276169E+03  0.58856276169E+03  0.25500000920E-02 0.  1.
    10030    2    1    2    0    0  0.00000000000E+00  0.00000000000E+00  0.11236065326E+04  0.23007320560E+04  0.20077042495E+04 0.  0.
        4    1    3    3  502    0  0.64629434364E+03 -0.11024605886E+03 -0.30932120921E+03  0.72493571817E+03  0.12699999809E+01 0.  1.
       -4    1    3    3    0  502 -0.64629434364E+03  0.11024605886E+03  0.14329277418E+04  0.15757963378E+04  0.12699999809E+01 0. -1.
</event>
<event>
 5   0  0.6168338E-05  0.1984463E+04  0.7818609E-02  0.8613919E-01
       -1   -1    0    0    0  501  0.00000000000E+00  0.00000000000E+00  0.88411225784E+03  0.88411225785E+03  0.50400001928E-02 0.  1.
        1   -1    0    0  501    0  0.00000000000E+00  0.00000000000E+00 -0.11135724396E+04  0.11135724396E+04  0.50400001928E-02 0. -1.
    10030    2    1    2    0    0  0.00000000000E+00  0.00000000000E+00 -0.22946018173E+03  0.19976846974E+04  0.19844626919E+04 0.  0.
        5    1    3    3  502    0  0.80445011471E+03 -0.30852384559E+02 -0.69860238826E+03  0.10659077088E+04  0.46999998093E+01 0.  1.
       -5    1    3    3    0  502 -0.80445011471E+03  0.30852384559E+02  0.46914220653E+03  0.93177698868E+03  0.46999998093E+01 0. -1.
</event>
<event>
 5   0  0.1281789E-04  0.2038659E+04  0.7818609E-02  0.8588757E-01
       -2   -1    0    0    0  501  0.00000000000E+00  0.00000000000E+00  0.62697582882E+03  0.62697582883E+03  0.25500000920E-02 0. -1.
        2   -1    0    0  501    0  0.00000000000E+00  0.00000000000E+00 -0.16572132439E+04  0.16572132439E+04  0.25500000920E-02 0.  1.
    10030    2    1    2    0    0  0.00000000000E+00  0.00000000000E+00 -0.10302374151E+04  0.22841890727E+04  0.20386590172E+04 0.  0.
        2    1    3    3  502    0 -0.30758504435E+03 -0.61554772880E+03 -0.13577030656E+04  0.15221252183E+04  0.25500000920E-02 0.  1.
       -2    1    3    3    0  502  0.30758504435E+03  0.61554772880E+03  0.32746565051E+03  0.76206385441E+03  0.25500000920E-02 0. -1.
</event>
<event>
 5   0  0.6168338E-05  0.1968293E+04  0.7818609E-02  0.8621590E-01
        1   -1    0    0  501    0  0.00000000000E+00  0.00000000000E+00  0.13872444747E+04  0.13872444747E+04  0.50400001928E-02 0. -1.
       -1   -1    0    0    0  501  0.00000000000E+00  0.00000000000E+00 -0.69817825668E+03  0.69817825669E+03  0.50400001928E-02 0.  1.
    10030    2    1    2    0    0  0.00000000000E+00  0.00000000000E+00  0.68906621800E+03  0.20854227314E+04  0.19682925890E+04 0.  0.
        5    1    3    3  502    0  0.16374243698E+03 -0.77654611859E+03 -0.27206659410E+03  0.83897424369E+03  0.46999998093E+01 0.  1.
       -5    1    3    3    0  502 -0.16374243698E+03  0.77654611859E+03  0.96113281210E+03  0.12464484877E+04  0.46999998093E+01 0. -1.
</event>
<event>
 5   0  0.1274868E-04  0.2019348E+04  0.7818609E-02  0.8597628E-01
        2   -1    0    0  501    0  0.00000000000E+00  0.00000000000E+00  0.17507097988E+04  0.17507097988E+04  0.25500000920E-02 0.  1.
       -2   -1    0    0    0  501  0.00000000000E+00  0.00000000000E+00 -0.58230167209E+03  0.58230167210E+03  0.25500000920E-02 0. -1.
    10030    2    1    2    0    0  0.00000000000E+00  0.00000000000E+00  0.11684081267E+04  0.23330114709E+04  0.20193476602E+04 0.  0.
        1    1    3    3  502    0  0.48677634768E+03 -0.21817383674E+03  0.15746186064E+04  0.16625206138E+04  0.50400001928E-02 0.  1.
       -1    1    3    3    0  502 -0.48677634768E+03  0.21817383674E+03 -0.40621047965E+03  0.67049085713E+03  0.50400001928E-02 0. -1.
</event>
<event>
 5   0  0.1242761E-04  0.2027526E+04  0.7818609E-02  0.8593859E-01
        2   -1    0    0  501    0  0.00000000000E+00  0.00000000000E+00  0.19460422109E+04  0.19460422109E+04  0.25500000920E-02 0. -1.
       -2   -1    0    0    0  501  0.00000000000E+00  0.00000000000E+00 -0.52810525727E+03  0.52810525728E+03  0.25500000920E-02 0.  1.
    10030    2    1    2    0    0  0.00000000000E+00  0.00000000000E+00  0.14179369537E+04  0.24741474682E+04  0.20275257063E+04 0.  0.
        4    1    3    3  502    0  0.92011919983E+02 -0.76554791886E+03  0.15121158914E+04  0.16973585041E+04  0.12699999809E+01 0. -1.
       -4    1    3    3    0  502 -0.92011919983E+02  0.76554791886E+03 -0.94178937777E+02  0.77678896408E+03  0.12699999809E+01 0.  1.
</event>
<event>
 5   0  0.6168338E-05  0.1984513E+04  0.7818609E-02  0.8613896E-01
       -1   -1    0    0    0  501  0.00000000000E+00  0.00000000000E+00  0.54283317315E+03  0.54283317318E+03  0.50400001928E-02 0.  1.
        1   -1    0    0  501    0  0.00000000000E+00  0.00000000000E+00 -0.18137665334E+04  0.18137665334E+04  0.50400001928E-02 0. -1.
    10030    2    1    2    0    0  0.00000000000E+00  0.00000000000E+00 -0.12709333603E+04  0.23565997066E+04  0.19845126785E+04 0.  0.
        5    1    3    3  502    0 -0.59324374936E+03  0.63786169125E+03 -0.71256541730E+02  0.87401674358E+03  0.46999998093E+01 0.  1.
       -5    1    3    3    0  502  0.59324374936E+03 -0.63786169125E+03 -0.11996768185E+04  0.14825829630E+04  0.46999998093E+01 0. -1.
</event>
<event>
 5   0  0.1242761E-04  0.1908901E+04  0.7818609E-02  0.8650439E-01
        2   -1    0    0  501    0  0.00000000000E+00  0.00000000000E+00  0.18148633556E+04  0.18148633556E+04  0.25500000920E-02 0.  1.
       -2   -1    0    0    0  501  0.00000000000E+00  0.00000000000E+00 -0.50195270325E+03  0.50195270326E+03  0.25500000920E-02 0. -1.
    10030    2    1    2    0    0  0.00000000000E+00  0.00000000000E+00  0.13129106524E+04  0.23168160589E+04  0.19089008014E+04 0.  0.
        4    1    3    3  502    0  0.27595364566E+03  0.27699476453E+03 -0.40029091001E+03  0.55956316861E+03  0.12699999809E+01 0. -1.
       -4    1    3    3    0  502 -0.27595364566E+03 -0.27699476453E+03  0.17132015624E+04  0.17572528903E+04  0.12699999809E+01 0.  1.
</event>
<event>
 5   0  0.1244229E-04  0.2012679E+04  0.7818609E-02  0.8600716E-01
       -2   -1    0    0    0  501  0.00000000000E+00  0.00000000000E+00  0.93656910477E+03  0.93656910478E+03  0.25500000920E-02 0.  1.
        2   -1    0    0  501    0  0.00000000000E+00  0.00000000000E+00 -0.10813072741E+04  0.10813072741E+04  0.25500000920E-02 0. -1.
    10030    2    1    2    0    0  0.00000000000E+00  0.00000000000E+00 -0.14473816933E+03  0.20178763789E+04  0.20126787977E+04 0.  0.
        5    1    3    3  502    0 -0.48142221802E+03 -0.76435253948E+03 -0.51701720118E+03  0.10408318947E+04  0.46999998093E+01 0. -1.
       -5    1    3    3    0  502  0.48142221802E+03  0.76435253948E+03  0.37227903185E+03  0.97704448423E+03  0.46999998093E+01 0.  1.
</event>
<event>
 5   0  0.1274868E-04  0.2167242E+04  0.7818609E-02  0.8532188E-01
       -2   -1    0    0    0  501  0.00000000000E+00  0.00000000000E+00  0.15187173759E+04  0.15187173759E+04  0.25500000920E-02 0.  1.
        2   -1    0    0  501    0  0.00000000000E+00  0.00000000000E+00 -0.77317511503E+03  0.77317511503E+03  0.25500000920E-02 0. -1.
    10030    2    1    2    0    0  0.00000000000E+00  0.00000000000E+00  0.74554226091E+03  0.22918924910E+04  0.21672420094E+04 0.  0.
        1    1    3    3  502    0  0.49676824534E+03  0.95270568020E+03  0.22393662531E+03  0.10975310542E+04  0.50400001928E-02 0.  1.
       -1    1    3    3    0  502 -0.49676824534E+03 -0.95270568020E+03  0.52160563560E+03  0.11943614368E+04  0.50400001928E-02 0. -1.
</event>
<event>
 5   0  0.6028501E-05  0.1993021E+04  0.7818609E-02  0.8609891E-01
       -1   -1    0    0    0  501  0.00000000000E+00  0.00000000000E+00  0.75066502015E+03  0.75066502017E+03  0.50400001928E-02 0. -1.
        1   -1    0    0  501    0  0.00000000000E+00  0.00000000000E+00 -0.13228711729E+04  0.13228711729E+04  0.50400001928E-02 0.  1.
    10030    2    1    2    0    0  0.00000000000E+00  0.00000000000E+00 -0.57220615272E+03  0.20735361930E+04  0.19930209388E+04 0.  0.
        4    1    3    3  502    0 -0.24400802681E+03  0.91042678656E+03  0.50405406063E+02  0.94390633470E+03  0.12699999809E+01 0. -1.
       -4    1    3    3    0  502  0.24400802681E+03 -0.91042678656E+03 -0.62261155879E+03  0.11296298583E+04  0.12699999809E+01 0.  1.
</event>
<event>
 5   0  0.1274868E-04  0.1919296E+04  0.7818609E-02  0.8645311E-01
       -2   -1    0    0    0  501  0.00000000000E+00  0.00000000000E+00  0.57183198296E+03  0.57183198297E+03  0.25500000920E-02 0.  1.
        2   -1    0    0  501    0  0.00000000000E+00  0.00000000000E+00 -0.16104803587E+04  0.16104803587E+04  0.25500000920E-02 0. -1.
    10030    2    1    2    0    0  0.00000000000E+00  0.00000000000E+00 -0.10386483758E+04  0.21823123417E+04  0.19192958887E+04 0.  0.
        1    1    3    3  502    0  0.42256399550E+03  0.53542786258E+03 -0.12868718707E+04  0.14564623366E+04  0.50400001928E-02 0. -1.
       -1    1    3    3    0  502 -0.42256399550E+03 -0.53542786258E+03  0.24822349499E+03  0.72585000504E+03  0.50400001928E-02 0.  1.
</event>
<event>
 5   0  0.6222733E-05  0.2001980E+04  0.7818609E-02  0.8605695E-01
        1   -1    0    0  501    0  0.00000000000E+00  0.00000000000E+00  0.11339748194E+04  0.11339748194E+04  0.50400001928E-02 0.  1.
       -1   -1    0    0    0  501  0.00000000000E+00  0.00000000000E+00 -0.88360093626E+03  0.88360093627E+03  0.50400001928E-02 0. -1.
    10030    2    1    2    0    0  0.00000000000E+00  0.00000000000E+00  0.25037388311E+03  0.20175757557E+04  0.20019802318E+04 0.  0.
        2    1    3    3  502    0  0.26140443603E+03  0.49861310455E+03  0.95930226410E+03  0.11122985845E+04  0.25500000920E-02 0.  1.
       -2    1    3    3    0  502 -0.26140443603E+03 -0.49861310455E+03 -0.70892838099E+03  0.90527717114E+03  0.25500000920E-02 0. -1.
</event>
<event>
 5   0  0.1159914E-04  0.2022699E+04  0.7818609E-02  0.8596081E-01
        2   -1    0    0  501    0  0.00000000000E+00  0.00000000000E+00  0.10120405667E+04  0.10120405667E+04  0.25500000920E-02 0.  1.
       -2   -1    0    0    0  501  0.00000000000E+00  0.00000000000E+00 -0.10106590121E+04  0.10106590121E+04  0.25500000920E-02 0. -1.
    10030    2    1    2    0    0  0.00000000000E+00  0.00000000000E+00  0.13815546153E+01  0.20226995788E+04  0.20226991070E+04 0.  0.
        3    1    3    3  502    0 -0.99869620449E+03  0.72052285143E+01 -0.15862619243E+03  0.10112409719E+04  0.10100000352E+00 0.  1.
       -3    1    3    3    0  502  0.99869620449E+03 -0.72052285143E+01  0.16000774704E+03  0.10114586069E+04  0.10100000352E+00 0. -1.
</event>
<event>
 5   0  0.6028501E-05  0.1979627E+04  0.7818609E-02  0.8616205E-01
        1   -1    0    0  501    0  0.00000000000E+00  0.00000000000E+00  0.19965120199E+04  0.19965120199E+04  0.50400001928E-02 0. -1.
       -1   -1    0    0    0  501  0.00000000000E+00  0.00000000000E+00 -0.49072136866E+03  0.49072136869E+03  0.50400001928E-02 0.  1.
    10030    2    1    2    0    0  0.00000000000E+00  0.00000000000E+00  0.15057906512E+04  0.24872333885E+04  0.19796273497E+04 0.  0.
        4    1    3    3  502    0  0.65686045595E+03  0.11953216324E+03 -0.16521299347E+03  0.68778669858E+03  0.12699999809E+01 0.  1.
       -4    1    3    3    0  502 -0.65686045595E+03 -0.11953216324E+03  0.16710036447E+04  0.17994466900E+04  0.12699999809E+01 0. -1.
</event>
<event>
 5   0  0.6028501E-05  0.2106715E+04  0.7818609E-02  0.8558291E-01
       -1   -1    0    0    0  501  0.00000000000E+00  0.00000000000E+00  0.76121278597E+03  0.76121278599E+03  0.50400001928E-02 0.  1.
        1   -1    0    0  501    0  0.00000000000E+00  0.00000000000E+00 -0.14576235889E+04  0.14576235889E+04  0.50400001928E-02 0. -1.
    10030    2    1    2    0    0  0.00000000000E+00  0.00000000000E+00 -0.69641080289E+03  0.22188363749E+04  0.21067147059E+04 0.  0.
        4    1    3    3  502    0 -0.69079322434E+02 -0.10395553760E+04 -0.51175258880E+03  0.11607496102E+04  0.12699999809E+01 0.  1.
       -4    1    3    3    0  502  0.69079322434E+02  0.10395553760E+04 -0.18465821409E+03  0.10580867646E+04  0.12699999809E+01 0. -1.
</event>
<event>
 5   0  0.1274868E-04  0.1920111E+04  0.7818609E-02  0.8644910E-01
       -2   -1    0    0    0  501  0.00000000000E+00  0.00000000000E+00  0.71481175335E+03  0.71481175335E+03  0.25500000920E-02 0. -1.
        2   -1    0    0  501    0  0.00000000000E+00  0.00000000000E+00 -0.12894391046E+04  0.12894391046E+04  0.25500000920E-02 0.  1.
    10030    2    1    2    0    0  0.00000000000E+00  0.00000000000E+00 -0.57462735126E+03  0.20042508580E+04  0.19201106502E+04 0.  0.
        1    1    3    3  502    0 -0.40663281524E+03 -0.16719940899E+03  0.60354926131E+03  0.74671118892E+03  0.50400001928E-02 0. -1.
       -1    1    3    3    0  502  0.40663281524E+03  0.16719940899E+03 -0.11781766126E+04  0.12575396690E+04  0.50400001928E-02 0.  1.
</event>
<event>
 5   0  0.1242761E-04  0.2021378E+04  0.7818609E-02  0.8596690E-01
        2   -1    0    0  501    0  0.00000000000E+00  0.00000000000E+00  0.11436628164E+04  0.11436628164E+04  0.25500000920E-02 0.  1.
       -2   -1    0    0    0  501  0.00000000000E+00  0.00000000000E+00 -0.89317638466E+03  0.89317638466E+03  0.25500000920E-02 0. -1.
    10030    2    1    2    0    0  0.00000000000E+00  0.00000000000E+00  0.25048643171E+03  0.20368392010E+04  0.20213783610E+04 0.  0.
        4    1    3    3  502    0 -0.25052062852E+03 -0.37742219448E+03 -0.78515098830E+03  0.90646113294E+03  0.12699999809E+01 0. -1.
       -4    1    3    3    0  502  0.25052062852E+03  0.37742219448E+03  0.10356374200E+04  0.11303780681E+04  0.12699999809E+01 0.  1.
</event>
<event>
 5   0  0.6168338E-05  0.2066416E+04  0.7818609E-02  0.8576183E-01
        1   -1    0    0  501    0  0.00000000000E+00  0.00000000000E+00  0.11648028154E+04  0.11648028154E+04  0.50400001928E-02 0. -1.
       -1   -1    0    0    0  501  0.00000000000E+00  0.00000000000E+00 -0.91648061849E+03  0.91648061851E+03  0.50400001928E-02 0.  1.
    10030    2    1    2    0    0  0.00000000000E+00  0.00000000000E+00  0.24832219693E+03  0.20812834339E+04  0.20664164195E+04 0.  0.
        5    1    3    3  502    0 -0.40281811463E+03  0.75069023465E+03 -0.46459462738E+03  0.97039606330E+03  0.46999998093E+01 0.  1.
       -5    1    3    3    0  502  0.40281811463E+03 -0.75069023465E+03  0.71291682431E+03  0.11108873706E+04  0.46999998093E+01 0. -1.
</event>
<event>
 5   0  0.1274868E-04  0.1722337E+04  0.7818609E-02  0.8748726E-01
        2   -1    0    0  501    0  0.00000000000E+00  0.00000000000E+00  0.24902967562E+04  0.24902967562E+04  0.25500000920E-02 0. -1.
       -2   -1    0    0    0  501  0.00000000000E+00  0.00000000000E+00 -0.29780026452E+03  0.29780026453E+03  0.25500000920E-02 0.  1.
    10030    2    1    2    0    0  0.00000000000E+00  0.00000000000E+00  0.21924964916E+04  0.27880970207E+04  0.17223368227E+04 0.  0.
        1    1    3    3  502    0  0.50087387186E+03  0.15862937846E+02 -0.37463265962E+02  0.50252339710E+03  0.50400001928E-02 0.  1.
       -1    1    3    3    0  502 -0.50087387186E+03 -0.15862937846E+02  0.22299597576E+04  0.22855736236E+04  0.50400001928E-02 0. -1.
</event>
<event>
 5   0  0.1159914E-04  0.2004701E+04  0.7818609E-02  0.8604426E-01
       -2   -1    0    0    0  501  0.00000000000E+00  0.00000000000E+00  0.92313952961E+03  0.92313952961E+03  0.25500000920E-02 0. -1.
        2   -1    0    0  501    0  0.00000000000E+00  0.00000000000E+00 -0.10883582071E+04  0.10883582071E+04  0.25500000920E-02 0.  1.
    10030    2    1    2    0    0  0.00000000000E+00  0.00000000000E+00 -0.16521867746E+03  0.20114977367E+04  0.20047009586E+04 0.  0.
        3    1    3    3  502    0  0.95074878674E+02 -0.99663144472E+03 -0.13169353228E+03  0.10097805038E+04  0.10100000352E+00 0.  1.
       -3    1    3    3    0  502 -0.95074878674E+02  0.99663144472E+03 -0.33525145172E+02  0.10017172329E+04  0.10100000352E+00 0. -1.
</event>
<event>
 5   0  0.6256535E-05  0.1995233E+04  0.7818609E-02  0.8608853E-01
        1   -1    0    0  501    0  0.00000000000E+00  0.00000000000E+00  0.76382022933E+03  0.76382022935E+03  0.50400001928E-02 0. -1.
       -1   -1    0    0    0  501  0.00000000000E+00  0.00000000000E+00 -0.13029752733E+04  0.13029752733E+04  0.50400001928E-02 0.  1.
    10030    2    1    2    0    0  0.00000000000E+00  0.00000000000E+00 -0.53915504400E+03  0.20667955027E+04  0.19952331915E+04 0.  0.
        1    1    3    3  502    0 -0.44534135514E+03  0.50619670724E+03 -0.10312564281E+04  0.12320932796E+04  0.50400001928E-02 0.  1.
       -1    1    3    3    0  502  0.44534135514E+03 -0.50619670724E+03  0.49210138411E+03  0.83470222312E+03  0.50400001928E-02 0. -1.
</event>
<event>
 5   0  0.6256535E-05  0.2004536E+04  0.7818609E-02  0.8604503E-01
        1   -1    0    0  501    0  0.00000000000E+00  0.00000000000E+00  0.11673732799E+04  0.11673732799E+04  0.50400001928E-02 0.  1.
       -1   -1    0    0    0  501  0.00000000000E+00  0.00000000000E+00 -0.86051437578E+03  0.86051437580E+03  0.50400001928E-02 0. -1.
    10030    2    1    2    0    0  0.00000000000E+00  0.00000000000E+00  0.30685890413E+03  0.20278876557E+04  0.20045363447E+04 0.  0.
        1    1    3    3  502    0  0.13548728186E+03  0.80581588175E+03  0.74057436112E+03  0.11027902898E+04  0.50400001928E-02 0.  1.
       -1    1    3    3    0  502 -0.13548728186E+03 -0.80581588175E+03 -0.43371545700E+03  0.92509736595E+03  0.50400001928E-02 0. -1.
</event>
<event>
 5   0  0.6214547E-05  0.2000671E+04  0.7818609E-02  0.8606307E-01
        1   -1    0    0  501    0  0.00000000000E+00  0.00000000000E+00  0.18450581673E+04  0.18450581673E+04  0.50400001928E-02 0. -1.
       -1   -1    0    0    0  501  0.00000000000E+00  0.00000000000E+00 -0.54235182126E+03  0.54235182129E+03  0.50400001928E-02 0.  1.
    10030    2    1    2    0    0  0.00000000000E+00  0.00000000000E+00  0.13027063461E+04  0.23874099886E+04  0.20006705450E+04 0.  0.
        3    1    3    3  502    0 -0.58678404909E+03 -0.15932112553E+03  0.15992398949E+04  0.17109257707E+04  0.10100000352E+00 0. -1.
       -3    1    3    3    0  502  0.58678404909E+03  0.15932112553E+03 -0.29653354881E+03  0.67648421791E+03  0.10100000352E+00 0.  1.
</event>
<event>
 5   0  0.6168338E-05  0.2057868E+04  0.7818609E-02  0.8580033E-01
        1   -1    0    0  501    0  0.00000000000E+00  0.00000000000E+00  0.11133608925E+04  0.11133608925E+04  0.50400001928E-02 0.  1.
       -1   -1    0    0    0  501  0.00000000000E+00  0.00000000000E+00 -0.95090952970E+03  0.95090952972E+03  0.50400001928E-02 0. -1.
    10030    2    1    2    0    0  0.00000000000E+00  0.00000000000E+00  0.16245136281E+03  0.20642704222E+04  0.20578682977E+04 0.  0.
        5    1    3    3  502    0 -0.89043919490E+03  0.37287870379E+03  0.43837111776E+03  0.10602413944E+04  0.46999998093E+01 0.  1.
       -5    1    3    3    0  502  0.89043919490E+03 -0.37287870379E+03 -0.27591975495E+03  0.10040290278E+04  0.46999998093E+01 0. -1.
</event>
<event>
 5   0  0.6168338E-05  0.1985185E+04  0.7818609E-02  0.8613579E-01
       -1   -1    0    0    0  501  0.00000000000E+00  0.00000000000E+00  0.55672618132E+03  0.55672618134E+03  0.50400001928E-02 0.  1.
        1   -1    0    0  501    0  0.00000000000E+00  0.00000000000E+00 -0.17697028055E+04  0.17697028055E+04  0.50400001928E-02 0. -1.
    10030    2    1    2    0    0  0.00000000000E+00  0.00000000000E+00 -0.12129766241E+04  0.23264289868E+04  0.19851850140E+04 0.  0.
        5    1    3    3  502    0  0.16970846162E+03  0.59547848698E+03 -0.15156118789E+04  0.16372223575E+04  0.46999998093E+01 0. -1.
       -5    1    3    3    0  502 -0.16970846162E+03 -0.59547848698E+03  0.30263525480E+03  0.68920662928E+03  0.46999998093E+01 0.  1.
</event>
<event>
 5   0  0.1242761E-04  0.1933167E+04  0.7818609E-02  0.8638521E-01
       -2   -1    0    0    0  501  0.00000000000E+00  0.00000000000E+00  0.48715527102E+03  0.48715527103E+03  0.25500000920E-02 0.  1.
        2   -1    0    0  501    0  0.00000000000E+00  0.00000000000E+00 -0.19178353792E+04  0.19178353792E+04  0.25500000920E-02 0. -1.
    10030    2    1    2    0    0  0.00000000000E+00  0.00000000000E+00 -0.14306801081E+04  0.24049906502E+04  0.19331669498E+04 0.  0.
        4    1    3    3  502    0 -0.92360182677E+03 -0.11670761456E+03 -0.10388479037E+04  0.13949435765E+04  0.12699999809E+01 0. -1.
       -4    1    3    3    0  502  0.92360182677E+03  0.11670761456E+03 -0.39183220441E+03  0.10100470737E+04  0.12699999809E+01 0.  1.
</event>
<event>
 5   0  0.1274868E-04  0.2058583E+04  0.7818609E-02  0.8579711E-01
        2   -1    0    0  501    0  0.00000000000E+00  0.00000000000E+00  0.13310901840E+04  0.13310901840E+04  0.25500000920E-02 0.  1.
       -2   -1    0    0    0  501  0.00000000000E+00  0.00000000000E+00 -0.79591964905E+03  0.79591964905E+03  0.25500000920E-02 0. -1.
    10030    2    1    2    0    0  0.00000000000E+00  0.00000000000E+00  0.53517053491E+03  0.21270098330E+04  0.20585828447E+04 0.  0.
        1    1    3    3  502    0 -0.36261382621E+03  0.94192209688E+03  0.59047851446E+02  0.10110354456E+04  0.50400001928E-02 0. -1.
       -1    1    3    3    0  502  0.36261382621E+03 -0.94192209688E+03  0.47612268347E+03  0.11159743874E+04  0.50400001928E-02 0.  1.
</event>
<event>
 5   0  0.6222733E-05  0.1832161E+04  0.7818609E-02  0.8689381E-01
        1   -1    0    0  501    0  0.00000000000E+00  0.00000000000E+00  0.78414933604E+03  0.78414933606E+03  0.50400001928E-02 0. -1.
       -1   -1    0    0    0  501  0.00000000000E+00  0.00000000000E+00 -0.10702087421E+04  0.10702087421E+04  0.50400001928E-02 0.  1.
    10030    2    1    2    0    0  0.00000000000E+00  0.00000000000E+00 -0.28605940603E+03  0.18543580781E+04  0.18321609913E+04 0.  0.
        2    1    3    3  502    0  0.16494343778E+03  0.43844124132E+03  0.65376050315E+03  0.80426354837E+03  0.25500000920E-02 0. -1.
       -2    1    3    3    0  502 -0.16494343778E+03 -0.43844124132E+03 -0.93981990918E+03  0.10500945298E+04  0.25500000920E-02 0.  1.
</event>
<event>
 5   0  0.1244229E-04  0.1936612E+04  0.7818609E-02  0.8636844E-01
       -2   -1    0    0    0  501  0.00000000000E+00  0.00000000000E+00  0.10656372683E+04  0.10656372683E+04  0.25500000920E-02 0.  1.
        2   -1    0    0  501    0  0.00000000000E+00  0.00000000000E+00 -0.87986484653E+03  0.87986484654E+03  0.25500000920E-02 0. -1.
    10030    2    1    2    0    0  0.00000000000E+00  0.00000000000E+00  0.18577242177E+03  0.19455021148E+04  0.19366122705E+04 0.  0.
        5    1    3    3  502    0 -0.28318510769E+03  0.61571432756E+03 -0.60187848171E+03  0.90640925367E+03  0.46999998093E+01 0. -1.
       -5    1    3    3    0  502  0.28318510769E+03 -0.61571432756E+03  0.78765090348E+03  0.10390928612E+04  0.46999998093E+01 0.  1.
</event>
<event>
 5   0  0.6222733E-05  0.1989035E+04  0.7818609E-02  0.8611765E-01
        1   -1    0    0  501    0  0.00000000000E+00  0.00000000000E+00  0.13459031697E+04  0.13459031697E+04  0.50400001928E-02 0. -1.
       -1   -1    0    0    0  501  0.00000000000E+00  0.00000000000E+00 -0.73487065289E+03  0.73487065291E+03  0.50400001928E-02 0.  1.
    10030    2    1    2    0    0  0.00000000000E+00  0.00000000000E+00  0.61103251681E+03  0.20807738226E+04  0.19890346815E+04 0.  0.
        2    1    3    3  502    0  0.24694386597E+03 -0.39830865474E+03 -0.61211482691E+03  0.77091868489E+03  0.25500000920E-02 0.  1.
       -2    1    3    3    0  502 -0.24694386597E+03  0.39830865474E+03  0.12231473437E+04  0.13098551377E+04  0.25500000920E-02 0. -1.
</event>
<event>
 5   0  0.1281789E-04  0.2006427E+04  0.7818609E-02  0.8603622E-01
       -2   -1    0    0    0  501  0.00000000000E+00  0.00000000000E+00  0.45545761683E+03  0.45545761683E+03  0.25500000920E-02 0. -1.
        2   -1    0    0  501    0  0.00000000000E+00  0.00000000000E+00 -0.22097286623E+04  0.22097286623E+04  0.25500000920E-02 0.  1.
    10030    2    1    2    0    0  0.00000000000E+00  0.00000000000E+00 -0.17542710455E+04  0.26651862792E+04  0.20064274225E+04 0.  0.
        2    1    3    3  502    0 -0.52838923327E+03 -0.10208302146E+02  0.25555858639E+03  0.58703456658E+03  0.25500000920E-02 0. -1.
       -2    1    3    3    0  502  0.52838923327E+03  0.10208302146E+02 -0.20098296319E+04  0.20781517126E+04  0.25500000920E-02 0.  1.
</event>
<event>
 5   0  0.1159914E-04  0.2020769E+04  0.7818609E-02  0.8596972E-01
       -2   -1    0    0    0  501  0.00000000000E+00  0.00000000000E+00  0.13236802542E+04  0.13236802542E+04  0.25500000920E-02 0.  1.
        2   -1    0    0  501    0  0.00000000000E+00  0.00000000000E+00 -0.77124117298E+03  0.77124117298E+03  0.25500000920E-02 0. -1.
    10030    2    1    2    0    0  0.00000000000E+00  0.00000000000E+00  0.55243908121E+03  0.20949214272E+04  0.20207688753E+04 0.  0.
        3    1    3    3  502    0  0.26918900214E+03  0.51515727429E+03 -0.58056183934E+03  0.82152406881E+03  0.10100000352E+00 0. -1.
       -3    1    3    3    0  502 -0.26918900214E+03 -0.51515727429E+03  0.11330009206E+04  0.12733973584E+04  0.10100000352E+00 0.  1.
</event>
<event>
 5   0  0.1274868E-04  0.1998783E+04  0.7818609E-02  0.8607190E-01
       -2   -1    0    0    0  501  0.00000000000E+00  0.00000000000E+00  0.28187190149E+04  0.28187190149E+04  0.25500000920E-02 0.  1.
        2   -1    0    0  501    0  0.00000000000E+00  0.00000000000E+00 -0.35433947675E+03  0.35433947676E+03  0.25500000920E-02 0. -1.
    10030    2    1    2    0    0  0.00000000000E+00  0.00000000000E+00  0.24643795382E+04  0.31730584917E+04  0.19987830506E+04 0.  0.
        1    1    3    3  502    0 -0.47142454974E+03 -0.62452159764E+03  0.24523864464E+03  0.82000629562E+03  0.50400001928E-02 0. -1.
       -1    1    3    3    0  502  0.47142454974E+03  0.62452159764E+03  0.22191408935E+04  0.23530521961E+04  0.50400001928E-02 0.  1.
</event>
<event>
 5   0  0.1242761E-04  0.2004098E+04  0.7818609E-02  0.8604707E-01
        2   -1    0    0  501    0  0.00000000000E+00  0.00000000000E+00  0.51846001505E+03  0.51846001505E+03  0.25500000920E-02 0.  1.
       -2   -1    0    0    0  501  0.00000000000E+00  0.00000000000E+00 -0.19367011124E+04  0.19367011124E+04  0.25500000920E-02 0. -1.
    10030    2    1    2    0    0  0.00000000000E+00  0.00000000000E+00 -0.14182410974E+04  0.24551611275E+04  0.20040978897E+04 0.  0.
        4    1    3    3  502    0  0.17500736831E+03 -0.53697008584E+02  0.49780052111E+03  0.53039411706E+03  0.12699999809E+01 0.  1.
       -4    1    3    3    0  502 -0.17500736831E+03  0.53697008584E+02 -0.19160416185E+04  0.19247670104E+04  0.12699999809E+01 0. -1.
</event>
<event>
 5   0  0.6168338E-05  0.2008065E+04  0.7818609E-02  0.8602859E-01
       -1   -1    0    0    0  501  0.00000000000E+00  0.00000000000E+00  0.89519354084E+03  0.89519354086E+03  0.50400001928E-02 0. -1.
        1   -1    0    0  501    0  0.00000000000E+00  0.00000000000E+00 -0.11261039632E+04  0.11261039632E+04  0.50400001928E-02 0.  1.
    10030    2    1    2    0    0  0.00000000000E+00  0.00000000000E+00 -0.23091042233E+03  0.20212975040E+04  0.20080647342E+04 0.  0.
        5    1    3    3  502    0 -0.27267930436E+03  0.13372522458E+03  0.84783728443E+03  0.90060345857E+03  0.46999998093E+01 0. -1.
       -5    1    3    3    0  502  0.27267930436E+03 -0.13372522458E+03 -0.10787477068E+04  0.11206940455E+04  0.46999998093E+01 0.  1.
</event>
<event>
 5   0  0.6028501E-05  0.2002315E+04  0.7818609E-02  0.8605539E-01
        1   -1    0    0  501    0  0.00000000000E+00  0.00000000000E+00  0.10745831627E+04  0.10745831627E+04  0.50400001928E-02 0.  1.
       -1   -1    0    0    0  501  0.00000000000E+00  0.00000000000E+00 -0.93274939956E+03  0.93274939957E+03  0.50400001928E-02 0. -1.
    10030    2    1    2    0    0  0.00000000000E+00  0.00000000000E+00  0.14183376315E+03  0.20073325623E+04  0.20023154595E+04 0.  0.
        4    1    3    3  502    0  0.15897066594E+03 -0.95204181956E+03  0.33740220891E+03  0.10224955561E+04  0.12699999809E+01 0.  1.
       -4    1    3    3    0  502 -0.15897066594E+03  0.95204181956E+03 -0.19556844577E+03  0.98483700616E+03  0.12699999809E+01 0. -1.
</event>
<event>
 5   0  0.4479000E-05  0.2002304E+04  0.7818609E-02  0.8605544E-01
       -3   -1    0    0    0  501  0.00000000000E+00  0.00000000000E+00  0.11691269058E+04  0.11691269101E+04  0.10100000352E+00 0.  1.
        3   -1    0    0  501    0  0.00000000000E+00  0.00000000000E+00 -0.85731061751E+03  0.85731062346E+03  0.10100000352E+00 0. -1.
    10030    2    1    2    0    0  0.00000000000E+00  0.00000000000E+00  0.31181628825E+03  0.20264375336E+04  0.20023035933E+04 0.  0.
        2    1    3    3  502    0  0.14356096402E+03  0.69713729991E+03  0.86845012330E+03  0.11228605354E+04  0.25500000920E-02 0.  1.
       -2    1    3    3    0  502 -0.14356096402E+03 -0.69713729991E+03 -0.55663383505E+03  0.90357699818E+03  0.25500000920E-02 0. -1.
</event>
<event>
 5   0  0.1159914E-04  0.1988694E+04  0.7818609E-02  0.8611925E-01
        2   -1    0    0  501    0  0.00000000000E+00  0.00000000000E+00  0.81542276837E+03  0.81542276837E+03  0.25500000920E-02 0.  1.
       -2   -1    0    0    0  501  0.00000000000E+00  0.00000000000E+00 -0.12125311514E+04  0.12125311514E+04  0.25500000920E-02 0. -1.
    10030    2    1    2    0    0  0.00000000000E+00  0.00000000000E+00 -0.39710838299E+03  0.20279539197E+04  0.19886935492E+04 0.  0.
        3    1    3    3  502    0 -0.68287914350E+03 -0.52221328866E+03  0.31100543889E+03  0.91419638847E+03  0.10100000352E+00 0.  1.
       -3    1    3    3    0  502  0.68287914350E+03  0.52221328866E+03 -0.70811382188E+03  0.11137575313E+04  0.10100000352E+00 0. -1.
</event>
<event>
 5   0  0.1281789E-04  0.1855006E+04  0.7818609E-02  0.8677583E-01
        2   -1    0    0  501    0  0.00000000000E+00  0.00000000000E+00  0.15627811159E+04  0.15627811159E+04  0.25500000920E-02 0. -1.
       -2   -1    0    0    0  501  0.00000000000E+00  0.00000000000E+00 -0.55046864425E+03  0.55046864425E+03  0.25500000920E-02 0.  1.
    10030    2    1    2    0    0  0.00000000000E+00  0.00000000000E+00  0.10123124716E+04  0.21132497601E+04  0.18550062017E+04 0.  0.
        2    1    3    3  502    0  0.41616886495E+03  0.19587275930E+03  0.14237008504E+04  0.14961573358E+04  0.25500000920E-02 0. -1.
       -2    1    3    3    0  502 -0.41616886495E+03 -0.19587275930E+03 -0.41138837877E+03  0.61709242435E+03  0.25500000920E-02 0.  1.
</event>
<event>
 5   0  0.1244229E-04  0.2033566E+04  0.7818609E-02  0.8591086E-01
       -2   -1    0    0    0  501  0.00000000000E+00  0.00000000000E+00  0.12016087003E+04  0.12016087003E+04  0.25500000920E-02 0. -1.
        2   -1    0    0  501    0  0.00000000000E+00  0.00000000000E+00 -0.86038656564E+03  0.86038656564E+03  0.25500000920E-02 0.  1.
    10030    2    1    2    0    0  0.00000000000E+00  0.00000000000E+00  0.34122213467E+03  0.20619952659E+04  0.20335663086E+04 0.  0.
        5    1    3    3  502    0 -0.57880959750E+03  0.65553223828E+03  0.69659480512E+03  0.11180382275E+04  0.46999998093E+01 0. -1.
       -5    1    3    3    0  502  0.57880959750E+03 -0.65553223828E+03 -0.35537267045E+03  0.94395703847E+03  0.46999998093E+01 0.  1.
</event>
<event>
 5   0  0.6028501E-05  0.2017738E+04  0.7818609E-02  0.8598372E-01
       -1   -1    0    0    0  501  0.00000000000E+00  0.00000000000E+00  0.14915382117E+04  0.14915382118E+04  0.50400001928E-02 0. -1.
        1   -1    0    0  501    0  0.00000000000E+00  0.00000000000E+00 -0.68239422554E+03  0.68239422556E+03  0.50400001928E-02 0.  1.
    10030    2    1    2    0    0  0.00000000000E+00  0.00000000000E+00  0.80914398620E+03  0.21739324373E+04  0.20177384002E+04 0.  0.
        4    1    3    3  502    0 -0.15402129337E+03  0.40062443282E+03  0.13882618681E+04  0.14530984558E+04  0.12699999809E+01 0. -1.
       -4    1    3    3    0  502  0.15402129337E+03 -0.40062443282E+03 -0.57911788185E+03  0.72083398155E+03  0.12699999809E+01 0.  1.
</event>
<event>
 5   0  0.6256535E-05  0.1964173E+04  0.7818609E-02  0.8623557E-01
        1   -1    0    0  501    0  0.00000000000E+00  0.00000000000E+00  0.79597306538E+03  0.79597306540E+03  0.50400001928E-02 0. -1.
       -1   -1    0    0    0  501  0.00000000000E+00  0.00000000000E+00 -0.12117163777E+04  0.12117163777E+04  0.50400001928E-02 0.  1.
    10030    2    1    2    0    0  0.00000000000E+00  0.00000000000E+00 -0.41574331227E+03  0.20076894431E+04  0.19641727007E+04 0.  0.
        1    1    3    3  502    0 -0.19311405434E+03 -0.45054510858E+03 -0.10777309810E+04  0.11839712835E+04  0.50400001928E-02 0.  1.
       -1    1    3    3    0  502  0.19311405434E+03  0.45054510858E+03  0.66198766869E+03  0.82371815955E+03  0.50400001928E-02 0. -1.
</event>
<event>
 5   0  0.1281789E-04  0.1981964E+04  0.7818609E-02  0.8615100E-01
        2   -1    0    0  501    0  0.00000000000E+00  0.00000000000E+00  0.25930831834E+04  0.25930831834E+04  0.25500000920E-02 0.  1.
       -2   -1    0    0    0  501  0.00000000000E+00  0.00000000000E+00 -0.37871743550E+03  0.37871743551E+03  0.25500000920E-02 0. -1.
    10030    2    1    2    0    0  0.00000000000E+00  0.00000000000E+00  0.22143657479E+04  0.29718006189E+04  0.19819644934E+04 0.  0.
        2    1    3    3  502    0  0.26434505773E+03 -0.25578991642E+03  0.24869271034E+04  0.25139835338E+04  0.25500000920E-02 0.  1.
       -2    1    3    3    0  502 -0.26434505773E+03  0.25578991642E+03 -0.27256135547E+03  0.45781708508E+03  0.25500000920E-02 0. -1.
</event>
<event>
 5   0  0.6028501E-05  0.2040131E+04  0.7818609E-02  0.8588084E-01
       -1   -1    0    0    0  501  0.00000000000E+00  0.00000000000E+00  0.55288135027E+03  0.55288135029E+03  0.50400001928E-02 0.  1.
        1   -1    0    0  501    0  0.00000000000E+00  0.00000000000E+00 -0.18820202676E+04  0.18820202676E+04  0.50400001928E-02 0. -1.
    10030    2    1    2    0    0  0.00000000000E+00  0.00000000000E+00 -0.13291389173E+04  0.24349016179E+04  0.20401312770E+04 0.  0.
        4    1    3    3  502    0  0.79460835830E+03 -0.58828583904E+03 -0.36488477379E+03  0.10538620320E+04  0.12699999809E+01 0.  1.
       -4    1    3    3    0  502 -0.79460835830E+03  0.58828583904E+03 -0.96425414350E+03  0.13810395858E+04  0.12699999809E+01 0. -1.
</event>
<event>
 5   0  0.1242761E-04  0.2297395E+04  0.7818609E-02  0.8478949E-01
        2   -1    0    0  501    0  0.00000000000E+00  0.00000000000E+00  0.25126681222E+04  0.25126681222E+04  0.25500000920E-02 0. -1.
       -2   -1    0    0    0  501  0.00000000000E+00  0.00000000000E+00 -0.52514139687E+03  0.52514139688E+03  0.25500000920E-02 0.  1.
    10030    2    1    2    0    0  0.00000000000E+00  0.00000000000E+00  0.19875267254E+04  0.30378095191E+04  0.22973950880E+04 0.  0.
        4    1    3    3  502    0 -0.20060249816E+03 -0.96943445251E+03  0.17641683744E+04  0.20229523440E+04  0.12699999809E+01 0. -1.
       -4    1    3    3    0  502  0.20060249816E+03  0.96943445251E+03  0.22335835093E+03  0.10148571751E+04  0.12699999809E+01 0.  1.
</event>
<event>
 5   0  0.6168338E-05  0.2000627E+04  0.7818609E-02  0.8606328E-01
        1   -1    0    0  501    0  0.00000000000E+00  0.00000000000E+00  0.10840591565E+04  0.10840591565E+04  0.50400001928E-02 0. -1.
       -1   -1    0    0    0  501  0.00000000000E+00  0.00000000000E+00 -0.92303694578E+03  0.92303694579E+03  0.50400001928E-02 0.  1.
    10030    2    1    2    0    0  0.00000000000E+00  0.00000000000E+00  0.16102221070E+03  0.20070961023E+04  0.20006265547E+04 0.  0.
        5    1    3    3  502    0 -0.30399412503E+03  0.62892146319E+02  0.10344997525E+04  0.10800831811E+04  0.46999998093E+01 0. -1.
       -5    1    3    3    0  502  0.30399412503E+03 -0.62892146319E+02 -0.87347754178E+03  0.92701292122E+03  0.46999998093E+01 0.  1.
</event>
<event>
 5   0  0.1159914E-04  0.1968304E+04  0.7818609E-02  0.8621585E-01
       -2   -1    0    0    0  501  0.00000000000E+00  0.00000000000E+00  0.83975818845E+03  0.83975818845E+03  0.25500000920E-02 0.  1.
        2   -1    0    0  501    0  0.00000000000E+00  0.00000000000E+00 -0.11533734882E+04  0.11533734882E+04  0.25500000920E-02 0. -1.
    10030    2    1    2    0    0  0.00000000000E+00  0.00000000000E+00 -0.31361529980E+03  0.19931316767E+04  0.19683036667E+04 0.  0.
        3    1    3    3  502    0  0.97720665830E+03  0.44145459719E+02 -0.26621282197E+03  0.10137805243E+04  0.10100000352E+00 0.  1.
       -3    1    3    3    0  502 -0.97720665830E+03 -0.44145459719E+02 -0.47402477827E+02  0.97935115242E+03  0.10100000352E+00 0. -1.
</event>
<event>
 5   0  0.1274868E-04  0.1999574E+04  0.7818609E-02  0.8606820E-01
       -2   -1    0    0    0  501  0.00000000000E+00  0.00000000000E+00  0.61939039540E+03  0.61939039540E+03  0.25500000920E-02 0.  1.
        2   -1    0    0  501    0  0.00000000000E+00  0.00000000000E+00 -0.16138026599E+04  0.16138026599E+04  0.25500000920E-02 0. -1.
    10030    2    1    2    0    0  0.00000000000E+00  0.00000000000E+00 -0.99441226451E+03  0.22331930553E+04  0.19995738222E+04 0.  0.
        1    1    3    3  502    0  0.22053047839E+03  0.72480585312E+03 -0.12258040522E+04  0.14410318494E+04  0.50400001928E-02 0.  1.
       -1    1    3    3    0  502 -0.22053047839E+03 -0.72480585312E+03  0.23139178773E+03  0.79216120586E+03  0.50400001928E-02 0. -1.
</event>
<event>
 5   0  0.6214547E-05  0.1991132E+04  0.7818609E-02  0.8610778E-01
       -1   -1    0    0    0  501  0.00000000000E+00  0.00000000000E+00  0.14864774610E+04  0.14864774610E+04  0.50400001928E-02 0. -1.
        1   -1    0    0  501    0  0.00000000000E+00  0.00000000000E+00 -0.66677897797E+03  0.66677897799E+03  0.50400001928E-02 0.  1.
    10030    2    1    2    0    0  0.00000000000E+00  0.00000000000E+00  0.81969848307E+03  0.21532564390E+04  0.19911322631E+04 0.  0.
        3    1    3    3  502    0  0.65998620933E+03 -0.18158153453E+03 -0.37192188355E+03  0.77902474149E+03  0.10100000352E+00 0.  1.
       -3    1    3    3    0  502 -0.65998620933E+03  0.18158153453E+03  0.11916203666E+04  0.13742316975E+04  0.10100000352E+00 0. -1.
</event>
<event>
 5   0  0.6028501E-05  0.1750294E+04  0.7818609E-02  0.8733188E-01
       -1   -1    0    0    0  501  0.00000000000E+00  0.00000000000E+00  0.61495791822E+03  0.61495791824E+03  0.50400001928E-02 0.  1.
        1   -1    0    0  501    0  0.00000000000E+00  0.00000000000E+00 -0.12454224910E+04  0.12454224910E+04  0.50400001928E-02 0. -1.
    10030    2    1    2    0    0  0.00000000000E+00  0.00000000000E+00 -0.63046457276E+03  0.18603804092E+04  0.17502941723E+04 0.  0.
        4    1    3    3  502    0 -0.18881072255E+03 -0.84617067260E+03 -0.18845543867E+03  0.88722678126E+03  0.12699999809E+01 0.  1.
       -4    1    3    3    0  502  0.18881072255E+03  0.84617067260E+03 -0.44200913409E+03  0.97315362797E+03  0.12699999809E+01 0. -1.
</event>
<event>
 5   0  0.6028501E-05  0.2014517E+04  0.7818609E-02  0.8599864E-01
       -1   -1    0    0    0  501  0.00000000000E+00  0.00000000000E+00  0.63234963370E+03  0.63234963372E+03  0.50400001928E-02 0. -1.
        1   -1    0    0  501    0  0.00000000000E+00  0.00000000000E+00 -0.16044435575E+04  0.16044435575E+04  0.50400001928E-02 0.  1.
    10030    2    1    2    0    0  0.00000000000E+00  0.00000000000E+00 -0.97209392376E+03  0.22367931912E+04  0.20145166129E+04 0.  0.
        4    1    3    3  502    0 -0.22441191078E+03  0.85277195749E+03  0.54479810129E+02  0.88348762289E+03  0.12699999809E+01 0. -1.
       -4    1    3    3    0  502  0.22441191078E+03 -0.85277195749E+03 -0.10265737339E+04  0.13533055683E+04  0.12699999809E+01 0.  1.
</event>
<event>
 5   0  0.6028501E-05  0.2058684E+04  0.7818609E-02  0.8579665E-01
        1   -1    0    0  501    0  0.00000000000E+00  0.00000000000E+00  0.17838698596E+04  0.17838698597E+04  0.50400001928E-02 0. -1.
       -1   -1    0    0    0  501  0.00000000000E+00  0.00000000000E+00 -0.59395875755E+03  0.59395875757E+03  0.50400001928E-02 0.  1.
    10030    2    1    2    0    0  0.00000000000E+00  0.00000000000E+00  0.11899111021E+04  0.23778286172E+04  0.20586841676E+04 0.  0.
        4    1    3    3  502    0  0.71265425023E+03 -0.58263342683E+03  0.11270262833E+04  0.14551727205E+04  0.12699999809E+01 0. -1.
       -4    1    3    3    0  502 -0.71265425023E+03  0.58263342683E+03  0.62884818841E+02  0.92265589673E+03  0.12699999809E+01 0.  1.
</event>
<event>
 5   0  0.6214547E-05  0.1902259E+04  0.7818609E-02  0.8653733E-01
       -1   -1    0    0    0  501  0.00000000000E+00  0.00000000000E+00  0.93006422135E+03  0.93006422136E+03  0.50400001928E-02 0. -1.
        1   -1    0    0  501    0  0.00000000000E+00  0.00000000000E+00 -0.97267208546E+03  0.97267208547E+03  0.50400001928E-02 0.  1.
    10030    2    1    2    0    0  0.00000000000E+00  0.00000000000E+00 -0.42607864111E+02  0.19027363068E+04  0.19022591893E+04 0.  0.
        3    1    3    3  502    0 -0.91464873105E+03  0.25123920773E+03 -0.91635541604E+02  0.95294308508E+03  0.10100000352E+00 0.  1.
       -3    1    3    3    0  502  0.91464873105E+03 -0.25123920773E+03  0.49027677493E+02  0.94979322175E+03  0.10100000352E+00 0. -1.
</event>
<event>
 5   0  0.1244229E-04  0.1995899E+04  0.7818609E-02  0.8608541E-01
       -2   -1    0    0    0  501  0.00000000000E+00  0.00000000000E+00  0.15109234554E+04  0.15109234554E+04  0.25500000920E-02 0. -1.
        2   -1    0    0  501    0  0.00000000000E+00  0.00000000000E+00 -0.65913520747E+03  0.65913520747E+03  0.25500000920E-02 0.  1.
    10030    2    1    2    0    0  0.00000000000E+00  0.00000000000E+00  0.85178824790E+03  0.21700586628E+04  0.19958986399E+04 0.  0.
        5    1    3    3  502    0  0.68119380300E+03  0.43608333036E+03 -0.20965229373E+03  0.83556558242E+03  0.46999998093E+01 0.  1.
       -5    1    3    3    0  502 -0.68119380300E+03 -0.43608333036E+03  0.10614405416E+04  0.13344930804E+04  0.46999998093E+01 0. -1.
</event>
<event>
 5   0  0.1281789E-04  0.1995443E+04  0.7818609E-02  0.8608754E-01
       -2   -1    0    0    0  501  0.00000000000E+00  0.00000000000E+00  0.47784933509E+03  0.47784933510E+03  0.25500000920E-02 0. -1.
        2   -1    0    0  501    0  0.00000000000E+00  0.00000000000E+00 -0.20831831949E+04  0.20831831949E+04  0.25500000920E-02 0.  1.
    10030    2    1    2    0    0  0.00000000000E+00  0.00000000000E+00 -0.16053338598E+04  0.25610325300E+04  0.19954425119E+04 0.  0.
        2    1    3    3  502    0 -0.25912649393E+02  0.84886425166E+02  0.47277278555E+03  0.48103147229E+03  0.25500000920E-02 0. -1.
       -2    1    3    3    0  502  0.25912649393E+02 -0.84886425166E+02 -0.20781066453E+04  0.20800010577E+04  0.25500000920E-02 0.  1.
</event>
<event>
 5   0  0.6222733E-05  0.2031558E+04  0.7818609E-02  0.8592007E-01
        1   -1    0    0  501    0  0.00000000000E+00  0.00000000000E+00  0.77596166393E+03  0.77596166394E+03  0.50400001928E-02 0.  1.
       -1   -1    0    0    0  501  0.00000000000E+00  0.00000000000E+00 -0.13297138194E+04  0.13297138195E+04  0.50400001928E-02 0. -1.
    10030    2    1    2    0    0  0.00000000000E+00  0.00000000000E+00 -0.55375215552E+03  0.21056754834E+04  0.20315579715E+04 0.  0.
        2    1    3    3  502    0  0.25814751195E+03 -0.40104353248E+02  0.74054622460E+03  0.78527524337E+03  0.25500000920E-02 0.  1.
       -2    1    3    3    0  502 -0.25814751195E+03  0.40104353248E+02 -0.12942983801E+04  0.13204002400E+04  0.25500000920E-02 0. -1.
</event>
<event>
 5   0  0.6256535E-05  0.2002808E+04  0.7818609E-02  0.8605309E-01
       -1   -1    0    0    0  501  0.00000000000E+00  0.00000000000E+00  0.52163888741E+03  0.52163888744E+03  0.50400001928E-02 0.  1.
        1   -1    0    0  501    0  0.00000000000E+00  0.00000000000E+00 -0.19224211839E+04  0.19224211839E+04  0.50400001928E-02 0. -1.
    10030    2    1    2    0    0  0.00000000000E+00  0.00000000000E+00 -0.14007822965E+04  0.24440600713E+04  0.20028076768E+04 0.  0.
        1    1    3    3  502    0  0.39334227755E+03  0.29702079896E+03 -0.17641478752E+04  0.18317088272E+04  0.50400001928E-02 0. -1.
       -1    1    3    3    0  502 -0.39334227755E+03 -0.29702079896E+03  0.36336557870E+03  0.61235124408E+03  0.50400001928E-02 0.  1.
</event>
<event>
 5   0  0.6214547E-05  0.1999635E+04  0.7818609E-02  0.8606791E-01
       -1   -1    0    0    0  501  0.00000000000E+00  0.00000000000E+00  0.82895982185E+03  0.82895982186E+03  0.50400001928E-02 0.  1.
        1   -1    0    0  501    0  0.00000000000E+00  0.00000000000E+00 -0.12058912652E+04  0.12058912652E+04  0.50400001928E-02 0. -1.
    10030    2    1    2    0    0  0.00000000000E+00  0.00000000000E+00 -0.37693144330E+03  0.20348510870E+04  0.19996353751E+04 0.  0.
        3    1    3    3  502    0  0.18988853572E+03  0.73382004136E+03 -0.85193400361E+03  0.11403249825E+04  0.10100000352E+00 0. -1.
       -3    1    3    3    0  502 -0.18988853572E+03 -0.73382004136E+03  0.47500256031E+03  0.89452610448E+03  0.10100000352E+00 0.  1.
</event>
<event>
 5   0  0.6256535E-05  0.1934340E+04  0.7818609E-02  0.8637949E-01
       -1   -1    0    0    0  501  0.00000000000E+00  0.00000000000E+00  0.65217683118E+03  0.65217683120E+03  0.50400001928E-02 0. -1.
        1   -1    0    0  501    0  0.00000000000E+00  0.00000000000E+00 -0.14343009734E+04  0.14343009735E+04  0.50400001928E-02 0.  1.
    10030    2    1    2    0    0  0.00000000000E+00  0.00000000000E+00 -0.78212414227E+03  0.20864778047E+04  0.19343400568E+04 0.  0.
        1    1    3    3  502    0 -0.57370296371E+03 -0.68505744428E+03 -0.79027817557E+03  0.11928865777E+04  0.50400001928E-02 0.  1.
       -1    1    3    3    0  502  0.57370296371E+03  0.68505744428E+03  0.81540333043E+01  0.89359122692E+03  0.50400001928E-02 0. -1.
</event>
<event>
 5   0  0.6028501E-05  0.2007843E+04  0.7818609E-02  0.8602962E-01
       -1   -1    0    0    0  501  0.00000000000E+00  0.00000000000E+00  0.57641516707E+03  0.57641516709E+03  0.50400001928E-02 0.  1.
        1   -1    0    0  501    0  0.00000000000E+00  0.00000000000E+00 -0.17484945471E+04  0.17484945472E+04  0.50400001928E-02 0. -1.
    10030    2    1    2    0    0  0.00000000000E+00  0.00000000000E+00 -0.11720793801E+04  0.23249097142E+04  0.20078433968E+04 0.  0.
        4    1    3    3  502    0 -0.25955903312E+03 -0.42103552804E+03 -0.15976186910E+04  0.16724320322E+04  0.12699999809E+01 0. -1.
       -4    1    3    3    0  502  0.25955903312E+03  0.42103552804E+03  0.42553931092E+03  0.65247768206E+03  0.12699999809E+01 0.  1.
</event>
<event>
 5   0  0.6028501E-05  0.2010345E+04  0.7818609E-02  0.8601799E-01
        1   -1    0    0  501    0  0.00000000000E+00  0.00000000000E+00  0.97813445828E+03  0.97813445830E+03  0.50400001928E-02 0.  1.
       -1   -1    0    0    0  501  0.00000000000E+00  0.00000000000E+00 -0.10329579860E+04  0.10329579860E+04  0.50400001928E-02 0. -1.
    10030    2    1    2    0    0  0.00000000000E+00  0.00000000000E+00 -0.54823527696E+02  0.20110924443E+04  0.20103450451E+04 0.  0.
        4    1    3    3  502    0 -0.10650478053E+03  0.98149146511E+03  0.16160668407E+03  0.10003934714E+04  0.12699999809E+01 0.  1.
       -4    1    3    3    0  502  0.10650478053E+03 -0.98149146511E+03 -0.21643021177E+03  0.10106989729E+04  0.12699999809E+01 0. -1.
</event>
<event>
 5   0  0.6214547E-05  0.1997365E+04  0.7818609E-02  0.8607854E-01
       -1   -1    0    0    0  501  0.00000000000E+00  0.00000000000E+00  0.84171637800E+03  0.84171637802E+03  0.50400001928E-02 0. -1.
        1   -1    0    0  501    0  0.00000000000E+00  0.00000000000E+00 -0.11849198380E+04  0.11849198380E+04  0.50400001928E-02 0.  1.
    10030    2    1    2    0    0  0.00000000000E+00  0.00000000000E+00 -0.34320345999E+03  0.20266362160E+04  0.19973646981E+04 0.  0.
        3    1    3    3  502    0  0.52766329374E+03 -0.76916672505E+03  0.19044736271E+03  0.95200641313E+03  0.10100000352E+00 0. -1.
       -3    1    3    3    0  502 -0.52766329374E+03  0.76916672505E+03 -0.53365082270E+03  0.10746298029E+04  0.10100000352E+00 0.  1.
</event>
<event>
 5   0  0.1281789E-04  0.2033237E+04  0.7818609E-02  0.8591237E-01
       -2   -1    0    0    0  501  0.00000000000E+00  0.00000000000E+00  0.63671629767E+03  0.63671629767E+03  0.25500000920E-02 0. -1.
        2   -1    0    0  501    0  0.00000000000E+00  0.00000000000E+00 -0.16231930772E+04  0.16231930772E+04  0.25500000920E-02 0.  1.
    10030    2    1    2    0    0  0.00000000000E+00  0.00000000000E+00 -0.98647677956E+03  0.22599093749E+04  0.20332373069E+04 0.  0.
        2    1    3    3  502    0  0.32608154756E+03 -0.73741390131E+03 -0.11814656455E+04  0.14303739053E+04  0.25500000920E-02 0.  1.
       -2    1    3    3    0  502 -0.32608154756E+03  0.73741390131E+03  0.19498886591E+03  0.82953546961E+03  0.25500000920E-02 0. -1.
</event>
<event>
 5   0  0.4479000E-05  0.1958393E+04  0.7818609E-02  0.8626324E-01
       -3   -1    0    0    0  501  0.00000000000E+00  0.00000000000E+00  0.13884788763E+04  0.13884788800E+04  0.10100000352E+00 0. -1.
        3   -1    0    0  501    0  0.00000000000E+00  0.00000000000E+00 -0.69055839232E+03  0.69055839971E+03  0.10100000352E+00 0.  1.
    10030    2    1    2    0    0  0.00000000000E+00  0.00000000000E+00  0.69792048401E+03  0.20790372797E+04  0.19583929658E+04 0.  0.
        2    1    3    3  502    0  0.39353482774E+03 -0.73836677873E+03  0.88899274006E+03  0.12208043465E+04  0.25500000920E-02 0. -1.
       -2    1    3    3    0  502 -0.39353482774E+03  0.73836677873E+03 -0.19107225606E+03  0.85823293319E+03  0.25500000920E-02 0.  1.
</event>
<event>
 5   0  0.1274868E-04  0.2000919E+04  0.7818609E-02  0.8606191E-01
       -2   -1    0    0    0  501  0.00000000000E+00  0.00000000000E+00  0.67935532071E+03  0.67935532072E+03  0.25500000920E-02 0. -1.
        2   -1    0    0  501    0  0.00000000000E+00  0.00000000000E+00 -0.14733370319E+04  0.14733370319E+04  0.25500000920E-02 0.  1.
    10030    2    1    2    0    0  0.00000000000E+00  0.00000000000E+00 -0.79398171115E+03  0.21526923526E+04  0.20009191406E+04 0.  0.
        1    1    3    3  502    0 -0.23544542846E+03  0.95486359333E+03 -0.19943119385E+03  0.10034798617E+04  0.50400001928E-02 0.  1.
       -1    1    3    3    0  502  0.23544542846E+03 -0.95486359333E+03 -0.59455051730E+03  0.11492124909E+04  0.50400001928E-02 0. -1.
</event>
<event>
 5   0  0.6214547E-05  0.1976704E+04  0.7818609E-02  0.8617591E-01
       -1   -1    0    0    0  501  0.00000000000E+00  0.00000000000E+00  0.53816826880E+03  0.53816826882E+03  0.50400001928E-02 0. -1.
        1   -1    0    0  501    0  0.00000000000E+00  0.00000000000E+00 -0.18151185405E+04  0.18151185405E+04  0.50400001928E-02 0.  1.
    10030    2    1    2    0    0  0.00000000000E+00  0.00000000000E+00 -0.12769502717E+04  0.23532868093E+04  0.19767035211E+04 0.  0.
        3    1    3    3  502    0  0.13827161413E+03 -0.95897073177E+03 -0.40611107401E+03  0.10505570514E+04  0.10100000352E+00 0.  1.
       -3    1    3    3    0  502 -0.13827161413E+03  0.95897073177E+03 -0.87083919766E+03  0.13027297579E+04  0.10100000352E+00 0. -1.
</event>
<event>
 5   0  0.1274868E-04  0.1997225E+04  0.7818609E-02  0.8607919E-01
       -2   -1    0    0    0  501  0.00000000000E+00  0.00000000000E+00  0.82203719150E+03  0.82203719151E+03  0.25500000920E-02 0.  1.
        2   -1    0    0  501    0  0.00000000000E+00  0.00000000000E+00 -0.12131165591E+04  0.12131165591E+04  0.25500000920E-02 0. -1.
    10030    2    1    2    0    0  0.00000000000E+00  0.00000000000E+00 -0.39107936757E+03  0.20351537506E+04  0.19972250040E+04 0.  0.
        1    1    3    3  502    0  0.21996254802E+03 -0.32968038245E+03  0.73846648577E+03  0.83809631173E+03  0.50400001928E-02 0.  1.
       -1    1    3    3    0  502 -0.21996254802E+03  0.32968038245E+03 -0.11295458533E+04  0.11970574389E+04  0.50400001928E-02 0. -1.
</event>
<event>
 5   0  0.6256535E-05  0.1994648E+04  0.7818609E-02  0.8609127E-01
       -1   -1    0    0    0  501  0.00000000000E+00  0.00000000000E+00  0.38806772918E+03  0.38806772922E+03  0.50400001928E-02 0. -1.
        1   -1    0    0  501    0  0.00000000000E+00  0.00000000000E+00 -0.25630979279E+04  0.25630979279E+04  0.50400001928E-02 0.  1.
    10030    2    1    2    0    0  0.00000000000E+00  0.00000000000E+00 -0.21750301987E+04  0.29511656571E+04  0.19946484328E+04 0.  0.
        1    1    3    3  502    0  0.99256593158E+03  0.31505223846E+02 -0.12237284745E+04  0.15759730604E+04  0.50400001928E-02 0.  1.
       -1    1    3    3    0  502 -0.99256593158E+03 -0.31505223846E+02 -0.95130172418E+03  0.13751925967E+04  0.50400001928E-02 0. -1.
</event>
<event>
 5   0  0.1244229E-04  0.2123164E+04  0.7818609E-02  0.8551107E-01
       -2   -1    0    0    0  501  0.00000000000E+00  0.00000000000E+00  0.11723183623E+04  0.11723183623E+04  0.25500000920E-02 0. -1.
        2   -1    0    0  501    0  0.00000000000E+00  0.00000000000E+00 -0.96130610845E+03  0.96130610846E+03  0.25500000920E-02 0.  1.
    10030    2    1    2    0    0  0.00000000000E+00  0.00000000000E+00  0.21101225386E+03  0.21336244708E+04  0.21231644333E+04 0.  0.
        5    1    3    3  502    0  0.90196162320E+03  0.84028202554E+02  0.66171209329E+03  0.11218201696E+04  0.46999998093E+01 0. -1.
       -5    1    3    3    0  502 -0.90196162320E+03 -0.84028202554E+02 -0.45069983943E+03  0.10118043011E+04  0.46999998093E+01 0.  1.
</event>
<event>
 5   0  0.6222733E-05  0.1994873E+04  0.7818609E-02  0.8609022E-01
       -1   -1    0    0    0  501  0.00000000000E+00  0.00000000000E+00  0.71233059731E+03  0.71233059733E+03  0.50400001928E-02 0.  1.
        1   -1    0    0  501    0  0.00000000000E+00  0.00000000000E+00 -0.13966539552E+04  0.13966539552E+04  0.50400001928E-02 0. -1.
    10030    2    1    2    0    0  0.00000000000E+00  0.00000000000E+00 -0.68432335790E+03  0.21089845525E+04  0.19948727741E+04 0.  0.
        2    1    3    3  502    0 -0.70356790037E+03 -0.51407161219E+03  0.17099220519E+03  0.88798409171E+03  0.25500000920E-02 0.  1.
       -2    1    3    3    0  502  0.70356790037E+03  0.51407161219E+03 -0.85531556309E+03  0.12210004608E+04  0.25500000920E-02 0. -1.
</event>
<event>
 5   0  0.1159914E-04  0.2003333E+04  0.7818609E-02  0.8605064E-01
        2   -1    0    0  501    0  0.00000000000E+00  0.00000000000E+00  0.24734269226E+04  0.24734269226E+04  0.25500000920E-02 0. -1.
       -2   -1    0    0    0  501  0.00000000000E+00  0.00000000000E+00 -0.40564607381E+03  0.40564607382E+03  0.25500000920E-02 0.  1.
    10030    2    1    2    0    0  0.00000000000E+00  0.00000000000E+00  0.20677808487E+04  0.28790729964E+04  0.20033331425E+04 0.  0.
        3    1    3    3  502    0 -0.67617031946E+03  0.82316120709E+02 -0.21556302494E+02  0.68150343288E+03  0.10100000352E+00 0.  1.
       -3    1    3    3    0  502  0.67617031946E+03 -0.82316120709E+02  0.20893371512E+04  0.21975695635E+04  0.10100000352E+00 0. -1.
</event>
<event>
 5   0  0.1281789E-04  0.2005880E+04  0.7818609E-02  0.8603877E-01
        2   -1    0    0  501    0  0.00000000000E+00  0.00000000000E+00  0.67524634561E+03  0.67524634562E+03  0.25500000920E-02 0. -1.
       -2   -1    0    0    0  501  0.00000000000E+00  0.00000000000E+00 -0.14896615186E+04  0.14896615186E+04  0.25500000920E-02 0.  1.
    10030    2    1    2    0    0  0.00000000000E+00  0.00000000000E+00 -0.81441517302E+03  0.21649078643E+04  0.20058798535E+04 0.  0.
        2    1    3    3  502    0 -0.94840089250E+03 -0.28747728607E+03 -0.57364465157E+03  0.11450657750E+04  0.25500000920E-02 0.  1.
       -2    1    3    3    0  502  0.94840089250E+03  0.28747728607E+03 -0.24077052145E+03  0.10198420892E+04  0.25500000920E-02 0. -1.
</event>
<event>
 5   0  0.6222733E-05  0.1952534E+04  0.7818609E-02  0.8629140E-01
        1   -1    0    0  501    0  0.00000000000E+00  0.00000000000E+00  0.12673292281E+04  0.12673292281E+04  0.50400001928E-02 0. -1.
       -1   -1    0    0    0  501  0.00000000000E+00  0.00000000000E+00 -0.75205164890E+03  0.75205164891E+03  0.50400001928E-02 0.  1.
    10030    2    1    2    0    0  0.00000000000E+00  0.00000000000E+00  0.51527757917E+03  0.20193808770E+04  0.19525337751E+04 0.  0.
        2    1    3    3  502    0 -0.87681259158E+03  0.39227132804E+03  0.43802308273E+03  0.10557183983E+04  0.25500000920E-02 0. -1.
       -2    1    3    3    0  502  0.87681259158E+03 -0.39227132804E+03  0.77254496437E+02  0.96366247866E+03  0.25500000920E-02 0.  1.
</event>
<event>
 5   0  0.1244229E-04  0.1991840E+04  0.7818609E-02  0.8610445E-01
       -2   -1    0    0    0  501  0.00000000000E+00  0.00000000000E+00  0.69481271412E+03  0.69481271412E+03  0.25500000920E-02 0.  1.
        2   -1    0    0  501    0  0.00000000000E+00  0.00000000000E+00 -0.14275170275E+04  0.14275170275E+04  0.25500000920E-02 0. -1.
    10030    2    1    2    0    0  0.00000000000E+00  0.00000000000E+00 -0.73270431335E+03  0.21223297416E+04  0.19918403353E+04 0.  0.
        5    1    3    3  502    0  0.25837534533E+03  0.64041956789E+02  0.65619282801E+03  0.70814568334E+03  0.46999998093E+01 0.  1.
       -5    1    3    3    0  502 -0.25837534533E+03 -0.64041956789E+02 -0.13888971414E+04  0.14141840582E+04  0.46999998093E+01 0. -1.
</event>
<event>
 5   0  0.1244229E-04  0.1969489E+04  0.7818609E-02  0.8621020E-01
       -2   -1    0    0    0  501  0.00000000000E+00  0.00000000000E+00  0.42948238002E+03  0.42948238003E+03  0.25500000920E-02 0. -1.
        2   -1    0    0  501    0  0.00000000000E+00  0.00000000000E+00 -0.22578839058E+04  0.22578839058E+04  0.25500000920E-02 0.  1.
    10030    2    1    2    0    0  0.00000000000E+00  0.00000000000E+00 -0.18284015258E+04  0.26873662858E+04  0.19694886176E+04 0.  0.
        5    1    3    3  502    0  0.35000081143E+03 -0.82744347308E+03 -0.36409250321E+03  0.96940636991E+03  0.46999998093E+01 0. -1.
       -5    1    3    3    0  502 -0.35000081143E+03  0.82744347308E+03 -0.14643090226E+04  0.17179599159E+04  0.46999998093E+01 0.  1.
</event>
<event>
 5   0  0.1159914E-04  0.1970059E+04  0.7818609E-02  0.8620748E-01
       -2   -1    0    0    0  501  0.00000000000E+00  0.00000000000E+00  0.11598196025E+04  0.11598196025E+04  0.25500000920E-02 0. -1.
        2   -1    0    0  501    0  0.00000000000E+00  0.00000000000E+00 -0.83658112675E+03  0.83658112676E+03  0.25500000920E-02 0.  1.
    10030    2    1    2    0    0  0.00000000000E+00  0.00000000000E+00  0.32323847579E+03  0.19964007293E+04  0.19700590752E+04 0.  0.
        3    1    3    3  502    0  0.93632163900E+03 -0.25765037061E+03 -0.55140428428E+01  0.97113971188E+03  0.10100000352E+00 0.  1.
       -3    1    3    3    0  502 -0.93632163900E+03  0.25765037061E+03  0.32875251863E+03  0.10252610174E+04  0.10100000352E+00 0. -1.
</event>
<event>
 5   0  0.1274868E-04  0.1886823E+04  0.7818609E-02  0.8661443E-01
        2   -1    0    0  501    0  0.00000000000E+00  0.00000000000E+00  0.92784425252E+03  0.92784425253E+03  0.25500000920E-02 0. -1.
       -2   -1    0    0    0  501  0.00000000000E+00  0.00000000000E+00 -0.95924032876E+03  0.95924032876E+03  0.25500000920E-02 0.  1.
    10030    2    1    2    0    0  0.00000000000E+00  0.00000000000E+00 -0.31396076234E+02  0.18870845813E+04  0.18868233895E+04 0.  0.
        1    1    3    3  502    0 -0.15986313067E+03 -0.87096785386E+03  0.30974584314E+03  0.93812776868E+03  0.50400001928E-02 0. -1.
       -1    1    3    3    0  502  0.15986313067E+03  0.87096785386E+03 -0.34114191937E+03  0.94895681260E+03  0.50400001928E-02 0.  1.
</event>
<event>
 5   0  0.6168338E-05  0.1991525E+04  0.7818609E-02  0.8610593E-01
        1   -1    0    0  501    0  0.00000000000E+00  0.00000000000E+00  0.92220570101E+03  0.92220570102E+03  0.50400001928E-02 0.  1.
       -1   -1    0    0    0  501  0.00000000000E+00  0.00000000000E+00 -0.10751860604E+04  0.10751860604E+04  0.50400001928E-02 0. -1.
    10030    2    1    2    0    0  0.00000000000E+00  0.00000000000E+00 -0.15298035940E+03  0.19973917614E+04  0.19915247571E+04 0.  0.
        5    1    3    3  502    0 -0.77482688854E+03  0.60508009653E+03 -0.23520299656E+03  0.10108517053E+04  0.46999998093E+01 0. -1.
       -5    1    3    3    0  502  0.77482688854E+03 -0.60508009653E+03  0.82222637162E+02  0.98654005620E+03  0.46999998093E+01 0.  1.
</event>
<event>
 5   0  0.6256535E-05  0.2077287E+04  0.7818609E-02  0.8571315E-01
       -1   -1    0    0    0  501  0.00000000000E+00  0.00000000000E+00  0.62388270181E+03  0.62388270183E+03  0.50400001928E-02 0. -1.
        1   -1    0    0  501    0  0.00000000000E+00  0.00000000000E+00 -0.17291391664E+04  0.17291391664E+04  0.50400001928E-02 0.  1.
    10030    2    1    2    0    0  0.00000000000E+00  0.00000000000E+00 -0.11052564646E+04  0.23530218682E+04  0.20772867062E+04 0.  0.
        1    1    3    3  502    0 -0.25275175390E+03 -0.78885582310E+02  0.58501177196E+03  0.64214107294E+03  0.50400001928E-02 0. -1.
       -1    1    3    3    0  502  0.25275175390E+03  0.78885582310E+02 -0.16902682365E+04  0.17108807953E+04  0.50400001928E-02 0.  1.
</event>
<event>
 5   0  0.1281789E-04  0.1985796E+04  0.7818609E-02  0.8613291E-01
        2   -1    0    0  501    0  0.00000000000E+00  0.00000000000E+00  0.93922764435E+03  0.93922764436E+03  0.25500000920E-02 0.  1.
       -2   -1    0    0    0  501  0.00000000000E+00  0.00000000000E+00 -0.10496347995E+04  0.10496347995E+04  0.25500000920E-02 0. -1.
    10030    2    1    2    0    0  0.00000000000E+00  0.00000000000E+00 -0.11040715514E+03  0.19888624439E+04  0.19857955788E+04 0.  0.
        2    1    3    3  502    0 -0.90890514263E+03 -0.38881132343E+03 -0.14788414272E+03  0.99957617178E+03  0.25500000920E-02 0.  1.
       -2    1    3    3    0  502  0.90890514263E+03  0.38881132343E+03  0.37476987576E+02  0.98928627208E+03  0.25500000920E-02 0. -1.
</event>
<event>
 5   0  0.6222733E-05  0.1993806E+04  0.7818609E-02  0.8609522E-01
       -1   -1    0    0    0  501  0.00000000000E+00  0.00000000000E+00  0.76209914094E+03  0.76209914096E+03  0.50400001928E-02 0. -1.
        1   -1    0    0  501    0  0.00000000000E+00  0.00000000000E+00 -0.13040505332E+04  0.13040505332E+04  0.50400001928E-02 0.  1.
    10030    2    1    2    0    0  0.00000000000E+00  0.00000000000E+00 -0.54195139222E+03  0.20661496741E+04  0.19938062003E+04 0.  0.
        2    1    3    3  502    0 -0.86855470184E+03  0.76057905173E+01 -0.77798310679E+03  0.11660629625E+04  0.25500000920E-02 0.  1.
       -2    1    3    3    0  502  0.86855470184E+03 -0.76057905173E+01  0.23603171457E+03  0.90008671161E+03  0.25500000920E-02 0. -1.
</event>
<event>
 5   0  0.1159914E-04  0.1998720E+04  0.7818609E-02  0.8607219E-01
       -2   -1    0    0    0  501  0.00000000000E+00  0.00000000000E+00  0.86865041757E+03  0.86865041758E+03  0.25500000920E-02 0. -1.
        2   -1    0    0  501    0  0.00000000000E+00  0.00000000000E+00 -0.11497380730E+04  0.11497380730E+04  0.25500000920E-02 0.  1.
    10030    2    1    2    0    0  0.00000000000E+00  0.00000000000E+00 -0.28108765545E+03  0.20183884906E+04  0.19987200477E+04 0.  0.
        3    1    3    3  502    0  0.81947828618E+03  0.56752470532E+03 -0.21260070319E+03  0.10192291312E+04  0.10100000352E+00 0.  1.
       -3    1    3    3    0  502 -0.81947828618E+03 -0.56752470532E+03 -0.68486952258E+02  0.99915935941E+03  0.10100000352E+00 0. -1.
</event>
<event>
 5   0  0.1244229E-04  0.1995305E+04  0.7818609E-02  0.8608819E-01
       -2   -1    0    0    0  501  0.00000000000E+00  0.00000000000E+00  0.14415497878E+04  0.14415497878E+04  0.25500000920E-02 0.  1.
        2   -1    0    0  501    0  0.00000000000E+00  0.00000000000E+00 -0.69044471567E+03  0.69044471567E+03  0.25500000920E-02 0. -1.
    10030    2    1    2    0    0  0.00000000000E+00  0.00000000000E+00  0.75110507218E+03  0.21319945035E+04  0.19953049225E+04 0.  0.
        5    1    3    3  502    0  0.65658719560E+03  0.32102775890E+02  0.11773953479E+04  0.13484877563E+04  0.46999998093E+01 0.  1.
       -5    1    3    3    0  502 -0.65658719560E+03 -0.32102775890E+02 -0.42629027577E+03  0.78350674717E+03  0.46999998093E+01 0. -1.
</event>
<event>
 5   0  0.6168338E-05  0.1692525E+04  0.7818609E-02  0.8765639E-01
        1   -1    0    0  501    0  0.00000000000E+00  0.00000000000E+00  0.10803739613E+04  0.10803739613E+04  0.50400001928E-02 0.  1.
       -1   -1    0    0    0  501  0.00000000000E+00  0.00000000000E+00 -0.66288204604E+03  0.66288204606E+03  0.50400001928E-02 0. -1.
    10030    2    1    2    0    0  0.00000000000E+00  0.00000000000E+00  0.41749191525E+03  0.17432560073E+04  0.16925253345E+04 0.  0.
        5    1    3    3  502    0  0.80634557001E+03 -0.12190135170E+03  0.44154111484E+03  0.92738005365E+03  0.46999998093E+01 0. -1.
       -5    1    3    3    0  502 -0.80634557001E+03  0.12190135170E+03 -0.24049199595E+02  0.81587595370E+03  0.46999998093E+01 0.  1.
</event>
<event>
 5   0  0.6168338E-05  0.2146420E+04  0.7818609E-02  0.8541066E-01
       -1   -1    0    0    0  501  0.00000000000E+00  0.00000000000E+00  0.46217170705E+03  0.46217170708E+03  0.50400001928E-02 0.  1.
        1   -1    0    0  501    0  0.00000000000E+00  0.00000000000E+00 -0.24921026495E+04  0.24921026495E+04  0.50400001928E-02 0. -1.
    10030    2    1    2    0    0  0.00000000000E+00  0.00000000000E+00 -0.20299309424E+04  0.29542743566E+04  0.21464196567E+04 0.  0.
        5    1    3    3  502    0 -0.26099739762E+03 -0.23547714565E+03  0.38067154046E+03  0.51817182421E+03  0.46999998093E+01 0.  1.
       -5    1    3    3    0  502  0.26099739762E+03  0.23547714565E+03 -0.24106024829E+04  0.24361025323E+04  0.46999998093E+01 0. -1.
</event>
<event>
 5   0  0.1274868E-04  0.2015587E+04  0.7818609E-02  0.8599368E-01
        2   -1    0    0  501    0  0.00000000000E+00  0.00000000000E+00  0.69402940270E+03  0.69402940271E+03  0.25500000920E-02 0.  1.
       -2   -1    0    0    0  501  0.00000000000E+00  0.00000000000E+00 -0.14634076251E+04  0.14634076251E+04  0.25500000920E-02 0. -1.
    10030    2    1    2    0    0  0.00000000000E+00  0.00000000000E+00 -0.76937822243E+03  0.21574370278E+04  0.20155871799E+04 0.  0.
        1    1    3    3  502    0 -0.74260959308E+03 -0.61288026479E+03 -0.70321683383E+03  0.11923108412E+04  0.50400001928E-02 0. -1.
       -1    1    3    3    0  502  0.74260959308E+03  0.61288026479E+03 -0.66161388598E+02  0.96512618661E+03  0.50400001928E-02 0.  1.
</event>
<event>
 5   0  0.1242761E-04  0.2004659E+04  0.7818609E-02  0.8604446E-01
        2   -1    0    0  501    0  0.00000000000E+00  0.00000000000E+00  0.17453260825E+04  0.17453260825E+04  0.25500000920E-02 0. -1.
       -2   -1    0    0    0  501  0.00000000000E+00  0.00000000000E+00 -0.57563127911E+03  0.57563127912E+03  0.25500000920E-02 0.  1.
    10030    2    1    2    0    0  0.00000000000E+00  0.00000000000E+00  0.11696948033E+04  0.23209573616E+04  0.20046588591E+04 0.  0.
        4    1    3    3  502    0 -0.46661128611E+03  0.76651284310E+03  0.11018389292E+04  0.14210273290E+04  0.12699999809E+01 0. -1.
       -4    1    3    3    0  502  0.46661128611E+03 -0.76651284310E+03  0.67855874131E+02  0.89993003256E+03  0.12699999809E+01 0.  1.
</event>
<event>
 5   0  0.4479000E-05  0.1985194E+04  0.7818609E-02  0.8613575E-01
        4   -1    0    0  501    0  0.00000000000E+00  0.00000000000E+00  0.91667645337E+03  0.91667733313E+03  0.12699999809E+01 0. -1.
       -4   -1    0    0    0  501  0.00000000000E+00  0.00000000000E+00 -0.10748031608E+04  0.10748039111E+04  0.12699999809E+01 0.  1.
    10030    2    1    2    0    0  0.00000000000E+00  0.00000000000E+00 -0.15812670744E+03  0.19914812443E+04  0.19851935650E+04 0.  0.
        3    1    3    3  502    0  0.56683927391E+03 -0.66681421545E+03  0.39071508022E+03  0.95843948400E+03  0.10100000352E+00 0.  1.
       -3    1    3    3    0  502 -0.56683927391E+03  0.66681421545E+03 -0.54884178767E+03  0.10330417603E+04  0.10100000352E+00 0. -1.
</event>
<event>
 5   0  0.6028501E-05  0.1997507E+04  0.7818609E-02  0.8607787E-01
       -1   -1    0    0    0  501  0.00000000000E+00  0.00000000000E+00  0.10751963517E+04  0.10751963517E+04  0.50400001928E-02 0. -1.
        1   -1    0    0  501    0  0.00000000000E+00  0.00000000000E+00 -0.92774590408E+03  0.92774590409E+03  0.50400001928E-02 0.  1.
    10030    2    1    2    0    0  0.00000000000E+00  0.00000000000E+00  0.14745044765E+03  0.20029422558E+04  0.19975074582E+04 0.  0.
        4    1    3    3  502    0  0.10534697048E+00  0.85797906648E+03  0.58636892080E+03  0.10392103800E+04  0.12699999809E+01 0. -1.
       -4    1    3    3    0  502 -0.10534697048E+00 -0.85797906648E+03 -0.43891847315E+03  0.96373187588E+03  0.12699999809E+01 0.  1.
</event>
<event>
 5   0  0.1159914E-04  0.1995297E+04  0.7818609E-02  0.8608823E-01
        2   -1    0    0  501    0  0.00000000000E+00  0.00000000000E+00  0.16337232852E+04  0.16337232852E+04  0.25500000920E-02 0. -1.
       -2   -1    0    0    0  501  0.00000000000E+00  0.00000000000E+00 -0.60922355040E+03  0.60922355040E+03  0.25500000920E-02 0.  1.
    10030    2    1    2    0    0  0.00000000000E+00  0.00000000000E+00  0.10244997348E+04  0.22429468356E+04  0.19952971710E+04 0.  0.
        3    1    3    3  502    0  0.40966379681E+03 -0.41183884689E+03 -0.39950995972E+03  0.70501339019E+03  0.10100000352E+00 0.  1.
       -3    1    3    3    0  502 -0.40966379681E+03  0.41183884689E+03  0.14240096945E+04  0.15379334454E+04  0.10100000352E+00 0. -1.
</event>
<event>
 5   0  0.6256535E-05  0.2010893E+04  0.7818609E-02  0.8601545E-01
        1   -1    0    0  501    0  0.00000000000E+00  0.00000000000E+00  0.13560015674E+04  0.13560015674E+04  0.50400001928E-02 0. -1.
       -1   -1    0    0    0  501  0.00000000000E+00  0.00000000000E+00 -0.74551743031E+03  0.74551743033E+03  0.50400001928E-02 0.  1.
    10030    2    1    2    0    0  0.00000000000E+00  0.00000000000E+00  0.61048413708E+03  0.21015189977E+04  0.20108931389E+04 0.  0.
        1    1    3    3  502    0 -0.24682503363E+03  0.55905992820E+03 -0.52914610797E+03  0.80837256519E+03  0.50400001928E-02 0.  1.
       -1    1    3    3    0  502  0.24682503363E+03 -0.55905992820E+03  0.11396302450E+04  0.12931464325E+04  0.50400001928E-02 0. -1.
</event>
<event>
 5   0  0.1159914E-04  0.2011693E+04  0.7818609E-02  0.8601173E-01
        2   -1    0    0  501    0  0.00000000000E+00  0.00000000000E+00  0.12894090468E+04  0.12894090468E+04  0.25500000920E-02 0.  1.
       -2   -1    0    0    0  501  0.00000000000E+00  0.00000000000E+00 -0.78464401051E+03  0.78464401051E+03  0.25500000920E-02 0. -1.
    10030    2    1    2    0    0  0.00000000000E+00  0.00000000000E+00  0.50476503628E+03  0.20740530573E+04  0.20116929047E+04 0.  0.
        3    1    3    3  502    0  0.65614576240E+03 -0.51466973357E+03  0.83223562523E+03  0.11781461464E+04  0.10100000352E+00 0.  1.
       -3    1    3    3    0  502 -0.65614576240E+03  0.51466973357E+03 -0.32747058895E+03  0.89590691090E+03  0.10100000352E+00 0. -1.
</event>
<event>
 5   0  0.6222733E-05  0.2002789E+04  0.7818609E-02  0.8605318E-01
       -1   -1    0    0    0  501  0.00000000000E+00  0.00000000000E+00  0.15785749358E+04  0.15785749358E+04  0.50400001928E-02 0. -1.
        1   -1    0    0  501    0  0.00000000000E+00  0.00000000000E+00 -0.63525076576E+03  0.63525076578E+03  0.50400001928E-02 0.  1.
    10030    2    1    2    0    0  0.00000000000E+00  0.00000000000E+00  0.94332417008E+03  0.22138257016E+04  0.20027889922E+04 0.  0.
        2    1    3    3  502    0 -0.35120212364E+03  0.24063810828E+03  0.14735587510E+04  0.15338269210E+04  0.25500000920E-02 0. -1.
       -2    1    3    3    0  502  0.35120212364E+03 -0.24063810828E+03 -0.53023458096E+03  0.67999878063E+03  0.25500000920E-02 0.  1.
</event>
<event>
 5   0  0.1274868E-04  0.1969154E+04  0.7818609E-02  0.8621179E-01
        2   -1    0    0  501    0  0.00000000000E+00  0.00000000000E+00  0.14773955344E+04  0.14773955344E+04  0.25500000920E-02 0.  1.
       -2   -1    0    0    0  501  0.00000000000E+00  0.00000000000E+00 -0.65614941912E+03  0.65614941912E+03  0.25500000920E-02 0. -1.
    10030    2    1    2    0    0  0.00000000000E+00  0.00000000000E+00  0.82124611533E+03  0.21335449536E+04  0.19691543583E+04 0.  0.
        1    1    3    3  502    0  0.64212699019E+03 -0.38522625593E+03 -0.28201480380E+03  0.80016166453E+03  0.50400001928E-02 0. -1.
       -1    1    3    3    0  502 -0.64212699019E+03  0.38522625593E+03  0.11032609191E+04  0.13333832890E+04  0.50400001928E-02 0.  1.
</event>
<event>
 5   0  0.1281789E-04  0.2059390E+04  0.7818609E-02  0.8579347E-01
        2   -1    0    0  501    0  0.00000000000E+00  0.00000000000E+00  0.12328491990E+04  0.12328491990E+04  0.25500000920E-02 0.  1.
       -2   -1    0    0    0  501  0.00000000000E+00  0.00000000000E+00 -0.86001729634E+03  0.86001729634E+03  0.25500000920E-02 0. -1.
    10030    2    1    2    0    0  0.00000000000E+00  0.00000000000E+00  0.37283190264E+03  0.20928664953E+04  0.20593898464E+04 0.  0.
        2    1    3    3  502    0 -0.89732072154E+03  0.41386262624E+03 -0.10778063109E+03  0.99402385040E+03  0.25500000920E-02 0. -1.
       -2    1    3    3    0  502  0.89732072154E+03 -0.41386262624E+03  0.48061253373E+03  0.10988426449E+04  0.25500000920E-02 0.  1.
</event>
<event>
 5   0  0.4479000E-05  0.1981640E+04  0.7818609E-02  0.8615253E-01
       -3   -1    0    0    0  501  0.00000000000E+00  0.00000000000E+00  0.69842534913E+03  0.69842535643E+03  0.10100000352E+00 0.  1.
        3   -1    0    0  501    0  0.00000000000E+00  0.00000000000E+00 -0.14056247209E+04  0.14056247246E+04  0.10100000352E+00 0. -1.
    10030    2    1    2    0    0  0.00000000000E+00  0.00000000000E+00 -0.70719937181E+03  0.21040500810E+04  0.19816396726E+04 0.  0.
        3    1    3    3  502    0 -0.96925265744E+03  0.15808738499E+03 -0.49317974902E+03  0.10989397665E+04  0.10100000352E+00 0. -1.
       -3    1    3    3    0  502  0.96925265744E+03 -0.15808738499E+03 -0.21401962278E+03  0.10051103145E+04  0.10100000352E+00 0.  1.
</event>
<event>
 5   0  0.6028501E-05  0.1869088E+04  0.7818609E-02  0.8670398E-01
       -1   -1    0    0    0  501  0.00000000000E+00  0.00000000000E+00  0.73664261550E+03  0.73664261552E+03  0.50400001928E-02 0.  1.
        1   -1    0    0  501    0  0.00000000000E+00  0.00000000000E+00 -0.11856126745E+04  0.11856126745E+04  0.50400001928E-02 0. -1.
    10030    2    1    2    0    0  0.00000000000E+00  0.00000000000E+00 -0.44897005895E+03  0.19222552900E+04  0.18690883569E+04 0.  0.
        4    1    3    3  502    0 -0.92332413248E+01  0.55421398056E+03  0.54933576973E+03  0.78039079300E+03  0.12699999809E+01 0.  1.
       -4    1    3    3    0  502  0.92332413248E+01 -0.55421398056E+03 -0.99830582868E+03  0.11418644970E+04  0.12699999809E+01 0. -1.
</event>
<event>
 5   0  0.1242761E-04  0.1995292E+04  0.7818609E-02  0.8608825E-01
       -2   -1    0    0    0  501  0.00000000000E+00  0.00000000000E+00  0.86947940589E+03  0.86947940590E+03  0.25500000920E-02 0. -1.
        2   -1    0    0  501    0  0.00000000000E+00  0.00000000000E+00 -0.11447055287E+04  0.11447055287E+04  0.25500000920E-02 0.  1.
    10030    2    1    2    0    0  0.00000000000E+00  0.00000000000E+00 -0.27522612281E+03  0.20141849346E+04  0.19952923425E+04 0.  0.
        4    1    3    3  502    0 -0.94434959525E+03 -0.31529026446E+03 -0.73037353626E+02  0.99826858953E+03  0.12699999809E+01 0.  1.
       -4    1    3    3    0  502  0.94434959525E+03  0.31529026446E+03 -0.20218876918E+03  0.10159163451E+04  0.12699999809E+01 0. -1.
</event>
<event>
 5   0  0.1244229E-04  0.1975433E+04  0.7818609E-02  0.8618193E-01
       -2   -1    0    0    0  501  0.00000000000E+00  0.00000000000E+00  0.48728128482E+03  0.48728128483E+03  0.25500000920E-02 0.  1.
        2   -1    0    0  501    0  0.00000000000E+00  0.00000000000E+00 -0.20020963685E+04  0.20020963685E+04  0.25500000920E-02 0. -1.
    10030    2    1    2    0    0  0.00000000000E+00  0.00000000000E+00 -0.15148150836E+04  0.24893776533E+04  0.19754332090E+04 0.  0.
        5    1    3    3  502    0 -0.18973116946E+03  0.79934639062E+03 -0.14483306812E+04  0.16651235452E+04  0.46999998093E+01 0. -1.
       -5    1    3    3    0  502  0.18973116946E+03 -0.79934639062E+03 -0.66484402456E+02  0.82425410805E+03  0.46999998093E+01 0.  1.
</event>
<event>
 5   0  0.6256535E-05  0.2014815E+04  0.7818609E-02  0.8599726E-01
        1   -1    0    0  501    0  0.00000000000E+00  0.00000000000E+00  0.86874811731E+03  0.86874811732E+03  0.50400001928E-02 0.  1.
       -1   -1    0    0    0  501  0.00000000000E+00  0.00000000000E+00 -0.11681974992E+04  0.11681974992E+04  0.50400001928E-02 0. -1.
    10030    2    1    2    0    0  0.00000000000E+00  0.00000000000E+00 -0.29944938189E+03  0.20369456165E+04  0.20148145107E+04 0.  0.
        1    1    3    3  502    0  0.22285561734E+03  0.22829940130E+03  0.81632566010E+03  0.87645469146E+03  0.50400001928E-02 0.  1.
       -1    1    3    3    0  502 -0.22285561734E+03 -0.22829940130E+03 -0.11157750420E+04  0.11604909251E+04  0.50400001928E-02 0. -1.
</event>
<event>
 5   0  0.1242761E-04  0.1998326E+04  0.7818609E-02  0.8607404E-01
       -2   -1    0    0    0  501  0.00000000000E+00  0.00000000000E+00  0.47310357399E+03  0.47310357399E+03  0.25500000920E-02 0.  1.
        2   -1    0    0  501    0  0.00000000000E+00  0.00000000000E+00 -0.21101647760E+04  0.21101647760E+04  0.25500000920E-02 0. -1.
    10030    2    1    2    0    0  0.00000000000E+00  0.00000000000E+00 -0.16370612020E+04  0.25832683500E+04  0.19983257965E+04 0.  0.
        4    1    3    3  502    0  0.37828868176E+03  0.42351951409E+03 -0.18812769006E+04  0.19651146265E+04  0.12699999809E+01 0. -1.
       -4    1    3    3    0  502 -0.37828868176E+03 -0.42351951409E+03  0.24421569859E+03  0.61815372352E+03  0.12699999809E+01 0.  1.
</event>
<event>
 5   0  0.6214547E-05  0.1999435E+04  0.7818609E-02  0.8606885E-01
        1   -1    0    0  501    0  0.00000000000E+00  0.00000000000E+00  0.77805899722E+03  0.77805899724E+03  0.50400001928E-02 0.  1.
       -1   -1    0    0    0  501  0.00000000000E+00  0.00000000000E+00 -0.12845240014E+04  0.12845240014E+04  0.50400001928E-02 0. -1.
    10030    2    1    2    0    0  0.00000000000E+00  0.00000000000E+00 -0.50646500416E+03  0.20625829986E+04  0.19994353767E+04 0.  0.
        3    1    3    3  502    0  0.53976769875E+03 -0.44633633137E+03  0.48264843500E+03  0.85059673837E+03  0.10100000352E+00 0.  1.
       -3    1    3    3    0  502 -0.53976769875E+03  0.44633633137E+03 -0.98911343916E+03  0.12119862603E+04  0.10100000352E+00 0. -1.
</event>
<event>
 5   0  0.6222733E-05  0.2012271E+04  0.7818609E-02  0.8600905E-01
       -1   -1    0    0    0  501  0.00000000000E+00  0.00000000000E+00  0.39923921284E+03  0.39923921287E+03  0.50400001928E-02 0. -1.
        1   -1    0    0  501    0  0.00000000000E+00  0.00000000000E+00 -0.25355954046E+04  0.25355954046E+04  0.50400001928E-02 0.  1.
    10030    2    1    2    0    0  0.00000000000E+00  0.00000000000E+00 -0.21363561918E+04  0.29348346175E+04  0.20122714663E+04 0.  0.
        2    1    3    3  502    0 -0.43077126886E+03  0.26056038358E+03 -0.23386821022E+04  0.23922561683E+04  0.25500000920E-02 0.  1.
       -2    1    3    3    0  502  0.43077126886E+03 -0.26056038358E+03  0.20232591038E+03  0.54257844924E+03  0.25500000920E-02 0. -1.
</event>
<event>
 5   0  0.6222733E-05  0.2040383E+04  0.7818609E-02  0.8587970E-01
       -1   -1    0    0    0  501  0.00000000000E+00  0.00000000000E+00  0.51311690298E+03  0.51311690301E+03  0.50400001928E-02 0.  1.
        1   -1    0    0  501    0  0.00000000000E+00  0.00000000000E+00 -0.20283695858E+04  0.20283695858E+04  0.50400001928E-02 0. -1.
    10030    2    1    2    0    0  0.00000000000E+00  0.00000000000E+00 -0.15152526828E+04  0.25414864888E+04  0.20403830229E+04 0.  0.
        2    1    3    3  502    0  0.80955541104E+03 -0.41915397768E+03 -0.18720370351E+03  0.93065312934E+03  0.25500000920E-02 0.  1.
       -2    1    3    3    0  502 -0.80955541104E+03  0.41915397768E+03 -0.13280489793E+04  0.16108333595E+04  0.25500000920E-02 0. -1.
</event>
<event>
 5   0  0.6256535E-05  0.1987070E+04  0.7818609E-02  0.8612690E-01
       -1   -1    0    0    0  501  0.00000000000E+00  0.00000000000E+00  0.79423544026E+03  0.79423544028E+03  0.50400001928E-02 0. -1.
        1   -1    0    0  501    0  0.00000000000E+00  0.00000000000E+00 -0.12428449492E+04  0.12428449492E+04  0.50400001928E-02 0.  1.
    10030    2    1    2    0    0  0.00000000000E+00  0.00000000000E+00 -0.44860950894E+03  0.20370803895E+04  0.19870697073E+04 0.  0.
        1    1    3    3  502    0  0.83414072303E+03  0.25328630710E+03  0.26431104004E+03  0.91093634525E+03  0.50400001928E-02 0. -1.
       -1    1    3    3    0  502 -0.83414072303E+03 -0.25328630710E+03 -0.71292054898E+03  0.11261440442E+04  0.50400001928E-02 0.  1.
</event>
<event>
 5   0  0.6168338E-05  0.2012443E+04  0.7818609E-02  0.8600825E-01
        1   -1    0    0  501    0  0.00000000000E+00  0.00000000000E+00  0.18148000507E+04  0.18148000507E+04  0.50400001928E-02 0.  1.
       -1   -1    0    0    0  501  0.00000000000E+00  0.00000000000E+00 -0.55790273499E+03  0.55790273501E+03  0.50400001928E-02 0. -1.
    10030    2    1    2    0    0  0.00000000000E+00  0.00000000000E+00  0.12568973157E+04  0.23727027857E+04  0.20124432034E+04 0.  0.
        5    1    3    3  502    0  0.32314109592E+03 -0.68512768199E+03  0.14093095676E+04  0.15999986424E+04  0.46999998093E+01 0.  1.
       -5    1    3    3    0  502 -0.32314109592E+03  0.68512768199E+03 -0.15241225189E+03  0.77270414327E+03  0.46999998093E+01 0. -1.
</event>
<event>
 5   0  0.6222733E-05  0.1997952E+04  0.7818609E-02  0.8607579E-01
        1   -1    0    0  501    0  0.00000000000E+00  0.00000000000E+00  0.13463639318E+04  0.13463639318E+04  0.50400001928E-02 0. -1.
       -1   -1    0    0    0  501  0.00000000000E+00  0.00000000000E+00 -0.74122052852E+03  0.74122052854E+03  0.50400001928E-02 0.  1.
    10030    2    1    2    0    0  0.00000000000E+00  0.00000000000E+00  0.60514340329E+03  0.20875844604E+04  0.19979515361E+04 0.  0.
        2    1    3    3  502    0 -0.14707740289E+03 -0.22208874367E+03  0.13085725963E+04  0.13354090805E+04  0.25500000920E-02 0. -1.
       -2    1    3    3    0  502  0.14707740289E+03  0.22208874367E+03 -0.70342919300E+03  0.75217537986E+03  0.25500000920E-02 0.  1.
</event>
<event>
 5   0  0.1242761E-04  0.1986666E+04  0.7818609E-02  0.8612880E-01
        2   -1    0    0  501    0  0.00000000000E+00  0.00000000000E+00  0.12564640341E+04  0.12564640341E+04  0.25500000920E-02 0.  1.
       -2   -1    0    0    0  501  0.00000000000E+00  0.00000000000E+00 -0.78530741969E+03  0.78530741970E+03  0.25500000920E-02 0. -1.
    10030    2    1    2    0    0  0.00000000000E+00  0.00000000000E+00  0.47115661439E+03  0.20417714538E+04  0.19866660802E+04 0.  0.
        4    1    3    3  502    0 -0.16196169447E+03 -0.70332782181E+03 -0.46585340398E+03  0.85902422685E+03  0.12699999809E+01 0. -1.
       -4    1    3    3    0  502  0.16196169447E+03  0.70332782181E+03  0.93701001838E+03  0.11827472269E+04  0.12699999809E+01 0.  1.
</event>
<event>
 5   0  0.1242761E-04  0.2001605E+04  0.7818609E-02  0.8605871E-01
        2   -1    0    0  501    0  0.00000000000E+00  0.00000000000E+00  0.94441796707E+03  0.94441796708E+03  0.25500000920E-02 0. -1.
       -2   -1    0    0    0  501  0.00000000000E+00  0.00000000000E+00 -0.10605535626E+04  0.10605535626E+04  0.25500000920E-02 0.  1.
    10030    2    1    2    0    0  0.00000000000E+00  0.00000000000E+00 -0.11613559556E+03  0.20049715297E+04  0.20016051954E+04 0.  0.
        4    1    3    3  502    0 -0.45498754690E+03  0.81539451963E+03  0.30270781349E+03  0.98158826589E+03  0.12699999809E+01 0. -1.
       -4    1    3    3    0  502  0.45498754690E+03 -0.81539451963E+03 -0.41884340905E+03  0.10233832638E+04  0.12699999809E+01 0.  1.
</event>
<event>
 5   0  0.1274868E-04  0.2012006E+04  0.7818609E-02  0.8601028E-01
        2   -1    0    0  501    0  0.00000000000E+00  0.00000000000E+00  0.10499134519E+04  0.10499134519E+04  0.25500000920E-02 0.  1.
       -2   -1    0    0    0  501  0.00000000000E+00  0.00000000000E+00 -0.96392883210E+03  0.96392883211E+03  0.25500000920E-02 0. -1.
    10030    2    1    2    0    0  0.00000000000E+00  0.00000000000E+00  0.85984619788E+02  0.20138422840E+04  0.20120058126E+04 0.  0.
        1    1    3    3  502    0  0.52881225247E+03  0.83294226531E+03  0.23965735720E+03  0.10153181101E+04  0.50400001928E-02 0.  1.
       -1    1    3    3    0  502 -0.52881225247E+03 -0.83294226531E+03 -0.15367273741E+03  0.99852417395E+03  0.50400001928E-02 0. -1.
</event>
<event>
 5   0  0.6028501E-05  0.2121647E+04  0.7818609E-02  0.8551767E-01
       -1   -1    0    0    0  501  0.00000000000E+00  0.00000000000E+00  0.80348743851E+03  0.80348743852E+03  0.50400001928E-02 0. -1.
        1   -1    0    0  501    0  0.00000000000E+00  0.00000000000E+00 -0.14005772468E+04  0.14005772468E+04  0.50400001928E-02 0.  1.
    10030    2    1    2    0    0  0.00000000000E+00  0.00000000000E+00 -0.59708980826E+03  0.22040646853E+04  0.21216467420E+04 0.  0.
        4    1    3    3  502    0 -0.78455279769E+03  0.28640793457E+03 -0.97801069777E+03  0.12861023036E+04  0.12699999809E+01 0.  1.
       -4    1    3    3    0  502  0.78455279769E+03 -0.28640793457E+03  0.38092088951E+03  0.91796238175E+03  0.12699999809E+01 0. -1.
</event>
<event>
 5   0  0.6028501E-05  0.2001078E+04  0.7818609E-02  0.8606117E-01
        1   -1    0    0  501    0  0.00000000000E+00  0.00000000000E+00  0.20954808261E+04  0.20954808261E+04  0.50400001928E-02 0.  1.
       -1   -1    0    0    0  501  0.00000000000E+00  0.00000000000E+00 -0.47773205153E+03  0.47773205156E+03  0.50400001928E-02 0. -1.
    10030    2    1    2    0    0  0.00000000000E+00  0.00000000000E+00  0.16177487746E+04  0.25732128777E+04  0.20010780635E+04 0.  0.
        4    1    3    3  502    0  0.41422657424E+03 -0.47888333808E+03  0.18050745216E+04  0.19129057865E+04  0.12699999809E+01 0. -1.
       -4    1    3    3    0  502 -0.41422657424E+03  0.47888333808E+03 -0.18732574706E+03  0.66030709121E+03  0.12699999809E+01 0.  1.
</event>
<event>
 5   0  0.1244229E-04  0.1995026E+04  0.7818609E-02  0.8608950E-01
       -2   -1    0    0    0  501  0.00000000000E+00  0.00000000000E+00  0.58275671636E+03  0.58275671637E+03  0.25500000920E-02 0.  1.
        2   -1    0    0  501    0  0.00000000000E+00  0.00000000000E+00 -0.17074564907E+04  0.17074564907E+04  0.25500000920E-02 0. -1.
    10030    2    1    2    0    0  0.00000000000E+00  0.00000000000E+00 -0.11246997744E+04  0.22902132071E+04  0.19950255516E+04 0.  0.
        5    1    3    3  502    0 -0.51083560090E+02 -0.92802437971E+03 -0.14658658866E+03  0.94092959217E+03  0.46999998093E+01 0.  1.
       -5    1    3    3    0  502  0.51083560090E+02  0.92802437971E+03 -0.97811318571E+03  0.13492836149E+04  0.46999998093E+01 0. -1.
</event>
<event>
 5   0  0.6168338E-05  0.2034752E+04  0.7818609E-02  0.8590543E-01
        1   -1    0    0  501    0  0.00000000000E+00  0.00000000000E+00  0.12606257498E+04  0.12606257498E+04  0.50400001928E-02 0.  1.
       -1   -1    0    0    0  501  0.00000000000E+00  0.00000000000E+00 -0.82106328017E+03  0.82106328018E+03  0.50400001928E-02 0. -1.
    10030    2    1    2    0    0  0.00000000000E+00  0.00000000000E+00  0.43956246960E+03  0.20816890300E+04  0.20347515949E+04 0.  0.
        5    1    3    3  502    0 -0.48320282916E+03 -0.89061615053E+03  0.31326367666E+03  0.10605839537E+04  0.46999998093E+01 0. -1.
       -5    1    3    3    0  502  0.48320282916E+03  0.89061615053E+03  0.12629879293E+03  0.10211050763E+04  0.46999998093E+01 0.  1.
</event>
<event>
 5   0  0.4479000E-05  0.2071713E+04  0.7818609E-02  0.8573808E-01
       -3   -1    0    0    0  501  0.00000000000E+00  0.00000000000E+00  0.25167687221E+04  0.25167687241E+04  0.10100000352E+00 0.  1.
        3   -1    0    0  501    0  0.00000000000E+00  0.00000000000E+00 -0.42633969083E+03  0.42633970279E+03  0.10100000352E+00 0. -1.
    10030    2    1    2    0    0  0.00000000000E+00  0.00000000000E+00  0.20904290313E+04  0.29431084269E+04  0.20717127402E+04 0.  0.
        2    1    3    3  502    0 -0.83082492407E+03 -0.59740543474E+02  0.17045704995E+03  0.85023208177E+03  0.25500000920E-02 0. -1.
       -2    1    3    3    0  502  0.83082492407E+03  0.59740543474E+02  0.19199719813E+04  0.20928763452E+04  0.25500000920E-02 0.  1.
</event>
<event>
 5   0  0.1281789E-04  0.1988180E+04  0.7818609E-02  0.8612167E-01
        2   -1    0    0  501    0  0.00000000000E+00  0.00000000000E+00  0.16912981812E+04  0.16912981812E+04  0.25500000920E-02 0. -1.
       -2   -1    0    0    0  501  0.00000000000E+00  0.00000000000E+00 -0.58429378001E+03  0.58429378002E+03  0.25500000920E-02 0.  1.
    10030    2    1    2    0    0  0.00000000000E+00  0.00000000000E+00  0.11070044012E+04  0.22755919612E+04  0.19881800798E+04 0.  0.
        2    1    3    3  502    0 -0.31814754009E+03  0.92223158305E+03  0.77212836781E+03  0.12441507812E+04  0.25500000920E-02 0. -1.
       -2    1    3    3    0  502  0.31814754009E+03 -0.92223158305E+03  0.33487603336E+03  0.10314411800E+04  0.25500000920E-02 0.  1.
</event>
<event>
 5   0  0.6214547E-05  0.2011606E+04  0.7818609E-02  0.8601214E-01
        1   -1    0    0  501    0  0.00000000000E+00  0.00000000000E+00  0.90893913869E+03  0.90893913871E+03  0.50400001928E-02 0.  1.
       -1   -1    0    0    0  501  0.00000000000E+00  0.00000000000E+00 -0.11129891404E+04  0.11129891404E+04  0.50400001928E-02 0. -1.
    10030    2    1    2    0    0  0.00000000000E+00  0.00000000000E+00 -0.20405000170E+03  0.20219282791E+04  0.20116057175E+04 0.  0.
        3    1    3    3  502    0 -0.16554621745E+03  0.29998491961E+03  0.84847173593E+03  0.91504141927E+03  0.10100000352E+00 0.  1.
       -3    1    3    3    0  502  0.16554621745E+03 -0.29998491961E+03 -0.10525217376E+04  0.11068868598E+04  0.10100000352E+00 0. -1.
</event>
<event>
 5   0  0.1159914E-04  0.1993481E+04  0.7818609E-02  0.8609674E-01
       -2   -1    0    0    0  501  0.00000000000E+00  0.00000000000E+00  0.14613069465E+04  0.14613069465E+04  0.25500000920E-02 0. -1.
        2   -1    0    0  501    0  0.00000000000E+00  0.00000000000E+00 -0.67986537210E+03  0.67986537210E+03  0.25500000920E-02 0.  1.
    10030    2    1    2    0    0  0.00000000000E+00  0.00000000000E+00  0.78144157443E+03  0.21411723186E+04  0.19934813678E+04 0.  0.
        3    1    3    3  502    0  0.53623113058E+03 -0.22187269197E+03 -0.47970105404E+03  0.75291727852E+03  0.10100000352E+00 0.  1.
       -3    1    3    3    0  502 -0.53623113058E+03  0.22187269197E+03  0.12611426285E+04  0.13882550401E+04  0.10100000352E+00 0. -1.
</event>
<event>
 5   0  0.1242761E-04  0.1897861E+04  0.7818609E-02  0.8655922E-01
        2   -1    0    0  501    0  0.00000000000E+00  0.00000000000E+00  0.13558251843E+04  0.13558251843E+04  0.25500000920E-02 0. -1.
       -2   -1    0    0    0  501  0.00000000000E+00  0.00000000000E+00 -0.66414812272E+03  0.66414812272E+03  0.25500000920E-02 0.  1.
    10030    2    1    2    0    0  0.00000000000E+00  0.00000000000E+00  0.69167706161E+03  0.20199733071E+04  0.18978606386E+04 0.  0.
        4    1    3    3  502    0 -0.70343644273E+03  0.48610959764E+03 -0.92150623890E+02  0.86001088381E+03  0.12699999809E+01 0.  1.
       -4    1    3    3    0  502  0.70343644273E+03 -0.48610959764E+03  0.78382768550E+03  0.11599624232E+04  0.12699999809E+01 0. -1.
</event>
<event>
 5   0  0.1242761E-04  0.2003658E+04  0.7818609E-02  0.8604912E-01
       -2   -1    0    0    0  501  0.00000000000E+00  0.00000000000E+00  0.39224455220E+03  0.39224455221E+03  0.25500000920E-02 0. -1.
        2   -1    0    0  501    0  0.00000000000E+00  0.00000000000E+00 -0.25587643718E+04  0.25587643718E+04  0.25500000920E-02 0.  1.
    10030    2    1    2    0    0  0.00000000000E+00  0.00000000000E+00 -0.21665198196E+04  0.29510089240E+04  0.20036580399E+04 0.  0.
        4    1    3    3  502    0 -0.83752826055E+03  0.54196817538E+03 -0.94765985527E+03  0.13759519994E+04  0.12699999809E+01 0. -1.
       -4    1    3    3    0  502  0.83752826055E+03 -0.54196817538E+03 -0.12188599643E+04  0.15750569247E+04  0.12699999809E+01 0.  1.
</event>
<event>
 5   0  0.6222733E-05  0.1990194E+04  0.7818609E-02  0.8611219E-01
       -1   -1    0    0    0  501  0.00000000000E+00  0.00000000000E+00  0.92040913157E+03  0.92040913159E+03  0.50400001928E-02 0. -1.
        1   -1    0    0  501    0  0.00000000000E+00  0.00000000000E+00 -0.10758455563E+04  0.10758455563E+04  0.50400001928E-02 0.  1.
    10030    2    1    2    0    0  0.00000000000E+00  0.00000000000E+00 -0.15543642471E+03  0.19962546879E+04  0.19901940350E+04 0.  0.
        2    1    3    3  502    0  0.41826760437E+03  0.88736374784E+03  0.89690805372E+02  0.98509220402E+03  0.25500000920E-02 0. -1.
       -2    1    3    3    0  502 -0.41826760437E+03 -0.88736374784E+03 -0.24512723008E+03  0.10111624839E+04  0.25500000920E-02 0.  1.
</event>
<event>
 5   0  0.1274868E-04  0.2005346E+04  0.7818609E-02  0.8604125E-01
        2   -1    0    0  501    0  0.00000000000E+00  0.00000000000E+00  0.11255440773E+04  0.11255440773E+04  0.25500000920E-02 0.  1.
       -2   -1    0    0    0  501  0.00000000000E+00  0.00000000000E+00 -0.89321546319E+03  0.89321546319E+03  0.25500000920E-02 0. -1.
    10030    2    1    2    0    0  0.00000000000E+00  0.00000000000E+00  0.23232861410E+03  0.20187595405E+04  0.20053462288E+04 0.  0.
        1    1    3    3  502    0 -0.31775685687E+01  0.98245299145E+03  0.31782745547E+03  0.10325881410E+04  0.50400001928E-02 0.  1.
       -1    1    3    3    0  502  0.31775685687E+01 -0.98245299145E+03 -0.85498841372E+02  0.98617139953E+03  0.50400001928E-02 0. -1.
</event>
<event>
 5   0  0.6256535E-05  0.2001526E+04  0.7818609E-02  0.8605907E-01
       -1   -1    0    0    0  501  0.00000000000E+00  0.00000000000E+00  0.47604427416E+03  0.47604427418E+03  0.50400001928E-02 0. -1.
        1   -1    0    0  501    0  0.00000000000E+00  0.00000000000E+00 -0.21038521860E+04  0.21038521860E+04  0.50400001928E-02 0.  1.
    10030    2    1    2    0    0  0.00000000000E+00  0.00000000000E+00 -0.16278079119E+04  0.25798964602E+04  0.20015262045E+04 0.  0.
        1    1    3    3  502    0  0.46726374590E+03  0.46705306281E+03  0.15501068344E+03  0.67860318575E+03  0.50400001928E-02 0. -1.
       -1    1    3    3    0  502 -0.46726374590E+03 -0.46705306281E+03 -0.17828185953E+04  0.19012932745E+04  0.50400001928E-02 0.  1.
</event>
<event>
 5   0  0.6168338E-05  0.1997404E+04  0.7818609E-02  0.8607835E-01
       -1   -1    0    0    0  501  0.00000000000E+00  0.00000000000E+00  0.15454618905E+04  0.15454618905E+04  0.50400001928E-02 0. -1.
        1   -1    0    0  501    0  0.00000000000E+00  0.00000000000E+00 -0.64537700352E+03  0.64537700354E+03  0.50400001928E-02 0.  1.
    10030    2    1    2    0    0  0.00000000000E+00  0.00000000000E+00  0.90008488694E+03  0.21908388940E+04  0.19974038790E+04 0.  0.
        5    1    3    3  502    0  0.11184706540E+03  0.45024639401E+03 -0.51999858560E+03  0.69688750914E+03  0.46999998093E+01 0.  1.
       -5    1    3    3    0  502 -0.11184706540E+03 -0.45024639401E+03  0.14200834725E+04  0.14939513849E+04  0.46999998093E+01 0. -1.
</event>
<event>
 5   0  0.1274868E-04  0.1979371E+04  0.7818609E-02  0.8616327E-01
       -2   -1    0    0    0  501  0.00000000000E+00  0.00000000000E+00  0.58923346590E+03  0.58923346590E+03  0.25500000920E-02 0.  1.
        2   -1    0    0  501    0  0.00000000000E+00  0.00000000000E+00 -0.16622910328E+04  0.16622910328E+04  0.25500000920E-02 0. -1.
    10030    2    1    2    0    0  0.00000000000E+00  0.00000000000E+00 -0.10730575669E+04  0.22515244987E+04  0.19793711189E+04 0.  0.
        1    1    3    3  502    0 -0.18406297671E+01  0.32110321918E+03 -0.16013885445E+04  0.16332654211E+04  0.50400001928E-02 0. -1.
       -1    1    3    3    0  502  0.18406297671E+01 -0.32110321918E+03  0.52833097753E+03  0.61825907767E+03  0.50400001928E-02 0.  1.
</event>
<event>
 5   0  0.6168338E-05  0.2001874E+04  0.7818609E-02  0.8605745E-01
       -1   -1    0    0    0  501  0.00000000000E+00  0.00000000000E+00  0.90263303740E+03  0.90263303741E+03  0.50400001928E-02 0.  1.
        1   -1    0    0  501    0  0.00000000000E+00  0.00000000000E+00 -0.11099471148E+04  0.11099471148E+04  0.50400001928E-02 0. -1.
    10030    2    1    2    0    0  0.00000000000E+00  0.00000000000E+00 -0.20731407743E+03  0.20125801523E+04  0.20018740576E+04 0.  0.
        5    1    3    3  502    0 -0.99536698342E+03 -0.58551352319E+01  0.20868964357E+01  0.99539748816E+03  0.46999998093E+01 0.  1.
       -5    1    3    3    0  502  0.99536698342E+03  0.58551352319E+01 -0.20940097387E+03  0.10171826641E+04  0.46999998093E+01 0. -1.
</event>
<event>
 5   0  0.6214547E-05  0.1981088E+04  0.7818609E-02  0.8615514E-01
       -1   -1    0    0    0  501  0.00000000000E+00  0.00000000000E+00  0.85396767482E+03  0.85396767483E+03  0.50400001928E-02 0.  1.
        1   -1    0    0  501    0  0.00000000000E+00  0.00000000000E+00 -0.11489626139E+04  0.11489626139E+04  0.50400001928E-02 0. -1.
    10030    2    1    2    0    0  0.00000000000E+00  0.00000000000E+00 -0.29499493904E+03  0.20029302887E+04  0.19810875113E+04 0.  0.
        3    1    3    3  502    0 -0.28876171796E+03 -0.11323260339E+03  0.80360417241E+03  0.86138529611E+03  0.10100000352E+00 0.  1.
       -3    1    3    3    0  502  0.28876171796E+03  0.11323260339E+03 -0.10985991115E+04  0.11415449926E+04  0.10100000352E+00 0. -1.
</event>
<event>
 5   0  0.6028501E-05  0.1990221E+04  0.7818609E-02  0.8611206E-01
        1   -1    0    0  501    0  0.00000000000E+00  0.00000000000E+00  0.13945989917E+04  0.13945989917E+04  0.50400001928E-02 0.  1.
       -1   -1    0    0    0  501  0.00000000000E+00  0.00000000000E+00 -0.71005715937E+03  0.71005715939E+03  0.50400001928E-02 0. -1.
    10030    2    1    2    0    0  0.00000000000E+00  0.00000000000E+00  0.68454183235E+03  0.21046561511E+04  0.19902210918E+04 0.  0.
        4    1    3    3  502    0  0.14587518994E+03 -0.49008499389E+03 -0.56050134080E+03  0.75870036129E+03  0.12699999809E+01 0. -1.
       -4    1    3    3    0  502 -0.14587518994E+03  0.49008499389E+03  0.12450431732E+04  0.13459557898E+04  0.12699999809E+01 0.  1.
</event>
<event>
 5   0  0.1244229E-04  0.2001261E+04  0.7818609E-02  0.8606032E-01
        2   -1    0    0  501    0  0.00000000000E+00  0.00000000000E+00  0.92148920986E+03  0.92148920986E+03  0.25500000920E-02 0. -1.
       -2   -1    0    0    0  501  0.00000000000E+00  0.00000000000E+00 -0.10865683597E+04  0.10865683597E+04  0.25500000920E-02 0.  1.
    10030    2    1    2    0    0  0.00000000000E+00  0.00000000000E+00 -0.16507914981E+03  0.20080575695E+04  0.20012606219E+04 0.  0.
        5    1    3    3  502    0 -0.13903477906E+02  0.32714344885E+02 -0.10859235632E+04  0.10865153520E+04  0.46999998093E+01 0.  1.
       -5    1    3    3    0  502  0.13903477906E+02 -0.32714344885E+02  0.92084441337E+03  0.92154221753E+03  0.46999998093E+01 0. -1.
</event>
<event>
 5   0  0.1274868E-04  0.2002914E+04  0.7818609E-02  0.8605259E-01
       -2   -1    0    0    0  501  0.00000000000E+00  0.00000000000E+00  0.84911947619E+03  0.84911947619E+03  0.25500000920E-02 0.  1.
        2   -1    0    0  501    0  0.00000000000E+00  0.00000000000E+00 -0.11811250775E+04  0.11811250775E+04  0.25500000920E-02 0. -1.
    10030    2    1    2    0    0  0.00000000000E+00  0.00000000000E+00 -0.33200560133E+03  0.20302445537E+04  0.20029141840E+04 0.  0.
        1    1    3    3  502    0  0.81698903532E+03 -0.10424368060E+03  0.41148906591E+03  0.92068511456E+03  0.50400001928E-02 0. -1.
       -1    1    3    3    0  502 -0.81698903532E+03  0.10424368060E+03 -0.74349466724E+03  0.11095594392E+04  0.50400001928E-02 0.  1.
</event>
<event>
 5   0  0.6222733E-05  0.2016739E+04  0.7818609E-02  0.8598834E-01
       -1   -1    0    0    0  501  0.00000000000E+00  0.00000000000E+00  0.93418270525E+03  0.93418270526E+03  0.50400001928E-02 0. -1.
        1   -1    0    0  501    0  0.00000000000E+00  0.00000000000E+00 -0.10884480529E+04  0.10884480529E+04  0.50400001928E-02 0.  1.
    10030    2    1    2    0    0  0.00000000000E+00  0.00000000000E+00 -0.15426534762E+03  0.20226307581E+04  0.20167392956E+04 0.  0.
        2    1    3    3  502    0  0.65349362100E+02 -0.93562473961E+03 -0.44854565632E+03  0.10396429186E+04  0.25500000920E-02 0.  1.
       -2    1    3    3    0  502 -0.65349362100E+02  0.93562473961E+03  0.29428030870E+03  0.98298783949E+03  0.25500000920E-02 0. -1.
</event>
<event>
 5   0  0.6168338E-05  0.2027200E+04  0.7818609E-02  0.8594008E-01
        1   -1    0    0  501    0  0.00000000000E+00  0.00000000000E+00  0.91234836286E+03  0.91234836287E+03  0.50400001928E-02 0.  1.
       -1   -1    0    0    0  501  0.00000000000E+00  0.00000000000E+00 -0.11260888302E+04  0.11260888302E+04  0.50400001928E-02 0. -1.
    10030    2    1    2    0    0  0.00000000000E+00  0.00000000000E+00 -0.21374046737E+03  0.20384371931E+04  0.20272003362E+04 0.  0.
        5    1    3    3  502    0  0.44576781606E+03 -0.89935925692E+03  0.34647908844E+02  0.10043797023E+04  0.46999998093E+01 0. -1.
       -5    1    3    3    0  502 -0.44576781606E+03  0.89935925692E+03 -0.24838837622E+03  0.10340574908E+04  0.46999998093E+01 0.  1.
</event>
<event>
 5   0  0.1159914E-04  0.1989404E+04  0.7818609E-02  0.8611591E-01
        2   -1    0    0  501    0  0.00000000000E+00  0.00000000000E+00  0.79348268569E+03  0.79348268569E+03  0.25500000920E-02 0.  1.
       -2   -1    0    0    0  501  0.00000000000E+00  0.00000000000E+00 -0.12469484980E+04  0.12469484980E+04  0.25500000920E-02 0. -1.
    10030    2    1    2    0    0  0.00000000000E+00  0.00000000000E+00 -0.45346581227E+03  0.20404311837E+04  0.19894039741E+04 0.  0.
        3    1    3    3  502    0 -0.98658996736E+03 -0.60210942123E+02 -0.34116023876E+03  0.10456459439E+04  0.10100000352E+00 0.  1.
       -3    1    3    3    0  502  0.98658996736E+03  0.60210942123E+02 -0.11230557351E+03  0.99478523978E+03  0.10100000352E+00 0. -1.
</event>
<event>
 5   0  0.1274868E-04  0.1954557E+04  0.7818609E-02  0.8628167E-01
        2   -1    0    0  501    0  0.00000000000E+00  0.00000000000E+00  0.15466282320E+04  0.15466282320E+04  0.25500000920E-02 0. -1.
       -2   -1    0    0    0  501  0.00000000000E+00  0.00000000000E+00 -0.61751948479E+03  0.61751948479E+03  0.25500000920E-02 0.  1.
    10030    2    1    2    0    0  0.00000000000E+00  0.00000000000E+00  0.92910874722E+03  0.21641477168E+04  0.19545567978E+04 0.  0.
        1    1    3    3  502    0 -0.28190303256E+02  0.83284397541E+03 -0.10072986613E+03  0.83938685153E+03  0.50400001928E-02 0.  1.
       -1    1    3    3    0  502  0.28190303256E+02 -0.83284397541E+03  0.10298386133E+04  0.13247608653E+04  0.50400001928E-02 0. -1.
</event>
<event>
 5   0  0.4479000E-05  0.1992641E+04  0.7818609E-02  0.8610069E-01
        3   -1    0    0  501    0  0.00000000000E+00  0.00000000000E+00  0.42918248212E+03  0.42918249400E+03  0.10100000352E+00 0. -1.
       -3   -1    0    0    0  501  0.00000000000E+00  0.00000000000E+00 -0.23128950311E+04  0.23128950333E+04  0.10100000352E+00 0.  1.
    10030    2    1    2    0    0  0.00000000000E+00  0.00000000000E+00 -0.18837125490E+04  0.27420775273E+04  0.19926405091E+04 0.  0.
        1    1    3    3  502    0  0.42765074419E+03 -0.78631641065E+03 -0.15440098359E+04  0.17846974617E+04  0.50400001928E-02 0.  1.
       -1    1    3    3    0  502 -0.42765074419E+03  0.78631641065E+03 -0.33970271315E+03  0.95738006560E+03  0.50400001928E-02 0. -1.
</event>
<event>
 5   0  0.6222733E-05  0.2002960E+04  0.7818609E-02  0.8605238E-01
       -1   -1    0    0    0  501  0.00000000000E+00  0.00000000000E+00  0.11755223154E+04  0.11755223154E+04  0.50400001928E-02 0. -1.
        1   -1    0    0  501    0  0.00000000000E+00  0.00000000000E+00 -0.85320543613E+03  0.85320543614E+03  0.50400001928E-02 0.  1.
    10030    2    1    2    0    0  0.00000000000E+00  0.00000000000E+00  0.32231687923E+03  0.20287277515E+04  0.20029598396E+04 0.  0.
        2    1    3    3  502    0  0.26602390315E+03  0.59472808211E+03 -0.60921294057E+03  0.89197007554E+03  0.25500000920E-02 0.  1.
       -2    1    3    3    0  502 -0.26602390315E+03 -0.59472808211E+03  0.93152981980E+03  0.11367576760E+04  0.25500000920E-02 0. -1.
</event>
<event>
 5   0  0.6168338E-05  0.2028320E+04  0.7818609E-02  0.8593494E-01
       -1   -1    0    0    0  501  0.00000000000E+00  0.00000000000E+00  0.44840954754E+03  0.44840954756E+03  0.50400001928E-02 0.  1.
        1   -1    0    0  501    0  0.00000000000E+00  0.00000000000E+00 -0.22937068277E+04  0.22937068277E+04  0.50400001928E-02 0. -1.
    10030    2    1    2    0    0  0.00000000000E+00  0.00000000000E+00 -0.18452972802E+04  0.27421163753E+04  0.20283195417E+04 0.  0.
        5    1    3    3  502    0 -0.68000789752E+03 -0.18072778180E+03  0.64735301399E+02  0.70660174147E+03  0.46999998093E+01 0.  1.
       -5    1    3    3    0  502  0.68000789752E+03  0.18072778180E+03 -0.19100325816E+04  0.20355146338E+04  0.46999998093E+01 0. -1.
</event>
<event>
 5   0  0.6222733E-05  0.2013958E+04  0.7818609E-02  0.8600122E-01
       -1   -1    0    0    0  501  0.00000000000E+00  0.00000000000E+00  0.78881553809E+03  0.78881553810E+03  0.50400001928E-02 0. -1.
        1   -1    0    0  501    0  0.00000000000E+00  0.00000000000E+00 -0.12854806473E+04  0.12854806473E+04  0.50400001928E-02 0.  1.
    10030    2    1    2    0    0  0.00000000000E+00  0.00000000000E+00 -0.49666510917E+03  0.20742961854E+04  0.20139583993E+04 0.  0.
        2    1    3    3  502    0 -0.47528071261E+03  0.17987203075E+03  0.64705824628E+03  0.82275760544E+03  0.25500000920E-02 0. -1.
       -2    1    3    3    0  502  0.47528071261E+03 -0.17987203075E+03 -0.11437233555E+04  0.12515385799E+04  0.25500000920E-02 0.  1.
</event>
<event>
 5   0  0.6168338E-05  0.2019066E+04  0.7818609E-02  0.8597758E-01
       -1   -1    0    0    0  501  0.00000000000E+00  0.00000000000E+00  0.11024369995E+04  0.11024369995E+04  0.50400001928E-02 0.  1.
        1   -1    0    0  501    0  0.00000000000E+00  0.00000000000E+00 -0.92445821889E+03  0.92445821890E+03  0.50400001928E-02 0. -1.
    10030    2    1    2    0    0  0.00000000000E+00  0.00000000000E+00  0.17797878061E+03  0.20268952184E+04  0.20190660663E+04 0.  0.
        5    1    3    3  502    0 -0.50640844258E+03 -0.37465584120E+03 -0.70294111078E+03  0.94390932048E+03  0.46999998093E+01 0. -1.
       -5    1    3    3    0  502  0.50640844258E+03  0.37465584120E+03  0.88091989139E+03  0.10829858979E+04  0.46999998093E+01 0.  1.
</event>
<event>
 5   0  0.6222733E-05  0.1986198E+04  0.7818609E-02  0.8613101E-01
       -1   -1    0    0    0  501  0.00000000000E+00  0.00000000000E+00  0.11165067028E+04  0.11165067028E+04  0.50400001928E-02 0. -1.
        1   -1    0    0  501    0  0.00000000000E+00  0.00000000000E+00 -0.88333171008E+03  0.88333171009E+03  0.50400001928E-02 0.  1.
    10030    2    1    2    0    0  0.00000000000E+00  0.00000000000E+00  0.23317499274E+03  0.19998384129E+04  0.19861981524E+04 0.  0.
        2    1    3    3  502    0 -0.71078559081E+03  0.29243515203E+03  0.74980335202E+03  0.10737502228E+04  0.25500000920E-02 0.  1.
       -2    1    3    3    0  502  0.71078559081E+03 -0.29243515203E+03 -0.51662835929E+03  0.92608819012E+03  0.25500000920E-02 0. -1.
</event>
<event>
 5   0  0.1159914E-04  0.1631267E+04  0.7818609E-02  0.8801566E-01
       -2   -1    0    0    0  501  0.00000000000E+00  0.00000000000E+00  0.31956934891E+03  0.31956934892E+03  0.25500000920E-02 0. -1.
        2   -1    0    0  501    0  0.00000000000E+00  0.00000000000E+00 -0.20817328782E+04  0.20817328782E+04  0.25500000920E-02 0.  1.
    10030    2    1    2    0    0  0.00000000000E+00  0.00000000000E+00 -0.17621635293E+04  0.24013022271E+04  0.16312670174E+04 0.  0.
        3    1    3    3  502    0 -0.10279783952E+03  0.76488133398E+03 -0.12695660650E+04  0.14857351226E+04  0.10100000352E+00 0.  1.
       -3    1    3    3    0  502  0.10279783952E+03 -0.76488133398E+03 -0.49259746430E+03  0.91556710454E+03  0.10100000352E+00 0. -1.
</event>
<event>
 5   0  0.1281789E-04  0.2001713E+04  0.7818609E-02  0.8605820E-01
       -2   -1    0    0    0  501  0.00000000000E+00  0.00000000000E+00  0.70685723421E+03  0.70685723422E+03  0.25500000920E-02 0. -1.
        2   -1    0    0  501    0  0.00000000000E+00  0.00000000000E+00 -0.14171369517E+04  0.14171369517E+04  0.25500000920E-02 0.  1.
    10030    2    1    2    0    0  0.00000000000E+00  0.00000000000E+00 -0.71027971750E+03  0.21239941859E+04  0.20017127728E+04 0.  0.
        2    1    3    3  502    0 -0.67854875307E+03 -0.28784335244E+02 -0.11352069537E+04  0.13228574284E+04  0.25500000920E-02 0.  1.
       -2    1    3    3    0  502  0.67854875307E+03  0.28784335244E+02  0.42492723615E+03  0.80113675753E+03  0.25500000920E-02 0. -1.
</event>
<event>
 5   0  0.1274868E-04  0.1977047E+04  0.7818609E-02  0.8617428E-01
       -2   -1    0    0    0  501  0.00000000000E+00  0.00000000000E+00  0.43726323745E+03  0.43726323746E+03  0.25500000920E-02 0.  1.
        2   -1    0    0  501    0  0.00000000000E+00  0.00000000000E+00 -0.22347603596E+04  0.22347603596E+04  0.25500000920E-02 0. -1.
    10030    2    1    2    0    0  0.00000000000E+00  0.00000000000E+00 -0.17974971222E+04  0.26720235971E+04  0.19770468379E+04 0.  0.
        1    1    3    3  502    0  0.87689307154E+03  0.26444512738E+03 -0.14013730335E+04  0.16741323315E+04  0.50400001928E-02 0. -1.
       -1    1    3    3    0  502 -0.87689307154E+03 -0.26444512738E+03 -0.39612408869E+03  0.99789126560E+03  0.50400001928E-02 0.  1.
</event>
<event>
 5   0  0.6222733E-05  0.2014689E+04  0.7818609E-02  0.8599784E-01
        1   -1    0    0  501    0  0.00000000000E+00  0.00000000000E+00  0.17394693014E+04  0.17394693014E+04  0.50400001928E-02 0.  1.
       -1   -1    0    0    0  501  0.00000000000E+00  0.00000000000E+00 -0.58336332452E+03  0.58336332454E+03  0.50400001928E-02 0. -1.
    10030    2    1    2    0    0  0.00000000000E+00  0.00000000000E+00  0.11561059769E+04  0.23228326259E+04  0.20146886554E+04 0.  0.
        2    1    3    3  502    0 -0.11832410723E+03  0.97019070391E+03  0.85922121524E+03  0.13013576346E+04  0.25500000920E-02 0.  1.
       -2    1    3    3    0  502  0.11832410723E+03 -0.97019070391E+03  0.29688476161E+03  0.10214749914E+04  0.25500000920E-02 0. -1.
</event>
<event>
 5   0  0.1242761E-04  0.2003868E+04  0.7818609E-02  0.8604814E-01
       -2   -1    0    0    0  501  0.00000000000E+00  0.00000000000E+00  0.56474142609E+03  0.56474142610E+03  0.25500000920E-02 0.  1.
        2   -1    0    0  501    0  0.00000000000E+00  0.00000000000E+00 -0.17775780656E+04  0.17775780656E+04  0.25500000920E-02 0. -1.
    10030    2    1    2    0    0  0.00000000000E+00  0.00000000000E+00 -0.12128366395E+04  0.23423194917E+04  0.20038682309E+04 0.  0.
        4    1    3    3  502    0 -0.99831586217E+03 -0.39664745415E+02 -0.69437752888E+03  0.12167044087E+04  0.12699999809E+01 0. -1.
       -4    1    3    3    0  502  0.99831586217E+03  0.39664745415E+02 -0.51845911059E+03  0.11256150829E+04  0.12699999809E+01 0.  1.
</event>
<event>
 5   0  0.6256535E-05  0.1915682E+04  0.7818609E-02  0.8647089E-01
       -1   -1    0    0    0  501  0.00000000000E+00  0.00000000000E+00  0.60753650373E+03  0.60753650375E+03  0.50400001928E-02 0. -1.
        1   -1    0    0  501    0  0.00000000000E+00  0.00000000000E+00 -0.15101312423E+04  0.15101312423E+04  0.50400001928E-02 0.  1.
    10030    2    1    2    0    0  0.00000000000E+00  0.00000000000E+00 -0.90259473858E+03  0.21176677461E+04  0.19156824947E+04 0.  0.
        1    1    3    3  502    0 -0.15965002946E+03  0.94176968966E+03 -0.37280681394E+03  0.10253795399E+04  0.50400001928E-02 0.  1.
       -1    1    3    3    0  502  0.15965002946E+03 -0.94176968966E+03 -0.52978792464E+03  0.10922882062E+04  0.50400001928E-02 0. -1.
</event>
<event>
 5   0  0.6028501E-05  0.2023049E+04  0.7818609E-02  0.8595920E-01
       -1   -1    0    0    0  501  0.00000000000E+00  0.00000000000E+00  0.92457519497E+03  0.92457519498E+03  0.50400001928E-02 0.  1.
        1   -1    0    0  501    0  0.00000000000E+00  0.00000000000E+00 -0.11066503686E+04  0.11066503686E+04  0.50400001928E-02 0. -1.
    10030    2    1    2    0    0  0.00000000000E+00  0.00000000000E+00 -0.18207517359E+03  0.20312255635E+04  0.20230486700E+04 0.  0.
        4    1    3    3  502    0  0.33302561416E+03 -0.39530456266E+03 -0.96403920735E+03  0.10938669769E+04  0.12699999809E+01 0. -1.
       -4    1    3    3    0  502 -0.33302561416E+03  0.39530456266E+03  0.78196403376E+03  0.93735858664E+03  0.12699999809E+01 0.  1.
</event>
<event>
 5   0  0.1159914E-04  0.1971714E+04  0.7818609E-02  0.8619961E-01
       -2   -1    0    0    0  501  0.00000000000E+00  0.00000000000E+00  0.53539893684E+03  0.53539893685E+03  0.25500000920E-02 0. -1.
        2   -1    0    0  501    0  0.00000000000E+00  0.00000000000E+00 -0.18153079849E+04  0.18153079849E+04  0.25500000920E-02 0.  1.
    10030    2    1    2    0    0  0.00000000000E+00  0.00000000000E+00 -0.12799090481E+04  0.23507069218E+04  0.19717139399E+04 0.  0.
        3    1    3    3  502    0  0.50907968382E+02 -0.33114741541E+03  0.46544399754E+03  0.57348788743E+03  0.10100000352E+00 0. -1.
       -3    1    3    3    0  502 -0.50907968382E+02  0.33114741541E+03 -0.17453530456E+04  0.17772190344E+04  0.10100000352E+00 0.  1.
</event>
<event>
 5   0  0.6168338E-05  0.1942261E+04  0.7818609E-02  0.8634102E-01
       -1   -1    0    0    0  501  0.00000000000E+00  0.00000000000E+00  0.17982773531E+04  0.17982773531E+04  0.50400001928E-02 0. -1.
        1   -1    0    0  501    0  0.00000000000E+00  0.00000000000E+00 -0.52444299961E+03  0.52444299964E+03  0.50400001928E-02 0.  1.
    10030    2    1    2    0    0  0.00000000000E+00  0.00000000000E+00  0.12738343535E+04  0.23227203528E+04  0.19422605070E+04 0.  0.
        5    1    3    3  502    0  0.60388517207E+02  0.70849802167E+03  0.14278807183E+04  0.15951431457E+04  0.46999998093E+01 0. -1.
       -5    1    3    3    0  502 -0.60388517207E+02 -0.70849802167E+03 -0.15404636476E+03  0.72757720705E+03  0.46999998093E+01 0.  1.
</event>
<event>
 5   0  0.1159914E-04  0.2032866E+04  0.7818609E-02  0.8591407E-01
        2   -1    0    0  501    0  0.00000000000E+00  0.00000000000E+00  0.14568981828E+04  0.14568981828E+04  0.25500000920E-02 0.  1.
       -2   -1    0    0    0  501  0.00000000000E+00  0.00000000000E+00 -0.70913367199E+03  0.70913367200E+03  0.25500000920E-02 0. -1.
    10030    2    1    2    0    0  0.00000000000E+00  0.00000000000E+00  0.74776451083E+03  0.21660318548E+04  0.20328655225E+04 0.  0.
        3    1    3    3  502    0  0.65969399567E+03  0.51303055386E+03  0.99034859224E+03  0.12958344267E+04  0.10100000352E+00 0.  1.
       -3    1    3    3    0  502 -0.65969399567E+03 -0.51303055386E+03 -0.24258408141E+03  0.87019742810E+03  0.10100000352E+00 0. -1.
</event>
<event>
 5   0  0.6028501E-05  0.1997616E+04  0.7818609E-02  0.8607736E-01
        1   -1    0    0  501    0  0.00000000000E+00  0.00000000000E+00  0.42446312611E+03  0.42446312614E+03  0.50400001928E-02 0. -1.
       -1   -1    0    0    0  501  0.00000000000E+00  0.00000000000E+00 -0.23503034009E+04  0.23503034009E+04  0.50400001928E-02 0.  1.
    10030    2    1    2    0    0  0.00000000000E+00  0.00000000000E+00 -0.19258402748E+04  0.27747665271E+04  0.19976157077E+04 0.  0.
        4    1    3    3  502    0 -0.45692412010E+03  0.66221869058E+03 -0.14079868935E+03  0.81678585290E+03  0.12699999809E+01 0. -1.
       -4    1    3    3    0  502  0.45692412010E+03 -0.66221869058E+03 -0.17850415855E+04  0.19579806742E+04  0.12699999809E+01 0.  1.
</event>
<event>
 5   0  0.6168338E-05  0.1979503E+04  0.7818609E-02  0.8616264E-01
       -1   -1    0    0    0  501  0.00000000000E+00  0.00000000000E+00  0.10082699375E+04  0.10082699376E+04  0.50400001928E-02 0. -1.
        1   -1    0    0  501    0  0.00000000000E+00  0.00000000000E+00 -0.97157299576E+03  0.97157299577E+03  0.50400001928E-02 0.  1.
    10030    2    1    2    0    0  0.00000000000E+00  0.00000000000E+00  0.36696941786E+02  0.19798429333E+04  0.19795028101E+04 0.  0.
        5    1    3    3  502    0 -0.38532379467E+03 -0.50599467482E+03 -0.74012259432E+03  0.97586299361E+03  0.46999998093E+01 0.  1.
       -5    1    3    3    0  502  0.38532379467E+03  0.50599467482E+03  0.77681953610E+03  0.10039799397E+04  0.46999998093E+01 0. -1.
</event>
<event>
 5   0  0.1244229E-04  0.2064058E+04  0.7818609E-02  0.8577243E-01
       -2   -1    0    0    0  501  0.00000000000E+00  0.00000000000E+00  0.92009720500E+03  0.92009720501E+03  0.25500000920E-02 0.  1.
        2   -1    0    0  501    0  0.00000000000E+00  0.00000000000E+00 -0.11575775128E+04  0.11575775128E+04  0.25500000920E-02 0. -1.
    10030    2    1    2    0    0  0.00000000000E+00  0.00000000000E+00 -0.23748030780E+03  0.20776747178E+04  0.20640579780E+04 0.  0.
        5    1    3    3  502    0 -0.11639819306E+03 -0.57373049212E+03 -0.97425678687E+03  0.11366237696E+04  0.46999998093E+01 0. -1.
       -5    1    3    3    0  502  0.11639819306E+03  0.57373049212E+03  0.73677647908E+03  0.94105094817E+03  0.46999998093E+01 0.  1.
</event>
<event>
 5   0  0.6256535E-05  0.1997232E+04  0.7818609E-02  0.8607916E-01
       -1   -1    0    0    0  501  0.00000000000E+00  0.00000000000E+00  0.13242808089E+04  0.13242808089E+04  0.50400001928E-02 0.  1.
        1   -1    0    0  501    0  0.00000000000E+00  0.00000000000E+00 -0.75303823633E+03  0.75303823635E+03  0.50400001928E-02 0. -1.
    10030    2    1    2    0    0  0.00000000000E+00  0.00000000000E+00  0.57124257254E+03  0.20773190452E+04  0.19972321695E+04 0.  0.
        1    1    3    3  502    0 -0.29237284770E+03 -0.72573194809E+03 -0.35979789191E+03  0.86117551381E+03  0.50400001928E-02 0. -1.
       -1    1    3    3    0  502  0.29237284770E+03  0.72573194809E+03  0.93104046444E+03  0.12161435314E+04  0.50400001928E-02 0.  1.
</event>
<event>
 5   0  0.1244229E-04  0.2001639E+04  0.7818609E-02  0.8605855E-01
        2   -1    0    0  501    0  0.00000000000E+00  0.00000000000E+00  0.96356399958E+03  0.96356399959E+03  0.25500000920E-02 0.  1.
       -2   -1    0    0    0  501  0.00000000000E+00  0.00000000000E+00 -0.10395150153E+04  0.10395150153E+04  0.25500000920E-02 0. -1.
    10030    2    1    2    0    0  0.00000000000E+00  0.00000000000E+00 -0.75951015692E+02  0.20030790149E+04  0.20016385745E+04 0.  0.
        5    1    3    3  502    0 -0.86836558552E+02  0.56686461346E+03  0.78282268682E+03  0.97041719219E+03  0.46999998093E+01 0.  1.
       -5    1    3    3    0  502  0.86836558552E+02 -0.56686461346E+03 -0.85877370251E+03  0.10326618227E+04  0.46999998093E+01 0. -1.
</event>
<event>
 5   0  0.6222733E-05  0.1996681E+04  0.7818609E-02  0.8608174E-01
       -1   -1    0    0    0  501  0.00000000000E+00  0.00000000000E+00  0.11736162778E+04  0.11736162778E+04  0.50400001928E-02 0.  1.
        1   -1    0    0  501    0  0.00000000000E+00  0.00000000000E+00 -0.84924193319E+03  0.84924193321E+03  0.50400001928E-02 0. -1.
    10030    2    1    2    0    0  0.00000000000E+00  0.00000000000E+00  0.32437434461E+03  0.20228582110E+04  0.19966814033E+04 0.  0.
        2    1    3    3  502    0 -0.99356590251E+02 -0.37825895393E+03  0.10927786725E+04  0.11606536069E+04  0.25500000920E-02 0.  1.
       -2    1    3    3    0  502  0.99356590251E+02  0.37825895393E+03 -0.76840432786E+03  0.86220460410E+03  0.25500000920E-02 0. -1.
</event>
<event>
 5   0  0.6214547E-05  0.2023247E+04  0.7818609E-02  0.8595829E-01
        1   -1    0    0  501    0  0.00000000000E+00  0.00000000000E+00  0.81762749043E+03  0.81762749045E+03  0.50400001928E-02 0. -1.
       -1   -1    0    0    0  501  0.00000000000E+00  0.00000000000E+00 -0.12516477541E+04  0.12516477542E+04  0.50400001928E-02 0.  1.
    10030    2    1    2    0    0  0.00000000000E+00  0.00000000000E+00 -0.43402026372E+03  0.20692752446E+04  0.20232465121E+04 0.  0.
        3    1    3    3  502    0 -0.52486621447E+03 -0.24639596197E+03 -0.10648359573E+04  0.12124649023E+04  0.10100000352E+00 0.  1.
       -3    1    3    3    0  502  0.52486621447E+03  0.24639596197E+03  0.63081569359E+03  0.85681034229E+03  0.10100000352E+00 0. -1.
</event>
<event>
 5   0  0.6168338E-05  0.1981359E+04  0.7818609E-02  0.8615386E-01
       -1   -1    0    0    0  501  0.00000000000E+00  0.00000000000E+00  0.12422609808E+04  0.12422609808E+04  0.50400001928E-02 0.  1.
        1   -1    0    0  501    0  0.00000000000E+00  0.00000000000E+00 -0.79004779547E+03  0.79004779548E+03  0.50400001928E-02 0. -1.
    10030    2    1    2    0    0  0.00000000000E+00  0.00000000000E+00  0.45221318530E+03  0.20323087763E+04  0.19813586745E+04 0.  0.
        5    1    3    3  502    0  0.55102157744E+03 -0.79109781992E+03  0.45992212880E+03  0.10681811616E+04  0.46999998093E+01 0.  1.
       -5    1    3    3    0  502 -0.55102157744E+03  0.79109781992E+03 -0.77089435059E+01  0.96412761463E+03  0.46999998093E+01 0. -1.
</event>
<event>
 5   0  0.1281789E-04  0.1893608E+04  0.7818609E-02  0.8658045E-01
       -2   -1    0    0    0  501  0.00000000000E+00  0.00000000000E+00  0.46798007394E+03  0.46798007395E+03  0.25500000920E-02 0. -1.
        2   -1    0    0  501    0  0.00000000000E+00  0.00000000000E+00 -0.19155473729E+04  0.19155473729E+04  0.25500000920E-02 0.  1.
    10030    2    1    2    0    0  0.00000000000E+00  0.00000000000E+00 -0.14475672990E+04  0.23835274469E+04  0.18936081973E+04 0.  0.
        2    1    3    3  502    0  0.29727493913E+03 -0.21649072422E+03 -0.18219766572E+04  0.18587198720E+04  0.25500000920E-02 0.  1.
       -2    1    3    3    0  502 -0.29727493913E+03  0.21649072422E+03  0.37440935824E+03  0.52480757488E+03  0.25500000920E-02 0. -1.
</event>
<event>
 5   0  0.1274868E-04  0.1992519E+04  0.7818609E-02  0.8610126E-01
       -2   -1    0    0    0  501  0.00000000000E+00  0.00000000000E+00  0.60076555508E+03  0.60076555509E+03  0.25500000920E-02 0.  1.
        2   -1    0    0  501    0  0.00000000000E+00  0.00000000000E+00 -0.16521139100E+04  0.16521139100E+04  0.25500000920E-02 0. -1.
    10030    2    1    2    0    0  0.00000000000E+00  0.00000000000E+00 -0.10513483549E+04  0.22528794651E+04  0.19925191394E+04 0.  0.
        1    1    3    3  502    0 -0.82447430566E+03 -0.36430250149E+03 -0.10054549015E+04  0.13503383844E+04  0.50400001928E-02 0. -1.
       -1    1    3    3    0  502  0.82447430566E+03  0.36430250149E+03 -0.45893453384E+02  0.90254108071E+03  0.50400001928E-02 0.  1.
</event>
<event>
 5   0  0.6256535E-05  0.1987771E+04  0.7818609E-02  0.8612360E-01
       -1   -1    0    0    0  501  0.00000000000E+00  0.00000000000E+00  0.14172805981E+04  0.14172805981E+04  0.50400001928E-02 0.  1.
        1   -1    0    0  501    0  0.00000000000E+00  0.00000000000E+00 -0.69697450998E+03  0.69697451000E+03  0.50400001928E-02 0. -1.
    10030    2    1    2    0    0  0.00000000000E+00  0.00000000000E+00  0.72030608812E+03  0.21142551081E+04  0.19877710637E+04 0.  0.
        1    1    3    3  502    0  0.12178522071E+03 -0.37040051231E+03 -0.61222933874E+03  0.72584636304E+03  0.50400001928E-02 0. -1.
       -1    1    3    3    0  502 -0.12178522071E+03  0.37040051231E+03  0.13325354269E+04  0.13884087451E+04  0.50400001928E-02 0.  1.
</event>
<event>
 5   0  0.6214547E-05  0.1999827E+04  0.7818609E-02  0.8606701E-01
        1   -1    0    0  501    0  0.00000000000E+00  0.00000000000E+00  0.75347526424E+03  0.75347526426E+03  0.50400001928E-02 0. -1.
       -1   -1    0    0    0  501  0.00000000000E+00  0.00000000000E+00 -0.13269543134E+04  0.13269543134E+04  0.50400001928E-02 0.  1.
    10030    2    1    2    0    0  0.00000000000E+00  0.00000000000E+00 -0.57347904915E+03  0.20804295777E+04  0.19998272445E+04 0.  0.
        3    1    3    3  502    0 -0.99770094015E+03  0.44138025523E+02 -0.33846171473E+03  0.10544722252E+04  0.10100000352E+00 0.  1.
       -3    1    3    3    0  502  0.99770094015E+03 -0.44138025523E+02 -0.23501733443E+03  0.10259573524E+04  0.10100000352E+00 0. -1.
</event>
<event>
 5   0  0.6214547E-05  0.1983828E+04  0.7818609E-02  0.8614219E-01
       -1   -1    0    0    0  501  0.00000000000E+00  0.00000000000E+00  0.36830769936E+03  0.36830769939E+03  0.50400001928E-02 0. -1.
        1   -1    0    0  501    0  0.00000000000E+00  0.00000000000E+00 -0.26713899680E+04  0.26713899680E+04  0.50400001928E-02 0.  1.
    10030    2    1    2    0    0  0.00000000000E+00  0.00000000000E+00 -0.23030822687E+04  0.30396976674E+04  0.19838281108E+04 0.  0.
        3    1    3    3  502    0 -0.56087658888E+03  0.66326571483E+02 -0.24009608210E+04  0.24664944022E+04  0.10100000352E+00 0.  1.
       -3    1    3    3    0  502  0.56087658888E+03 -0.66326571483E+02  0.97878552324E+02  0.57320326521E+03  0.10100000352E+00 0. -1.
</event>
<event>
 5   0  0.6222733E-05  0.1999465E+04  0.7818609E-02  0.8606871E-01
       -1   -1    0    0    0  501  0.00000000000E+00  0.00000000000E+00  0.76148829588E+03  0.76148829590E+03  0.50400001928E-02 0. -1.
        1   -1    0    0  501    0  0.00000000000E+00  0.00000000000E+00 -0.13125151998E+04  0.13125151998E+04  0.50400001928E-02 0.  1.
    10030    2    1    2    0    0  0.00000000000E+00  0.00000000000E+00 -0.55102690388E+03  0.20740034957E+04  0.19994648912E+04 0.  0.
        2    1    3    3  502    0 -0.61142729583E+03 -0.30048786652E+03 -0.10344508456E+04  0.12386383040E+04  0.25500000920E-02 0.  1.
       -2    1    3    3    0  502  0.61142729583E+03  0.30048786652E+03  0.48342394177E+03  0.83536519169E+03  0.25500000920E-02 0. -1.
</event>
<event>
 5   0  0.1274868E-04  0.2064646E+04  0.7818609E-02  0.8576979E-01
       -2   -1    0    0    0  501  0.00000000000E+00  0.00000000000E+00  0.81816922986E+03  0.81816922987E+03  0.25500000920E-02 0.  1.
        2   -1    0    0  501    0  0.00000000000E+00  0.00000000000E+00 -0.13025313804E+04  0.13025313805E+04  0.25500000920E-02 0. -1.
    10030    2    1    2    0    0  0.00000000000E+00  0.00000000000E+00 -0.48436215058E+03  0.21207006103E+04  0.20646463101E+04 0.  0.
        1    1    3    3  502    0  0.32573996506E+03 -0.57351354052E+03 -0.10578871156E+04  0.12466553074E+04  0.50400001928E-02 0. -1.
       -1    1    3    3    0  502 -0.32573996506E+03  0.57351354052E+03  0.57352496505E+03  0.87404530292E+03  0.50400001928E-02 0.  1.
</event>
<event>
 5   0  0.1159914E-04  0.2014526E+04  0.7818609E-02  0.8599859E-01
        2   -1    0    0  501    0  0.00000000000E+00  0.00000000000E+00  0.82259764449E+03  0.82259764449E+03  0.25500000920E-02 0.  1.
       -2   -1    0    0    0  501  0.00000000000E+00  0.00000000000E+00 -0.12333836393E+04  0.12333836393E+04  0.25500000920E-02 0. -1.
    10030    2    1    2    0    0  0.00000000000E+00  0.00000000000E+00 -0.41078599484E+03  0.20559812838E+04  0.20145257273E+04 0.  0.
        3    1    3    3  502    0  0.33906467270E+03  0.55871634416E+03 -0.98761795326E+03  0.11842795436E+04  0.10100000352E+00 0. -1.
       -3    1    3    3    0  502 -0.33906467270E+03 -0.55871634416E+03  0.57683195842E+03  0.87170174025E+03  0.10100000352E+00 0.  1.
</event>
<event>
 5   0  0.6214547E-05  0.1989445E+04  0.7818609E-02  0.8611571E-01
        1   -1    0    0  501    0  0.00000000000E+00  0.00000000000E+00  0.19906886055E+04  0.19906886055E+04  0.50400001928E-02 0.  1.
       -1   -1    0    0    0  501  0.00000000000E+00  0.00000000000E+00 -0.49705055340E+03  0.49705055343E+03  0.50400001928E-02 0. -1.
    10030    2    1    2    0    0  0.00000000000E+00  0.00000000000E+00  0.14936380521E+04  0.24877391590E+04  0.19894450212E+04 0.  0.
        3    1    3    3  502    0 -0.35680230218E+03  0.81374182081E+03  0.13060306674E+04  0.15796201278E+04  0.10100000352E+00 0. -1.
       -3    1    3    3    0  502  0.35680230218E+03 -0.81374182081E+03  0.18760738475E+03  0.90811903118E+03  0.10100000352E+00 0.  1.
</event>
<event>
 5   0  0.1242761E-04  0.1992720E+04  0.7818609E-02  0.8610032E-01
        2   -1    0    0  501    0  0.00000000000E+00  0.00000000000E+00  0.13403764529E+04  0.13403764529E+04  0.25500000920E-02 0. -1.
       -2   -1    0    0    0  501  0.00000000000E+00  0.00000000000E+00 -0.74063739504E+03  0.74063739505E+03  0.25500000920E-02 0.  1.
    10030    2    1    2    0    0  0.00000000000E+00  0.00000000000E+00  0.59973905788E+03  0.20810138480E+04  0.19927196737E+04 0.  0.
        4    1    3    3  502    0 -0.79809266696E+03  0.64989395015E+02  0.91906231244E+03  0.12189555667E+04  0.12699999809E+01 0. -1.
       -4    1    3    3    0  502  0.79809266696E+03 -0.64989395015E+02 -0.31932325456E+03  0.86205828128E+03  0.12699999809E+01 0.  1.
</event>
<event>
 5   0  0.6214547E-05  0.1966866E+04  0.7818609E-02  0.8622270E-01
       -1   -1    0    0    0  501  0.00000000000E+00  0.00000000000E+00  0.58203658511E+03  0.58203658513E+03  0.50400001928E-02 0. -1.
        1   -1    0    0  501    0  0.00000000000E+00  0.00000000000E+00 -0.16616489920E+04  0.16616489920E+04  0.50400001928E-02 0.  1.
    10030    2    1    2    0    0  0.00000000000E+00  0.00000000000E+00 -0.10796124069E+04  0.22436855771E+04  0.19668660402E+04 0.  0.
        3    1    3    3  502    0  0.35225702885E+03  0.27449402448E+03 -0.15393121723E+04  0.16027831911E+04  0.10100000352E+00 0.  1.
       -3    1    3    3    0  502 -0.35225702885E+03 -0.27449402448E+03  0.45969976541E+03  0.64090238599E+03  0.10100000352E+00 0. -1.
</event>
<event>
 5   0  0.6214547E-05  0.1996421E+04  0.7818609E-02  0.8608296E-01
        1   -1    0    0  501    0  0.00000000000E+00  0.00000000000E+00  0.14062460741E+04  0.14062460741E+04  0.50400001928E-02 0.  1.
       -1   -1    0    0    0  501  0.00000000000E+00  0.00000000000E+00 -0.70857057536E+03  0.70857057538E+03  0.50400001928E-02 0. -1.
    10030    2    1    2    0    0  0.00000000000E+00  0.00000000000E+00  0.69767549874E+03  0.21148166495E+04  0.19964213882E+04 0.  0.
        3    1    3    3  502    0  0.19491681215E+03  0.25660989893E+03  0.13496322353E+04  0.13875692360E+04  0.10100000352E+00 0.  1.
       -3    1    3    3    0  502 -0.19491681215E+03 -0.25660989893E+03 -0.65195673656E+03  0.72724741350E+03  0.10100000352E+00 0. -1.
</event>
<event>
 5   0  0.1159914E-04  0.2025266E+04  0.7818609E-02  0.8594898E-01
       -2   -1    0    0    0  501  0.00000000000E+00  0.00000000000E+00  0.68423378379E+03  0.68423378379E+03  0.25500000920E-02 0. -1.
        2   -1    0    0  501    0  0.00000000000E+00  0.00000000000E+00 -0.14986483351E+04  0.14986483351E+04  0.25500000920E-02 0.  1.
    10030    2    1    2    0    0  0.00000000000E+00  0.00000000000E+00 -0.81441455127E+03  0.21828821189E+04  0.20252662253E+04 0.  0.
        3    1    3    3  502    0 -0.51365073422E+03  0.23335652187E+03 -0.13135633700E+04  0.14295947258E+04  0.10100000352E+00 0.  1.
       -3    1    3    3    0  502  0.51365073422E+03 -0.23335652187E+03  0.49914881870E+03  0.75328739301E+03  0.10100000352E+00 0. -1.
</event>
<event>
 5   0  0.6028501E-05  0.2008830E+04  0.7818609E-02  0.8602504E-01
       -1   -1    0    0    0  501  0.00000000000E+00  0.00000000000E+00  0.57223285871E+03  0.57223285873E+03  0.50400001928E-02 0. -1.
        1   -1    0    0  501    0  0.00000000000E+00  0.00000000000E+00 -0.17630043164E+04  0.17630043164E+04  0.50400001928E-02 0.  1.
    10030    2    1    2    0    0  0.00000000000E+00  0.00000000000E+00 -0.11907714577E+04  0.23352371751E+04  0.20088295099E+04 0.  0.
        4    1    3    3  502    0 -0.13232489367E+03  0.73804679161E+03  0.18150360665E+03  0.77147139689E+03  0.12699999809E+01 0. -1.
       -4    1    3    3    0  502  0.13232489367E+03 -0.73804679161E+03 -0.13722750643E+04  0.15637657782E+04  0.12699999809E+01 0.  1.
</event>
<event>
 5   0  0.6214547E-05  0.1969590E+04  0.7818609E-02  0.8620972E-01
       -1   -1    0    0    0  501  0.00000000000E+00  0.00000000000E+00  0.11430945097E+04  0.11430945097E+04  0.50400001928E-02 0. -1.
        1   -1    0    0  501    0  0.00000000000E+00  0.00000000000E+00 -0.84841713206E+03  0.84841713208E+03  0.50400001928E-02 0.  1.
    10030    2    1    2    0    0  0.00000000000E+00  0.00000000000E+00  0.29467737762E+03  0.19915116418E+04  0.19695897701E+04 0.  0.
        3    1    3    3  502    0  0.72078554667E+03 -0.22972009395E+03  0.78484630247E+03  0.10900857097E+04  0.10100000352E+00 0. -1.
       -3    1    3    3    0  502 -0.72078554667E+03  0.22972009395E+03 -0.49016892485E+03  0.90142593204E+03  0.10100000352E+00 0.  1.
</event>
<event>
 5   0  0.1281789E-04  0.2010018E+04  0.7818609E-02  0.8601951E-01
        2   -1    0    0  501    0  0.00000000000E+00  0.00000000000E+00  0.22133112063E+04  0.22133112063E+04  0.25500000920E-02 0.  1.
       -2   -1    0    0    0  501  0.00000000000E+00  0.00000000000E+00 -0.45634954551E+03  0.45634954552E+03  0.25500000920E-02 0. -1.
    10030    2    1    2    0    0  0.00000000000E+00  0.00000000000E+00  0.17569616608E+04  0.26696607518E+04  0.20100184707E+04 0.  0.
        2    1    3    3  502    0  0.39442840271E+03 -0.41204561462E+02 -0.34803311382E+03  0.52763493921E+03  0.25500000920E-02 0. -1.
       -2    1    3    3    0  502 -0.39442840271E+03  0.41204561462E+02  0.21049947746E+04  0.21420258126E+04  0.25500000920E-02 0.  1.
</event>
<event>
 5   0  0.6028501E-05  0.1998810E+04  0.7818609E-02  0.8607177E-01
       -1   -1    0    0    0  501  0.00000000000E+00  0.00000000000E+00  0.83137981768E+03  0.83137981769E+03  0.50400001928E-02 0. -1.
        1   -1    0    0  501    0  0.00000000000E+00  0.00000000000E+00 -0.12013890287E+04  0.12013890287E+04  0.50400001928E-02 0.  1.
    10030    2    1    2    0    0  0.00000000000E+00  0.00000000000E+00 -0.37000921106E+03  0.20327688464E+04  0.19988102378E+04 0.  0.
        4    1    3    3  502    0  0.26638585792E+03 -0.99193614512E+02  0.78940084952E+03  0.83902092500E+03  0.12699999809E+01 0. -1.
       -4    1    3    3    0  502 -0.26638585792E+03  0.99193614512E+02 -0.11594100606E+04  0.11937479214E+04  0.12699999809E+01 0.  1.
</event>
<event>
 5   0  0.1274868E-04  0.1993665E+04  0.7818609E-02  0.8609588E-01
        2   -1    0    0  501    0  0.00000000000E+00  0.00000000000E+00  0.10220008054E+04  0.10220008054E+04  0.25500000920E-02 0. -1.
       -2   -1    0    0    0  501  0.00000000000E+00  0.00000000000E+00 -0.97228391053E+03  0.97228391054E+03  0.25500000920E-02 0.  1.
    10030    2    1    2    0    0  0.00000000000E+00  0.00000000000E+00  0.49716894832E+02  0.19942847159E+04  0.19936649063E+04 0.  0.
        1    1    3    3  502    0 -0.38348369142E+03  0.55488263218E+03  0.75906242434E+03  0.10154458337E+04  0.50400001928E-02 0. -1.
       -1    1    3    3    0  502  0.38348369142E+03 -0.55488263218E+03 -0.70934552951E+03  0.97883888222E+03  0.50400001928E-02 0.  1.
</event>
<event>
 5   0  0.6222733E-05  0.2008056E+04  0.7818609E-02  0.8602863E-01
       -1   -1    0    0    0  501  0.00000000000E+00  0.00000000000E+00  0.58152976746E+03  0.58152976748E+03  0.50400001928E-02 0. -1.
        1   -1    0    0  501    0  0.00000000000E+00  0.00000000000E+00 -0.17334836087E+04  0.17334836087E+04  0.50400001928E-02 0.  1.
    10030    2    1    2    0    0  0.00000000000E+00  0.00000000000E+00 -0.11519538413E+04  0.23150133762E+04  0.20080560947E+04 0.  0.
        2    1    3    3  502    0  0.85047557079E+03 -0.49206338456E+03 -0.33792469191E+03  0.10390515715E+04  0.25500000920E-02 0.  1.
       -2    1    3    3    0  502 -0.85047557079E+03  0.49206338456E+03 -0.81402914935E+03  0.12759618047E+04  0.25500000920E-02 0. -1.
</event>
<event>
 5   0  0.6028501E-05  0.1995216E+04  0.7818609E-02  0.8608861E-01
       -1   -1    0    0    0  501  0.00000000000E+00  0.00000000000E+00  0.71336606867E+03  0.71336606869E+03  0.50400001928E-02 0.  1.
        1   -1    0    0  501    0  0.00000000000E+00  0.00000000000E+00 -0.13951063527E+04  0.13951063527E+04  0.50400001928E-02 0. -1.
    10030    2    1    2    0    0  0.00000000000E+00  0.00000000000E+00 -0.68174028405E+03  0.21084724214E+04  0.19952158121E+04 0.  0.
        4    1    3    3  502    0  0.25329482946E+03 -0.80721170698E+03 -0.89952856632E+03  0.12348693312E+04  0.12699999809E+01 0. -1.
       -4    1    3    3    0  502 -0.25329482946E+03  0.80721170698E+03  0.21778828226E+03  0.87360309026E+03  0.12699999809E+01 0.  1.
</event>
<event>
 5   0  0.1159914E-04  0.2003397E+04  0.7818609E-02  0.8605034E-01
        2   -1    0    0  501    0  0.00000000000E+00  0.00000000000E+00  0.12353121478E+04  0.12353121478E+04  0.25500000920E-02 0. -1.
       -2   -1    0    0    0  501  0.00000000000E+00  0.00000000000E+00 -0.81226456999E+03  0.81226457000E+03  0.25500000920E-02 0.  1.
    10030    2    1    2    0    0  0.00000000000E+00  0.00000000000E+00  0.42304757781E+03  0.20475767178E+04  0.20033974050E+04 0.  0.
        3    1    3    3  502    0 -0.51977829061E+03  0.25231690175E+03  0.10478391872E+04  0.11965785652E+04  0.10100000352E+00 0.  1.
       -3    1    3    3    0  502  0.51977829061E+03 -0.25231690175E+03 -0.62479160941E+03  0.85099815258E+03  0.10100000352E+00 0. -1.
</event>
<event>
 5   0  0.6214547E-05  0.2013673E+04  0.7818609E-02  0.8600255E-01
        1   -1    0    0  501    0  0.00000000000E+00  0.00000000000E+00  0.56925907510E+03  0.56925907512E+03  0.50400001928E-02 0.  1.
       -1   -1    0    0    0  501  0.00000000000E+00  0.00000000000E+00 -0.17807707062E+04  0.17807707062E+04  0.50400001928E-02 0. -1.
    10030    2    1    2    0    0  0.00000000000E+00  0.00000000000E+00 -0.12115116311E+04  0.23500297813E+04  0.20136731465E+04 0.  0.
        3    1    3    3  502    0  0.74949397561E+03  0.67197020145E+03 -0.63008800271E+03  0.11875588712E+04  0.10100000352E+00 0. -1.
       -3    1    3    3    0  502 -0.74949397561E+03 -0.67197020145E+03 -0.58142362839E+03  0.11624709102E+04  0.10100000352E+00 0.  1.
</event>
<event>
 5   0  0.1281789E-04  0.1822764E+04  0.7818609E-02  0.8694287E-01
       -2   -1    0    0    0  501  0.00000000000E+00  0.00000000000E+00  0.10096182558E+04  0.10096182558E+04  0.25500000920E-02 0. -1.
        2   -1    0    0  501    0  0.00000000000E+00  0.00000000000E+00 -0.82270420007E+03  0.82270420007E+03  0.25500000920E-02 0.  1.
    10030    2    1    2    0    0  0.00000000000E+00  0.00000000000E+00  0.18691405578E+03  0.18323224559E+04  0.18227640325E+04 0.  0.
        2    1    3    3  502    0  0.48808657432E+03 -0.49206481712E+02 -0.67866414213E+03  0.83739763536E+03  0.25500000920E-02 0.  1.
       -2    1    3    3    0  502 -0.48808657432E+03  0.49206481712E+02  0.86557819791E+03  0.99492482057E+03  0.25500000920E-02 0. -1.
</event>
<event>
 5   0  0.1159914E-04  0.1859449E+04  0.7818609E-02  0.8675309E-01
       -2   -1    0    0    0  501  0.00000000000E+00  0.00000000000E+00  0.59276452849E+03  0.59276452849E+03  0.25500000920E-02 0. -1.
        2   -1    0    0  501    0  0.00000000000E+00  0.00000000000E+00 -0.14582305608E+04  0.14582305608E+04  0.25500000920E-02 0.  1.
    10030    2    1    2    0    0  0.00000000000E+00  0.00000000000E+00 -0.86546603228E+03  0.20509950893E+04  0.18594486826E+04 0.  0.
        3    1    3    3  502    0 -0.19911053362E+01 -0.11475836503E+03 -0.14503861521E+04  0.14549204265E+04  0.10100000352E+00 0.  1.
       -3    1    3    3    0  502  0.19911053362E+01  0.11475836503E+03  0.58492011984E+03  0.59607466281E+03  0.10100000352E+00 0. -1.
</event>
<event>
 5   0  0.1281789E-04  0.2013138E+04  0.7818609E-02  0.8600503E-01
       -2   -1    0    0    0  501  0.00000000000E+00  0.00000000000E+00  0.45389161421E+03  0.45389161421E+03  0.25500000920E-02 0. -1.
        2   -1    0    0  501    0  0.00000000000E+00  0.00000000000E+00 -0.22322096118E+04  0.22322096118E+04  0.25500000920E-02 0.  1.
    10030    2    1    2    0    0  0.00000000000E+00  0.00000000000E+00 -0.17783179976E+04  0.26861012261E+04  0.20131380717E+04 0.  0.
        2    1    3    3  502    0  0.30290085331E+03  0.57715060289E+03  0.13427329722E+03  0.66549309816E+03  0.25500000920E-02 0. -1.
       -2    1    3    3    0  502 -0.30290085331E+03 -0.57715060289E+03 -0.19125912948E+04  0.20206081279E+04  0.25500000920E-02 0.  1.
</event>
<event>
 5   0  0.1281789E-04  0.1999014E+04  0.7818609E-02  0.8607082E-01
        2   -1    0    0  501    0  0.00000000000E+00  0.00000000000E+00  0.18553968181E+04  0.18553968181E+04  0.25500000920E-02 0. -1.
       -2   -1    0    0    0  501  0.00000000000E+00  0.00000000000E+00 -0.53843693192E+03  0.53843693192E+03  0.25500000920E-02 0.  1.
    10030    2    1    2    0    0  0.00000000000E+00  0.00000000000E+00  0.13169598862E+04  0.23938337500E+04  0.19990139272E+04 0.  0.
        2    1    3    3  502    0  0.33394904678E+03  0.70967034625E+03 -0.83453095342E+02  0.78874481635E+03  0.25500000920E-02 0.  1.
       -2    1    3    3    0  502 -0.33394904678E+03 -0.70967034625E+03  0.14004129815E+04  0.16050889337E+04  0.25500000920E-02 0. -1.
</event>
<event>
 5   0  0.6168338E-05  0.2000735E+04  0.7818609E-02  0.8606277E-01
       -1   -1    0    0    0  501  0.00000000000E+00  0.00000000000E+00  0.10127911888E+04  0.10127911888E+04  0.50400001928E-02 0. -1.
        1   -1    0    0  501    0  0.00000000000E+00  0.00000000000E+00 -0.98809633203E+03  0.98809633204E+03  0.50400001928E-02 0.  1.
    10030    2    1    2    0    0  0.00000000000E+00  0.00000000000E+00  0.24694856780E+02  0.20008875209E+04  0.20007351237E+04 0.  0.
        5    1    3    3  502    0 -0.30489032122E+03  0.56834373250E+03 -0.75239406126E+03  0.99100535804E+03  0.46999998093E+01 0.  1.
       -5    1    3    3    0  502  0.30489032122E+03 -0.56834373250E+03  0.77708891804E+03  0.10098821628E+04  0.46999998093E+01 0. -1.
</event>
<event>
 5   0  0.6028501E-05  0.1999698E+04  0.7818609E-02  0.8606762E-01
        1   -1    0    0  501    0  0.00000000000E+00  0.00000000000E+00  0.13629482935E+04  0.13629482935E+04  0.50400001928E-02 0. -1.
       -1   -1    0    0    0  501  0.00000000000E+00  0.00000000000E+00 -0.73348181385E+03  0.73348181387E+03  0.50400001928E-02 0.  1.
    10030    2    1    2    0    0  0.00000000000E+00  0.00000000000E+00  0.62946647968E+03  0.20964301074E+04  0.19996977637E+04 0.  0.
        4    1    3    3  502    0  0.47592216614E+03  0.28547129829E+03 -0.55718355198E+03  0.78641648881E+03  0.12699999809E+01 0.  1.
       -4    1    3    3    0  502 -0.47592216614E+03 -0.28547129829E+03  0.11866500317E+04  0.13100136186E+04  0.12699999809E+01 0. -1.
</event>
<event>
 5   0  0.1281789E-04  0.1990842E+04  0.7818609E-02  0.8610915E-01
        2   -1    0    0  501    0  0.00000000000E+00  0.00000000000E+00  0.31670743914E+03  0.31670743915E+03  0.25500000920E-02 0. -1.
       -2   -1    0    0    0  501  0.00000000000E+00  0.00000000000E+00 -0.31286366376E+04  0.31286366376E+04  0.25500000920E-02 0.  1.
    10030    2    1    2    0    0  0.00000000000E+00  0.00000000000E+00 -0.28119291984E+04  0.34453440767E+04  0.19908415281E+04 0.  0.
        2    1    3    3  502    0  0.59258169992E+03 -0.13785245011E+03 -0.27694136863E+04  0.28354556133E+04  0.25500000920E-02 0.  1.
       -2    1    3    3    0  502 -0.59258169992E+03  0.13785245011E+03 -0.42515512156E+02  0.60988846346E+03  0.25500000920E-02 0. -1.
</event>
<event>
 5   0  0.1281789E-04  0.1972128E+04  0.7818609E-02  0.8619764E-01
       -2   -1    0    0    0  501  0.00000000000E+00  0.00000000000E+00  0.66228153437E+03  0.66228153437E+03  0.25500000920E-02 0.  1.
        2   -1    0    0  501    0  0.00000000000E+00  0.00000000000E+00 -0.14681405185E+04  0.14681405185E+04  0.25500000920E-02 0. -1.
    10030    2    1    2    0    0  0.00000000000E+00  0.00000000000E+00 -0.80585898416E+03  0.21304220529E+04  0.19721281452E+04 0.  0.
        2    1    3    3  502    0 -0.16452421451E+03  0.65812273443E+03 -0.11760016539E+04  0.13576353121E+04  0.25500000920E-02 0. -1.
       -2    1    3    3    0  502  0.16452421451E+03 -0.65812273443E+03  0.37014266975E+03  0.77278674077E+03  0.25500000920E-02 0.  1.
</event>
<event>
 5   0  0.1159914E-04  0.1989496E+04  0.7818609E-02  0.8611547E-01
       -2   -1    0    0    0  501  0.00000000000E+00  0.00000000000E+00  0.19412491590E+04  0.19412491590E+04  0.25500000920E-02 0. -1.
        2   -1    0    0  501    0  0.00000000000E+00  0.00000000000E+00 -0.50973567913E+03  0.50973567914E+03  0.25500000920E-02 0.  1.
    10030    2    1    2    0    0  0.00000000000E+00  0.00000000000E+00  0.14315134799E+04  0.24509848382E+04  0.19894963769E+04 0.  0.
        3    1    3    3  502    0 -0.36578794311E+03 -0.57086118717E+03  0.16125040920E+04  0.17492434854E+04  0.10100000352E+00 0. -1.
       -3    1    3    3    0  502  0.36578794311E+03  0.57086118717E+03 -0.18099061207E+03  0.70174135278E+03  0.10100000352E+00 0.  1.
</event>
<event>
 5   0  0.4479000E-05  0.1962895E+04  0.7818609E-02  0.8624168E-01
       -4   -1    0    0    0  501  0.00000000000E+00  0.00000000000E+00  0.76736739794E+03  0.76736844887E+03  0.12699999809E+01 0.  1.
        4   -1    0    0  501    0  0.00000000000E+00  0.00000000000E+00 -0.12552491119E+04  0.12552497543E+04  0.12699999809E+01 0. -1.
    10030    2    1    2    0    0  0.00000000000E+00  0.00000000000E+00 -0.48788171392E+03  0.20226182032E+04  0.19628947575E+04 0.  0.
        3    1    3    3  502    0 -0.86376454068E+03 -0.26580692661E+03  0.15045326764E+03  0.91617612931E+03  0.10100000352E+00 0.  1.
       -3    1    3    3    0  502  0.86376454068E+03  0.26580692661E+03 -0.63833498156E+03  0.11064420739E+04  0.10100000352E+00 0. -1.
</event>
<event>
 5   0  0.6256535E-05  0.1997716E+04  0.7818609E-02  0.8607689E-01
        1   -1    0    0  501    0  0.00000000000E+00  0.00000000000E+00  0.12581898547E+04  0.12581898547E+04  0.50400001928E-02 0.  1.
       -1   -1    0    0    0  501  0.00000000000E+00  0.00000000000E+00 -0.79297805159E+03  0.79297805160E+03  0.50400001928E-02 0. -1.
    10030    2    1    2    0    0  0.00000000000E+00  0.00000000000E+00  0.46521180310E+03  0.20511679063E+04  0.19977156349E+04 0.  0.
        1    1    3    3  502    0 -0.23553746555E+03 -0.68363368574E+01  0.12292436236E+04  0.12516247518E+04  0.50400001928E-02 0.  1.
       -1    1    3    3    0  502  0.23553746555E+03  0.68363368574E+01 -0.76403182048E+03  0.79954315450E+03  0.50400001928E-02 0. -1.
</event>
<event>
 5   0  0.1281789E-04  0.1994557E+04  0.7818609E-02  0.8609170E-01
        2   -1    0    0  501    0  0.00000000000E+00  0.00000000000E+00  0.18540020548E+04  0.18540020548E+04  0.25500000920E-02 0.  1.
       -2   -1    0    0    0  501  0.00000000000E+00  0.00000000000E+00 -0.53644190311E+03  0.53644190312E+03  0.25500000920E-02 0. -1.
    10030    2    1    2    0    0  0.00000000000E+00  0.00000000000E+00  0.13175601517E+04  0.23904439579E+04  0.19945569840E+04 0.  0.
        2    1    3    3  502    0 -0.22835748591E+03 -0.12301132943E+03  0.18128678582E+04  0.18313297900E+04  0.25500000920E-02 0.  1.
       -2    1    3    3    0  502  0.22835748591E+03  0.12301132943E+03 -0.49530770654E+03  0.55911416786E+03  0.25500000920E-02 0. -1.
</event>
<event>
 5   0  0.1244229E-04  0.1991936E+04  0.7818609E-02  0.8610400E-01
        2   -1    0    0  501    0  0.00000000000E+00  0.00000000000E+00  0.11752311460E+04  0.11752311460E+04  0.25500000920E-02 0.  1.
       -2   -1    0    0    0  501  0.00000000000E+00  0.00000000000E+00 -0.84404847258E+03  0.84404847258E+03  0.25500000920E-02 0. -1.
    10030    2    1    2    0    0  0.00000000000E+00  0.00000000000E+00  0.33118267344E+03  0.20192796186E+04  0.19919357959E+04 0.  0.
        5    1    3    3  502    0  0.14137803697E+03 -0.57125076506E+03 -0.64894011215E+03  0.87604825499E+03  0.46999998093E+01 0. -1.
       -5    1    3    3    0  502 -0.14137803697E+03  0.57125076506E+03  0.98012278559E+03  0.11432313636E+04  0.46999998093E+01 0.  1.
</event>
<event>
 5   0  0.4479000E-05  0.1646655E+04  0.7818609E-02  0.8792388E-01
        4   -1    0    0  501    0  0.00000000000E+00  0.00000000000E+00  0.78464902631E+03  0.78465005409E+03  0.12699999809E+01 0. -1.
       -4   -1    0    0    0  501  0.00000000000E+00  0.00000000000E+00 -0.86391042435E+03  0.86391135783E+03  0.12699999809E+01 0.  1.
    10030    2    1    2    0    0  0.00000000000E+00  0.00000000000E+00 -0.79261398038E+02  0.16485614119E+04  0.16466549000E+04 0.  0.
        1    1    3    3  502    0 -0.62880832334E+03 -0.20162508682E+03  0.45268605194E+03  0.80061054501E+03  0.50400001928E-02 0. -1.
       -1    1    3    3    0  502  0.62880832334E+03  0.20162508682E+03 -0.53194744998E+03  0.84795086692E+03  0.50400001928E-02 0.  1.
</event>
<event>
 5   0  0.6168338E-05  0.1998222E+04  0.7818609E-02  0.8607452E-01
        1   -1    0    0  501    0  0.00000000000E+00  0.00000000000E+00  0.33382381358E+04  0.33382381358E+04  0.50400001928E-02 0. -1.
       -1   -1    0    0    0  501  0.00000000000E+00  0.00000000000E+00 -0.29902692336E+03  0.29902692340E+03  0.50400001928E-02 0.  1.
    10030    2    1    2    0    0  0.00000000000E+00  0.00000000000E+00  0.30392112125E+04  0.36372650592E+04  0.19982222892E+04 0.  0.
        5    1    3    3  502    0 -0.10312918379E+03  0.17706745145E+03 -0.26034665698E+03  0.33134722378E+03  0.46999998093E+01 0.  1.
       -5    1    3    3    0  502  0.10312918379E+03 -0.17706745145E+03  0.32995578695E+04  0.33059178355E+04  0.46999998093E+01 0. -1.
</event>
<event>
 5   0  0.1242761E-04  0.1887899E+04  0.7818609E-02  0.8660904E-01
        2   -1    0    0  501    0  0.00000000000E+00  0.00000000000E+00  0.17295258824E+04  0.17295258824E+04  0.25500000920E-02 0. -1.
       -2   -1    0    0    0  501  0.00000000000E+00  0.00000000000E+00 -0.51519337510E+03  0.51519337511E+03  0.25500000920E-02 0.  1.
    10030    2    1    2    0    0  0.00000000000E+00  0.00000000000E+00  0.12143325073E+04  0.22447192575E+04  0.18878985955E+04 0.  0.
        4    1    3    3  502    0 -0.53274526652E+03  0.36992685591E+03 -0.20829927549E+03  0.68121479637E+03  0.12699999809E+01 0.  1.
       -4    1    3    3    0  502  0.53274526652E+03 -0.36992685591E+03  0.14226317828E+04  0.15635044611E+04  0.12699999809E+01 0. -1.
</event>
<event>
 5   0  0.6214547E-05  0.1980898E+04  0.7818609E-02  0.8615604E-01
        1   -1    0    0  501    0  0.00000000000E+00  0.00000000000E+00  0.19821379934E+04  0.19821379934E+04  0.50400001928E-02 0.  1.
       -1   -1    0    0    0  501  0.00000000000E+00  0.00000000000E+00 -0.49491477875E+03  0.49491477878E+03  0.50400001928E-02 0. -1.
    10030    2    1    2    0    0  0.00000000000E+00  0.00000000000E+00  0.14872232146E+04  0.24770527722E+04  0.19808981665E+04 0.  0.
        3    1    3    3  502    0  0.49125147653E+02 -0.82942358401E+03  0.69479078771E+02  0.83377701722E+03  0.10100000352E+00 0. -1.
       -3    1    3    3    0  502 -0.49125147653E+02  0.82942358401E+03  0.14177441359E+04  0.16432757550E+04  0.10100000352E+00 0.  1.
</event>
<event>
 5   0  0.6222733E-05  0.2023841E+04  0.7818609E-02  0.8595554E-01
       -1   -1    0    0    0  501  0.00000000000E+00  0.00000000000E+00  0.72077515533E+03  0.72077515535E+03  0.50400001928E-02 0.  1.
        1   -1    0    0  501    0  0.00000000000E+00  0.00000000000E+00 -0.14206699128E+04  0.14206699128E+04  0.50400001928E-02 0. -1.
    10030    2    1    2    0    0  0.00000000000E+00  0.00000000000E+00 -0.69989475743E+03  0.21414450681E+04  0.20238414731E+04 0.  0.
        2    1    3    3  502    0  0.91103911057E+03 -0.31975710583E+03 -0.67044565295E+03  0.11754719228E+04  0.25500000920E-02 0. -1.
       -2    1    3    3    0  502 -0.91103911057E+03  0.31975710583E+03 -0.29449104487E+02  0.96597314532E+03  0.25500000920E-02 0.  1.
</event>
<event>
 5   0  0.1281789E-04  0.2000832E+04  0.7818609E-02  0.8606232E-01
        2   -1    0    0  501    0  0.00000000000E+00  0.00000000000E+00  0.85997775298E+03  0.85997775298E+03  0.25500000920E-02 0. -1.
       -2   -1    0    0    0  501  0.00000000000E+00  0.00000000000E+00 -0.11637878837E+04  0.11637878837E+04  0.25500000920E-02 0.  1.
    10030    2    1    2    0    0  0.00000000000E+00  0.00000000000E+00 -0.30381013073E+03  0.20237656367E+04  0.20008315163E+04 0.  0.
        2    1    3    3  502    0 -0.34187349338E+03 -0.47003180795E+03  0.67169130056E+03  0.88824354161E+03  0.25500000920E-02 0. -1.
       -2    1    3    3    0  502  0.34187349338E+03  0.47003180795E+03 -0.97550143129E+03  0.11355220951E+04  0.25500000920E-02 0.  1.
</event>
<event>
 5   0  0.1159914E-04  0.1991383E+04  0.7818609E-02  0.8610660E-01
       -2   -1    0    0    0  501  0.00000000000E+00  0.00000000000E+00  0.96392905423E+03  0.96392905424E+03  0.25500000920E-02 0.  1.
        2   -1    0    0  501    0  0.00000000000E+00  0.00000000000E+00 -0.10285004202E+04  0.10285004202E+04  0.25500000920E-02 0. -1.
    10030    2    1    2    0    0  0.00000000000E+00  0.00000000000E+00 -0.64571365942E+02  0.19924294744E+04  0.19913828736E+04 0.  0.
        3    1    3    3  502    0  0.22019689881E+03  0.17938972073E+03 -0.98711112887E+03  0.10271590612E+04  0.10100000352E+00 0. -1.
       -3    1    3    3    0  502 -0.22019689881E+03 -0.17938972073E+03  0.92253976293E+03  0.96527041317E+03  0.10100000352E+00 0.  1.
</event>
<event>
 5   0  0.6028501E-05  0.1992142E+04  0.7818609E-02  0.8610303E-01
        1   -1    0    0  501    0  0.00000000000E+00  0.00000000000E+00  0.92895267190E+03  0.92895267191E+03  0.50400001928E-02 0.  1.
       -1   -1    0    0    0  501  0.00000000000E+00  0.00000000000E+00 -0.10680389632E+04  0.10680389632E+04  0.50400001928E-02 0. -1.
    10030    2    1    2    0    0  0.00000000000E+00  0.00000000000E+00 -0.13908629131E+03  0.19969916351E+04  0.19921422124E+04 0.  0.
        4    1    3    3  502    0 -0.85928367486E+03  0.45186602078E+03  0.15372014739E+03  0.98294599609E+03  0.12699999809E+01 0.  1.
       -4    1    3    3    0  502  0.85928367486E+03 -0.45186602078E+03 -0.29280643869E+03  0.10140456390E+04  0.12699999809E+01 0. -1.
</event>
<event>
 5   0  0.1159914E-04  0.1983119E+04  0.7818609E-02  0.8614554E-01
        2   -1    0    0  501    0  0.00000000000E+00  0.00000000000E+00  0.11061894923E+04  0.11061894923E+04  0.25500000920E-02 0. -1.
       -2   -1    0    0    0  501  0.00000000000E+00  0.00000000000E+00 -0.88880827484E+03  0.88880827484E+03  0.25500000920E-02 0.  1.
    10030    2    1    2    0    0  0.00000000000E+00  0.00000000000E+00  0.21738121743E+03  0.19949977671E+04  0.19831191334E+04 0.  0.
        3    1    3    3  502    0  0.78371413073E+03  0.30840421320E+03  0.63515055846E+03  0.10548636118E+04  0.10100000352E+00 0. -1.
       -3    1    3    3    0  502 -0.78371413073E+03 -0.30840421320E+03 -0.41776934103E+03  0.94013415529E+03  0.10100000352E+00 0.  1.
</event>
<event>
 5   0  0.6214547E-05  0.2015102E+04  0.7818609E-02  0.8599592E-01
        1   -1    0    0  501    0  0.00000000000E+00  0.00000000000E+00  0.81056130736E+03  0.81056130738E+03  0.50400001928E-02 0. -1.
       -1   -1    0    0    0  501  0.00000000000E+00  0.00000000000E+00 -0.12524154676E+04  0.12524154676E+04  0.50400001928E-02 0.  1.
    10030    2    1    2    0    0  0.00000000000E+00  0.00000000000E+00 -0.44185416023E+03  0.20629767750E+04  0.20151024974E+04 0.  0.
        3    1    3    3  502    0 -0.78894943128E+03  0.58179213376E+03  0.17492484517E+02  0.98042301546E+03  0.10100000352E+00 0.  1.
       -3    1    3    3    0  502  0.78894943128E+03 -0.58179213376E+03 -0.45934664475E+03  0.10825537595E+04  0.10100000352E+00 0. -1.
</event>
<event>
 5   0  0.1281789E-04  0.2001320E+04  0.7818609E-02  0.8606004E-01
       -2   -1    0    0    0  501  0.00000000000E+00  0.00000000000E+00  0.12019698669E+04  0.12019698669E+04  0.25500000920E-02 0.  1.
        2   -1    0    0  501    0  0.00000000000E+00  0.00000000000E+00 -0.83306620545E+03  0.83306620545E+03  0.25500000920E-02 0. -1.
    10030    2    1    2    0    0  0.00000000000E+00  0.00000000000E+00  0.36890366141E+03  0.20350360723E+04  0.20013200404E+04 0.  0.
        2    1    3    3  502    0 -0.20671770277E+03  0.14147020404E+03 -0.80066997217E+03  0.83893887239E+03  0.25500000920E-02 0. -1.
       -2    1    3    3    0  502  0.20671770277E+03 -0.14147020404E+03  0.11695736336E+04  0.11960971999E+04  0.25500000920E-02 0.  1.
</event>
<event>
 5   0  0.1159914E-04  0.1994858E+04  0.7818609E-02  0.8609028E-01
        2   -1    0    0  501    0  0.00000000000E+00  0.00000000000E+00  0.10550599734E+04  0.10550599734E+04  0.25500000920E-02 0.  1.
       -2   -1    0    0    0  501  0.00000000000E+00  0.00000000000E+00 -0.94294602784E+03  0.94294602784E+03  0.25500000920E-02 0. -1.
    10030    2    1    2    0    0  0.00000000000E+00  0.00000000000E+00  0.11211394554E+03  0.19980060012E+04  0.19948580010E+04 0.  0.
        3    1    3    3  502    0  0.11129967181E+03 -0.96780599300E+03  0.27047082043E+03  0.10110343871E+04  0.10100000352E+00 0. -1.
       -3    1    3    3    0  502 -0.11129967181E+03  0.96780599300E+03 -0.15835687490E+03  0.98697161411E+03  0.10100000352E+00 0.  1.
</event>
<event>
 5   0  0.1274868E-04  0.2008556E+04  0.7818609E-02  0.8602631E-01
       -2   -1    0    0    0  501  0.00000000000E+00  0.00000000000E+00  0.53886085463E+03  0.53886085463E+03  0.25500000920E-02 0.  1.
        2   -1    0    0  501    0  0.00000000000E+00  0.00000000000E+00 -0.18716783503E+04  0.18716783503E+04  0.25500000920E-02 0. -1.
    10030    2    1    2    0    0  0.00000000000E+00  0.00000000000E+00 -0.13328174956E+04  0.24105392049E+04  0.20085558946E+04 0.  0.
        1    1    3    3  502    0 -0.12932397265E+03  0.89244383071E+03 -0.11969087006E+04  0.14985897099E+04  0.50400001928E-02 0. -1.
       -1    1    3    3    0  502  0.12932397265E+03 -0.89244383071E+03 -0.13590879501E+03  0.91194949502E+03  0.50400001928E-02 0.  1.
</event>
<event>
 5   0  0.6256535E-05  0.2024261E+04  0.7818609E-02  0.8595361E-01
        1   -1    0    0  501    0  0.00000000000E+00  0.00000000000E+00  0.16218810549E+04  0.16218810549E+04  0.50400001928E-02 0. -1.
       -1   -1    0    0    0  501  0.00000000000E+00  0.00000000000E+00 -0.63161761821E+03  0.63161761823E+03  0.50400001928E-02 0.  1.
    10030    2    1    2    0    0  0.00000000000E+00  0.00000000000E+00  0.99026343668E+03  0.22534986731E+04  0.20242614939E+04 0.  0.
        1    1    3    3  502    0 -0.27837274523E+03 -0.87993807961E+03  0.32597254446E+02  0.92349606943E+03  0.50400001928E-02 0.  1.
       -1    1    3    3    0  502  0.27837274523E+03  0.87993807961E+03  0.95766618223E+03  0.13300026037E+04  0.50400001928E-02 0. -1.
</event>
<event>
 5   0  0.1159914E-04  0.2010699E+04  0.7818609E-02  0.8601635E-01
        2   -1    0    0  501    0  0.00000000000E+00  0.00000000000E+00  0.58235391343E+03  0.58235391343E+03  0.25500000920E-02 0. -1.
       -2   -1    0    0    0  501  0.00000000000E+00  0.00000000000E+00 -0.17355904446E+04  0.17355904446E+04  0.25500000920E-02 0.  1.
    10030    2    1    2    0    0  0.00000000000E+00  0.00000000000E+00 -0.11532365312E+04  0.23179443581E+04  0.20106992690E+04 0.  0.
        3    1    3    3  502    0 -0.84638409006E+03  0.51869289478E+03 -0.39318262978E+03  0.10677082643E+04  0.10100000352E+00 0.  1.
       -3    1    3    3    0  502  0.84638409006E+03 -0.51869289478E+03 -0.76005390143E+03  0.12502360938E+04  0.10100000352E+00 0. -1.
</event>
<event>
 5   0  0.6028501E-05  0.1992269E+04  0.7818609E-02  0.8610244E-01
       -1   -1    0    0    0  501  0.00000000000E+00  0.00000000000E+00  0.81976863281E+03  0.81976863282E+03  0.50400001928E-02 0.  1.
        1   -1    0    0  501    0  0.00000000000E+00  0.00000000000E+00 -0.12104443490E+04  0.12104443490E+04  0.50400001928E-02 0. -1.
    10030    2    1    2    0    0  0.00000000000E+00  0.00000000000E+00 -0.39067571621E+03  0.20302129819E+04  0.19922693684E+04 0.  0.
        4    1    3    3  502    0 -0.53708301048E+03  0.14256285981E+03 -0.10378242969E+04  0.11772269166E+04  0.12699999809E+01 0. -1.
       -4    1    3    3    0  502  0.53708301048E+03 -0.14256285981E+03  0.64714858065E+03  0.85298606524E+03  0.12699999809E+01 0.  1.
</event>
<event>
 5   0  0.1244229E-04  0.1958765E+04  0.7818609E-02  0.8626146E-01
       -2   -1    0    0    0  501  0.00000000000E+00  0.00000000000E+00  0.16600476661E+04  0.16600476661E+04  0.25500000920E-02 0. -1.
        2   -1    0    0  501    0  0.00000000000E+00  0.00000000000E+00 -0.57780860600E+03  0.57780860600E+03  0.25500000920E-02 0.  1.
    10030    2    1    2    0    0  0.00000000000E+00  0.00000000000E+00  0.10822390601E+04  0.22378562721E+04  0.19587647412E+04 0.  0.
        5    1    3    3  502    0  0.33025948098E+03  0.86069765348E+03  0.16341519311E+03  0.93626833270E+03  0.46999998093E+01 0.  1.
       -5    1    3    3    0  502 -0.33025948098E+03 -0.86069765348E+03  0.91882386701E+03  0.13015879394E+04  0.46999998093E+01 0. -1.
</event>
<event>
 5   0  0.6028501E-05  0.1987096E+04  0.7818609E-02  0.8612678E-01
       -1   -1    0    0    0  501  0.00000000000E+00  0.00000000000E+00  0.49004982835E+03  0.49004982838E+03  0.50400001928E-02 0. -1.
        1   -1    0    0  501    0  0.00000000000E+00  0.00000000000E+00 -0.20143618935E+04  0.20143618935E+04  0.50400001928E-02 0.  1.
    10030    2    1    2    0    0  0.00000000000E+00  0.00000000000E+00 -0.15243120652E+04  0.25044117219E+04  0.19870960724E+04 0.  0.
        4    1    3    3  502    0 -0.87508542760E+03 -0.20981640905E+03 -0.12929042809E+04  0.15752461787E+04  0.12699999809E+01 0. -1.
       -4    1    3    3    0  502  0.87508542760E+03  0.20981640905E+03 -0.23140778425E+03  0.92916554317E+03  0.12699999809E+01 0.  1.
</event>
<event>
 5   0  0.6214547E-05  0.1954457E+04  0.7818609E-02  0.8628214E-01
       -1   -1    0    0    0  501  0.00000000000E+00  0.00000000000E+00  0.13732538696E+04  0.13732538696E+04  0.50400001928E-02 0. -1.
        1   -1    0    0  501    0  0.00000000000E+00  0.00000000000E+00 -0.69541104898E+03  0.69541104900E+03  0.50400001928E-02 0.  1.
    10030    2    1    2    0    0  0.00000000000E+00  0.00000000000E+00  0.67784282065E+03  0.20686649186E+04  0.19544573815E+04 0.  0.
        3    1    3    3  502    0 -0.34459185606E+03  0.32429088462E+02  0.13062057854E+04  0.13512841141E+04  0.10100000352E+00 0. -1.
       -3    1    3    3    0  502  0.34459185606E+03 -0.32429088462E+02 -0.62836296475E+03  0.71738080453E+03  0.10100000352E+00 0.  1.
</event>
<event>
 5   0  0.1274868E-04  0.1996672E+04  0.7818609E-02  0.8608178E-01
       -2   -1    0    0    0  501  0.00000000000E+00  0.00000000000E+00  0.75309362094E+03  0.75309362094E+03  0.25500000920E-02 0.  1.
        2   -1    0    0  501    0  0.00000000000E+00  0.00000000000E+00 -0.13234412916E+04  0.13234412916E+04  0.25500000920E-02 0. -1.
    10030    2    1    2    0    0  0.00000000000E+00  0.00000000000E+00 -0.57034767067E+03  0.20765349125E+04  0.19966724262E+04 0.  0.
        1    1    3    3  502    0 -0.35570891624E+03  0.50290275935E+03 -0.11022409869E+04  0.12626857138E+04  0.50400001928E-02 0. -1.
       -1    1    3    3    0  502  0.35570891624E+03 -0.50290275935E+03  0.53189331626E+03  0.81384919878E+03  0.50400001928E-02 0.  1.
</event>
<event>
 5   0  0.1242761E-04  0.2003055E+04  0.7818609E-02  0.8605194E-01
       -2   -1    0    0    0  501  0.00000000000E+00  0.00000000000E+00  0.12349901349E+04  0.12349901349E+04  0.25500000920E-02 0.  1.
        2   -1    0    0  501    0  0.00000000000E+00  0.00000000000E+00 -0.81219894025E+03  0.81219894026E+03  0.25500000920E-02 0. -1.
    10030    2    1    2    0    0  0.00000000000E+00  0.00000000000E+00  0.42279119461E+03  0.20471890751E+04  0.20030553450E+04 0.  0.
        4    1    3    3  502    0  0.48565977483E+03  0.84262676508E+03  0.45576795508E+03  0.10740629981E+04  0.12699999809E+01 0.  1.
       -4    1    3    3    0  502 -0.48565977483E+03 -0.84262676508E+03 -0.32976760469E+02  0.97312607701E+03  0.12699999809E+01 0. -1.
</event>
<event>
 5   0  0.1159914E-04  0.1997843E+04  0.7818609E-02  0.8607630E-01
       -2   -1    0    0    0  501  0.00000000000E+00  0.00000000000E+00  0.33008688598E+03  0.33008688599E+03  0.25500000920E-02 0. -1.
        2   -1    0    0  501    0  0.00000000000E+00  0.00000000000E+00 -0.30229729915E+04  0.30229729915E+04  0.25500000920E-02 0.  1.
    10030    2    1    2    0    0  0.00000000000E+00  0.00000000000E+00 -0.26928861055E+04  0.33530598775E+04  0.19978425776E+04 0.  0.
        3    1    3    3  502    0  0.19466931646E+03  0.97525009055E+03 -0.15041967739E+04  0.18032240090E+04  0.10100000352E+00 0.  1.
       -3    1    3    3    0  502 -0.19466931646E+03 -0.97525009055E+03 -0.11886893316E+04  0.15498358685E+04  0.10100000352E+00 0. -1.
</event>
<event>
 5   0  0.6028501E-05  0.2000561E+04  0.7818609E-02  0.8606358E-01
        1   -1    0    0  501    0  0.00000000000E+00  0.00000000000E+00  0.29228158274E+04  0.29228158274E+04  0.50400001928E-02 0.  1.
       -1   -1    0    0    0  501  0.00000000000E+00  0.00000000000E+00 -0.34232783620E+03  0.34232783624E+03  0.50400001928E-02 0. -1.
    10030    2    1    2    0    0  0.00000000000E+00  0.00000000000E+00  0.25804879912E+04  0.32651436636E+04  0.20005611391E+04 0.  0.
        4    1    3    3  502    0  0.12837762238E+03 -0.24171622205E+03  0.28605140622E+04  0.28735778846E+04  0.12699999809E+01 0.  1.
       -4    1    3    3    0  502 -0.12837762238E+03  0.24171622205E+03 -0.28002607103E+03  0.39156577900E+03  0.12699999809E+01 0. -1.
</event>
<event>
 5   0  0.6222733E-05  0.2001949E+04  0.7818609E-02  0.8605710E-01
       -1   -1    0    0    0  501  0.00000000000E+00  0.00000000000E+00  0.82907918170E+03  0.82907918171E+03  0.50400001928E-02 0. -1.
        1   -1    0    0  501    0  0.00000000000E+00  0.00000000000E+00 -0.12085094151E+04  0.12085094151E+04  0.50400001928E-02 0.  1.
    10030    2    1    2    0    0  0.00000000000E+00  0.00000000000E+00 -0.37943023344E+03  0.20375885969E+04  0.20019490473E+04 0.  0.
        2    1    3    3  502    0  0.53661553605E+03  0.26630556981E+03  0.62648063693E+03  0.86680613663E+03  0.25500000920E-02 0. -1.
       -2    1    3    3    0  502 -0.53661553605E+03 -0.26630556981E+03 -0.10059108704E+04  0.11707824602E+04  0.25500000920E-02 0.  1.
</event>
<event>
 5   0  0.1244229E-04  0.2007359E+04  0.7818609E-02  0.8603188E-01
       -2   -1    0    0    0  501  0.00000000000E+00  0.00000000000E+00  0.55825106757E+03  0.55825106757E+03  0.25500000920E-02 0. -1.
        2   -1    0    0  501    0  0.00000000000E+00  0.00000000000E+00 -0.18045145205E+04  0.18045145205E+04  0.25500000920E-02 0.  1.
    10030    2    1    2    0    0  0.00000000000E+00  0.00000000000E+00 -0.12462634529E+04  0.23627655880E+04  0.20073586202E+04 0.  0.
        5    1    3    3  502    0 -0.57429698342E+03  0.72085884582E+03 -0.15541743765E+03  0.93468239027E+03  0.46999998093E+01 0.  1.
       -5    1    3    3    0  502  0.57429698342E+03 -0.72085884582E+03 -0.10908460152E+04  0.14280831978E+04  0.46999998093E+01 0. -1.
</event>
<event>
 5   0  0.6256535E-05  0.2006117E+04  0.7818609E-02  0.8603766E-01
       -1   -1    0    0    0  501  0.00000000000E+00  0.00000000000E+00  0.68502037871E+03  0.68502037872E+03  0.50400001928E-02 0. -1.
        1   -1    0    0  501    0  0.00000000000E+00  0.00000000000E+00 -0.14687540567E+04  0.14687540567E+04  0.50400001928E-02 0.  1.
    10030    2    1    2    0    0  0.00000000000E+00  0.00000000000E+00 -0.78373367799E+03  0.21537744354E+04  0.20061171054E+04 0.  0.
        1    1    3    3  502    0 -0.18990794007E+03  0.34920125725E+03 -0.13805851279E+04  0.14366704004E+04  0.50400001928E-02 0.  1.
       -1    1    3    3    0  502  0.18990794007E+03 -0.34920125725E+03  0.59685144995E+03  0.71710403506E+03  0.50400001928E-02 0. -1.
</event>
<event>
 5   0  0.1159914E-04  0.2003474E+04  0.7818609E-02  0.8604998E-01
        2   -1    0    0  501    0  0.00000000000E+00  0.00000000000E+00  0.87405393305E+03  0.87405393305E+03  0.25500000920E-02 0. -1.
       -2   -1    0    0    0  501  0.00000000000E+00  0.00000000000E+00 -0.11480726099E+04  0.11480726099E+04  0.25500000920E-02 0.  1.
    10030    2    1    2    0    0  0.00000000000E+00  0.00000000000E+00 -0.27401867684E+03  0.20221265429E+04  0.20034743623E+04 0.  0.
        3    1    3    3  502    0 -0.31564859904E+03  0.91330606125E+03  0.12948550494E+03  0.97495051453E+03  0.10100000352E+00 0. -1.
       -3    1    3    3    0  502  0.31564859904E+03 -0.91330606125E+03 -0.40350418177E+03  0.10471760284E+04  0.10100000352E+00 0.  1.
</event>
<event>
 5   0  0.6222733E-05  0.2006915E+04  0.7818609E-02  0.8603394E-01
        1   -1    0    0  501    0  0.00000000000E+00  0.00000000000E+00  0.14463754611E+04  0.14463754611E+04  0.50400001928E-02 0.  1.
       -1   -1    0    0    0  501  0.00000000000E+00  0.00000000000E+00 -0.69617281790E+03  0.69617281792E+03  0.50400001928E-02 0. -1.
    10030    2    1    2    0    0  0.00000000000E+00  0.00000000000E+00  0.75020264323E+03  0.21425482791E+04  0.20069153251E+04 0.  0.
        2    1    3    3  502    0 -0.30882191701E+03  0.26471552320E+03  0.13544198736E+04  0.14141776687E+04  0.25500000920E-02 0.  1.
       -2    1    3    3    0  502  0.30882191701E+03 -0.26471552320E+03 -0.60421723033E+03  0.72837061039E+03  0.25500000920E-02 0. -1.
</event>
<event>
 5   0  0.6028501E-05  0.1996414E+04  0.7818609E-02  0.8608299E-01
       -1   -1    0    0    0  501  0.00000000000E+00  0.00000000000E+00  0.89265930283E+03  0.89265930284E+03  0.50400001928E-02 0. -1.
        1   -1    0    0  501    0  0.00000000000E+00  0.00000000000E+00 -0.11162350009E+04  0.11162350009E+04  0.50400001928E-02 0.  1.
    10030    2    1    2    0    0  0.00000000000E+00  0.00000000000E+00 -0.22357569806E+03  0.20088943037E+04  0.19964143435E+04 0.  0.
        4    1    3    3  502    0 -0.98600108494E+03  0.96452076744E+02 -0.23467745592E+03  0.10181238941E+04  0.12699999809E+01 0. -1.
       -4    1    3    3    0  502  0.98600108494E+03 -0.96452076744E+02  0.11101757862E+02  0.99077040960E+03  0.12699999809E+01 0.  1.
</event>
<event>
 5   0  0.4479000E-05  0.2025724E+04  0.7818609E-02  0.8594687E-01
        3   -1    0    0  501    0  0.00000000000E+00  0.00000000000E+00  0.14428350404E+04  0.14428350439E+04  0.10100000352E+00 0.  1.
       -3   -1    0    0    0  501  0.00000000000E+00  0.00000000000E+00 -0.71102365560E+03  0.71102366278E+03  0.10100000352E+00 0. -1.
    10030    2    1    2    0    0  0.00000000000E+00  0.00000000000E+00  0.73181138476E+03  0.21538587067E+04  0.20257244199E+04 0.  0.
        1    1    3    3  502    0 -0.60267166842E+03 -0.43736178539E+03  0.10959137727E+04  0.13249624404E+04  0.50400001928E-02 0.  1.
       -1    1    3    3    0  502  0.60267166842E+03  0.43736178539E+03 -0.36410238798E+03  0.82889626624E+03  0.50400001928E-02 0. -1.
</event>
<event>
 5   0  0.1242761E-04  0.1960486E+04  0.7818609E-02  0.8625321E-01
       -2   -1    0    0    0  501  0.00000000000E+00  0.00000000000E+00  0.74482874022E+03  0.74482874022E+03  0.25500000920E-02 0.  1.
        2   -1    0    0  501    0  0.00000000000E+00  0.00000000000E+00 -0.12900641124E+04  0.12900641124E+04  0.25500000920E-02 0. -1.
    10030    2    1    2    0    0  0.00000000000E+00  0.00000000000E+00 -0.54523537217E+03  0.20348928526E+04  0.19604864984E+04 0.  0.
        4    1    3    3  502    0 -0.35021820266E+03  0.54350085614E+02  0.67599895863E+03  0.76327120098E+03  0.12699999809E+01 0.  1.
       -4    1    3    3    0  502  0.35021820266E+03 -0.54350085614E+02 -0.12212343308E+04  0.12716216516E+04  0.12699999809E+01 0. -1.
</event>
<event>
 5   0  0.6168338E-05  0.2001760E+04  0.7818609E-02  0.8605798E-01
       -1   -1    0    0    0  501  0.00000000000E+00  0.00000000000E+00  0.77815471983E+03  0.77815471984E+03  0.50400001928E-02 0.  1.
        1   -1    0    0  501    0  0.00000000000E+00  0.00000000000E+00 -0.12873548553E+04  0.12873548553E+04  0.50400001928E-02 0. -1.
    10030    2    1    2    0    0  0.00000000000E+00  0.00000000000E+00 -0.50920013542E+03  0.20655095751E+04  0.20017604819E+04 0.  0.
        5    1    3    3  502    0  0.28105317939E+03 -0.57220750750E+03  0.54154614727E+03  0.83648469257E+03  0.46999998093E+01 0.  1.
       -5    1    3    3    0  502 -0.28105317939E+03  0.57220750750E+03 -0.10507462827E+04  0.12290248825E+04  0.46999998093E+01 0. -1.
</event>
<event>
 5   0  0.1281789E-04  0.1988072E+04  0.7818609E-02  0.8612218E-01
        2   -1    0    0  501    0  0.00000000000E+00  0.00000000000E+00  0.18474986624E+04  0.18474986624E+04  0.25500000920E-02 0.  1.
       -2   -1    0    0    0  501  0.00000000000E+00  0.00000000000E+00 -0.53483540107E+03  0.53483540108E+03  0.25500000920E-02 0. -1.
    10030    2    1    2    0    0  0.00000000000E+00  0.00000000000E+00  0.13126632614E+04  0.23823340635E+04  0.19880721195E+04 0.  0.
        2    1    3    3  502    0  0.20254242013E+03  0.84867287497E+03  0.12270594102E+04  0.15056373657E+04  0.25500000920E-02 0.  1.
       -2    1    3    3    0  502 -0.20254242013E+03 -0.84867287497E+03  0.85603851121E+02  0.87669669783E+03  0.25500000920E-02 0. -1.
</event>
<event>
 5   0  0.6222733E-05  0.2046086E+04  0.7818609E-02  0.8585372E-01
        1   -1    0    0  501    0  0.00000000000E+00  0.00000000000E+00  0.22109598768E+04  0.22109598768E+04  0.50400001928E-02 0. -1.
       -1   -1    0    0    0  501  0.00000000000E+00  0.00000000000E+00 -0.47337691700E+03  0.47337691703E+03  0.50400001928E-02 0.  1.
    10030    2    1    2    0    0  0.00000000000E+00  0.00000000000E+00  0.17375829598E+04  0.26843367938E+04  0.20460863815E+04 0.  0.
        2    1    3    3  502    0 -0.44132892486E+03 -0.92067302422E+03  0.95388891438E+03  0.13972523389E+04  0.25500000920E-02 0. -1.
       -2    1    3    3    0  502  0.44132892486E+03  0.92067302422E+03  0.78369404542E+03  0.12870844550E+04  0.25500000920E-02 0.  1.
</event>
<event>
 5   0  0.6256535E-05  0.1808537E+04  0.7818609E-02  0.8701773E-01
        1   -1    0    0  501    0  0.00000000000E+00  0.00000000000E+00  0.17261124222E+04  0.17261124222E+04  0.50400001928E-02 0. -1.
       -1   -1    0    0    0  501  0.00000000000E+00  0.00000000000E+00 -0.47372447602E+03  0.47372447605E+03  0.50400001928E-02 0.  1.
    10030    2    1    2    0    0  0.00000000000E+00  0.00000000000E+00  0.12523879462E+04  0.21998368982E+04  0.18085372020E+04 0.  0.
        1    1    3    3  502    0 -0.56044008308E+03  0.20252155614E+03  0.14534936641E+04  0.15709079855E+04  0.50400001928E-02 0. -1.
       -1    1    3    3    0  502  0.56044008308E+03 -0.20252155614E+03 -0.20110571793E+03  0.62892891271E+03  0.50400001928E-02 0.  1.
</event>
<event>
 5   0  0.1281789E-04  0.1931446E+04  0.7818609E-02  0.8639360E-01
       -2   -1    0    0    0  501  0.00000000000E+00  0.00000000000E+00  0.61667727026E+03  0.61667727027E+03  0.25500000920E-02 0.  1.
        2   -1    0    0  501    0  0.00000000000E+00  0.00000000000E+00 -0.15123328672E+04  0.15123328672E+04  0.25500000920E-02 0. -1.
    10030    2    1    2    0    0  0.00000000000E+00  0.00000000000E+00 -0.89565559693E+03  0.21290101375E+04  0.19314464054E+04 0.  0.
        2    1    3    3  502    0 -0.67258652652E+03  0.86102530382E+02  0.31013848314E+03  0.74563540697E+03  0.25500000920E-02 0.  1.
       -2    1    3    3    0  502  0.67258652652E+03 -0.86102530382E+02 -0.12057940801E+04  0.13833747305E+04  0.25500000920E-02 0. -1.
</event>
<event>
 5   0  0.1274868E-04  0.1983644E+04  0.7818609E-02  0.8614306E-01
       -2   -1    0    0    0  501  0.00000000000E+00  0.00000000000E+00  0.10141197820E+04  0.10141197820E+04  0.25500000920E-02 0.  1.
        2   -1    0    0  501    0  0.00000000000E+00  0.00000000000E+00 -0.97001455238E+03  0.97001455239E+03  0.25500000920E-02 0. -1.
    10030    2    1    2    0    0  0.00000000000E+00  0.00000000000E+00  0.44105229588E+02  0.19841343344E+04  0.19836440672E+04 0.  0.
        1    1    3    3  502    0  0.22152565960E+03  0.96068784907E+03 -0.86215465797E+02  0.98966048106E+03  0.50400001928E-02 0. -1.
       -1    1    3    3    0  502 -0.22152565960E+03 -0.96068784907E+03  0.13032069539E+03  0.99447385329E+03  0.50400001928E-02 0.  1.
</event>
<event>
 5   0  0.6222733E-05  0.1995104E+04  0.7818609E-02  0.8608913E-01
        1   -1    0    0  501    0  0.00000000000E+00  0.00000000000E+00  0.13297924555E+04  0.13297924555E+04  0.50400001928E-02 0.  1.
       -1   -1    0    0    0  501  0.00000000000E+00  0.00000000000E+00 -0.74831972073E+03  0.74831972075E+03  0.50400001928E-02 0. -1.
    10030    2    1    2    0    0  0.00000000000E+00  0.00000000000E+00  0.58147273481E+03  0.20781121763E+04  0.19951039261E+04 0.  0.
        2    1    3    3  502    0  0.45932581753E+03  0.29735197531E+03  0.11595328613E+04  0.12821524325E+04  0.25500000920E-02 0.  1.
       -2    1    3    3    0  502 -0.45932581753E+03 -0.29735197531E+03 -0.57806012647E+03  0.79595974376E+03  0.25500000920E-02 0. -1.
</event>
<event>
 5   0  0.6256535E-05  0.2020256E+04  0.7818609E-02  0.8597209E-01
       -1   -1    0    0    0  501  0.00000000000E+00  0.00000000000E+00  0.67811447273E+03  0.67811447274E+03  0.50400001928E-02 0.  1.
        1   -1    0    0  501    0  0.00000000000E+00  0.00000000000E+00 -0.15046991472E+04  0.15046991472E+04  0.50400001928E-02 0. -1.
    10030    2    1    2    0    0  0.00000000000E+00  0.00000000000E+00 -0.82658467448E+03  0.21828136200E+04  0.20202556955E+04 0.  0.
        1    1    3    3  502    0  0.14453954522E+03  0.74460763218E+03  0.30748817841E+03  0.81846269672E+03  0.50400001928E-02 0.  1.
       -1    1    3    3    0  502 -0.14453954522E+03 -0.74460763218E+03 -0.11340728529E+04  0.13643509232E+04  0.50400001928E-02 0. -1.
</event>
<event>
 5   0  0.6028501E-05  0.1972555E+04  0.7818609E-02  0.8619561E-01
        1   -1    0    0  501    0  0.00000000000E+00  0.00000000000E+00  0.18637785727E+04  0.18637785727E+04  0.50400001928E-02 0. -1.
       -1   -1    0    0    0  501  0.00000000000E+00  0.00000000000E+00 -0.52191993958E+03  0.52191993961E+03  0.50400001928E-02 0.  1.
    10030    2    1    2    0    0  0.00000000000E+00  0.00000000000E+00  0.13418586331E+04  0.23856985123E+04  0.19725548916E+04 0.  0.
        4    1    3    3  502    0 -0.61232427060E+03  0.75774642281E+03  0.48504832044E+03  0.10882987364E+04  0.12699999809E+01 0. -1.
       -4    1    3    3    0  502  0.61232427060E+03 -0.75774642281E+03  0.85681031266E+03  0.12973997759E+04  0.12699999809E+01 0.  1.
</event>
<event>
 5   0  0.1242761E-04  0.1998872E+04  0.7818609E-02  0.8607148E-01
       -2   -1    0    0    0  501  0.00000000000E+00  0.00000000000E+00  0.10275757548E+04  0.10275757548E+04  0.25500000920E-02 0. -1.
        2   -1    0    0  501    0  0.00000000000E+00  0.00000000000E+00 -0.97206732666E+03  0.97206732666E+03  0.25500000920E-02 0.  1.
    10030    2    1    2    0    0  0.00000000000E+00  0.00000000000E+00  0.55508428189E+02  0.19996430815E+04  0.19988724991E+04 0.  0.
        4    1    3    3  502    0 -0.61159979435E+02  0.52791479921E+03 -0.81899788485E+03  0.97631640701E+03  0.12699999809E+01 0.  1.
       -4    1    3    3    0  502  0.61159979435E+02 -0.52791479921E+03  0.87450631304E+03  0.10233266745E+04  0.12699999809E+01 0. -1.
</event>
<event>
 5   0  0.6214547E-05  0.1977498E+04  0.7818609E-02  0.8617214E-01
       -1   -1    0    0    0  501  0.00000000000E+00  0.00000000000E+00  0.95781540084E+03  0.95781540085E+03  0.50400001928E-02 0. -1.
        1   -1    0    0  501    0  0.00000000000E+00  0.00000000000E+00 -0.10206818465E+04  0.10206818465E+04  0.50400001928E-02 0.  1.
    10030    2    1    2    0    0  0.00000000000E+00  0.00000000000E+00 -0.62866445674E+02  0.19784972474E+04  0.19774982093E+04 0.  0.
        3    1    3    3  502    0  0.58596285683E+02  0.80266581552E+03  0.54324258304E+03  0.97098838836E+03  0.10100000352E+00 0. -1.
       -3    1    3    3    0  502 -0.58596285683E+02 -0.80266581552E+03 -0.60610902871E+03  0.10075088590E+04  0.10100000352E+00 0.  1.
</event>
<event>
 5   0  0.6256535E-05  0.1988945E+04  0.7818609E-02  0.8611807E-01
       -1   -1    0    0    0  501  0.00000000000E+00  0.00000000000E+00  0.81026223752E+03  0.81026223754E+03  0.50400001928E-02 0. -1.
        1   -1    0    0  501    0  0.00000000000E+00  0.00000000000E+00 -0.12205618789E+04  0.12205618790E+04  0.50400001928E-02 0.  1.
    10030    2    1    2    0    0  0.00000000000E+00  0.00000000000E+00 -0.41029964142E+03  0.20308241165E+04  0.19889446439E+04 0.  0.
        1    1    3    3  502    0 -0.79083864657E+03 -0.49535513394E+03  0.14585108895E+03  0.94449722805E+03  0.50400001928E-02 0. -1.
       -1    1    3    3    0  502  0.79083864657E+03  0.49535513394E+03 -0.55615073037E+03  0.10863268884E+04  0.50400001928E-02 0.  1.
</event>
<event>
 5   0  0.6256535E-05  0.2003080E+04  0.7818609E-02  0.8605182E-01
        1   -1    0    0  501    0  0.00000000000E+00  0.00000000000E+00  0.22124101771E+04  0.22124101772E+04  0.50400001928E-02 0.  1.
       -1   -1    0    0    0  501  0.00000000000E+00  0.00000000000E+00 -0.45338906400E+03  0.45338906403E+03  0.50400001928E-02 0. -1.
    10030    2    1    2    0    0  0.00000000000E+00  0.00000000000E+00  0.17590211132E+04  0.26657992412E+04  0.20030802075E+04 0.  0.
        1    1    3    3  502    0 -0.55776269270E+03 -0.29145455070E+03 -0.15738949823E+03  0.64870365397E+03  0.50400001928E-02 0. -1.
       -1    1    3    3    0  502  0.55776269270E+03  0.29145455070E+03  0.19164106114E+04  0.20170955872E+04  0.50400001928E-02 0.  1.
</event>
<event>
 5   0  0.1242761E-04  0.2025605E+04  0.7818609E-02  0.8594742E-01
       -2   -1    0    0    0  501  0.00000000000E+00  0.00000000000E+00  0.75363680214E+03  0.75363680215E+03  0.25500000920E-02 0.  1.
        2   -1    0    0  501    0  0.00000000000E+00  0.00000000000E+00 -0.13610917721E+04  0.13610917721E+04  0.25500000920E-02 0. -1.
    10030    2    1    2    0    0  0.00000000000E+00  0.00000000000E+00 -0.60745496997E+03  0.21147285743E+04  0.20256049472E+04 0.  0.
        4    1    3    3  502    0  0.96738900830E+02  0.80630460246E+03  0.32811307525E+03  0.87586832911E+03  0.12699999809E+01 0. -1.
       -4    1    3    3    0  502 -0.96738900830E+02 -0.80630460246E+03 -0.93556804521E+03  0.12388602451E+04  0.12699999809E+01 0.  1.
</event>
<event>
 5   0  0.1159914E-04  0.1986380E+04  0.7818609E-02  0.8613015E-01
        2   -1    0    0  501    0  0.00000000000E+00  0.00000000000E+00  0.96489953757E+03  0.96489953757E+03  0.25500000920E-02 0. -1.
       -2   -1    0    0    0  501  0.00000000000E+00  0.00000000000E+00 -0.10223101429E+04  0.10223101429E+04  0.25500000920E-02 0.  1.
    10030    2    1    2    0    0  0.00000000000E+00  0.00000000000E+00 -0.57410605360E+02  0.19872096805E+04  0.19863802095E+04 0.  0.
        3    1    3    3  502    0 -0.41113392723E+02  0.64121050727E+03  0.72896512890E+03  0.97171569661E+03  0.10100000352E+00 0. -1.
       -3    1    3    3    0  502  0.41113392723E+02 -0.64121050727E+03 -0.78637573426E+03  0.10154939839E+04  0.10100000352E+00 0.  1.
</event>
<event>
 5   0  0.1244229E-04  0.1991179E+04  0.7818609E-02  0.8610756E-01
       -2   -1    0    0    0  501  0.00000000000E+00  0.00000000000E+00  0.52421546094E+03  0.52421546094E+03  0.25500000920E-02 0. -1.
        2   -1    0    0  501    0  0.00000000000E+00  0.00000000000E+00 -0.18908223450E+04  0.18908223450E+04  0.25500000920E-02 0.  1.
    10030    2    1    2    0    0  0.00000000000E+00  0.00000000000E+00 -0.13666068841E+04  0.24150378060E+04  0.19911788540E+04 0.  0.
        5    1    3    3  502    0 -0.28245009055E+03 -0.53208099902E+03  0.27807202594E+03  0.66350160872E+03  0.46999998093E+01 0. -1.
       -5    1    3    3    0  502  0.28245009055E+03  0.53208099902E+03 -0.16446789100E+04  0.17515361972E+04  0.46999998093E+01 0.  1.
</event>
<event>
 5   0  0.1159914E-04  0.2002500E+04  0.7818609E-02  0.8605453E-01
        2   -1    0    0  501    0  0.00000000000E+00  0.00000000000E+00  0.15730376023E+04  0.15730376023E+04  0.25500000920E-02 0. -1.
       -2   -1    0    0    0  501  0.00000000000E+00  0.00000000000E+00 -0.63730320459E+03  0.63730320460E+03  0.25500000920E-02 0.  1.
    10030    2    1    2    0    0  0.00000000000E+00  0.00000000000E+00  0.93573439767E+03  0.22103408069E+04  0.20025003419E+04 0.  0.
        3    1    3    3  502    0  0.90603890394E+03 -0.42572484467E+03  0.48862772979E+03  0.11139592485E+04  0.10100000352E+00 0. -1.
       -3    1    3    3    0  502 -0.90603890394E+03  0.42572484467E+03  0.44710666788E+03  0.10963815583E+04  0.10100000352E+00 0.  1.
</event>
<event>
 5   0  0.6168338E-05  0.1991230E+04  0.7818609E-02  0.8610732E-01
        1   -1    0    0  501    0  0.00000000000E+00  0.00000000000E+00  0.17678794346E+04  0.17678794346E+04  0.50400001928E-02 0. -1.
       -1   -1    0    0    0  501  0.00000000000E+00  0.00000000000E+00 -0.56069941647E+03  0.56069941649E+03  0.50400001928E-02 0.  1.
    10030    2    1    2    0    0  0.00000000000E+00  0.00000000000E+00  0.12071800181E+04  0.23285788511E+04  0.19912297380E+04 0.  0.
        5    1    3    3  502    0 -0.56429953648E+03 -0.24829444294E+03 -0.31060936978E+03  0.69035090198E+03  0.46999998093E+01 0.  1.
       -5    1    3    3    0  502  0.56429953648E+03  0.24829444294E+03  0.15177893879E+04  0.16382279491E+04  0.46999998093E+01 0. -1.
</event>
<event>
 5   0  0.1244229E-04  0.2003729E+04  0.7818609E-02  0.8604879E-01
        2   -1    0    0  501    0  0.00000000000E+00  0.00000000000E+00  0.20375890160E+04  0.20375890160E+04  0.25500000920E-02 0.  1.
       -2   -1    0    0    0  501  0.00000000000E+00  0.00000000000E+00 -0.49260771149E+03  0.49260771150E+03  0.25500000920E-02 0. -1.
    10030    2    1    2    0    0  0.00000000000E+00  0.00000000000E+00  0.15449813045E+04  0.25301967275E+04  0.20037285865E+04 0.  0.
        5    1    3    3  502    0 -0.42940655551E+03  0.33094701791E+03 -0.29136222831E+03  0.61549163817E+03  0.46999998093E+01 0. -1.
       -5    1    3    3    0  502  0.42940655551E+03 -0.33094701791E+03  0.18363435328E+04  0.19147050893E+04  0.46999998093E+01 0.  1.
</event>
<event>
 5   0  0.1281789E-04  0.1992015E+04  0.7818609E-02  0.8610363E-01
        2   -1    0    0  501    0  0.00000000000E+00  0.00000000000E+00  0.57569528106E+03  0.57569528107E+03  0.25500000920E-02 0.  1.
       -2   -1    0    0    0  501  0.00000000000E+00  0.00000000000E+00 -0.17231869497E+04  0.17231869497E+04  0.25500000920E-02 0. -1.
    10030    2    1    2    0    0  0.00000000000E+00  0.00000000000E+00 -0.11474916686E+04  0.22988822308E+04  0.19920146539E+04 0.  0.
        2    1    3    3  502    0  0.51549790848E+03 -0.29844635949E+03 -0.14949792188E+04  0.16092766039E+04  0.25500000920E-02 0. -1.
       -2    1    3    3    0  502 -0.51549790848E+03  0.29844635949E+03  0.34748755015E+03  0.68960562690E+03  0.25500000920E-02 0.  1.
</event>
<event>
 5   0  0.1244229E-04  0.2026774E+04  0.7818609E-02  0.8594204E-01
       -2   -1    0    0    0  501  0.00000000000E+00  0.00000000000E+00  0.94657331671E+03  0.94657331672E+03  0.25500000920E-02 0.  1.
        2   -1    0    0  501    0  0.00000000000E+00  0.00000000000E+00 -0.10849171274E+04  0.10849171274E+04  0.25500000920E-02 0. -1.
    10030    2    1    2    0    0  0.00000000000E+00  0.00000000000E+00 -0.13834381067E+03  0.20314904441E+04  0.20267743867E+04 0.  0.
        5    1    3    3  502    0  0.31269369886E+03  0.79739481316E+03 -0.61201836997E+03  0.10527128823E+04  0.46999998093E+01 0. -1.
       -5    1    3    3    0  502 -0.31269369886E+03 -0.79739481316E+03  0.47367455930E+03  0.97877756181E+03  0.46999998093E+01 0.  1.
</event>
<event>
 5   0  0.6256535E-05  0.2005726E+04  0.7818609E-02  0.8603948E-01
       -1   -1    0    0    0  501  0.00000000000E+00  0.00000000000E+00  0.14546640838E+04  0.14546640838E+04  0.50400001928E-02 0.  1.
        1   -1    0    0  501    0  0.00000000000E+00  0.00000000000E+00 -0.69138567864E+03  0.69138567866E+03  0.50400001928E-02 0. -1.
    10030    2    1    2    0    0  0.00000000000E+00  0.00000000000E+00  0.76327840518E+03  0.21460497625E+04  0.20057257188E+04 0.  0.
        1    1    3    3  502    0 -0.35643788205E+03  0.14462289642E+01 -0.62132300606E+03  0.71630463716E+03  0.50400001928E-02 0. -1.
       -1    1    3    3    0  502  0.35643788205E+03 -0.14462289642E+01  0.13846014112E+04  0.14297451253E+04  0.50400001928E-02 0.  1.
</event>
<event>
 5   0  0.1281789E-04  0.2097518E+04  0.7818609E-02  0.8562337E-01
       -2   -1    0    0    0  501  0.00000000000E+00  0.00000000000E+00  0.12160102856E+04  0.12160102856E+04  0.25500000920E-02 0.  1.
        2   -1    0    0  501    0  0.00000000000E+00  0.00000000000E+00 -0.90451194555E+03  0.90451194555E+03  0.25500000920E-02 0. -1.
    10030    2    1    2    0    0  0.00000000000E+00  0.00000000000E+00  0.31149834003E+03  0.21205222311E+04  0.20975183711E+04 0.  0.
        2    1    3    3  502    0 -0.40778063733E+03 -0.94695498340E+03  0.34991551818E+03  0.10887835683E+04  0.25500000920E-02 0. -1.
       -2    1    3    3    0  502  0.40778063733E+03  0.94695498340E+03 -0.38417178147E+02  0.10317386628E+04  0.25500000920E-02 0.  1.
</event>
<event>
 5   0  0.6168338E-05  0.2015484E+04  0.7818609E-02  0.8599416E-01
       -1   -1    0    0    0  501  0.00000000000E+00  0.00000000000E+00  0.12796731464E+04  0.12796731464E+04  0.50400001928E-02 0.  1.
        1   -1    0    0  501    0  0.00000000000E+00  0.00000000000E+00 -0.79359602629E+03  0.79359602631E+03  0.50400001928E-02 0. -1.
    10030    2    1    2    0    0  0.00000000000E+00  0.00000000000E+00  0.48607712008E+03  0.20732691727E+04  0.20154835886E+04 0.  0.
        5    1    3    3  502    0  0.99078269392E+03  0.18069749061E+03  0.27896118665E+03  0.10450566316E+04  0.46999998093E+01 0.  1.
       -5    1    3    3    0  502 -0.99078269392E+03 -0.18069749061E+03  0.20711593343E+03  0.10282125410E+04  0.46999998093E+01 0. -1.
</event>
<event>
 5   0  0.6214547E-05  0.1918837E+04  0.7818609E-02  0.8645536E-01
       -1   -1    0    0    0  501  0.00000000000E+00  0.00000000000E+00  0.14206716770E+04  0.14206716770E+04  0.50400001928E-02 0.  1.
        1   -1    0    0  501    0  0.00000000000E+00  0.00000000000E+00 -0.64792162632E+03  0.64792162634E+03  0.50400001928E-02 0. -1.
    10030    2    1    2    0    0  0.00000000000E+00  0.00000000000E+00  0.77275005067E+03  0.20685933033E+04  0.19188370472E+04 0.  0.
        3    1    3    3  502    0  0.50766535836E+03 -0.74246481186E+03  0.26388943278E+02  0.89981914819E+03  0.10100000352E+00 0.  1.
       -3    1    3    3    0  502 -0.50766535836E+03  0.74246481186E+03  0.74636110739E+03  0.11687741552E+04  0.10100000352E+00 0. -1.
</event>
<event>
 5   0  0.1242761E-04  0.2008783E+04  0.7818609E-02  0.8602525E-01
        2   -1    0    0  501    0  0.00000000000E+00  0.00000000000E+00  0.11861864917E+04  0.11861864917E+04  0.25500000920E-02 0. -1.
       -2   -1    0    0    0  501  0.00000000000E+00  0.00000000000E+00 -0.85045815803E+03  0.85045815803E+03  0.25500000920E-02 0.  1.
    10030    2    1    2    0    0  0.00000000000E+00  0.00000000000E+00  0.33572833370E+03  0.20366446498E+04  0.20087826949E+04 0.  0.
        4    1    3    3  502    0  0.15596142396E+03  0.82406891243E+03  0.72814717617E+03  0.11106815301E+04  0.12699999809E+01 0. -1.
       -4    1    3    3    0  502 -0.15596142396E+03 -0.82406891243E+03 -0.39241884247E+03  0.92596311968E+03  0.12699999809E+01 0.  1.
</event>
<event>
 5   0  0.6168338E-05  0.1973188E+04  0.7818609E-02  0.8619260E-01
        1   -1    0    0  501    0  0.00000000000E+00  0.00000000000E+00  0.24559516587E+04  0.24559516587E+04  0.50400001928E-02 0.  1.
       -1   -1    0    0    0  501  0.00000000000E+00  0.00000000000E+00 -0.39633034804E+03  0.39633034808E+03  0.50400001928E-02 0. -1.
    10030    2    1    2    0    0  0.00000000000E+00  0.00000000000E+00  0.20596213106E+04  0.28522820067E+04  0.19731884611E+04 0.  0.
        5    1    3    3  502    0 -0.38748668091E+02  0.95583632910E+03  0.68101928314E+03  0.11742801630E+04  0.46999998093E+01 0. -1.
       -5    1    3    3    0  502  0.38748668091E+02 -0.95583632910E+03  0.13786020275E+04  0.16780018437E+04  0.46999998093E+01 0.  1.
</event>
<event>
 5   0  0.6256535E-05  0.2010995E+04  0.7818609E-02  0.8601498E-01
       -1   -1    0    0    0  501  0.00000000000E+00  0.00000000000E+00  0.62348738080E+03  0.62348738082E+03  0.50400001928E-02 0. -1.
        1   -1    0    0  501    0  0.00000000000E+00  0.00000000000E+00 -0.16215641585E+04  0.16215641585E+04  0.50400001928E-02 0.  1.
    10030    2    1    2    0    0  0.00000000000E+00  0.00000000000E+00 -0.99807677770E+03  0.22450515393E+04  0.20109945699E+04 0.  0.
        1    1    3    3  502    0 -0.68641276514E+03  0.62701762252E+03 -0.92664761048E+03  0.13126268994E+04  0.50400001928E-02 0.  1.
       -1    1    3    3    0  502  0.68641276514E+03 -0.62701762252E+03 -0.71429167225E+02  0.93242463988E+03  0.50400001928E-02 0. -1.
</event>
<event>
 5   0  0.6168338E-05  0.1995668E+04  0.7818609E-02  0.8608649E-01
        1   -1    0    0  501    0  0.00000000000E+00  0.00000000000E+00  0.12622394965E+04  0.12622394965E+04  0.50400001928E-02 0.  1.
       -1   -1    0    0    0  501  0.00000000000E+00  0.00000000000E+00 -0.78881401634E+03  0.78881401636E+03  0.50400001928E-02 0. -1.
    10030    2    1    2    0    0  0.00000000000E+00  0.00000000000E+00  0.47342548014E+03  0.20510535129E+04  0.19956675142E+04 0.  0.
        5    1    3    3  502    0  0.68938631670E+03 -0.68388672577E+03  0.47263876735E+03  0.10799833525E+04  0.46999998093E+01 0.  1.
       -5    1    3    3    0  502 -0.68938631670E+03  0.68388672577E+03  0.78671278826E+00  0.97107016032E+03  0.46999998093E+01 0. -1.
</event>
<event>
 5   0  0.1244229E-04  0.1936250E+04  0.7818609E-02  0.8637020E-01
       -2   -1    0    0    0  501  0.00000000000E+00  0.00000000000E+00  0.52113507121E+03  0.52113507121E+03  0.25500000920E-02 0.  1.
        2   -1    0    0  501    0  0.00000000000E+00  0.00000000000E+00 -0.17985079864E+04  0.17985079864E+04  0.25500000920E-02 0. -1.
    10030    2    1    2    0    0  0.00000000000E+00  0.00000000000E+00 -0.12773729152E+04  0.23196430576E+04  0.19362495578E+04 0.  0.
        5    1    3    3  502    0  0.74460878227E+03  0.29334010687E+02 -0.13790718512E+04  0.15675343644E+04  0.46999998093E+01 0. -1.
       -5    1    3    3    0  502 -0.74460878227E+03 -0.29334010687E+02  0.10169893600E+03  0.75210869321E+03  0.46999998093E+01 0.  1.
</event>
<event>
 5   0  0.6028501E-05  0.2087782E+04  0.7818609E-02  0.8566645E-01
        1   -1    0    0  501    0  0.00000000000E+00  0.00000000000E+00  0.85307302454E+03  0.85307302456E+03  0.50400001928E-02 0. -1.
       -1   -1    0    0    0  501  0.00000000000E+00  0.00000000000E+00 -0.12773911814E+04  0.12773911814E+04  0.50400001928E-02 0.  1.
    10030    2    1    2    0    0  0.00000000000E+00  0.00000000000E+00 -0.42431815687E+03  0.21304642060E+04  0.20877815582E+04 0.  0.
        4    1    3    3  502    0 -0.19462846101E+03  0.10246249043E+04 -0.25745016599E+03  0.10742525929E+04  0.12699999809E+01 0.  1.
       -4    1    3    3    0  502  0.19462846101E+03 -0.10246249043E+04 -0.16686799088E+03  0.10562116131E+04  0.12699999809E+01 0. -1.
</event>
<event>
 5   0  0.4479000E-05  0.2001192E+04  0.7818609E-02  0.8606064E-01
        3   -1    0    0  501    0  0.00000000000E+00  0.00000000000E+00  0.78348042976E+03  0.78348043627E+03  0.10100000352E+00 0.  1.
       -3   -1    0    0    0  501  0.00000000000E+00  0.00000000000E+00 -0.12778779453E+04  0.12778779493E+04  0.10100000352E+00 0. -1.
    10030    2    1    2    0    0  0.00000000000E+00  0.00000000000E+00 -0.49439751555E+03  0.20613583856E+04  0.20011920174E+04 0.  0.
        4    1    3    3  502    0 -0.73478691180E+03  0.30754008528E+03 -0.87096094298E+03  0.11802827148E+04  0.12699999809E+01 0. -1.
       -4    1    3    3    0  502  0.73478691180E+03 -0.30754008528E+03  0.37656342743E+03  0.88107567075E+03  0.12699999809E+01 0.  1.
</event>
<event>
 5   0  0.1244229E-04  0.1976292E+04  0.7818609E-02  0.8617786E-01
       -2   -1    0    0    0  501  0.00000000000E+00  0.00000000000E+00  0.87706837428E+03  0.87706837428E+03  0.25500000920E-02 0. -1.
        2   -1    0    0  501    0  0.00000000000E+00  0.00000000000E+00 -0.11132913020E+04  0.11132913020E+04  0.25500000920E-02 0.  1.
    10030    2    1    2    0    0  0.00000000000E+00  0.00000000000E+00 -0.23622292770E+03  0.19903596763E+04  0.19762920759E+04 0.  0.
        5    1    3    3  502    0 -0.73526994053E+03 -0.34634635891E+03  0.44787893204E+03  0.92800609564E+03  0.46999998093E+01 0. -1.
       -5    1    3    3    0  502  0.73526994053E+03  0.34634635891E+03 -0.68410185974E+03  0.10623535806E+04  0.46999998093E+01 0.  1.
</event>
<event>
 5   0  0.6168338E-05  0.1957058E+04  0.7818609E-02  0.8626965E-01
        1   -1    0    0  501    0  0.00000000000E+00  0.00000000000E+00  0.52951192383E+03  0.52951192385E+03  0.50400001928E-02 0. -1.
       -1   -1    0    0    0  501  0.00000000000E+00  0.00000000000E+00 -0.18083056157E+04  0.18083056157E+04  0.50400001928E-02 0.  1.
    10030    2    1    2    0    0  0.00000000000E+00  0.00000000000E+00 -0.12787936919E+04  0.23378175396E+04  0.19570583900E+04 0.  0.
        5    1    3    3  502    0  0.54361762673E+03 -0.37151804896E+03  0.22527710918E+03  0.69592934319E+03  0.46999998093E+01 0. -1.
       -5    1    3    3    0  502 -0.54361762673E+03  0.37151804896E+03 -0.15040708011E+04  0.16418881964E+04  0.46999998093E+01 0.  1.
</event>
<event>
 5   0  0.1242761E-04  0.1967060E+04  0.7818609E-02  0.8622178E-01
        2   -1    0    0  501    0  0.00000000000E+00  0.00000000000E+00  0.48636952836E+03  0.48636952836E+03  0.25500000920E-02 0. -1.
       -2   -1    0    0    0  501  0.00000000000E+00  0.00000000000E+00 -0.19888808521E+04  0.19888808521E+04  0.25500000920E-02 0.  1.
    10030    2    1    2    0    0  0.00000000000E+00  0.00000000000E+00 -0.15025113237E+04  0.24752503805E+04  0.19670597774E+04 0.  0.
        4    1    3    3  502    0  0.43900829190E+03  0.76898480613E+03 -0.12899464959E+04  0.15646180006E+04  0.12699999809E+01 0.  1.
       -4    1    3    3    0  502 -0.43900829190E+03 -0.76898480613E+03 -0.21256482782E+03  0.91063237991E+03  0.12699999809E+01 0. -1.
</event>
<event>
 5   0  0.6028501E-05  0.1997239E+04  0.7818609E-02  0.8607912E-01
        1   -1    0    0  501    0  0.00000000000E+00  0.00000000000E+00  0.83901108397E+03  0.83901108398E+03  0.50400001928E-02 0. -1.
       -1   -1    0    0    0  501  0.00000000000E+00  0.00000000000E+00 -0.11885912336E+04  0.11885912336E+04  0.50400001928E-02 0.  1.
    10030    2    1    2    0    0  0.00000000000E+00  0.00000000000E+00 -0.34958014960E+03  0.20276023176E+04  0.19972393139E+04 0.  0.
        4    1    3    3  502    0  0.67117161613E+03 -0.30648743034E+03 -0.85794948310E+03  0.11315850881E+04  0.12699999809E+01 0.  1.
       -4    1    3    3    0  502 -0.67117161613E+03  0.30648743034E+03  0.50836933350E+03  0.89601722941E+03  0.12699999809E+01 0. -1.
</event>
<event>
 5   0  0.6222733E-05  0.2044032E+04  0.7818609E-02  0.8586307E-01
       -1   -1    0    0    0  501  0.00000000000E+00  0.00000000000E+00  0.57922247054E+03  0.57922247057E+03  0.50400001928E-02 0.  1.
        1   -1    0    0  501    0  0.00000000000E+00  0.00000000000E+00 -0.18033084394E+04  0.18033084394E+04  0.50400001928E-02 0. -1.
    10030    2    1    2    0    0  0.00000000000E+00  0.00000000000E+00 -0.12240859688E+04  0.23825309100E+04  0.20440320638E+04 0.  0.
        2    1    3    3  502    0 -0.52976149465E+03  0.86011845525E+03 -0.79286476070E+03  0.12841672504E+04  0.25500000920E-02 0. -1.
       -2    1    3    3    0  502  0.52976149465E+03 -0.86011845525E+03 -0.43122120815E+03  0.10983636596E+04  0.25500000920E-02 0.  1.
</event>
<event>
 5   0  0.6214547E-05  0.1989049E+04  0.7818609E-02  0.8611758E-01
       -1   -1    0    0    0  501  0.00000000000E+00  0.00000000000E+00  0.75316756916E+03  0.75316756917E+03  0.50400001928E-02 0.  1.
        1   -1    0    0  501    0  0.00000000000E+00  0.00000000000E+00 -0.13132260342E+04  0.13132260342E+04  0.50400001928E-02 0. -1.
    10030    2    1    2    0    0  0.00000000000E+00  0.00000000000E+00 -0.56005846504E+03  0.20663936034E+04  0.19890492804E+04 0.  0.
        3    1    3    3  502    0  0.41707044934E+03  0.25447747493E+03 -0.11799536166E+04  0.12771049654E+04  0.10100000352E+00 0. -1.
       -3    1    3    3    0  502 -0.41707044934E+03 -0.25447747493E+03  0.61989515158E+03  0.78928863802E+03  0.10100000352E+00 0.  1.
</event>
<event>
 5   0  0.1159914E-04  0.2037497E+04  0.7818609E-02  0.8589287E-01
        2   -1    0    0  501    0  0.00000000000E+00  0.00000000000E+00  0.81658634601E+03  0.81658634601E+03  0.25500000920E-02 0. -1.
       -2   -1    0    0    0  501  0.00000000000E+00  0.00000000000E+00 -0.12709602337E+04  0.12709602337E+04  0.25500000920E-02 0.  1.
    10030    2    1    2    0    0  0.00000000000E+00  0.00000000000E+00 -0.45437388773E+03  0.20875465797E+04  0.20374972620E+04 0.  0.
        3    1    3    3  502    0 -0.21593060188E+03 -0.61107295334E+03  0.57813125937E+03  0.86848830873E+03  0.10100000352E+00 0. -1.
       -3    1    3    3    0  502  0.21593060188E+03  0.61107295334E+03 -0.10325051471E+04  0.12190582710E+04  0.10100000352E+00 0.  1.
</event>
<event>
 5   0  0.6222733E-05  0.1999448E+04  0.7818609E-02  0.8606879E-01
       -1   -1    0    0    0  501  0.00000000000E+00  0.00000000000E+00  0.14110961648E+04  0.14110961648E+04  0.50400001928E-02 0. -1.
        1   -1    0    0  501    0  0.00000000000E+00  0.00000000000E+00 -0.70827793820E+03  0.70827793822E+03  0.50400001928E-02 0.  1.
    10030    2    1    2    0    0  0.00000000000E+00  0.00000000000E+00  0.70281822659E+03  0.21193741030E+04  0.19994482061E+04 0.  0.
        2    1    3    3  502    0 -0.54393638723E+03 -0.58081506714E+02  0.12383833541E+04  0.13538218445E+04  0.25500000920E-02 0. -1.
       -2    1    3    3    0  502  0.54393638723E+03  0.58081506714E+02 -0.53556512752E+03  0.76555225857E+03  0.25500000920E-02 0.  1.
</event>
<event>
 5   0  0.6222733E-05  0.2001640E+04  0.7818609E-02  0.8605854E-01
        1   -1    0    0  501    0  0.00000000000E+00  0.00000000000E+00  0.13949218709E+04  0.13949218710E+04  0.50400001928E-02 0. -1.
       -1   -1    0    0    0  501  0.00000000000E+00  0.00000000000E+00 -0.71806198325E+03  0.71806198326E+03  0.50400001928E-02 0.  1.
    10030    2    1    2    0    0  0.00000000000E+00  0.00000000000E+00  0.67685988770E+03  0.21129838542E+04  0.20016396930E+04 0.  0.
        2    1    3    3  502    0 -0.15014583060E+03 -0.82892596800E+03  0.90883791671E+03  0.12392128105E+04  0.25500000920E-02 0. -1.
       -2    1    3    3    0  502  0.15014583060E+03  0.82892596800E+03 -0.23197802902E+03  0.87377104371E+03  0.25500000920E-02 0.  1.
</event>
<event>
 5   0  0.1244229E-04  0.1980833E+04  0.7818609E-02  0.8615635E-01
        2   -1    0    0  501    0  0.00000000000E+00  0.00000000000E+00  0.10295812831E+04  0.10295812831E+04  0.25500000920E-02 0. -1.
       -2   -1    0    0    0  501  0.00000000000E+00  0.00000000000E+00 -0.95274125566E+03  0.95274125566E+03  0.25500000920E-02 0.  1.
    10030    2    1    2    0    0  0.00000000000E+00  0.00000000000E+00  0.76840027461E+02  0.19823225388E+04  0.19808327183E+04 0.  0.
        5    1    3    3  502    0  0.62073798889E+03  0.36406989973E+03 -0.64256215583E+03  0.96476461214E+03  0.46999998093E+01 0.  1.
       -5    1    3    3    0  502 -0.62073798889E+03 -0.36406989973E+03  0.71940218329E+03  0.10175579266E+04  0.46999998093E+01 0. -1.
</event>
<event>
 5   0  0.1242761E-04  0.2038046E+04  0.7818609E-02  0.8589037E-01
        2   -1    0    0  501    0  0.00000000000E+00  0.00000000000E+00  0.18881376174E+04  0.18881376174E+04  0.25500000920E-02 0. -1.
       -2   -1    0    0    0  501  0.00000000000E+00  0.00000000000E+00 -0.54996397975E+03  0.54996397976E+03  0.25500000920E-02 0.  1.
    10030    2    1    2    0    0  0.00000000000E+00  0.00000000000E+00  0.13381736376E+04  0.24381015971E+04  0.20380458075E+04 0.  0.
        4    1    3    3  502    0 -0.81990320371E+03 -0.85637286987E+02  0.13856968285E+04  0.16123685441E+04  0.12699999809E+01 0. -1.
       -4    1    3    3    0  502  0.81990320371E+03  0.85637286987E+02 -0.47523190902E+02  0.82573305308E+03  0.12699999809E+01 0.  1.
</event>
<event>
 5   0  0.6222733E-05  0.1843106E+04  0.7818609E-02  0.8683706E-01
       -1   -1    0    0    0  501  0.00000000000E+00  0.00000000000E+00  0.81006127378E+03  0.81006127380E+03  0.50400001928E-02 0.  1.
        1   -1    0    0  501    0  0.00000000000E+00  0.00000000000E+00 -0.10483896795E+04  0.10483896795E+04  0.50400001928E-02 0. -1.
    10030    2    1    2    0    0  0.00000000000E+00  0.00000000000E+00 -0.23832840572E+03  0.18584509533E+04  0.18431059429E+04 0.  0.
        2    1    3    3  502    0 -0.41192685779E+03 -0.82085862688E+03 -0.42589471016E+02  0.91940550604E+03  0.25500000920E-02 0. -1.
       -2    1    3    3    0  502  0.41192685779E+03  0.82085862688E+03 -0.19573893470E+03  0.93904544727E+03  0.25500000920E-02 0.  1.
</event>
<event>
 5   0  0.6214547E-05  0.2003783E+04  0.7818609E-02  0.8604854E-01
       -1   -1    0    0    0  501  0.00000000000E+00  0.00000000000E+00  0.86350297105E+03  0.86350297107E+03  0.50400001928E-02 0. -1.
        1   -1    0    0  501    0  0.00000000000E+00  0.00000000000E+00 -0.11624587546E+04  0.11624587546E+04  0.50400001928E-02 0.  1.
    10030    2    1    2    0    0  0.00000000000E+00  0.00000000000E+00 -0.29895578356E+03  0.20259617257E+04  0.20037830106E+04 0.  0.
        3    1    3    3  502    0  0.21572413790E+03 -0.96776644188E+03 -0.40885432749E+01  0.99152686100E+03  0.10100000352E+00 0. -1.
       -3    1    3    3    0  502 -0.21572413790E+03  0.96776644188E+03 -0.29486724029E+03  0.10344348647E+04  0.10100000352E+00 0.  1.
</event>
<event>
 5   0  0.6214547E-05  0.2006375E+04  0.7818609E-02  0.8603646E-01
        1   -1    0    0  501    0  0.00000000000E+00  0.00000000000E+00  0.10718338649E+04  0.10718338650E+04  0.50400001928E-02 0. -1.
       -1   -1    0    0    0  501  0.00000000000E+00  0.00000000000E+00 -0.93893730754E+03  0.93893730755E+03  0.50400001928E-02 0.  1.
    10030    2    1    2    0    0  0.00000000000E+00  0.00000000000E+00  0.13289655741E+03  0.20107711725E+04  0.20063746443E+04 0.  0.
        3    1    3    3  502    0  0.96120198005E+03  0.50006616076E+02  0.34986628047E+03  0.10241173431E+04  0.10100000352E+00 0. -1.
       -3    1    3    3    0  502 -0.96120198005E+03 -0.50006616076E+02 -0.21696972307E+03  0.98665382938E+03  0.10100000352E+00 0.  1.
</event>
<event>
 5   0  0.1281789E-04  0.1937564E+04  0.7818609E-02  0.8636381E-01
       -2   -1    0    0    0  501  0.00000000000E+00  0.00000000000E+00  0.93594817073E+03  0.93594817074E+03  0.25500000920E-02 0. -1.
        2   -1    0    0  501    0  0.00000000000E+00  0.00000000000E+00 -0.10027672829E+04  0.10027672829E+04  0.25500000920E-02 0.  1.
    10030    2    1    2    0    0  0.00000000000E+00  0.00000000000E+00 -0.66819112211E+02  0.19387154537E+04  0.19375636290E+04 0.  0.
        2    1    3    3  502    0  0.10350632998E+03 -0.72119640269E+03  0.60548422883E+03  0.94733782938E+03  0.25500000920E-02 0. -1.
       -2    1    3    3    0  502 -0.10350632998E+03  0.72119640269E+03 -0.67230334104E+03  0.99137762431E+03  0.25500000920E-02 0.  1.
</event>
<event>
 5   0  0.6256535E-05  0.1999076E+04  0.7818609E-02  0.8607053E-01
       -1   -1    0    0    0  501  0.00000000000E+00  0.00000000000E+00  0.11666650480E+04  0.11666650480E+04  0.50400001928E-02 0. -1.
        1   -1    0    0  501    0  0.00000000000E+00  0.00000000000E+00 -0.85635264380E+03  0.85635264381E+03  0.50400001928E-02 0.  1.
    10030    2    1    2    0    0  0.00000000000E+00  0.00000000000E+00  0.31031240418E+03  0.20230176918E+04  0.19990764851E+04 0.  0.
        1    1    3    3  502    0 -0.66178485499E+03 -0.65238921445E+03 -0.21736349353E+03  0.95436773299E+03  0.50400001928E-02 0. -1.
       -1    1    3    3    0  502  0.66178485499E+03  0.65238921445E+03  0.52767589770E+03  0.10686499588E+04  0.50400001928E-02 0.  1.
</event>
<event>
 5   0  0.1244229E-04  0.2025077E+04  0.7818609E-02  0.8594985E-01
        2   -1    0    0  501    0  0.00000000000E+00  0.00000000000E+00  0.18311347959E+04  0.18311347959E+04  0.25500000920E-02 0.  1.
       -2   -1    0    0    0  501  0.00000000000E+00  0.00000000000E+00 -0.55989028384E+03  0.55989028384E+03  0.25500000920E-02 0. -1.
    10030    2    1    2    0    0  0.00000000000E+00  0.00000000000E+00  0.12712445121E+04  0.23910250797E+04  0.20250773621E+04 0.  0.
        5    1    3    3  502    0  0.32278034527E+03  0.19858059974E+03  0.17442254041E+04  0.17849273812E+04  0.46999998093E+01 0.  1.
       -5    1    3    3    0  502 -0.32278034527E+03 -0.19858059974E+03 -0.47298089206E+03  0.60609769851E+03  0.46999998093E+01 0. -1.
</event>
<event>
 5   0  0.6214547E-05  0.2008776E+04  0.7818609E-02  0.8602528E-01
        1   -1    0    0  501    0  0.00000000000E+00  0.00000000000E+00  0.15462653730E+04  0.15462653730E+04  0.50400001928E-02 0.  1.
       -1   -1    0    0    0  501  0.00000000000E+00  0.00000000000E+00 -0.65240787774E+03  0.65240787776E+03  0.50400001928E-02 0. -1.
    10030    2    1    2    0    0  0.00000000000E+00  0.00000000000E+00  0.89385749530E+03  0.21986732508E+04  0.20087764539E+04 0.  0.
        3    1    3    3  502    0  0.21945666270E+03  0.23567812414E+03 -0.59436926086E+03  0.67600313125E+03  0.10100000352E+00 0. -1.
       -3    1    3    3    0  502 -0.21945666270E+03 -0.23567812414E+03  0.14882267562E+04  0.15226701195E+04  0.10100000352E+00 0.  1.
</event>
<event>
 5   0  0.1281789E-04  0.2039839E+04  0.7818609E-02  0.8588218E-01
       -2   -1    0    0    0  501  0.00000000000E+00  0.00000000000E+00  0.15129093961E+04  0.15129093961E+04  0.25500000920E-02 0. -1.
        2   -1    0    0  501    0  0.00000000000E+00  0.00000000000E+00 -0.68757307425E+03  0.68757307425E+03  0.25500000920E-02 0.  1.
    10030    2    1    2    0    0  0.00000000000E+00  0.00000000000E+00  0.82533632187E+03  0.22004824704E+04  0.20398389785E+04 0.  0.
        2    1    3    3  502    0 -0.97182886174E+03  0.28430105966E+03  0.28073646512E+03  0.10507575324E+04  0.25500000920E-02 0.  1.
       -2    1    3    3    0  502  0.97182886174E+03 -0.28430105966E+03  0.54459985675E+03  0.11497249380E+04  0.25500000920E-02 0. -1.
</event>
<event>
 5   0  0.1244229E-04  0.1990656E+04  0.7818609E-02  0.8611002E-01
        2   -1    0    0  501    0  0.00000000000E+00  0.00000000000E+00  0.27296830260E+04  0.27296830260E+04  0.25500000920E-02 0.  1.
       -2   -1    0    0    0  501  0.00000000000E+00  0.00000000000E+00 -0.36292768982E+03  0.36292768983E+03  0.25500000920E-02 0. -1.
    10030    2    1    2    0    0  0.00000000000E+00  0.00000000000E+00  0.23667553362E+04  0.30926107158E+04  0.19906557257E+04 0.  0.
        5    1    3    3  502    0  0.80532792043E+03  0.12390643097E+03  0.20714260602E+04  0.22259231514E+04  0.46999998093E+01 0.  1.
       -5    1    3    3    0  502 -0.80532792043E+03 -0.12390643097E+03  0.29532927596E+03  0.86668756441E+03  0.46999998093E+01 0. -1.
</event>
<event>
 5   0  0.6256535E-05  0.1972931E+04  0.7818609E-02  0.8619382E-01
       -1   -1    0    0    0  501  0.00000000000E+00  0.00000000000E+00  0.38932926687E+03  0.38932926690E+03  0.50400001928E-02 0.  1.
        1   -1    0    0  501    0  0.00000000000E+00  0.00000000000E+00 -0.24994637299E+04  0.24994637299E+04  0.50400001928E-02 0. -1.
    10030    2    1    2    0    0  0.00000000000E+00  0.00000000000E+00 -0.21101344630E+04  0.28887929968E+04  0.19729312016E+04 0.  0.
        1    1    3    3  502    0  0.55327737493E+03 -0.14831117545E+02  0.14055862017E+03  0.57104513078E+03  0.50400001928E-02 0.  1.
       -1    1    3    3    0  502 -0.55327737493E+03  0.14831117545E+02 -0.22506930832E+04  0.23177478660E+04  0.50400001928E-02 0. -1.
</event>
<event>
 5   0  0.6028501E-05  0.2021706E+04  0.7818609E-02  0.8596539E-01
        1   -1    0    0  501    0  0.00000000000E+00  0.00000000000E+00  0.98938083920E+03  0.98938083921E+03  0.50400001928E-02 0.  1.
       -1   -1    0    0    0  501  0.00000000000E+00  0.00000000000E+00 -0.10327912188E+04  0.10327912188E+04  0.50400001928E-02 0. -1.
    10030    2    1    2    0    0  0.00000000000E+00  0.00000000000E+00 -0.43410379557E+02  0.20221720580E+04  0.20217060546E+04 0.  0.
        4    1    3    3  502    0 -0.74099334576E+03 -0.16847443669E+03  0.64505738615E+03  0.99677250093E+03  0.12699999809E+01 0.  1.
       -4    1    3    3    0  502  0.74099334576E+03  0.16847443669E+03 -0.68846776571E+03  0.10253995570E+04  0.12699999809E+01 0. -1.
</event>
<event>
 5   0  0.1159914E-04  0.1995314E+04  0.7818609E-02  0.8608815E-01
       -2   -1    0    0    0  501  0.00000000000E+00  0.00000000000E+00  0.60829422433E+03  0.60829422433E+03  0.25500000920E-02 0.  1.
        2   -1    0    0  501    0  0.00000000000E+00  0.00000000000E+00 -0.16362469012E+04  0.16362469012E+04  0.25500000920E-02 0. -1.
    10030    2    1    2    0    0  0.00000000000E+00  0.00000000000E+00 -0.10279526769E+04  0.22445411255E+04  0.19953140500E+04 0.  0.
        3    1    3    3  502    0 -0.88739798920E+03 -0.24897305547E+03 -0.84361195062E+02  0.92551585347E+03  0.10100000352E+00 0.  1.
       -3    1    3    3    0  502  0.88739798920E+03  0.24897305547E+03 -0.94359148179E+03  0.13190252720E+04  0.10100000352E+00 0. -1.
</event>
<event>
 5   0  0.6168338E-05  0.1986539E+04  0.7818609E-02  0.8612940E-01
        1   -1    0    0  501    0  0.00000000000E+00  0.00000000000E+00  0.84582174883E+03  0.84582174885E+03  0.50400001928E-02 0. -1.
       -1   -1    0    0    0  501  0.00000000000E+00  0.00000000000E+00 -0.11664205842E+04  0.11664205842E+04  0.50400001928E-02 0.  1.
    10030    2    1    2    0    0  0.00000000000E+00  0.00000000000E+00 -0.32059883537E+03  0.20122423331E+04  0.19865385961E+04 0.  0.
        5    1    3    3  502    0 -0.46900565915E+03 -0.79231052797E+03 -0.53773239016E+03  0.10662553608E+04  0.46999998093E+01 0.  1.
       -5    1    3    3    0  502  0.46900565915E+03  0.79231052797E+03  0.21713355479E+03  0.94598697225E+03  0.46999998093E+01 0. -1.
</event>
<event>
 5   0  0.1274868E-04  0.2011966E+04  0.7818609E-02  0.8601046E-01
       -2   -1    0    0    0  501  0.00000000000E+00  0.00000000000E+00  0.58129292939E+03  0.58129292940E+03  0.25500000920E-02 0. -1.
        2   -1    0    0  501    0  0.00000000000E+00  0.00000000000E+00 -0.17409502911E+04  0.17409502911E+04  0.25500000920E-02 0.  1.
    10030    2    1    2    0    0  0.00000000000E+00  0.00000000000E+00 -0.11596573617E+04  0.23222432205E+04  0.20119662966E+04 0.  0.
        1    1    3    3  502    0 -0.96139564910E+03 -0.13871652047E+03 -0.88186784343E+03  0.13119507462E+04  0.50400001928E-02 0. -1.
       -1    1    3    3    0  502  0.96139564910E+03  0.13871652047E+03 -0.27778951830E+03  0.10102924743E+04  0.50400001928E-02 0.  1.
</event>
<event>
 5   0  0.6256535E-05  0.1993423E+04  0.7818609E-02  0.8609702E-01
       -1   -1    0    0    0  501  0.00000000000E+00  0.00000000000E+00  0.17835502401E+04  0.17835502401E+04  0.50400001928E-02 0.  1.
        1   -1    0    0  501    0  0.00000000000E+00  0.00000000000E+00 -0.55699790657E+03  0.55699790659E+03  0.50400001928E-02 0. -1.
    10030    2    1    2    0    0  0.00000000000E+00  0.00000000000E+00  0.12265523335E+04  0.23405481467E+04  0.19934229356E+04 0.  0.
        1    1    3    3  502    0  0.87300648735E+03  0.20072492337E+02  0.11774607020E+04  0.14659321051E+04  0.50400001928E-02 0.  1.
       -1    1    3    3    0  502 -0.87300648735E+03 -0.20072492337E+02  0.49091631502E+02  0.87461604160E+03  0.50400001928E-02 0. -1.
</event>
<event>
 5   0  0.1281789E-04  0.2000209E+04  0.7818609E-02  0.8606523E-01
        2   -1    0    0  501    0  0.00000000000E+00  0.00000000000E+00  0.77734836164E+03  0.77734836164E+03  0.25500000920E-02 0. -1.
       -2   -1    0    0    0  501  0.00000000000E+00  0.00000000000E+00 -0.12866929806E+04  0.12866929806E+04  0.25500000920E-02 0.  1.
    10030    2    1    2    0    0  0.00000000000E+00  0.00000000000E+00 -0.50934461899E+03  0.20640413423E+04  0.20002086695E+04 0.  0.
        2    1    3    3  502    0  0.48186608269E+03  0.47652308523E+03  0.50428515622E+03  0.84473231926E+03  0.25500000920E-02 0. -1.
       -2    1    3    3    0  502 -0.48186608269E+03 -0.47652308523E+03 -0.10136297752E+04  0.12193090230E+04  0.25500000920E-02 0.  1.
</event>
<event>
 5   0  0.6214547E-05  0.1981409E+04  0.7818609E-02  0.8615362E-01
       -1   -1    0    0    0  501  0.00000000000E+00  0.00000000000E+00  0.57522189031E+03  0.57522189033E+03  0.50400001928E-02 0.  1.
        1   -1    0    0  501    0  0.00000000000E+00  0.00000000000E+00 -0.17062902339E+04  0.17062902340E+04  0.50400001928E-02 0. -1.
    10030    2    1    2    0    0  0.00000000000E+00  0.00000000000E+00 -0.11310683436E+04  0.22815121243E+04  0.19814090883E+04 0.  0.
        3    1    3    3  502    0 -0.71771246954E+03  0.67266225033E+03 -0.70133704016E+03  0.12080808525E+04  0.10100000352E+00 0. -1.
       -3    1    3    3    0  502  0.71771246954E+03 -0.67266225033E+03 -0.42973130348E+03  0.10734312718E+04  0.10100000352E+00 0.  1.
</event>
<event>
 5   0  0.1242761E-04  0.1953324E+04  0.7818609E-02  0.8628759E-01
        2   -1    0    0  501    0  0.00000000000E+00  0.00000000000E+00  0.10568331854E+04  0.10568331854E+04  0.25500000920E-02 0.  1.
       -2   -1    0    0    0  501  0.00000000000E+00  0.00000000000E+00 -0.90257294202E+03  0.90257294202E+03  0.25500000920E-02 0. -1.
    10030    2    1    2    0    0  0.00000000000E+00  0.00000000000E+00  0.15426024341E+03  0.19594061275E+04  0.19533243841E+04 0.  0.
        4    1    3    3  502    0  0.62442272836E+03  0.71007685385E+03 -0.16807839646E+03  0.96039827276E+03  0.12699999809E+01 0. -1.
       -4    1    3    3    0  502 -0.62442272836E+03 -0.71007685385E+03  0.32233863987E+03  0.99900785469E+03  0.12699999809E+01 0.  1.
</event>
<event>
 5   0  0.1274868E-04  0.1981784E+04  0.7818609E-02  0.8615185E-01
        2   -1    0    0  501    0  0.00000000000E+00  0.00000000000E+00  0.97981321401E+03  0.97981321401E+03  0.25500000920E-02 0. -1.
       -2   -1    0    0    0  501  0.00000000000E+00  0.00000000000E+00 -0.10020959750E+04  0.10020959750E+04  0.25500000920E-02 0.  1.
    10030    2    1    2    0    0  0.00000000000E+00  0.00000000000E+00 -0.22282760966E+02  0.19819091890E+04  0.19817839216E+04 0.  0.
        1    1    3    3  502    0 -0.94151319775E+03 -0.22295182570E+03  0.20267638985E+03  0.98855062448E+03  0.50400001928E-02 0. -1.
       -1    1    3    3    0  502  0.94151319775E+03  0.22295182570E+03 -0.22495915082E+03  0.99335856451E+03  0.50400001928E-02 0.  1.
</event>
<event>
 5   0  0.6214547E-05  0.1968917E+04  0.7818609E-02  0.8621292E-01
       -1   -1    0    0    0  501  0.00000000000E+00  0.00000000000E+00  0.15259358906E+04  0.15259358906E+04  0.50400001928E-02 0.  1.
        1   -1    0    0  501    0  0.00000000000E+00  0.00000000000E+00 -0.63512415214E+03  0.63512415216E+03  0.50400001928E-02 0. -1.
    10030    2    1    2    0    0  0.00000000000E+00  0.00000000000E+00  0.89081173841E+03  0.21610600427E+04  0.19689172037E+04 0.  0.
        3    1    3    3  502    0  0.57011629103E+03  0.71618812960E+03  0.47841489581E+02  0.91664979169E+03  0.10100000352E+00 0. -1.
       -3    1    3    3    0  502 -0.57011629103E+03 -0.71618812960E+03  0.84297024883E+03  0.12444102510E+04  0.10100000352E+00 0.  1.
</event>
<event>
 5   0  0.6168338E-05  0.2012324E+04  0.7818609E-02  0.8600880E-01
       -1   -1    0    0    0  501  0.00000000000E+00  0.00000000000E+00  0.10574159760E+04  0.10574159761E+04  0.50400001928E-02 0.  1.
        1   -1    0    0  501    0  0.00000000000E+00  0.00000000000E+00 -0.95739242773E+03  0.95739242774E+03  0.50400001928E-02 0. -1.
    10030    2    1    2    0    0  0.00000000000E+00  0.00000000000E+00  0.10002354831E+03  0.20148084038E+04  0.20123240777E+04 0.  0.
        5    1    3    3  502    0  0.74268112475E+03  0.34755299040E+03 -0.53377891624E+03  0.97842238099E+03  0.46999998093E+01 0. -1.
       -5    1    3    3    0  502 -0.74268112475E+03 -0.34755299040E+03  0.63380246455E+03  0.10363860228E+04  0.46999998093E+01 0.  1.
</event>
<event>
 5   0  0.6214547E-05  0.1986789E+04  0.7818609E-02  0.8612822E-01
        1   -1    0    0  501    0  0.00000000000E+00  0.00000000000E+00  0.11467136565E+04  0.11467136565E+04  0.50400001928E-02 0. -1.
       -1   -1    0    0    0  501  0.00000000000E+00  0.00000000000E+00 -0.86057481142E+03  0.86057481144E+03  0.50400001928E-02 0.  1.
    10030    2    1    2    0    0  0.00000000000E+00  0.00000000000E+00  0.28613884508E+03  0.20072884679E+04  0.19867892578E+04 0.  0.
        3    1    3    3  502    0  0.19149144673E+03  0.70682070159E+03 -0.53510022959E+03  0.90697119264E+03  0.10100000352E+00 0.  1.
       -3    1    3    3    0  502 -0.19149144673E+03 -0.70682070159E+03  0.82123907467E+03  0.11003172753E+04  0.10100000352E+00 0. -1.
</event>
<event>
 5   0  0.4479000E-05  0.2011522E+04  0.7818609E-02  0.8601253E-01
        3   -1    0    0  501    0  0.00000000000E+00  0.00000000000E+00  0.88751601801E+03  0.88751602376E+03  0.10100000352E+00 0.  1.
       -3   -1    0    0    0  501  0.00000000000E+00  0.00000000000E+00 -0.11397601258E+04  0.11397601303E+04  0.10100000352E+00 0. -1.
    10030    2    1    2    0    0  0.00000000000E+00  0.00000000000E+00 -0.25224410783E+03  0.20272761541E+04  0.20115221885E+04 0.  0.
        2    1    3    3  502    0  0.37162234248E+03 -0.51172304777E+03  0.66204610994E+03  0.91557014736E+03  0.25500000920E-02 0.  1.
       -2    1    3    3    0  502 -0.37162234248E+03  0.51172304777E+03 -0.91429021777E+03  0.11117060067E+04  0.25500000920E-02 0. -1.
</event>
<event>
 5   0  0.1281789E-04  0.1998934E+04  0.7818609E-02  0.8607119E-01
        2   -1    0    0  501    0  0.00000000000E+00  0.00000000000E+00  0.84463474536E+03  0.84463474536E+03  0.25500000920E-02 0.  1.
       -2   -1    0    0    0  501  0.00000000000E+00  0.00000000000E+00 -0.11826822821E+04  0.11826822821E+04  0.25500000920E-02 0. -1.
    10030    2    1    2    0    0  0.00000000000E+00  0.00000000000E+00 -0.33804753676E+03  0.20273170275E+04  0.19989342643E+04 0.  0.
        2    1    3    3  502    0 -0.37825868258E+03 -0.25288656400E+03 -0.10715487520E+04  0.11641511814E+04  0.25500000920E-02 0. -1.
       -2    1    3    3    0  502  0.37825868258E+03  0.25288656400E+03  0.73350121521E+03  0.86316584613E+03  0.25500000920E-02 0.  1.
</event>
<event>
 5   0  0.6214547E-05  0.2003759E+04  0.7818609E-02  0.8604865E-01
        1   -1    0    0  501    0  0.00000000000E+00  0.00000000000E+00  0.10924670259E+04  0.10924670259E+04  0.50400001928E-02 0. -1.
       -1   -1    0    0    0  501  0.00000000000E+00  0.00000000000E+00 -0.91880312035E+03  0.91880312037E+03  0.50400001928E-02 0.  1.
    10030    2    1    2    0    0  0.00000000000E+00  0.00000000000E+00  0.17366390557E+03  0.20112701463E+04  0.20037585806E+04 0.  0.
        3    1    3    3  502    0  0.49176132519E+03 -0.30838625502E+03  0.90649025829E+03  0.10764087894E+04  0.10100000352E+00 0. -1.
       -3    1    3    3    0  502 -0.49176132519E+03  0.30838625502E+03 -0.73282635272E+03  0.93486135693E+03  0.10100000352E+00 0.  1.
</event>
<event>
 5   0  0.1274868E-04  0.2002845E+04  0.7818609E-02  0.8605292E-01
        2   -1    0    0  501    0  0.00000000000E+00  0.00000000000E+00  0.21048253391E+04  0.21048253391E+04  0.25500000920E-02 0. -1.
       -2   -1    0    0    0  501  0.00000000000E+00  0.00000000000E+00 -0.47645138815E+03  0.47645138816E+03  0.25500000920E-02 0.  1.
    10030    2    1    2    0    0  0.00000000000E+00  0.00000000000E+00  0.16283739510E+04  0.25812767273E+04  0.20028449313E+04 0.  0.
        1    1    3    3  502    0  0.39820838918E+03  0.91848065956E+03  0.78081933071E+03  0.12695887013E+04  0.50400001928E-02 0. -1.
       -1    1    3    3    0  502 -0.39820838918E+03 -0.91848065956E+03  0.84755462028E+03  0.13116880260E+04  0.50400001928E-02 0.  1.
</event>
<event>
 5   0  0.1242761E-04  0.1994227E+04  0.7818609E-02  0.8609324E-01
        2   -1    0    0  501    0  0.00000000000E+00  0.00000000000E+00  0.26701096050E+04  0.26701096050E+04  0.25500000920E-02 0. -1.
       -2   -1    0    0    0  501  0.00000000000E+00  0.00000000000E+00 -0.37235768287E+03  0.37235768288E+03  0.25500000920E-02 0.  1.
    10030    2    1    2    0    0  0.00000000000E+00  0.00000000000E+00  0.22977519221E+04  0.30424672879E+04  0.19942274951E+04 0.  0.
        4    1    3    3  502    0  0.79764002939E+03  0.89803757997E+02  0.20513774722E+04  0.22028267018E+04  0.12699999809E+01 0. -1.
       -4    1    3    3    0  502 -0.79764002939E+03 -0.89803757997E+02  0.24637444990E+03  0.83964058614E+03  0.12699999809E+01 0.  1.
</event>
<event>
 5   0  0.6168338E-05  0.1947797E+04  0.7818609E-02  0.8631424E-01
       -1   -1    0    0    0  501  0.00000000000E+00  0.00000000000E+00  0.40887236858E+03  0.40887236861E+03  0.50400001928E-02 0. -1.
        1   -1    0    0  501    0  0.00000000000E+00  0.00000000000E+00 -0.23197422487E+04  0.23197422487E+04  0.50400001928E-02 0.  1.
    10030    2    1    2    0    0  0.00000000000E+00  0.00000000000E+00 -0.19108698801E+04  0.27286146173E+04  0.19477972253E+04 0.  0.
        5    1    3    3  502    0  0.31122007625E+03 -0.86195312082E+03 -0.14171605263E+04  0.16876573010E+04  0.46999998093E+01 0.  1.
       -5    1    3    3    0  502 -0.31122007625E+03  0.86195312082E+03 -0.49370935387E+03  0.10409573163E+04  0.46999998093E+01 0. -1.
</event>
<event>
 5   0  0.1159914E-04  0.2024696E+04  0.7818609E-02  0.8595161E-01
        2   -1    0    0  501    0  0.00000000000E+00  0.00000000000E+00  0.44165077477E+03  0.44165077478E+03  0.25500000920E-02 0.  1.
       -2   -1    0    0    0  501  0.00000000000E+00  0.00000000000E+00 -0.23204948057E+04  0.23204948058E+04  0.25500000920E-02 0. -1.
    10030    2    1    2    0    0  0.00000000000E+00  0.00000000000E+00 -0.18788440310E+04  0.27621455805E+04  0.20246958575E+04 0.  0.
        3    1    3    3  502    0  0.29244889120E+03 -0.61051571009E+02  0.38014253493E+03  0.48348940562E+03  0.10100000352E+00 0.  1.
       -3    1    3    3    0  502 -0.29244889120E+03  0.61051571009E+02 -0.22589865659E+04  0.22786561749E+04  0.10100000352E+00 0. -1.
</event>
<event>
 5   0  0.1159914E-04  0.1999082E+04  0.7818609E-02  0.8607050E-01
        2   -1    0    0  501    0  0.00000000000E+00  0.00000000000E+00  0.16195953283E+04  0.16195953283E+04  0.25500000920E-02 0.  1.
       -2   -1    0    0    0  501  0.00000000000E+00  0.00000000000E+00 -0.61687151182E+03  0.61687151182E+03  0.25500000920E-02 0. -1.
    10030    2    1    2    0    0  0.00000000000E+00  0.00000000000E+00  0.10027238165E+04  0.22364668402E+04  0.19990820080E+04 0.  0.
        3    1    3    3  502    0 -0.14547544365E+03  0.92897873049E+03  0.12211227600E+03  0.94819618463E+03  0.10100000352E+00 0.  1.
       -3    1    3    3    0  502  0.14547544365E+03 -0.92897873049E+03  0.88061154051E+03  0.12882706555E+04  0.10100000352E+00 0. -1.
</event>
<event>
 5   0  0.6222733E-05  0.1998438E+04  0.7818609E-02  0.8607351E-01
       -1   -1    0    0    0  501  0.00000000000E+00  0.00000000000E+00  0.39993050655E+03  0.39993050658E+03  0.50400001928E-02 0.  1.
        1   -1    0    0  501    0  0.00000000000E+00  0.00000000000E+00 -0.24965308495E+04  0.24965308495E+04  0.50400001928E-02 0. -1.
    10030    2    1    2    0    0  0.00000000000E+00  0.00000000000E+00 -0.20966003430E+04  0.28964613561E+04  0.19984382375E+04 0.  0.
        2    1    3    3  502    0 -0.50825101568E+03 -0.71168701354E+02  0.19431558856E+03  0.54876463712E+03  0.25500000920E-02 0.  1.
       -2    1    3    3    0  502  0.50825101568E+03  0.71168701354E+02 -0.22909159315E+04  0.23476967190E+04  0.25500000920E-02 0. -1.
</event>
<event>
 5   0  0.6168338E-05  0.2032479E+04  0.7818609E-02  0.8591584E-01
       -1   -1    0    0    0  501  0.00000000000E+00  0.00000000000E+00  0.10760845636E+04  0.10760845637E+04  0.50400001928E-02 0. -1.
        1   -1    0    0  501    0  0.00000000000E+00  0.00000000000E+00 -0.95972298304E+03  0.95972298305E+03  0.50400001928E-02 0.  1.
    10030    2    1    2    0    0  0.00000000000E+00  0.00000000000E+00  0.11636158061E+03  0.20358075467E+04  0.20324793602E+04 0.  0.
        5    1    3    3  502    0  0.85645771633E+03 -0.48202880555E+03 -0.20079511470E+03  0.10031013694E+04  0.46999998093E+01 0.  1.
       -5    1    3    3    0  502 -0.85645771633E+03  0.48202880555E+03  0.31715669531E+03  0.10327061773E+04  0.46999998093E+01 0. -1.
</event>
<event>
 5   0  0.6256535E-05  0.2012320E+04  0.7818609E-02  0.8600882E-01
        1   -1    0    0  501    0  0.00000000000E+00  0.00000000000E+00  0.16393353037E+04  0.16393353037E+04  0.50400001928E-02 0.  1.
       -1   -1    0    0    0  501  0.00000000000E+00  0.00000000000E+00 -0.61754146821E+03  0.61754146823E+03  0.50400001928E-02 0. -1.
    10030    2    1    2    0    0  0.00000000000E+00  0.00000000000E+00  0.10217938355E+04  0.22568767719E+04  0.20123195873E+04 0.  0.
        1    1    3    3  502    0 -0.32882873607E+03  0.14027852815E+03 -0.54390852575E+03  0.65087855053E+03  0.50400001928E-02 0. -1.
       -1    1    3    3    0  502  0.32882873607E+03 -0.14027852815E+03  0.15657023612E+04  0.16059982214E+04  0.50400001928E-02 0.  1.
</event>
<event>
 5   0  0.1244229E-04  0.1998289E+04  0.7818609E-02  0.8607421E-01
        2   -1    0    0  501    0  0.00000000000E+00  0.00000000000E+00  0.25697841773E+04  0.25697841773E+04  0.25500000920E-02 0. -1.
       -2   -1    0    0    0  501  0.00000000000E+00  0.00000000000E+00 -0.38847207426E+03  0.38847207427E+03  0.25500000920E-02 0.  1.
    10030    2    1    2    0    0  0.00000000000E+00  0.00000000000E+00  0.21813121030E+04  0.29582562515E+04  0.19982886576E+04 0.  0.
        5    1    3    3  502    0 -0.51868445670E+03 -0.72096872018E+03  0.17681495648E+04  0.19786875535E+04  0.46999998093E+01 0. -1.
       -5    1    3    3    0  502  0.51868445670E+03  0.72096872018E+03  0.41316253823E+03  0.97956869800E+03  0.46999998093E+01 0.  1.
</event>
<event>
 5   0  0.1159914E-04  0.2010009E+04  0.7818609E-02  0.8601955E-01
       -2   -1    0    0    0  501  0.00000000000E+00  0.00000000000E+00  0.72608724265E+03  0.72608724266E+03  0.25500000920E-02 0. -1.
        2   -1    0    0  501    0  0.00000000000E+00  0.00000000000E+00 -0.13910639811E+04  0.13910639811E+04  0.25500000920E-02 0.  1.
    10030    2    1    2    0    0  0.00000000000E+00  0.00000000000E+00 -0.66497673847E+03  0.21171512238E+04  0.20100087666E+04 0.  0.
        3    1    3    3  502    0  0.43509890204E+03 -0.69991504127E+03  0.27336013148E+03  0.86828445296E+03  0.10100000352E+00 0. -1.
       -3    1    3    3    0  502 -0.43509890204E+03  0.69991504127E+03 -0.93833686995E+03  0.12488667708E+04  0.10100000352E+00 0.  1.
</event>
<event>
 5   0  0.1242761E-04  0.2021328E+04  0.7818609E-02  0.8596714E-01
        2   -1    0    0  501    0  0.00000000000E+00  0.00000000000E+00  0.13688413695E+04  0.13688413695E+04  0.25500000920E-02 0.  1.
       -2   -1    0    0    0  501  0.00000000000E+00  0.00000000000E+00 -0.74620905015E+03  0.74620905016E+03  0.25500000920E-02 0. -1.
    10030    2    1    2    0    0  0.00000000000E+00  0.00000000000E+00  0.62263231936E+03  0.21150504197E+04  0.20213280962E+04 0.  0.
        4    1    3    3  502    0 -0.60699895209E+03  0.58864882822E+03 -0.26796385911E+03  0.88699572349E+03  0.12699999809E+01 0. -1.
       -4    1    3    3    0  502  0.60699895209E+03 -0.58864882822E+03  0.89059617847E+03  0.12280546962E+04  0.12699999809E+01 0.  1.
</event>
<event>
 5   0  0.1159914E-04  0.1970453E+04  0.7818609E-02  0.8620561E-01
        2   -1    0    0  501    0  0.00000000000E+00  0.00000000000E+00  0.12633365623E+04  0.12633365623E+04  0.25500000920E-02 0. -1.
       -2   -1    0    0    0  501  0.00000000000E+00  0.00000000000E+00 -0.76833909952E+03  0.76833909952E+03  0.25500000920E-02 0.  1.
    10030    2    1    2    0    0  0.00000000000E+00  0.00000000000E+00  0.49499746279E+03  0.20316756618E+04  0.19704526147E+04 0.  0.
        3    1    3    3  502    0  0.29445214076E+03 -0.64035426378E+03  0.95730317023E+03  0.11887745860E+04  0.10100000352E+00 0. -1.
       -3    1    3    3    0  502 -0.29445214076E+03  0.64035426378E+03 -0.46230570744E+03  0.84290107585E+03  0.10100000352E+00 0.  1.
</event>
<event>
 5   0  0.6168338E-05  0.2032009E+04  0.7818609E-02  0.8591800E-01
       -1   -1    0    0    0  501  0.00000000000E+00  0.00000000000E+00  0.95445856094E+03  0.95445856095E+03  0.50400001928E-02 0.  1.
        1   -1    0    0  501    0  0.00000000000E+00  0.00000000000E+00 -0.10815193836E+04  0.10815193836E+04  0.50400001928E-02 0. -1.
    10030    2    1    2    0    0  0.00000000000E+00  0.00000000000E+00 -0.12706082263E+03  0.20359779445E+04  0.20320092859E+04 0.  0.
        5    1    3    3  502    0 -0.20092734799E+03 -0.85398666575E+03  0.44989435426E+03  0.98594728279E+03  0.46999998093E+01 0.  1.
       -5    1    3    3    0  502  0.20092734799E+03  0.85398666575E+03 -0.57695517689E+03  0.10500306617E+04  0.46999998093E+01 0. -1.
</event>
<event>
 5   0  0.6028501E-05  0.2040564E+04  0.7818609E-02  0.8587887E-01
       -1   -1    0    0    0  501  0.00000000000E+00  0.00000000000E+00  0.12808953747E+04  0.12808953747E+04  0.50400001928E-02 0. -1.
        1   -1    0    0  501    0  0.00000000000E+00  0.00000000000E+00 -0.81269344470E+03  0.81269344471E+03  0.50400001928E-02 0.  1.
    10030    2    1    2    0    0  0.00000000000E+00  0.00000000000E+00  0.46820193003E+03  0.20935888195E+04  0.20405639166E+04 0.  0.
        4    1    3    3  502    0 -0.28706213314E+03 -0.37860669400E+03 -0.69225987793E+03  0.83962673165E+03  0.12699999809E+01 0.  1.
       -4    1    3    3    0  502  0.28706213314E+03  0.37860669400E+03  0.11604618080E+04  0.12539620878E+04  0.12699999809E+01 0. -1.
</event>
<event>
 5   0  0.6168338E-05  0.2046039E+04  0.7818609E-02  0.8585393E-01
        1   -1    0    0  501    0  0.00000000000E+00  0.00000000000E+00  0.10068418544E+04  0.10068418544E+04  0.50400001928E-02 0.  1.
       -1   -1    0    0    0  501  0.00000000000E+00  0.00000000000E+00 -0.10394570515E+04  0.10394570515E+04  0.50400001928E-02 0. -1.
    10030    2    1    2    0    0  0.00000000000E+00  0.00000000000E+00 -0.32615197111E+02  0.20462989059E+04  0.20460389686E+04 0.  0.
        5    1    3    3  502    0 -0.56476131959E+03 -0.84786987001E+03 -0.10963671233E+03  0.10246369910E+04  0.46999998093E+01 0.  1.
       -5    1    3    3    0  502  0.56476131959E+03  0.84786987001E+03  0.77021515215E+02  0.10216619149E+04  0.46999998093E+01 0. -1.
</event>
<event>
 5   0  0.6028501E-05  0.1996088E+04  0.7818609E-02  0.8608452E-01
       -1   -1    0    0    0  501  0.00000000000E+00  0.00000000000E+00  0.61887249869E+03  0.61887249871E+03  0.50400001928E-02 0. -1.
        1   -1    0    0  501    0  0.00000000000E+00  0.00000000000E+00 -0.16095265002E+04  0.16095265002E+04  0.50400001928E-02 0.  1.
    10030    2    1    2    0    0  0.00000000000E+00  0.00000000000E+00 -0.99065400150E+03  0.22283989989E+04  0.19960878607E+04 0.  0.
        4    1    3    3  502    0 -0.49620898736E+03 -0.74796371245E+02  0.46779034630E+03  0.68603737309E+03  0.12699999809E+01 0. -1.
       -4    1    3    3    0  502  0.49620898736E+03  0.74796371245E+02 -0.14584443478E+04  0.15423616258E+04  0.12699999809E+01 0.  1.
</event>
<event>
 5   0  0.1159914E-04  0.1994743E+04  0.7818609E-02  0.8609082E-01
        2   -1    0    0  501    0  0.00000000000E+00  0.00000000000E+00  0.16731899037E+04  0.16731899037E+04  0.25500000920E-02 0. -1.
       -2   -1    0    0    0  501  0.00000000000E+00  0.00000000000E+00 -0.59452328577E+03  0.59452328578E+03  0.25500000920E-02 0.  1.
    10030    2    1    2    0    0  0.00000000000E+00  0.00000000000E+00  0.10786666179E+04  0.22677131894E+04  0.19947434514E+04 0.  0.
        3    1    3    3  502    0 -0.58349931302E+03  0.23321704793E+03 -0.34118100828E+03  0.71502876191E+03  0.10100000352E+00 0.  1.
       -3    1    3    3    0  502  0.58349931302E+03 -0.23321704793E+03  0.14198476262E+04  0.15526844275E+04  0.10100000352E+00 0. -1.
</event>
<event>
 5   0  0.6214547E-05  0.1995083E+04  0.7818609E-02  0.8608923E-01
        1   -1    0    0  501    0  0.00000000000E+00  0.00000000000E+00  0.18799023308E+04  0.18799023308E+04  0.50400001928E-02 0. -1.
       -1   -1    0    0    0  501  0.00000000000E+00  0.00000000000E+00 -0.52933024712E+03  0.52933024715E+03  0.50400001928E-02 0.  1.
    10030    2    1    2    0    0  0.00000000000E+00  0.00000000000E+00  0.13505720837E+04  0.24092325780E+04  0.19950831214E+04 0.  0.
        3    1    3    3  502    0 -0.79387812540E+03 -0.52981233659E+03  0.32499151758E+03  0.10082475324E+04  0.10100000352E+00 0. -1.
       -3    1    3    3    0  502  0.79387812540E+03  0.52981233659E+03  0.10255805661E+04  0.14009850455E+04  0.10100000352E+00 0.  1.
</event>
<event>
 5   0  0.1244229E-04  0.1979162E+04  0.7818609E-02  0.8616425E-01
       -2   -1    0    0    0  501  0.00000000000E+00  0.00000000000E+00  0.60787843278E+03  0.60787843278E+03  0.25500000920E-02 0. -1.
        2   -1    0    0  501    0  0.00000000000E+00  0.00000000000E+00 -0.16109651555E+04  0.16109651555E+04  0.25500000920E-02 0.  1.
    10030    2    1    2    0    0  0.00000000000E+00  0.00000000000E+00 -0.10030867227E+04  0.22188435883E+04  0.19791624228E+04 0.  0.
        5    1    3    3  502    0 -0.83047252055E+03 -0.53347121604E+03 -0.58060085683E+03  0.11451618186E+04  0.46999998093E+01 0.  1.
       -5    1    3    3    0  502  0.83047252055E+03  0.53347121604E+03 -0.42248586587E+03  0.10736817697E+04  0.46999998093E+01 0. -1.
</event>
<event>
 5   0  0.1159914E-04  0.2123152E+04  0.7818609E-02  0.8551113E-01
        2   -1    0    0  501    0  0.00000000000E+00  0.00000000000E+00  0.14376070756E+04  0.14376070756E+04  0.25500000920E-02 0. -1.
       -2   -1    0    0    0  501  0.00000000000E+00  0.00000000000E+00 -0.78390222844E+03  0.78390222844E+03  0.25500000920E-02 0.  1.
    10030    2    1    2    0    0  0.00000000000E+00  0.00000000000E+00  0.65370484718E+03  0.22215093041E+04  0.21231517988E+04 0.  0.
        3    1    3    3  502    0 -0.26541570309E+03  0.17407833536E+03  0.13867940707E+04  0.14226547603E+04  0.10100000352E+00 0. -1.
       -3    1    3    3    0  502  0.26541570309E+03 -0.17407833536E+03 -0.73308922350E+03  0.79885454377E+03  0.10100000352E+00 0.  1.
</event>
<event>
 5   0  0.6214547E-05  0.2012340E+04  0.7818609E-02  0.8600873E-01
       -1   -1    0    0    0  501  0.00000000000E+00  0.00000000000E+00  0.15389560664E+04  0.15389560664E+04  0.50400001928E-02 0. -1.
        1   -1    0    0  501    0  0.00000000000E+00  0.00000000000E+00 -0.65783448242E+03  0.65783448244E+03  0.50400001928E-02 0.  1.
    10030    2    1    2    0    0  0.00000000000E+00  0.00000000000E+00  0.88112158394E+03  0.21967905488E+04  0.20123402967E+04 0.  0.
        3    1    3    3  502    0 -0.24452197300E+03  0.53138726861E+03 -0.45314439275E+03  0.73993464265E+03  0.10100000352E+00 0.  1.
       -3    1    3    3    0  502  0.24452197300E+03 -0.53138726861E+03  0.13342659767E+04  0.14568559061E+04  0.10100000352E+00 0. -1.
</event>
<event>
 5   0  0.1242761E-04  0.2003578E+04  0.7818609E-02  0.8604950E-01
        2   -1    0    0  501    0  0.00000000000E+00  0.00000000000E+00  0.21542973960E+04  0.21542973961E+04  0.25500000920E-02 0. -1.
       -2   -1    0    0    0  501  0.00000000000E+00  0.00000000000E+00 -0.46585080980E+03  0.46585080981E+03  0.25500000920E-02 0.  1.
    10030    2    1    2    0    0  0.00000000000E+00  0.00000000000E+00  0.16884465863E+04  0.26201482059E+04  0.20035779860E+04 0.  0.
        4    1    3    3  502    0  0.69673559351E+03 -0.39952832397E+03  0.16272453598E+04  0.18146604208E+04  0.12699999809E+01 0. -1.
       -4    1    3    3    0  502 -0.69673559351E+03  0.39952832397E+03  0.61201226500E+02  0.80548778510E+03  0.12699999809E+01 0.  1.
</event>
<event>
 5   0  0.1244229E-04  0.1956873E+04  0.7818609E-02  0.8627053E-01
       -2   -1    0    0    0  501  0.00000000000E+00  0.00000000000E+00  0.14126032990E+04  0.14126032990E+04  0.25500000920E-02 0.  1.
        2   -1    0    0  501    0  0.00000000000E+00  0.00000000000E+00 -0.67771207035E+03  0.67771207035E+03  0.25500000920E-02 0. -1.
    10030    2    1    2    0    0  0.00000000000E+00  0.00000000000E+00  0.73489122867E+03  0.20903153694E+04  0.19568733289E+04 0.  0.
        5    1    3    3  502    0 -0.19243675908E+03 -0.79478120983E+03 -0.20640999906E+03  0.84340752632E+03  0.46999998093E+01 0. -1.
       -5    1    3    3    0  502  0.19243675908E+03  0.79478120983E+03  0.94130122774E+03  0.12469078431E+04  0.46999998093E+01 0.  1.
</event>
<event>
 5   0  0.6222733E-05  0.2001827E+04  0.7818609E-02  0.8605767E-01
        1   -1    0    0  501    0  0.00000000000E+00  0.00000000000E+00  0.13926891861E+04  0.13926891861E+04  0.50400001928E-02 0.  1.
       -1   -1    0    0    0  501  0.00000000000E+00  0.00000000000E+00 -0.71934763245E+03  0.71934763247E+03  0.50400001928E-02 0. -1.
    10030    2    1    2    0    0  0.00000000000E+00  0.00000000000E+00  0.67334155369E+03  0.21120368186E+04  0.20018268345E+04 0.  0.
        2    1    3    3  502    0 -0.76082375466E+03 -0.84427605222E+02  0.10170353519E+04  0.12729264367E+04  0.25500000920E-02 0.  1.
       -2    1    3    3    0  502  0.76082375466E+03  0.84427605222E+02 -0.34369379819E+03  0.83911038195E+03  0.25500000920E-02 0. -1.
</event>
<event>
 5   0  0.6028501E-05  0.2011628E+04  0.7818609E-02  0.8601204E-01
        1   -1    0    0  501    0  0.00000000000E+00  0.00000000000E+00  0.18577416872E+04  0.18577416872E+04  0.50400001928E-02 0. -1.
       -1   -1    0    0    0  501  0.00000000000E+00  0.00000000000E+00 -0.54456511882E+03  0.54456511885E+03  0.50400001928E-02 0.  1.
    10030    2    1    2    0    0  0.00000000000E+00  0.00000000000E+00  0.13131765684E+04  0.24023068061E+04  0.20116275228E+04 0.  0.
        4    1    3    3  502    0 -0.81332704406E+03 -0.57281504962E+02 -0.46757789028E+02  0.81668228532E+03  0.12699999809E+01 0.  1.
       -4    1    3    3    0  502  0.81332704406E+03  0.57281504962E+02  0.13599343574E+04  0.15856245207E+04  0.12699999809E+01 0. -1.
</event>
<event>
 5   0  0.6214547E-05  0.1992388E+04  0.7818609E-02  0.8610188E-01
        1   -1    0    0  501    0  0.00000000000E+00  0.00000000000E+00  0.10140763379E+04  0.10140763379E+04  0.50400001928E-02 0.  1.
       -1   -1    0    0    0  501  0.00000000000E+00  0.00000000000E+00 -0.97862701189E+03  0.97862701191E+03  0.50400001928E-02 0. -1.
    10030    2    1    2    0    0  0.00000000000E+00  0.00000000000E+00  0.35449325979E+02  0.19927033498E+04  0.19923880108E+04 0.  0.
        3    1    3    3  502    0 -0.18955022854E+03  0.41631403033E+03  0.90282564475E+03  0.10120972364E+04  0.10100000352E+00 0.  1.
       -3    1    3    3    0  502  0.18955022854E+03 -0.41631403033E+03 -0.86737631877E+03  0.98060611336E+03  0.10100000352E+00 0. -1.
</event>
<event>
 5   0  0.6168338E-05  0.2015293E+04  0.7818609E-02  0.8599504E-01
       -1   -1    0    0    0  501  0.00000000000E+00  0.00000000000E+00  0.14116687962E+04  0.14116687962E+04  0.50400001928E-02 0.  1.
        1   -1    0    0  501    0  0.00000000000E+00  0.00000000000E+00 -0.71925616880E+03  0.71925616882E+03  0.50400001928E-02 0. -1.
    10030    2    1    2    0    0  0.00000000000E+00  0.00000000000E+00  0.69241262737E+03  0.21309249650E+04  0.20152930208E+04 0.  0.
        5    1    3    3  502    0 -0.38578318713E+03  0.45149148502E+03 -0.51453783692E+03  0.78577637031E+03  0.46999998093E+01 0. -1.
       -5    1    3    3    0  502  0.38578318713E+03 -0.45149148502E+03  0.12069504643E+04  0.13451485947E+04  0.46999998093E+01 0.  1.
</event>
<event>
 5   0  0.1159914E-04  0.1955481E+04  0.7818609E-02  0.8627722E-01
       -2   -1    0    0    0  501  0.00000000000E+00  0.00000000000E+00  0.88745341016E+03  0.88745341017E+03  0.25500000920E-02 0.  1.
        2   -1    0    0  501    0  0.00000000000E+00  0.00000000000E+00 -0.10772128584E+04  0.10772128584E+04  0.25500000920E-02 0. -1.
    10030    2    1    2    0    0  0.00000000000E+00  0.00000000000E+00 -0.18975944820E+03  0.19646662685E+04  0.19554807334E+04 0.  0.
        3    1    3    3  502    0 -0.47900447804E+03  0.54112984716E+03  0.56677995715E+03  0.91842600763E+03  0.10100000352E+00 0. -1.
       -3    1    3    3    0  502  0.47900447804E+03 -0.54112984716E+03 -0.75653940535E+03  0.10462402609E+04  0.10100000352E+00 0.  1.
</event>
<event>
 5   0  0.6256535E-05  0.1990043E+04  0.7818609E-02  0.8611290E-01
        1   -1    0    0  501    0  0.00000000000E+00  0.00000000000E+00  0.22322376993E+04  0.22322376993E+04  0.50400001928E-02 0. -1.
       -1   -1    0    0    0  501  0.00000000000E+00  0.00000000000E+00 -0.44353134469E+03  0.44353134472E+03  0.50400001928E-02 0.  1.
    10030    2    1    2    0    0  0.00000000000E+00  0.00000000000E+00  0.17887063546E+04  0.26757690440E+04  0.19900426010E+04 0.  0.
        1    1    3    3  502    0  0.89251116079E+03 -0.12590389799E+03  0.32764963055E+03  0.95905278482E+03  0.50400001928E-02 0.  1.
       -1    1    3    3    0  502 -0.89251116079E+03  0.12590389799E+03  0.14610567241E+04  0.17167162592E+04  0.50400001928E-02 0. -1.
</event>
<event>
 5   0  0.1274868E-04  0.1969191E+04  0.7818609E-02  0.8621162E-01
       -2   -1    0    0    0  501  0.00000000000E+00  0.00000000000E+00  0.15060313885E+04  0.15060313885E+04  0.25500000920E-02 0. -1.
        2   -1    0    0  501    0  0.00000000000E+00  0.00000000000E+00 -0.64369717370E+03  0.64369717370E+03  0.25500000920E-02 0.  1.
    10030    2    1    2    0    0  0.00000000000E+00  0.00000000000E+00  0.86233421482E+03  0.21497285622E+04  0.19691908473E+04 0.  0.
        1    1    3    3  502    0  0.33238249087E+03  0.46441750739E+03 -0.44440366154E+03  0.72364104073E+03  0.50400001928E-02 0.  1.
       -1    1    3    3    0  502 -0.33238249087E+03 -0.46441750739E+03  0.13067378764E+04  0.14260875215E+04  0.50400001928E-02 0. -1.
</event>
<event>
 5   0  0.6214547E-05  0.1988114E+04  0.7818609E-02  0.8612198E-01
       -1   -1    0    0    0  501  0.00000000000E+00  0.00000000000E+00  0.11635414106E+04  0.11635414106E+04  0.50400001928E-02 0. -1.
        1   -1    0    0  501    0  0.00000000000E+00  0.00000000000E+00 -0.84925996914E+03  0.84925996916E+03  0.50400001928E-02 0.  1.
    10030    2    1    2    0    0  0.00000000000E+00  0.00000000000E+00  0.31428144149E+03  0.20128013798E+04  0.19881138222E+04 0.  0.
        3    1    3    3  502    0  0.79015414034E+03  0.58880392372E+03  0.24689931267E+02  0.98571965030E+03  0.10100000352E+00 0.  1.
       -3    1    3    3    0  502 -0.79015414034E+03 -0.58880392372E+03  0.28959151022E+03  0.10270817295E+04  0.10100000352E+00 0. -1.
</event>
<event>
 5   0  0.6222733E-05  0.2028744E+04  0.7818609E-02  0.8593299E-01
        1   -1    0    0  501    0  0.00000000000E+00  0.00000000000E+00  0.10645169314E+04  0.10645169315E+04  0.50400001928E-02 0.  1.
       -1   -1    0    0    0  501  0.00000000000E+00  0.00000000000E+00 -0.96658927814E+03  0.96658927815E+03  0.50400001928E-02 0. -1.
    10030    2    1    2    0    0  0.00000000000E+00  0.00000000000E+00  0.97927653308E+02  0.20311062096E+04  0.20287440966E+04 0.  0.
        2    1    3    3  502    0  0.45019903275E+03  0.24177071350E+03  0.92623654549E+03  0.10578498878E+04  0.25500000920E-02 0.  1.
       -2    1    3    3    0  502 -0.45019903275E+03 -0.24177071350E+03 -0.82830889219E+03  0.97325632177E+03  0.25500000920E-02 0. -1.
</event>
<event>
 5   0  0.6168338E-05  0.2007542E+04  0.7818609E-02  0.8603102E-01
       -1   -1    0    0    0  501  0.00000000000E+00  0.00000000000E+00  0.12613246248E+04  0.12613246248E+04  0.50400001928E-02 0.  1.
        1   -1    0    0  501    0  0.00000000000E+00  0.00000000000E+00 -0.79880833852E+03  0.79880833854E+03  0.50400001928E-02 0. -1.
    10030    2    1    2    0    0  0.00000000000E+00  0.00000000000E+00  0.46251628630E+03  0.20601329634E+04  0.20075424060E+04 0.  0.
        5    1    3    3  502    0 -0.73453759089E+03  0.24307810718E+03  0.88746413779E+03  0.11773899628E+04  0.46999998093E+01 0.  1.
       -5    1    3    3    0  502  0.73453759089E+03 -0.24307810718E+03 -0.42494785148E+03  0.88274300059E+03  0.46999998093E+01 0. -1.
</event>
<event>
 5   0  0.1244229E-04  0.2005143E+04  0.7818609E-02  0.8604220E-01
       -2   -1    0    0    0  501  0.00000000000E+00  0.00000000000E+00  0.15401498804E+04  0.15401498804E+04  0.25500000920E-02 0.  1.
        2   -1    0    0  501    0  0.00000000000E+00  0.00000000000E+00 -0.65263100879E+03  0.65263100879E+03  0.25500000920E-02 0. -1.
    10030    2    1    2    0    0  0.00000000000E+00  0.00000000000E+00  0.88751887157E+03  0.21927808891E+04  0.20051429576E+04 0.  0.
        5    1    3    3  502    0 -0.88330238440E+03  0.46952119763E+03  0.37077405738E+03  0.10668499187E+04  0.46999998093E+01 0.  1.
       -5    1    3    3    0  502  0.88330238440E+03 -0.46952119763E+03  0.51674481419E+03  0.11259309705E+04  0.46999998093E+01 0. -1.
</event>
<event>
 5   0  0.1244229E-04  0.2021231E+04  0.7818609E-02  0.8596758E-01
       -2   -1    0    0    0  501  0.00000000000E+00  0.00000000000E+00  0.77403160365E+03  0.77403160365E+03  0.25500000920E-02 0. -1.
        2   -1    0    0  501    0  0.00000000000E+00  0.00000000000E+00 -0.13195119887E+04  0.13195119887E+04  0.25500000920E-02 0.  1.
    10030    2    1    2    0    0  0.00000000000E+00  0.00000000000E+00 -0.54548038509E+03  0.20935435924E+04  0.20212312888E+04 0.  0.
        5    1    3    3  502    0  0.99337608222E+03  0.16664601731E+03 -0.18761125329E+03  0.10245911420E+04  0.46999998093E+01 0. -1.
       -5    1    3    3    0  502 -0.99337608222E+03 -0.16664601731E+03 -0.35786913181E+03  0.10689524504E+04  0.46999998093E+01 0.  1.
</event>
<event>
 5   0  0.1244229E-04  0.2029615E+04  0.7818609E-02  0.8592898E-01
        2   -1    0    0  501    0  0.00000000000E+00  0.00000000000E+00  0.97533967742E+03  0.97533967742E+03  0.25500000920E-02 0.  1.
       -2   -1    0    0    0  501  0.00000000000E+00  0.00000000000E+00 -0.10558727886E+04  0.10558727886E+04  0.25500000920E-02 0. -1.
    10030    2    1    2    0    0  0.00000000000E+00  0.00000000000E+00 -0.80533111136E+02  0.20312124660E+04  0.20296153576E+04 0.  0.
        5    1    3    3  502    0  0.72833469187E+03 -0.70542412456E+03  0.12138112987E+01  0.10139616276E+04  0.46999998093E+01 0.  1.
       -5    1    3    3    0  502 -0.72833469187E+03  0.70542412456E+03 -0.81746922435E+02  0.10172508384E+04  0.46999998093E+01 0. -1.
</event>
<event>
 5   0  0.6028501E-05  0.1987030E+04  0.7818609E-02  0.8612709E-01
        1   -1    0    0  501    0  0.00000000000E+00  0.00000000000E+00  0.92772788702E+03  0.92772788703E+03  0.50400001928E-02 0.  1.
       -1   -1    0    0    0  501  0.00000000000E+00  0.00000000000E+00 -0.10639669546E+04  0.10639669547E+04  0.50400001928E-02 0. -1.
    10030    2    1    2    0    0  0.00000000000E+00  0.00000000000E+00 -0.13623906763E+03  0.19916948417E+04  0.19870297579E+04 0.  0.
        4    1    3    3  502    0 -0.38518349187E+03  0.23840856396E+03 -0.95442694165E+03  0.10564740251E+04  0.12699999809E+01 0. -1.
       -4    1    3    3    0  502  0.38518349187E+03 -0.23840856396E+03  0.81818787402E+03  0.93522081664E+03  0.12699999809E+01 0.  1.
</event>
<event>
 5   0  0.1281789E-04  0.1891192E+04  0.7818609E-02  0.8659253E-01
       -2   -1    0    0    0  501  0.00000000000E+00  0.00000000000E+00  0.10064923741E+04  0.10064923741E+04  0.25500000920E-02 0. -1.
        2   -1    0    0  501    0  0.00000000000E+00  0.00000000000E+00 -0.88838368486E+03  0.88838368486E+03  0.25500000920E-02 0.  1.
    10030    2    1    2    0    0  0.00000000000E+00  0.00000000000E+00  0.11810868923E+03  0.18948760590E+04  0.18911915864E+04 0.  0.
        2    1    3    3  502    0 -0.12444060972E+03  0.10889395267E+03  0.99189346013E+03  0.10055824156E+04  0.25500000920E-02 0. -1.
       -2    1    3    3    0  502  0.12444060972E+03 -0.10889395267E+03 -0.87378477090E+03  0.88929364337E+03  0.25500000920E-02 0.  1.
</event>
<event>
 5   0  0.1159914E-04  0.2009256E+04  0.7818609E-02  0.8602305E-01
       -2   -1    0    0    0  501  0.00000000000E+00  0.00000000000E+00  0.80360011764E+03  0.80360011765E+03  0.25500000920E-02 0.  1.
        2   -1    0    0  501    0  0.00000000000E+00  0.00000000000E+00 -0.12559452460E+04  0.12559452460E+04  0.25500000920E-02 0. -1.
    10030    2    1    2    0    0  0.00000000000E+00  0.00000000000E+00 -0.45234512831E+03  0.20595453636E+04  0.20092563275E+04 0.  0.
        3    1    3    3  502    0 -0.70382309294E+03  0.71160141674E+03 -0.31514490452E+03  0.10493139871E+04  0.10100000352E+00 0.  1.
       -3    1    3    3    0  502  0.70382309294E+03 -0.71160141674E+03 -0.13720022379E+03  0.10102313765E+04  0.10100000352E+00 0. -1.
</event>
<event>
 5   0  0.6214547E-05  0.2005337E+04  0.7818609E-02  0.8604130E-01
       -1   -1    0    0    0  501  0.00000000000E+00  0.00000000000E+00  0.47389971606E+03  0.47389971609E+03  0.50400001928E-02 0. -1.
        1   -1    0    0  501    0  0.00000000000E+00  0.00000000000E+00 -0.21214271669E+04  0.21214271669E+04  0.50400001928E-02 0.  1.
    10030    2    1    2    0    0  0.00000000000E+00  0.00000000000E+00 -0.16475274509E+04  0.25953268830E+04  0.20053366122E+04 0.  0.
        3    1    3    3  502    0  0.19342141154E+02 -0.82793048783E+03 -0.15553081365E+04  0.17620517645E+04  0.10100000352E+00 0.  1.
       -3    1    3    3    0  502 -0.19342141154E+02  0.82793048783E+03 -0.92219314420E+02  0.83327511858E+03  0.10100000352E+00 0. -1.
</event>
<event>
 5   0  0.1159914E-04  0.1988181E+04  0.7818609E-02  0.8612167E-01
       -2   -1    0    0    0  501  0.00000000000E+00  0.00000000000E+00  0.61383482819E+03  0.61383482820E+03  0.25500000920E-02 0.  1.
        2   -1    0    0  501    0  0.00000000000E+00  0.00000000000E+00 -0.16099047625E+04  0.16099047625E+04  0.25500000920E-02 0. -1.
    10030    2    1    2    0    0  0.00000000000E+00  0.00000000000E+00 -0.99606993426E+03  0.22237395906E+04  0.19881806892E+04 0.  0.
        3    1    3    3  502    0 -0.61973448569E+03  0.42967931116E+03 -0.12224786837E+04  0.14363666960E+04  0.10100000352E+00 0. -1.
       -3    1    3    3    0  502  0.61973448569E+03 -0.42967931116E+03  0.22640874942E+03  0.78737289463E+03  0.10100000352E+00 0.  1.
</event>
<event>
 5   0  0.6028501E-05  0.1860171E+04  0.7818609E-02  0.8674940E-01
       -1   -1    0    0    0  501  0.00000000000E+00  0.00000000000E+00  0.64570122297E+03  0.64570122299E+03  0.50400001928E-02 0. -1.
        1   -1    0    0  501    0  0.00000000000E+00  0.00000000000E+00 -0.13397203646E+04  0.13397203646E+04  0.50400001928E-02 0.  1.
    10030    2    1    2    0    0  0.00000000000E+00  0.00000000000E+00 -0.69401914165E+03  0.19854215876E+04  0.18601710437E+04 0.  0.
        4    1    3    3  502    0 -0.31725830106E+02 -0.39246841092E+03  0.55235338038E+03  0.67833166783E+03  0.12699999809E+01 0. -1.
       -4    1    3    3    0  502  0.31725830106E+02  0.39246841092E+03 -0.12463725220E+04  0.13070899198E+04  0.12699999809E+01 0.  1.
</event>
<event>
 5   0  0.1244229E-04  0.1993121E+04  0.7818609E-02  0.8609844E-01
       -2   -1    0    0    0  501  0.00000000000E+00  0.00000000000E+00  0.46165338985E+03  0.46165338986E+03  0.25500000920E-02 0. -1.
        2   -1    0    0  501    0  0.00000000000E+00  0.00000000000E+00 -0.21512523276E+04  0.21512523276E+04  0.25500000920E-02 0.  1.
    10030    2    1    2    0    0  0.00000000000E+00  0.00000000000E+00 -0.16895989378E+04  0.26129057175E+04  0.19931210997E+04 0.  0.
        5    1    3    3  502    0 -0.76690326505E+03  0.25419705735E+03 -0.79985993119E+02  0.81189692142E+03  0.46999998093E+01 0. -1.
       -5    1    3    3    0  502  0.76690326505E+03 -0.25419705735E+03 -0.16096129446E+04  0.18010087960E+04  0.46999998093E+01 0.  1.
</event>
<event>
 5   0  0.6214547E-05  0.2066126E+04  0.7818609E-02  0.8576314E-01
        1   -1    0    0  501    0  0.00000000000E+00  0.00000000000E+00  0.15878019809E+04  0.15878019809E+04  0.50400001928E-02 0. -1.
       -1   -1    0    0    0  501  0.00000000000E+00  0.00000000000E+00 -0.67213641766E+03  0.67213641768E+03  0.50400001928E-02 0.  1.
    10030    2    1    2    0    0  0.00000000000E+00  0.00000000000E+00  0.91566556326E+03  0.22599383986E+04  0.20661263615E+04 0.  0.
        3    1    3    3  502    0  0.10229794241E+04  0.14060889392E+03  0.42391139999E+03  0.11162251782E+04  0.10100000352E+00 0.  1.
       -3    1    3    3    0  502 -0.10229794241E+04 -0.14060889392E+03  0.49175416328E+03  0.11437132204E+04  0.10100000352E+00 0. -1.
</event>
<event>
 5   0  0.1281789E-04  0.1992307E+04  0.7818609E-02  0.8610226E-01
        2   -1    0    0  501    0  0.00000000000E+00  0.00000000000E+00  0.74181467685E+03  0.74181467686E+03  0.25500000920E-02 0.  1.
       -2   -1    0    0    0  501  0.00000000000E+00  0.00000000000E+00 -0.13376952425E+04  0.13376952425E+04  0.25500000920E-02 0. -1.
    10030    2    1    2    0    0  0.00000000000E+00  0.00000000000E+00 -0.59588056568E+03  0.20795099194E+04  0.19923071692E+04 0.  0.
        2    1    3    3  502    0  0.11499181992E+03  0.97878246965E+03 -0.14638246462E+03  0.99632628566E+03  0.25500000920E-02 0.  1.
       -2    1    3    3    0  502 -0.11499181992E+03 -0.97878246965E+03 -0.44949810106E+03  0.10831836337E+04  0.25500000920E-02 0. -1.
</event>
<event>
 5   0  0.6168338E-05  0.1997059E+04  0.7818609E-02  0.8607997E-01
        1   -1    0    0  501    0  0.00000000000E+00  0.00000000000E+00  0.24953624967E+04  0.24953624967E+04  0.50400001928E-02 0.  1.
       -1   -1    0    0    0  501  0.00000000000E+00  0.00000000000E+00 -0.39956546116E+03  0.39956546120E+03  0.50400001928E-02 0. -1.
    10030    2    1    2    0    0  0.00000000000E+00  0.00000000000E+00  0.20957970355E+04  0.28949279579E+04  0.19970585037E+04 0.  0.
        5    1    3    3  502    0  0.63731523445E+03 -0.15262950907E+03  0.21399861602E+04  0.22380860866E+04  0.46999998093E+01 0.  1.
       -5    1    3    3    0  502 -0.63731523445E+03  0.15262950907E+03 -0.44189124723E+02  0.65684187126E+03  0.46999998093E+01 0. -1.
</event>
<event>
 5   0  0.6222733E-05  0.1963582E+04  0.7818609E-02  0.8623839E-01
        1   -1    0    0  501    0  0.00000000000E+00  0.00000000000E+00  0.11370274527E+04  0.11370274527E+04  0.50400001928E-02 0.  1.
       -1   -1    0    0    0  501  0.00000000000E+00  0.00000000000E+00 -0.84774878770E+03  0.84774878772E+03  0.50400001928E-02 0. -1.
    10030    2    1    2    0    0  0.00000000000E+00  0.00000000000E+00  0.28927866502E+03  0.19847762405E+04  0.19635820784E+04 0.  0.
        2    1    3    3  502    0 -0.89612719404E+03  0.30388572756E+03  0.40923406148E+03  0.10309524724E+04  0.25500000920E-02 0.  1.
       -2    1    3    3    0  502  0.89612719404E+03 -0.30388572756E+03 -0.11995539646E+03  0.95382376803E+03  0.25500000920E-02 0. -1.
</event>
<event>
 5   0  0.6168338E-05  0.2007121E+04  0.7818609E-02  0.8603299E-01
        1   -1    0    0  501    0  0.00000000000E+00  0.00000000000E+00  0.10782797437E+04  0.10782797437E+04  0.50400001928E-02 0. -1.
       -1   -1    0    0    0  501  0.00000000000E+00  0.00000000000E+00 -0.93401891624E+03  0.93401891626E+03  0.50400001928E-02 0.  1.
    10030    2    1    2    0    0  0.00000000000E+00  0.00000000000E+00  0.14426082749E+03  0.20122986600E+04  0.20071210005E+04 0.  0.
        5    1    3    3  502    0  0.33014840756E+03 -0.27295033944E+03 -0.83774125922E+03  0.94092102018E+03  0.46999998093E+01 0.  1.
       -5    1    3    3    0  502 -0.33014840756E+03  0.27295033944E+03  0.98200208671E+03  0.10713776398E+04  0.46999998093E+01 0. -1.
</event>
<event>
 5   0  0.1244229E-04  0.2003134E+04  0.7818609E-02  0.8605157E-01
        2   -1    0    0  501    0  0.00000000000E+00  0.00000000000E+00  0.20711472209E+04  0.20711472209E+04  0.25500000920E-02 0.  1.
       -2   -1    0    0    0  501  0.00000000000E+00  0.00000000000E+00 -0.48433859118E+03  0.48433859119E+03  0.25500000920E-02 0. -1.
    10030    2    1    2    0    0  0.00000000000E+00  0.00000000000E+00  0.15868086297E+04  0.25554858121E+04  0.20031340715E+04 0.  0.
        5    1    3    3  502    0 -0.10834670769E+03  0.93652035042E+03  0.12247209283E+04  0.15455655334E+04  0.46999998093E+01 0.  1.
       -5    1    3    3    0  502  0.10834670769E+03 -0.93652035042E+03  0.36208770144E+03  0.10099202787E+04  0.46999998093E+01 0. -1.
</event>
<event>
 5   0  0.6168338E-05  0.1918354E+04  0.7818609E-02  0.8645774E-01
       -1   -1    0    0    0  501  0.00000000000E+00  0.00000000000E+00  0.40772348652E+03  0.40772348655E+03  0.50400001928E-02 0.  1.
        1   -1    0    0  501    0  0.00000000000E+00  0.00000000000E+00 -0.22564811071E+04  0.22564811071E+04  0.50400001928E-02 0. -1.
    10030    2    1    2    0    0  0.00000000000E+00  0.00000000000E+00 -0.18487576206E+04  0.26642045937E+04  0.19183538196E+04 0.  0.
        5    1    3    3  502    0  0.17279205506E+03  0.86857929252E+03 -0.14359978088E+04  0.16871274043E+04  0.46999998093E+01 0. -1.
       -5    1    3    3    0  502 -0.17279205506E+03 -0.86857929252E+03 -0.41275981185E+03  0.97707718936E+03  0.46999998093E+01 0.  1.
</event>
<event>
 5   0  0.1274868E-04  0.1980648E+04  0.7818609E-02  0.8615722E-01
        2   -1    0    0  501    0  0.00000000000E+00  0.00000000000E+00  0.25222835671E+04  0.25222835671E+04  0.25500000920E-02 0. -1.
       -2   -1    0    0    0  501  0.00000000000E+00  0.00000000000E+00 -0.38883071171E+03  0.38883071172E+03  0.25500000920E-02 0.  1.
    10030    2    1    2    0    0  0.00000000000E+00  0.00000000000E+00  0.21334528554E+04  0.29111142788E+04  0.19806476865E+04 0.  0.
        1    1    3    3  502    0 -0.16100545047E+03  0.31384718002E+03 -0.29336996436E+03  0.45879052246E+03  0.50400001928E-02 0.  1.
       -1    1    3    3    0  502  0.16100545047E+03 -0.31384718002E+03  0.24268228197E+04  0.24523237563E+04  0.50400001928E-02 0. -1.
</event>
<event>
 5   0  0.1244229E-04  0.1993311E+04  0.7818609E-02  0.8609754E-01
       -2   -1    0    0    0  501  0.00000000000E+00  0.00000000000E+00  0.84231316966E+03  0.84231316966E+03  0.25500000920E-02 0. -1.
        2   -1    0    0  501    0  0.00000000000E+00  0.00000000000E+00 -0.11792791480E+04  0.11792791480E+04  0.25500000920E-02 0.  1.
    10030    2    1    2    0    0  0.00000000000E+00  0.00000000000E+00 -0.33696597833E+03  0.20215923176E+04  0.19933111720E+04 0.  0.
        5    1    3    3  502    0  0.45121078592E+03 -0.61600932634E+03 -0.81807148986E+03  0.11190718100E+04  0.46999998093E+01 0.  1.
       -5    1    3    3    0  502 -0.45121078592E+03  0.61600932634E+03  0.48110551153E+03  0.90252050763E+03  0.46999998093E+01 0. -1.
</event>
<event>
 5   0  0.1244229E-04  0.1985177E+04  0.7818609E-02  0.8613582E-01
        2   -1    0    0  501    0  0.00000000000E+00  0.00000000000E+00  0.11962905413E+04  0.11962905413E+04  0.25500000920E-02 0.  1.
       -2   -1    0    0    0  501  0.00000000000E+00  0.00000000000E+00 -0.82357237561E+03  0.82357237561E+03  0.25500000920E-02 0. -1.
    10030    2    1    2    0    0  0.00000000000E+00  0.00000000000E+00  0.37271816565E+03  0.20198629169E+04  0.19851769120E+04 0.  0.
        5    1    3    3  502    0 -0.88783781885E+03 -0.37939637002E+03  0.42062570154E+03  0.10531598497E+04  0.46999998093E+01 0. -1.
       -5    1    3    3    0  502  0.88783781885E+03  0.37939637002E+03 -0.47907535884E+02  0.96670306721E+03  0.46999998093E+01 0.  1.
</event>
<event>
 5   0  0.6168338E-05  0.1735941E+04  0.7818609E-02  0.8741127E-01
        1   -1    0    0  501    0  0.00000000000E+00  0.00000000000E+00  0.14750107272E+04  0.14750107272E+04  0.50400001928E-02 0.  1.
       -1   -1    0    0    0  501  0.00000000000E+00  0.00000000000E+00 -0.51075754556E+03  0.51075754559E+03  0.50400001928E-02 0. -1.
    10030    2    1    2    0    0  0.00000000000E+00  0.00000000000E+00  0.96425318167E+03  0.19857682728E+04  0.17359410805E+04 0.  0.
        5    1    3    3  502    0  0.71027011936E+03 -0.30280772463E+03  0.93563441074E+03  0.12130993369E+04  0.46999998093E+01 0.  1.
       -5    1    3    3    0  502 -0.71027011936E+03  0.30280772463E+03  0.28618770936E+02  0.77266893597E+03  0.46999998093E+01 0. -1.
</event>
<event>
 5   0  0.6168338E-05  0.2014364E+04  0.7818609E-02  0.8599934E-01
        1   -1    0    0  501    0  0.00000000000E+00  0.00000000000E+00  0.14255440812E+04  0.14255440812E+04  0.50400001928E-02 0. -1.
       -1   -1    0    0    0  501  0.00000000000E+00  0.00000000000E+00 -0.71159881748E+03  0.71159881750E+03  0.50400001928E-02 0.  1.
    10030    2    1    2    0    0  0.00000000000E+00  0.00000000000E+00  0.71394526373E+03  0.21371428987E+04  0.20143639021E+04 0.  0.
        5    1    3    3  502    0  0.33881049100E+03 -0.10363267370E+03  0.13572319020E+04  0.14027233532E+04  0.46999998093E+01 0. -1.
       -5    1    3    3    0  502 -0.33881049100E+03  0.10363267370E+03 -0.64328663826E+03  0.73441954551E+03  0.46999998093E+01 0.  1.
</event>
<event>
 5   0  0.1244229E-04  0.2001266E+04  0.7818609E-02  0.8606029E-01
        2   -1    0    0  501    0  0.00000000000E+00  0.00000000000E+00  0.15421945279E+04  0.15421945279E+04  0.25500000920E-02 0. -1.
       -2   -1    0    0    0  501  0.00000000000E+00  0.00000000000E+00 -0.64924798790E+03  0.64924798791E+03  0.25500000920E-02 0.  1.
    10030    2    1    2    0    0  0.00000000000E+00  0.00000000000E+00  0.89294654001E+03  0.21914425158E+04  0.20012662933E+04 0.  0.
        5    1    3    3  502    0  0.78427091401E+03  0.78474557115E+02  0.11214986981E+04  0.13707737022E+04  0.46999998093E+01 0. -1.
       -5    1    3    3    0  502 -0.78427091401E+03 -0.78474557115E+02 -0.22855215813E+03  0.82066881363E+03  0.46999998093E+01 0.  1.
</event>
<event>
 5   0  0.6028501E-05  0.1955391E+04  0.7818609E-02  0.8627766E-01
        1   -1    0    0  501    0  0.00000000000E+00  0.00000000000E+00  0.65321671198E+03  0.65321671200E+03  0.50400001928E-02 0. -1.
       -1   -1    0    0    0  501  0.00000000000E+00  0.00000000000E+00 -0.14633555800E+04  0.14633555800E+04  0.50400001928E-02 0.  1.
    10030    2    1    2    0    0  0.00000000000E+00  0.00000000000E+00 -0.81013886801E+03  0.21165722920E+04  0.19553908258E+04 0.  0.
        4    1    3    3  502    0  0.35066987978E+03  0.34983348503E+03 -0.13174834066E+04  0.14075215705E+04  0.12699999809E+01 0.  1.
       -4    1    3    3    0  502 -0.35066987978E+03 -0.34983348503E+03  0.50734453863E+03  0.70905072147E+03  0.12699999809E+01 0. -1.
</event>
<event>
 5   0  0.1274868E-04  0.1889602E+04  0.7818609E-02  0.8660050E-01
        2   -1    0    0  501    0  0.00000000000E+00  0.00000000000E+00  0.76977674478E+03  0.76977674479E+03  0.25500000920E-02 0. -1.
       -2   -1    0    0    0  501  0.00000000000E+00  0.00000000000E+00 -0.11596204892E+04  0.11596204893E+04  0.25500000920E-02 0.  1.
    10030    2    1    2    0    0  0.00000000000E+00  0.00000000000E+00 -0.38984374447E+03  0.19293972340E+04  0.18896019532E+04 0.  0.
        1    1    3    3  502    0 -0.88330215615E+03  0.60894630221E+02 -0.53159008244E+03  0.10327240052E+04  0.50400001928E-02 0.  1.
       -1    1    3    3    0  502  0.88330215615E+03 -0.60894630221E+02  0.14174633797E+03  0.89667322889E+03  0.50400001928E-02 0. -1.
</event>
<event>
 5   0  0.6168338E-05  0.1970557E+04  0.7818609E-02  0.8620511E-01
       -1   -1    0    0    0  501  0.00000000000E+00  0.00000000000E+00  0.61060240579E+03  0.61060240581E+03  0.50400001928E-02 0.  1.
        1   -1    0    0  501    0  0.00000000000E+00  0.00000000000E+00 -0.15898614818E+04  0.15898614818E+04  0.50400001928E-02 0. -1.
    10030    2    1    2    0    0  0.00000000000E+00  0.00000000000E+00 -0.97925907597E+03  0.22004638876E+04  0.19705565160E+04 0.  0.
        5    1    3    3  502    0  0.16516001016E+03  0.16199310396E+02  0.59487096593E+03  0.61760327292E+03  0.46999998093E+01 0.  1.
       -5    1    3    3    0  502 -0.16516001016E+03 -0.16199310396E+02 -0.15741300419E+04  0.15828606147E+04  0.46999998093E+01 0. -1.
</event>
<event>
 5   0  0.6256535E-05  0.1979911E+04  0.7818609E-02  0.8616071E-01
       -1   -1    0    0    0  501  0.00000000000E+00  0.00000000000E+00  0.57706594239E+03  0.57706594241E+03  0.50400001928E-02 0.  1.
        1   -1    0    0  501    0  0.00000000000E+00  0.00000000000E+00 -0.16982665635E+04  0.16982665635E+04  0.50400001928E-02 0. -1.
    10030    2    1    2    0    0  0.00000000000E+00  0.00000000000E+00 -0.11212006211E+04  0.22753325059E+04  0.19799109020E+04 0.  0.
        1    1    3    3  502    0 -0.51280154819E+03 -0.65144127658E+03  0.61111039062E+02  0.83130964374E+03  0.50400001928E-02 0.  1.
       -1    1    3    3    0  502  0.51280154819E+03  0.65144127658E+03 -0.11823116602E+04  0.14440228622E+04  0.50400001928E-02 0. -1.
</event>
<event>
 5   0  0.6256535E-05  0.1982232E+04  0.7818609E-02  0.8614973E-01
       -1   -1    0    0    0  501  0.00000000000E+00  0.00000000000E+00  0.14499683080E+04  0.14499683081E+04  0.50400001928E-02 0. -1.
        1   -1    0    0  501    0  0.00000000000E+00  0.00000000000E+00 -0.67747078007E+03  0.67747078009E+03  0.50400001928E-02 0.  1.
    10030    2    1    2    0    0  0.00000000000E+00  0.00000000000E+00  0.77249752797E+03  0.21274390881E+04  0.19822322374E+04 0.  0.
        1    1    3    3  502    0 -0.92702094279E+03 -0.88998185373E+02  0.22254705915E+02  0.93154912771E+03  0.50400001928E-02 0.  1.
       -1    1    3    3    0  502  0.92702094279E+03  0.88998185373E+02  0.75024282206E+03  0.11958899604E+04  0.50400001928E-02 0. -1.
</event>
<event>
 5   0  0.6028501E-05  0.2021806E+04  0.7818609E-02  0.8596493E-01
        1   -1    0    0  501    0  0.00000000000E+00  0.00000000000E+00  0.19395516568E+04  0.19395516568E+04  0.50400001928E-02 0. -1.
       -1   -1    0    0    0  501  0.00000000000E+00  0.00000000000E+00 -0.52688728507E+03  0.52688728509E+03  0.50400001928E-02 0.  1.
    10030    2    1    2    0    0  0.00000000000E+00  0.00000000000E+00  0.14126643717E+04  0.24664389419E+04  0.20218062288E+04 0.  0.
        4    1    3    3  502    0 -0.61691809559E+03  0.70787519825E+03  0.11631884465E+04  0.14948860184E+04  0.12699999809E+01 0. -1.
       -4    1    3    3    0  502  0.61691809559E+03 -0.70787519825E+03  0.24947592517E+03  0.97155292347E+03  0.12699999809E+01 0.  1.
</event>
<event>
 5   0  0.1242761E-04  0.2005375E+04  0.7818609E-02  0.8604112E-01
       -2   -1    0    0    0  501  0.00000000000E+00  0.00000000000E+00  0.57420278514E+03  0.57420278514E+03  0.25500000920E-02 0. -1.
        2   -1    0    0  501    0  0.00000000000E+00  0.00000000000E+00 -0.17509183339E+04  0.17509183339E+04  0.25500000920E-02 0.  1.
    10030    2    1    2    0    0  0.00000000000E+00  0.00000000000E+00 -0.11767155488E+04  0.23251211190E+04  0.20053749613E+04 0.  0.
        4    1    3    3  502    0 -0.11858436688E+03 -0.56755805522E+03  0.36011903571E+03  0.68254796967E+03  0.12699999809E+01 0.  1.
       -4    1    3    3    0  502  0.11858436688E+03  0.56755805522E+03 -0.15368345845E+04  0.16425731494E+04  0.12699999809E+01 0. -1.
</event>
<event>
 5   0  0.1159914E-04  0.1916058E+04  0.7818609E-02  0.8646904E-01
        2   -1    0    0  501    0  0.00000000000E+00  0.00000000000E+00  0.11500062068E+04  0.11500062068E+04  0.25500000920E-02 0. -1.
       -2   -1    0    0    0  501  0.00000000000E+00  0.00000000000E+00 -0.79809953742E+03  0.79809953742E+03  0.25500000920E-02 0.  1.
    10030    2    1    2    0    0  0.00000000000E+00  0.00000000000E+00  0.35190666935E+03  0.19481057442E+04  0.19160578505E+04 0.  0.
        3    1    3    3  502    0 -0.25598051301E+03  0.62719419253E+03  0.86472107234E+03  0.10984721759E+04  0.10100000352E+00 0. -1.
       -3    1    3    3    0  502  0.25598051301E+03 -0.62719419253E+03 -0.51281440299E+03  0.84963356825E+03  0.10100000352E+00 0.  1.
</event>
<event>
 5   0  0.6028501E-05  0.1983164E+04  0.7818609E-02  0.8614532E-01
       -1   -1    0    0    0  501  0.00000000000E+00  0.00000000000E+00  0.57753163203E+03  0.57753163205E+03  0.50400001928E-02 0.  1.
        1   -1    0    0  501    0  0.00000000000E+00  0.00000000000E+00 -0.17024787575E+04  0.17024787575E+04  0.50400001928E-02 0. -1.
    10030    2    1    2    0    0  0.00000000000E+00  0.00000000000E+00 -0.11249471254E+04  0.22800103895E+04  0.19831644766E+04 0.  0.
        4    1    3    3  502    0  0.17694500846E+03 -0.78497287934E+03 -0.12286369748E+04  0.14686873003E+04  0.12699999809E+01 0. -1.
       -4    1    3    3    0  502 -0.17694500846E+03  0.78497287934E+03  0.10368984937E+03  0.81132308921E+03  0.12699999809E+01 0.  1.
</event>
<event>
 5   0  0.1244229E-04  0.1979223E+04  0.7818609E-02  0.8616397E-01
       -2   -1    0    0    0  501  0.00000000000E+00  0.00000000000E+00  0.92491777117E+03  0.92491777117E+03  0.25500000920E-02 0. -1.
        2   -1    0    0  501    0  0.00000000000E+00  0.00000000000E+00 -0.10588298943E+04  0.10588298943E+04  0.25500000920E-02 0.  1.
    10030    2    1    2    0    0  0.00000000000E+00  0.00000000000E+00 -0.13391212312E+03  0.19837476655E+04  0.19792226614E+04 0.  0.
        5    1    3    3  502    0 -0.62750976883E+03 -0.76293245544E+03 -0.78801981352E+01  0.98788593930E+03  0.46999998093E+01 0. -1.
       -5    1    3    3    0  502  0.62750976883E+03  0.76293245544E+03 -0.12603192498E+03  0.99586172617E+03  0.46999998093E+01 0.  1.
</event>
<event>
 5   0  0.1159914E-04  0.2009591E+04  0.7818609E-02  0.8602150E-01
       -2   -1    0    0    0  501  0.00000000000E+00  0.00000000000E+00  0.55841862565E+03  0.55841862566E+03  0.25500000920E-02 0. -1.
        2   -1    0    0  501    0  0.00000000000E+00  0.00000000000E+00 -0.18079870308E+04  0.18079870308E+04  0.25500000920E-02 0.  1.
    10030    2    1    2    0    0  0.00000000000E+00  0.00000000000E+00 -0.12495684051E+04  0.23664056565E+04  0.20095906379E+04 0.  0.
        3    1    3    3  502    0  0.19338328138E+02  0.88280162308E+02  0.55362308999E+03  0.56095088374E+03  0.10100000352E+00 0. -1.
       -3    1    3    3    0  502 -0.19338328138E+02 -0.88280162308E+02 -0.18031914951E+04  0.18054547727E+04  0.10100000352E+00 0.  1.
</event>
<event>
 5   0  0.1242761E-04  0.1996621E+04  0.7818609E-02  0.8608202E-01
       -2   -1    0    0    0  501  0.00000000000E+00  0.00000000000E+00  0.66546281806E+03  0.66546281807E+03  0.25500000920E-02 0.  1.
        2   -1    0    0  501    0  0.00000000000E+00  0.00000000000E+00 -0.14976404645E+04  0.14976404645E+04  0.25500000920E-02 0. -1.
    10030    2    1    2    0    0  0.00000000000E+00  0.00000000000E+00 -0.83217764642E+03  0.21631032826E+04  0.19966211899E+04 0.  0.
        4    1    3    3  502    0  0.49879292885E+03  0.78013037628E+03 -0.82032914792E+03  0.12370688395E+04  0.12699999809E+01 0. -1.
       -4    1    3    3    0  502 -0.49879292885E+03 -0.78013037628E+03 -0.11848498504E+02  0.92603444304E+03  0.12699999809E+01 0.  1.
</event>
<event>
 5   0  0.1281789E-04  0.1695989E+04  0.7818609E-02  0.8763655E-01
       -2   -1    0    0    0  501  0.00000000000E+00  0.00000000000E+00  0.56145754813E+03  0.56145754813E+03  0.25500000920E-02 0.  1.
        2   -1    0    0  501    0  0.00000000000E+00  0.00000000000E+00 -0.12807635319E+04  0.12807635319E+04  0.25500000920E-02 0. -1.
    10030    2    1    2    0    0  0.00000000000E+00  0.00000000000E+00 -0.71930598378E+03  0.18422210800E+04  0.16959886230E+04 0.  0.
        2    1    3    3  502    0  0.52508842144E+03 -0.34279798824E+03 -0.97971962990E+03  0.11632191815E+04  0.25500000920E-02 0. -1.
       -2    1    3    3    0  502 -0.52508842144E+03  0.34279798824E+03  0.26041364612E+03  0.67900189850E+03  0.25500000920E-02 0.  1.
</event>
<event>
 5   0  0.1281789E-04  0.1993617E+04  0.7818609E-02  0.8609611E-01
        2   -1    0    0  501    0  0.00000000000E+00  0.00000000000E+00  0.20945599401E+04  0.20945599401E+04  0.25500000920E-02 0.  1.
       -2   -1    0    0    0  501  0.00000000000E+00  0.00000000000E+00 -0.47438472909E+03  0.47438472910E+03  0.25500000920E-02 0. -1.
    10030    2    1    2    0    0  0.00000000000E+00  0.00000000000E+00  0.16201752110E+04  0.25689446692E+04  0.19936170643E+04 0.  0.
        2    1    3    3  502    0 -0.80697463655E+03  0.42376490551E+03  0.13300798617E+04  0.16124196717E+04  0.25500000920E-02 0.  1.
       -2    1    3    3    0  502  0.80697463655E+03 -0.42376490551E+03  0.29009534934E+03  0.95652499753E+03  0.25500000920E-02 0. -1.
</event>
<event>
 5   0  0.1281789E-04  0.2003499E+04  0.7818609E-02  0.8604987E-01
       -2   -1    0    0    0  501  0.00000000000E+00  0.00000000000E+00  0.46957522905E+03  0.46957522906E+03  0.25500000920E-02 0.  1.
        2   -1    0    0  501    0  0.00000000000E+00  0.00000000000E+00 -0.21370421248E+04  0.21370421248E+04  0.25500000920E-02 0. -1.
    10030    2    1    2    0    0  0.00000000000E+00  0.00000000000E+00 -0.16674668958E+04  0.26066173539E+04  0.20034989845E+04 0.  0.
        2    1    3    3  502    0 -0.97632672666E+03 -0.22142747717E+03 -0.87987959573E+03  0.13328286116E+04  0.25500000920E-02 0.  1.
       -2    1    3    3    0  502  0.97632672666E+03  0.22142747717E+03 -0.78758730002E+03  0.12737887423E+04  0.25500000920E-02 0. -1.
</event>
<event>
 5   0  0.1159914E-04  0.1985148E+04  0.7818609E-02  0.8613596E-01
        2   -1    0    0  501    0  0.00000000000E+00  0.00000000000E+00  0.83311156749E+03  0.83311156749E+03  0.25500000920E-02 0.  1.
       -2   -1    0    0    0  501  0.00000000000E+00  0.00000000000E+00 -0.11825588911E+04  0.11825588911E+04  0.25500000920E-02 0. -1.
    10030    2    1    2    0    0  0.00000000000E+00  0.00000000000E+00 -0.34944732364E+03  0.20156704586E+04  0.19851483486E+04 0.  0.
        3    1    3    3  502    0 -0.86309853002E+03 -0.44598940757E+03 -0.38121677791E+03  0.10436339713E+04  0.10100000352E+00 0. -1.
       -3    1    3    3    0  502  0.86309853002E+03  0.44598940757E+03  0.31769454263E+02  0.97203648729E+03  0.10100000352E+00 0.  1.
</event>
<event>
 5   0  0.1242761E-04  0.2021372E+04  0.7818609E-02  0.8596693E-01
        2   -1    0    0  501    0  0.00000000000E+00  0.00000000000E+00  0.10559870925E+04  0.10559870925E+04  0.25500000920E-02 0.  1.
       -2   -1    0    0    0  501  0.00000000000E+00  0.00000000000E+00 -0.96732858798E+03  0.96732858798E+03  0.25500000920E-02 0. -1.
    10030    2    1    2    0    0  0.00000000000E+00  0.00000000000E+00  0.88658504507E+02  0.20233156805E+04  0.20213723092E+04 0.  0.
        4    1    3    3  502    0 -0.64639080365E+03 -0.25831067788E+03  0.77779523576E+03  0.10437971637E+04  0.12699999809E+01 0.  1.
       -4    1    3    3    0  502  0.64639080365E+03  0.25831067788E+03 -0.68913673126E+03  0.97951851673E+03  0.12699999809E+01 0. -1.
</event>
<event>
 5   0  0.1274868E-04  0.2056107E+04  0.7818609E-02  0.8580829E-01
       -2   -1    0    0    0  501  0.00000000000E+00  0.00000000000E+00  0.69285220555E+03  0.69285220555E+03  0.25500000920E-02 0. -1.
        2   -1    0    0  501    0  0.00000000000E+00  0.00000000000E+00 -0.15254244762E+04  0.15254244762E+04  0.25500000920E-02 0.  1.
    10030    2    1    2    0    0  0.00000000000E+00  0.00000000000E+00 -0.83257227070E+03  0.22182766818E+04  0.20561067217E+04 0.  0.
        1    1    3    3  502    0 -0.49302643921E+03 -0.51699787333E+03  0.38130036754E+03  0.80978505858E+03  0.50400001928E-02 0. -1.
       -1    1    3    3    0  502  0.49302643921E+03  0.51699787333E+03 -0.12138726382E+04  0.14084916232E+04  0.50400001928E-02 0.  1.
</event>
<event>
 5   0  0.6256535E-05  0.2004415E+04  0.7818609E-02  0.8604559E-01
        1   -1    0    0  501    0  0.00000000000E+00  0.00000000000E+00  0.20075969799E+04  0.20075969799E+04  0.50400001928E-02 0.  1.
       -1   -1    0    0    0  501  0.00000000000E+00  0.00000000000E+00 -0.50030960313E+03  0.50030960316E+03  0.50400001928E-02 0. -1.
    10030    2    1    2    0    0  0.00000000000E+00  0.00000000000E+00  0.15072873768E+04  0.25079065831E+04  0.20044151749E+04 0.  0.
        1    1    3    3  502    0 -0.12473712206E+03  0.30009123412E+03  0.19398402007E+04  0.19668741960E+04  0.50400001928E-02 0.  1.
       -1    1    3    3    0  502  0.12473712206E+03 -0.30009123412E+03 -0.43255282392E+03  0.54103238713E+03  0.50400001928E-02 0. -1.
</event>
<event>
 5   0  0.6214547E-05  0.1666636E+04  0.7818609E-02  0.8780625E-01
       -1   -1    0    0    0  501  0.00000000000E+00  0.00000000000E+00  0.45827719446E+03  0.45827719449E+03  0.50400001928E-02 0. -1.
        1   -1    0    0  501    0  0.00000000000E+00  0.00000000000E+00 -0.15152818612E+04  0.15152818612E+04  0.50400001928E-02 0.  1.
    10030    2    1    2    0    0  0.00000000000E+00  0.00000000000E+00 -0.10570046667E+04  0.19735590557E+04  0.16666362773E+04 0.  0.
        3    1    3    3  502    0 -0.27334221481E+03  0.78174677886E+03 -0.41884710807E+03  0.92805005403E+03  0.10100000352E+00 0.  1.
       -3    1    3    3    0  502  0.27334221481E+03 -0.78174677886E+03 -0.63815755864E+03  0.10455090016E+04  0.10100000352E+00 0. -1.
</event>
<event>
 5   0  0.6256535E-05  0.2002135E+04  0.7818609E-02  0.8605623E-01
        1   -1    0    0  501    0  0.00000000000E+00  0.00000000000E+00  0.20822042212E+04  0.20822042212E+04  0.50400001928E-02 0.  1.
       -1   -1    0    0    0  501  0.00000000000E+00  0.00000000000E+00 -0.48128633219E+03  0.48128633221E+03  0.50400001928E-02 0. -1.
    10030    2    1    2    0    0  0.00000000000E+00  0.00000000000E+00  0.16009178890E+04  0.25634905534E+04  0.20021352927E+04 0.  0.
        1    1    3    3  502    0 -0.18768159778E+03  0.98323816208E+03  0.81638753879E+03  0.12916927959E+04  0.50400001928E-02 0.  1.
       -1    1    3    3    0  502  0.18768159778E+03 -0.98323816208E+03  0.78453035020E+03  0.12717977575E+04  0.50400001928E-02 0. -1.
</event>
<event>
 5   0  0.1242761E-04  0.2012523E+04  0.7818609E-02  0.8600788E-01
       -2   -1    0    0    0  501  0.00000000000E+00  0.00000000000E+00  0.11709735819E+04  0.11709735819E+04  0.25500000920E-02 0. -1.
        2   -1    0    0  501    0  0.00000000000E+00  0.00000000000E+00 -0.86471814038E+03  0.86471814039E+03  0.25500000920E-02 0.  1.
    10030    2    1    2    0    0  0.00000000000E+00  0.00000000000E+00  0.30625544155E+03  0.20356917223E+04  0.20125228925E+04 0.  0.
        4    1    3    3  502    0  0.51033917960E+03 -0.66440359009E+03  0.71693336717E+03  0.11026664385E+04  0.12699999809E+01 0. -1.
       -4    1    3    3    0  502 -0.51033917960E+03  0.66440359009E+03 -0.41067792562E+03  0.93302528382E+03  0.12699999809E+01 0.  1.
</event>
<event>
 5   0  0.1281789E-04  0.1985897E+04  0.7818609E-02  0.8613243E-01
       -2   -1    0    0    0  501  0.00000000000E+00  0.00000000000E+00  0.87050284016E+03  0.87050284017E+03  0.25500000920E-02 0.  1.
        2   -1    0    0  501    0  0.00000000000E+00  0.00000000000E+00 -0.11326175290E+04  0.11326175290E+04  0.25500000920E-02 0. -1.
    10030    2    1    2    0    0  0.00000000000E+00  0.00000000000E+00 -0.26211468887E+03  0.20031203692E+04  0.19858970526E+04 0.  0.
        2    1    3    3  502    0 -0.34942934829E+03  0.83456692857E+03  0.28156745048E+03  0.94756691420E+03  0.25500000920E-02 0.  1.
       -2    1    3    3    0  502  0.34942934829E+03 -0.83456692857E+03 -0.54368213935E+03  0.10555534550E+04  0.25500000920E-02 0. -1.
</event>
<event>
 5   0  0.1281789E-04  0.1873933E+04  0.7818609E-02  0.8667942E-01
       -2   -1    0    0    0  501  0.00000000000E+00  0.00000000000E+00  0.79748710447E+03  0.79748710447E+03  0.25500000920E-02 0. -1.
        2   -1    0    0  501    0  0.00000000000E+00  0.00000000000E+00 -0.11008401757E+04  0.11008401757E+04  0.25500000920E-02 0.  1.
    10030    2    1    2    0    0  0.00000000000E+00  0.00000000000E+00 -0.30335307118E+03  0.18983272801E+04  0.18739325966E+04 0.  0.
        2    1    3    3  502    0 -0.53117111338E+03  0.54535614791E+00  0.63022814399E+03  0.82421511912E+03  0.25500000920E-02 0. -1.
       -2    1    3    3    0  502  0.53117111338E+03 -0.54535614791E+00 -0.93358121518E+03  0.10741121610E+04  0.25500000920E-02 0.  1.
</event>
<event>
 5   0  0.1274868E-04  0.1938473E+04  0.7818609E-02  0.8635940E-01
       -2   -1    0    0    0  501  0.00000000000E+00  0.00000000000E+00  0.46283846700E+03  0.46283846701E+03  0.25500000920E-02 0.  1.
        2   -1    0    0  501    0  0.00000000000E+00  0.00000000000E+00 -0.20296909691E+04  0.20296909691E+04  0.25500000920E-02 0. -1.
    10030    2    1    2    0    0  0.00000000000E+00  0.00000000000E+00 -0.15668525021E+04  0.24925294361E+04  0.19384726530E+04 0.  0.
        1    1    3    3  502    0 -0.87067673929E+03 -0.42436971249E+03 -0.82891270286E+03  0.12748583867E+04  0.50400001928E-02 0.  1.
       -1    1    3    3    0  502  0.87067673929E+03  0.42436971249E+03 -0.73793979928E+03  0.12176710494E+04  0.50400001928E-02 0. -1.
</event>
<event>
 5   0  0.1244229E-04  0.1991451E+04  0.7818609E-02  0.8610628E-01
        2   -1    0    0  501    0  0.00000000000E+00  0.00000000000E+00  0.10879876089E+04  0.10879876089E+04  0.25500000920E-02 0.  1.
       -2   -1    0    0    0  501  0.00000000000E+00  0.00000000000E+00 -0.91128724386E+03  0.91128724387E+03  0.25500000920E-02 0. -1.
    10030    2    1    2    0    0  0.00000000000E+00  0.00000000000E+00  0.17670036499E+03  0.19992748527E+04  0.19914509579E+04 0.  0.
        5    1    3    3  502    0  0.28725574060E+02 -0.31628917108E+03  0.10357648900E+04  0.10833720486E+04  0.46999998093E+01 0.  1.
       -5    1    3    3    0  502 -0.28725574060E+02  0.31628917108E+03 -0.85906452504E+03  0.91590280409E+03  0.46999998093E+01 0. -1.
</event>
<event>
 5   0  0.6222733E-05  0.2000747E+04  0.7818609E-02  0.8606272E-01
       -1   -1    0    0    0  501  0.00000000000E+00  0.00000000000E+00  0.83003433860E+03  0.83003433861E+03  0.50400001928E-02 0.  1.
        1   -1    0    0  501    0  0.00000000000E+00  0.00000000000E+00 -0.12056690068E+04  0.12056690068E+04  0.50400001928E-02 0. -1.
    10030    2    1    2    0    0  0.00000000000E+00  0.00000000000E+00 -0.37563466817E+03  0.20357033454E+04  0.20007465373E+04 0.  0.
        2    1    3    3  502    0  0.40032314471E+03 -0.82385409620E+03  0.22139422856E+03  0.94234261098E+03  0.25500000920E-02 0. -1.
       -2    1    3    3    0  502 -0.40032314471E+03  0.82385409620E+03 -0.59702889673E+03  0.10933607344E+04  0.25500000920E-02 0.  1.
</event>
<event>
 5   0  0.6214547E-05  0.2003120E+04  0.7818609E-02  0.8605163E-01
       -1   -1    0    0    0  501  0.00000000000E+00  0.00000000000E+00  0.12607664341E+04  0.12607664341E+04  0.50400001928E-02 0.  1.
        1   -1    0    0  501    0  0.00000000000E+00  0.00000000000E+00 -0.79564478380E+03  0.79564478382E+03  0.50400001928E-02 0. -1.
    10030    2    1    2    0    0  0.00000000000E+00  0.00000000000E+00  0.46512165033E+03  0.20564112180E+04  0.20031198036E+04 0.  0.
        3    1    3    3  502    0 -0.52266142457E+02 -0.88314294844E+03 -0.24945035958E+03  0.91918371892E+03  0.10100000352E+00 0. -1.
       -3    1    3    3    0  502  0.52266142457E+02  0.88314294844E+03  0.71457200991E+03  0.11372274990E+04  0.10100000352E+00 0.  1.
</event>
<event>
 5   0  0.6256535E-05  0.1978566E+04  0.7818609E-02  0.8616708E-01
        1   -1    0    0  501    0  0.00000000000E+00  0.00000000000E+00  0.21794397680E+04  0.21794397680E+04  0.50400001928E-02 0. -1.
       -1   -1    0    0    0  501  0.00000000000E+00  0.00000000000E+00 -0.44905151520E+03  0.44905151522E+03  0.50400001928E-02 0.  1.
    10030    2    1    2    0    0  0.00000000000E+00  0.00000000000E+00  0.17303882528E+04  0.26284912833E+04  0.19785658747E+04 0.  0.
        1    1    3    3  502    0 -0.72235130003E+03  0.49703942042E+03  0.14737512486E+04  0.17148709365E+04  0.50400001928E-02 0. -1.
       -1    1    3    3    0  502  0.72235130003E+03 -0.49703942042E+03  0.25663700429E+03  0.91362034680E+03  0.50400001928E-02 0.  1.
</event>
<event>
 5   0  0.6222733E-05  0.1916319E+04  0.7818609E-02  0.8646776E-01
        1   -1    0    0  501    0  0.00000000000E+00  0.00000000000E+00  0.88589435853E+03  0.88589435854E+03  0.50400001928E-02 0. -1.
       -1   -1    0    0    0  501  0.00000000000E+00  0.00000000000E+00 -0.10363193639E+04  0.10363193640E+04  0.50400001928E-02 0.  1.
    10030    2    1    2    0    0  0.00000000000E+00  0.00000000000E+00 -0.15042500541E+03  0.19222137225E+04  0.19163188442E+04 0.  0.
        2    1    3    3  502    0 -0.76930536937E+02 -0.65552024121E+01 -0.10331939162E+04  0.10360747785E+04  0.25500000920E-02 0.  1.
       -2    1    3    3    0  502  0.76930536937E+02  0.65552024121E+01  0.88276891078E+03  0.88613894398E+03  0.25500000920E-02 0. -1.
</event>
<event>
 5   0  0.1159914E-04  0.1697155E+04  0.7818609E-02  0.8762989E-01
       -2   -1    0    0    0  501  0.00000000000E+00  0.00000000000E+00  0.40905726467E+03  0.40905726468E+03  0.25500000920E-02 0. -1.
        2   -1    0    0  501    0  0.00000000000E+00  0.00000000000E+00 -0.17603496046E+04  0.17603496046E+04  0.25500000920E-02 0.  1.
    10030    2    1    2    0    0  0.00000000000E+00  0.00000000000E+00 -0.13512923399E+04  0.21694068693E+04  0.16971550243E+04 0.  0.
        3    1    3    3  502    0 -0.17888137415E+03 -0.77891595096E+03 -0.10402871507E+04  0.13118330576E+04  0.10100000352E+00 0.  1.
       -3    1    3    3    0  502  0.17888137415E+03  0.77891595096E+03 -0.31100518919E+03  0.85757381174E+03  0.10100000352E+00 0. -1.
</event>
<event>
 5   0  0.6222733E-05  0.2023723E+04  0.7818609E-02  0.8595609E-01
        1   -1    0    0  501    0  0.00000000000E+00  0.00000000000E+00  0.12261390317E+04  0.12261390317E+04  0.50400001928E-02 0.  1.
       -1   -1    0    0    0  501  0.00000000000E+00  0.00000000000E+00 -0.83503040732E+03  0.83503040733E+03  0.50400001928E-02 0. -1.
    10030    2    1    2    0    0  0.00000000000E+00  0.00000000000E+00  0.39110862437E+03  0.20611694390E+04  0.20237226837E+04 0.  0.
        2    1    3    3  502    0 -0.18300469112E+03  0.31365183418E+03  0.11574853765E+04  0.12131119432E+04  0.25500000920E-02 0.  1.
       -2    1    3    3    0  502  0.18300469112E+03 -0.31365183418E+03 -0.76637675209E+03  0.84805749581E+03  0.25500000920E-02 0. -1.
</event>
<event>
 5   0  0.1244229E-04  0.1999481E+04  0.7818609E-02  0.8606863E-01
       -2   -1    0    0    0  501  0.00000000000E+00  0.00000000000E+00  0.67020971692E+03  0.67020971692E+03  0.25500000920E-02 0. -1.
        2   -1    0    0  501    0  0.00000000000E+00  0.00000000000E+00 -0.14912957703E+04  0.14912957703E+04  0.25500000920E-02 0.  1.
    10030    2    1    2    0    0  0.00000000000E+00  0.00000000000E+00 -0.82108605342E+03  0.21615054873E+04  0.19994808487E+04 0.  0.
        5    1    3    3  502    0 -0.10625986628E+03  0.60789093909E+03  0.43972683204E+03  0.75776271340E+03  0.46999998093E+01 0. -1.
       -5    1    3    3    0  502  0.10625986628E+03 -0.60789093909E+03 -0.12608128855E+04  0.14037427739E+04  0.46999998093E+01 0.  1.
</event>
<event>
 5   0  0.1274868E-04  0.2008332E+04  0.7818609E-02  0.8602735E-01
        2   -1    0    0  501    0  0.00000000000E+00  0.00000000000E+00  0.11219302801E+04  0.11219302801E+04  0.25500000920E-02 0. -1.
       -2   -1    0    0    0  501  0.00000000000E+00  0.00000000000E+00 -0.89876257980E+03  0.89876257980E+03  0.25500000920E-02 0.  1.
    10030    2    1    2    0    0  0.00000000000E+00  0.00000000000E+00  0.22316770028E+03  0.20206928599E+04  0.20083315990E+04 0.  0.
        1    1    3    3  502    0  0.37460902809E+02 -0.85341977372E+03 -0.41951001094E+03  0.95169179818E+03  0.50400001928E-02 0.  1.
       -1    1    3    3    0  502 -0.37460902809E+02  0.85341977372E+03  0.64267771121E+03  0.10690010617E+04  0.50400001928E-02 0. -1.
</event>
<event>
 5   0  0.6168338E-05  0.2016539E+04  0.7818609E-02  0.8598927E-01
        1   -1    0    0  501    0  0.00000000000E+00  0.00000000000E+00  0.10004748213E+04  0.10004748213E+04  0.50400001928E-02 0. -1.
       -1   -1    0    0    0  501  0.00000000000E+00  0.00000000000E+00 -0.10161245886E+04  0.10161245886E+04  0.50400001928E-02 0.  1.
    10030    2    1    2    0    0  0.00000000000E+00  0.00000000000E+00 -0.15649767231E+02  0.20165994099E+04  0.20165386842E+04 0.  0.
        5    1    3    3  502    0 -0.23047071960E+03  0.68792441429E+03 -0.70800896627E+03  0.10137334653E+04  0.46999998093E+01 0.  1.
       -5    1    3    3    0  502  0.23047071960E+03 -0.68792441429E+03  0.69235919904E+03  0.10028659446E+04  0.46999998093E+01 0. -1.
</event>
<event>
 5   0  0.6214547E-05  0.1948601E+04  0.7818609E-02  0.8631035E-01
       -1   -1    0    0    0  501  0.00000000000E+00  0.00000000000E+00  0.56391659514E+03  0.56391659516E+03  0.50400001928E-02 0.  1.
        1   -1    0    0  501    0  0.00000000000E+00  0.00000000000E+00 -0.16833373126E+04  0.16833373126E+04  0.50400001928E-02 0. -1.
    10030    2    1    2    0    0  0.00000000000E+00  0.00000000000E+00 -0.11194207174E+04  0.22472539078E+04  0.19486013916E+04 0.  0.
        3    1    3    3  502    0 -0.70368991426E+03 -0.11495862438E+03 -0.13254530502E+04  0.15050650416E+04  0.10100000352E+00 0. -1.
       -3    1    3    3    0  502  0.70368991426E+03  0.11495862438E+03  0.20603233278E+03  0.74218886620E+03  0.10100000352E+00 0.  1.
</event>
<event>
 5   0  0.6028501E-05  0.2038470E+04  0.7818609E-02  0.8588843E-01
        1   -1    0    0  501    0  0.00000000000E+00  0.00000000000E+00  0.10589509544E+04  0.10589509545E+04  0.50400001928E-02 0.  1.
       -1   -1    0    0    0  501  0.00000000000E+00  0.00000000000E+00 -0.98100835846E+03  0.98100835847E+03  0.50400001928E-02 0. -1.
    10030    2    1    2    0    0  0.00000000000E+00  0.00000000000E+00  0.77942595987E+02  0.20399593129E+04  0.20384697570E+04 0.  0.
        4    1    3    3  502    0 -0.55583530649E+03 -0.22894727420E+03 -0.78471482365E+03  0.98850832554E+03  0.12699999809E+01 0. -1.
       -4    1    3    3    0  502  0.55583530649E+03  0.22894727420E+03  0.86265741964E+03  0.10514509874E+04  0.12699999809E+01 0.  1.
</event>
<event>
 5   0  0.6168338E-05  0.2038849E+04  0.7818609E-02  0.8588670E-01
        1   -1    0    0  501    0  0.00000000000E+00  0.00000000000E+00  0.14790842480E+04  0.14790842480E+04  0.50400001928E-02 0.  1.
       -1   -1    0    0    0  501  0.00000000000E+00  0.00000000000E+00 -0.70261466664E+03  0.70261466666E+03  0.50400001928E-02 0. -1.
    10030    2    1    2    0    0  0.00000000000E+00  0.00000000000E+00  0.77646958131E+03  0.21816989146E+04  0.20388489751E+04 0.  0.
        5    1    3    3  502    0  0.36952219720E+03  0.55955939529E+03  0.12098536208E+04  0.13832647052E+04  0.46999998093E+01 0.  1.
       -5    1    3    3    0  502 -0.36952219720E+03 -0.55955939529E+03 -0.43338403944E+03  0.79843420939E+03  0.46999998093E+01 0. -1.
</event>
<event>
 5   0  0.1281789E-04  0.1971749E+04  0.7818609E-02  0.8619944E-01
       -2   -1    0    0    0  501  0.00000000000E+00  0.00000000000E+00  0.53583222055E+03  0.53583222056E+03  0.25500000920E-02 0. -1.
        2   -1    0    0  501    0  0.00000000000E+00  0.00000000000E+00 -0.18139047819E+04  0.18139047819E+04  0.25500000920E-02 0.  1.
    10030    2    1    2    0    0  0.00000000000E+00  0.00000000000E+00 -0.12780725614E+04  0.23497370025E+04  0.19717490988E+04 0.  0.
        2    1    3    3  502    0 -0.88368602591E+03  0.34553455446E+03 -0.95803308255E+03  0.13483777319E+04  0.25500000920E-02 0.  1.
       -2    1    3    3    0  502  0.88368602591E+03 -0.34553455446E+03 -0.32003947884E+03  0.10013592706E+04  0.25500000920E-02 0. -1.
</event>
<event>
 5   0  0.6222733E-05  0.2006364E+04  0.7818609E-02  0.8603651E-01
        1   -1    0    0  501    0  0.00000000000E+00  0.00000000000E+00  0.11782224803E+04  0.11782224803E+04  0.50400001928E-02 0.  1.
       -1   -1    0    0    0  501  0.00000000000E+00  0.00000000000E+00 -0.85414581715E+03  0.85414581717E+03  0.50400001928E-02 0. -1.
    10030    2    1    2    0    0  0.00000000000E+00  0.00000000000E+00  0.32407666318E+03  0.20323682975E+04  0.20063636792E+04 0.  0.
        2    1    3    3  502    0  0.80691358733E+03 -0.13732247048E+03  0.74956169402E+03  0.11098692407E+04  0.25500000920E-02 0.  1.
       -2    1    3    3    0  502 -0.80691358733E+03  0.13732247048E+03 -0.42548503084E+03  0.92249905680E+03  0.25500000920E-02 0. -1.
</event>
<event>
 5   0  0.1244229E-04  0.2015262E+04  0.7818609E-02  0.8599518E-01
        2   -1    0    0  501    0  0.00000000000E+00  0.00000000000E+00  0.64979089397E+03  0.64979089398E+03  0.25500000920E-02 0. -1.
       -2   -1    0    0    0  501  0.00000000000E+00  0.00000000000E+00 -0.15625344265E+04  0.15625344265E+04  0.25500000920E-02 0.  1.
    10030    2    1    2    0    0  0.00000000000E+00  0.00000000000E+00 -0.91274353250E+03  0.22123253205E+04  0.20152624066E+04 0.  0.
        5    1    3    3  502    0  0.35528929859E+02  0.78531010376E+03 -0.11483460317E+04  0.13916518826E+04  0.46999998093E+01 0.  1.
       -5    1    3    3    0  502 -0.35528929859E+02 -0.78531010376E+03  0.23560249919E+03  0.82067343782E+03  0.46999998093E+01 0. -1.
</event>
<event>
 5   0  0.6256535E-05  0.1998434E+04  0.7818609E-02  0.8607353E-01
       -1   -1    0    0    0  501  0.00000000000E+00  0.00000000000E+00  0.66072688653E+03  0.66072688655E+03  0.50400001928E-02 0. -1.
        1   -1    0    0  501    0  0.00000000000E+00  0.00000000000E+00 -0.15111161141E+04  0.15111161141E+04  0.50400001928E-02 0.  1.
    10030    2    1    2    0    0  0.00000000000E+00  0.00000000000E+00 -0.85038922753E+03  0.21718430006E+04  0.19984344325E+04 0.  0.
        1    1    3    3  502    0  0.69239280425E+03 -0.11383786160E+03 -0.11983077347E+04  0.13886354025E+04  0.50400001928E-02 0. -1.
       -1    1    3    3    0  502 -0.69239280425E+03  0.11383786160E+03  0.34791850713E+03  0.78320759811E+03  0.50400001928E-02 0.  1.
</event>
<event>
 5   0  0.1159914E-04  0.1925288E+04  0.7818609E-02  0.8642371E-01
       -2   -1    0    0    0  501  0.00000000000E+00  0.00000000000E+00  0.10378167994E+04  0.10378167994E+04  0.25500000920E-02 0. -1.
        2   -1    0    0  501    0  0.00000000000E+00  0.00000000000E+00 -0.89291589457E+03  0.89291589457E+03  0.25500000920E-02 0.  1.
    10030    2    1    2    0    0  0.00000000000E+00  0.00000000000E+00  0.14490090479E+03  0.19307326939E+04  0.19252876313E+04 0.  0.
        3    1    3    3  502    0 -0.31732996454E+03 -0.36627719825E+03 -0.76166258831E+03  0.90276641552E+03  0.10100000352E+00 0.  1.
       -3    1    3    3    0  502  0.31732996454E+03  0.36627719825E+03  0.90656349310E+03  0.10279662784E+04  0.10100000352E+00 0. -1.
</event>
<event>
 5   0  0.1244229E-04  0.2025884E+04  0.7818609E-02  0.8594614E-01
        2   -1    0    0  501    0  0.00000000000E+00  0.00000000000E+00  0.93771291110E+03  0.93771291110E+03  0.25500000920E-02 0.  1.
       -2   -1    0    0    0  501  0.00000000000E+00  0.00000000000E+00 -0.10942062549E+04  0.10942062549E+04  0.25500000920E-02 0. -1.
    10030    2    1    2    0    0  0.00000000000E+00  0.00000000000E+00 -0.15649334380E+03  0.20319191660E+04  0.20258838393E+04 0.  0.
        5    1    3    3  502    0 -0.34308995217E+03 -0.89381936209E+03  0.25350369769E+03  0.99040899737E+03  0.46999998093E+01 0. -1.
       -5    1    3    3    0  502  0.34308995217E+03  0.89381936209E+03 -0.40999704149E+03  0.10415101686E+04  0.46999998093E+01 0.  1.
</event>
<event>
 5   0  0.1244229E-04  0.1865091E+04  0.7818609E-02  0.8672431E-01
        2   -1    0    0  501    0  0.00000000000E+00  0.00000000000E+00  0.12214227917E+04  0.12214227917E+04  0.25500000920E-02 0. -1.
       -2   -1    0    0    0  501  0.00000000000E+00  0.00000000000E+00 -0.71199001108E+03  0.71199001109E+03  0.25500000920E-02 0.  1.
    10030    2    1    2    0    0  0.00000000000E+00  0.00000000000E+00  0.50943278065E+03  0.19334128028E+04  0.18650906970E+04 0.  0.
        5    1    3    3  502    0  0.73671926455E+03 -0.44195228411E+03  0.63068904744E+03  0.10657710170E+04  0.46999998093E+01 0. -1.
       -5    1    3    3    0  502 -0.73671926455E+03  0.44195228411E+03 -0.12125626679E+03  0.86764178578E+03  0.46999998093E+01 0.  1.
</event>
<event>
 5   0  0.1159914E-04  0.2002997E+04  0.7818609E-02  0.8605221E-01
        2   -1    0    0  501    0  0.00000000000E+00  0.00000000000E+00  0.18700941077E+04  0.18700941077E+04  0.25500000920E-02 0.  1.
       -2   -1    0    0    0  501  0.00000000000E+00  0.00000000000E+00 -0.53633600248E+03  0.53633600249E+03  0.25500000920E-02 0. -1.
    10030    2    1    2    0    0  0.00000000000E+00  0.00000000000E+00  0.13337581052E+04  0.24064301101E+04  0.20029965531E+04 0.  0.
        3    1    3    3  502    0  0.48314275950E+03 -0.30205378694E+03  0.16563778778E+04  0.17516424009E+04  0.10100000352E+00 0.  1.
       -3    1    3    3    0  502 -0.48314275950E+03  0.30205378694E+03 -0.32261977266E+03  0.65478770924E+03  0.10100000352E+00 0. -1.
</event>
<event>
 5   0  0.6256535E-05  0.2001711E+04  0.7818609E-02  0.8605821E-01
        1   -1    0    0  501    0  0.00000000000E+00  0.00000000000E+00  0.16517395213E+04  0.16517395213E+04  0.50400001928E-02 0. -1.
       -1   -1    0    0    0  501  0.00000000000E+00  0.00000000000E+00 -0.60645892721E+03  0.60645892723E+03  0.50400001928E-02 0.  1.
    10030    2    1    2    0    0  0.00000000000E+00  0.00000000000E+00  0.10452805941E+04  0.22581984485E+04  0.20017114459E+04 0.  0.
        1    1    3    3  502    0 -0.71345582737E+03 -0.69830415223E+03  0.44235812346E+03  0.10919380092E+04  0.50400001928E-02 0.  1.
       -1    1    3    3    0  502  0.71345582737E+03  0.69830415223E+03  0.60292247062E+03  0.11662604393E+04  0.50400001928E-02 0. -1.
</event>
<event>
 5   0  0.6028501E-05  0.2003285E+04  0.7818609E-02  0.8605086E-01
        1   -1    0    0  501    0  0.00000000000E+00  0.00000000000E+00  0.11271510977E+04  0.11271510977E+04  0.50400001928E-02 0. -1.
       -1   -1    0    0    0  501  0.00000000000E+00  0.00000000000E+00 -0.89010974781E+03  0.89010974783E+03  0.50400001928E-02 0.  1.
    10030    2    1    2    0    0  0.00000000000E+00  0.00000000000E+00  0.23704134993E+03  0.20172608456E+04  0.20032854808E+04 0.  0.
        4    1    3    3  502    0 -0.85842234236E+03 -0.51488280407E+03  0.15473469137E+03  0.10128858067E+04  0.12699999809E+01 0.  1.
       -4    1    3    3    0  502  0.85842234236E+03  0.51488280407E+03  0.82306658554E+02  0.10043750389E+04  0.12699999809E+01 0. -1.
</event>
<event>
 5   0  0.6168338E-05  0.2019194E+04  0.7818609E-02  0.8597699E-01
        1   -1    0    0  501    0  0.00000000000E+00  0.00000000000E+00  0.87248195743E+03  0.87248195745E+03  0.50400001928E-02 0. -1.
       -1   -1    0    0    0  501  0.00000000000E+00  0.00000000000E+00 -0.11682606057E+04  0.11682606057E+04  0.50400001928E-02 0.  1.
    10030    2    1    2    0    0  0.00000000000E+00  0.00000000000E+00 -0.29577864830E+03  0.20407425632E+04  0.20191941958E+04 0.  0.
        5    1    3    3  502    0 -0.63619808586E+03 -0.77681582559E+03 -0.41536210006E+02  0.10049568041E+04  0.46999998093E+01 0. -1.
       -5    1    3    3    0  502  0.63619808586E+03  0.77681582559E+03 -0.25424243830E+03  0.10357857591E+04  0.46999998093E+01 0.  1.
</event>
<event>
 5   0  0.1281789E-04  0.1987487E+04  0.7818609E-02  0.8612493E-01
       -2   -1    0    0    0  501  0.00000000000E+00  0.00000000000E+00  0.64047270584E+03  0.64047270584E+03  0.25500000920E-02 0. -1.
        2   -1    0    0  501    0  0.00000000000E+00  0.00000000000E+00 -0.15418714165E+04  0.15418714165E+04  0.25500000920E-02 0.  1.
    10030    2    1    2    0    0  0.00000000000E+00  0.00000000000E+00 -0.90139871065E+03  0.21823441223E+04  0.19874874170E+04 0.  0.
        2    1    3    3  502    0  0.30663371183E+03 -0.32606876688E+03 -0.14249176494E+04  0.14935646560E+04  0.25500000920E-02 0.  1.
       -2    1    3    3    0  502 -0.30663371183E+03  0.32606876688E+03  0.52351893879E+03  0.68877946633E+03  0.25500000920E-02 0. -1.
</event>
<event>
 5   0  0.6214547E-05  0.2015006E+04  0.7818609E-02  0.8599637E-01
        1   -1    0    0  501    0  0.00000000000E+00  0.00000000000E+00  0.12337478396E+04  0.12337478396E+04  0.50400001928E-02 0.  1.
       -1   -1    0    0    0  501  0.00000000000E+00  0.00000000000E+00 -0.82274663531E+03  0.82274663533E+03  0.50400001928E-02 0. -1.
    10030    2    1    2    0    0  0.00000000000E+00  0.00000000000E+00  0.41100120430E+03  0.20564944750E+04  0.20150055919E+04 0.  0.
        3    1    3    3  502    0  0.42574292360E+03 -0.43793287901E+03 -0.61225860944E+03  0.86481377102E+03  0.10100000352E+00 0. -1.
       -3    1    3    3    0  502 -0.42574292360E+03  0.43793287901E+03  0.10232598137E+04  0.11916807039E+04  0.10100000352E+00 0.  1.
</event>
<event>
 5   0  0.6028501E-05  0.2049997E+04  0.7818609E-02  0.8583596E-01
       -1   -1    0    0    0  501  0.00000000000E+00  0.00000000000E+00  0.67557252334E+03  0.67557252336E+03  0.50400001928E-02 0. -1.
        1   -1    0    0  501    0  0.00000000000E+00  0.00000000000E+00 -0.15551571370E+04  0.15551571370E+04  0.50400001928E-02 0.  1.
    10030    2    1    2    0    0  0.00000000000E+00  0.00000000000E+00 -0.87958461363E+03  0.22307296603E+04  0.20499965183E+04 0.  0.
        4    1    3    3  502    0  0.29357730017E+03 -0.79290995704E+03  0.19070944579E+03  0.86675575381E+03  0.12699999809E+01 0. -1.
       -4    1    3    3    0  502 -0.29357730017E+03  0.79290995704E+03 -0.10702940594E+04  0.13639739065E+04  0.12699999809E+01 0.  1.
</event>
<event>
 5   0  0.1242761E-04  0.2016012E+04  0.7818609E-02  0.8599171E-01
        2   -1    0    0  501    0  0.00000000000E+00  0.00000000000E+00  0.16886457387E+04  0.16886457387E+04  0.25500000920E-02 0.  1.
       -2   -1    0    0    0  501  0.00000000000E+00  0.00000000000E+00 -0.60171086316E+03  0.60171086316E+03  0.25500000920E-02 0. -1.
    10030    2    1    2    0    0  0.00000000000E+00  0.00000000000E+00  0.10869348755E+04  0.22903566018E+04  0.20160123859E+04 0.  0.
        4    1    3    3  502    0 -0.43659286400E+03  0.49640955867E+03  0.14079651590E+04  0.15554431139E+04  0.12699999809E+01 0.  1.
       -4    1    3    3    0  502  0.43659286400E+03 -0.49640955867E+03 -0.32103028351E+03  0.73491348788E+03  0.12699999809E+01 0. -1.
</event>
<event>
 5   0  0.6028501E-05  0.2011209E+04  0.7818609E-02  0.8601398E-01
        1   -1    0    0  501    0  0.00000000000E+00  0.00000000000E+00  0.10564304947E+04  0.10564304947E+04  0.50400001928E-02 0.  1.
       -1   -1    0    0    0  501  0.00000000000E+00  0.00000000000E+00 -0.95722347073E+03  0.95722347075E+03  0.50400001928E-02 0. -1.
    10030    2    1    2    0    0  0.00000000000E+00  0.00000000000E+00  0.99207023995E+02  0.20136539655E+04  0.20112086563E+04 0.  0.
        4    1    3    3  502    0 -0.61817454533E+03 -0.51482206536E+03  0.65370841430E+03  0.10365895192E+04  0.12699999809E+01 0.  1.
       -4    1    3    3    0  502  0.61817454533E+03  0.51482206536E+03 -0.55450139030E+03  0.97706444630E+03  0.12699999809E+01 0. -1.
</event>
<event>
 5   0  0.6028501E-05  0.1986556E+04  0.7818609E-02  0.8612932E-01
        1   -1    0    0  501    0  0.00000000000E+00  0.00000000000E+00  0.15682897044E+04  0.15682897044E+04  0.50400001928E-02 0. -1.
       -1   -1    0    0    0  501  0.00000000000E+00  0.00000000000E+00 -0.62909347716E+03  0.62909347718E+03  0.50400001928E-02 0.  1.
    10030    2    1    2    0    0  0.00000000000E+00  0.00000000000E+00  0.93919622720E+03  0.21973831815E+04  0.19865556356E+04 0.  0.
        4    1    3    3  502    0 -0.45904684951E+03  0.43176395524E+03  0.13188380788E+04  0.14616701455E+04  0.12699999809E+01 0. -1.
       -4    1    3    3    0  502  0.45904684951E+03 -0.43176395524E+03 -0.37964185160E+03  0.73571303610E+03  0.12699999809E+01 0.  1.
</event>
<event>
 5   0  0.6256535E-05  0.2003564E+04  0.7818609E-02  0.8604956E-01
       -1   -1    0    0    0  501  0.00000000000E+00  0.00000000000E+00  0.10929559772E+04  0.10929559772E+04  0.50400001928E-02 0. -1.
        1   -1    0    0  501    0  0.00000000000E+00  0.00000000000E+00 -0.91821372113E+03  0.91821372114E+03  0.50400001928E-02 0.  1.
    10030    2    1    2    0    0  0.00000000000E+00  0.00000000000E+00  0.17474225603E+03  0.20111696983E+04  0.20035639993E+04 0.  0.
        1    1    3    3  502    0 -0.29324752636E+03  0.29894055822E+03  0.10008849118E+04  0.10849563013E+04  0.50400001928E-02 0. -1.
       -1    1    3    3    0  502  0.29324752636E+03 -0.29894055822E+03 -0.82614265577E+03  0.92621339700E+03  0.50400001928E-02 0.  1.
</event>
<event>
 5   0  0.1274868E-04  0.2002069E+04  0.7818609E-02  0.8605654E-01
       -2   -1    0    0    0  501  0.00000000000E+00  0.00000000000E+00  0.68887726373E+03  0.68887726374E+03  0.25500000920E-02 0.  1.
        2   -1    0    0  501    0  0.00000000000E+00  0.00000000000E+00 -0.14546428536E+04  0.14546428536E+04  0.25500000920E-02 0. -1.
    10030    2    1    2    0    0  0.00000000000E+00  0.00000000000E+00 -0.76576558990E+03  0.21435201174E+04  0.20020693182E+04 0.  0.
        1    1    3    3  502    0 -0.43250731256E+03 -0.45659418053E+03 -0.12167068927E+04  0.13696410055E+04  0.50400001928E-02 0. -1.
       -1    1    3    3    0  502  0.43250731256E+03  0.45659418053E+03  0.45094130285E+03  0.77387911185E+03  0.50400001928E-02 0.  1.
</event>
<event>
 5   0  0.6214547E-05  0.1978289E+04  0.7818609E-02  0.8616839E-01
       -1   -1    0    0    0  501  0.00000000000E+00  0.00000000000E+00  0.76008275961E+03  0.76008275962E+03  0.50400001928E-02 0.  1.
        1   -1    0    0  501    0  0.00000000000E+00  0.00000000000E+00 -0.12872377532E+04  0.12872377532E+04  0.50400001928E-02 0. -1.
    10030    2    1    2    0    0  0.00000000000E+00  0.00000000000E+00 -0.52715499359E+03  0.20473205128E+04  0.19782893861E+04 0.  0.
        3    1    3    3  502    0  0.11899284105E+03  0.31949603541E+03  0.69735420431E+03  0.77623444225E+03  0.10100000352E+00 0.  1.
       -3    1    3    3    0  502 -0.11899284105E+03 -0.31949603541E+03 -0.12245091979E+04  0.12710860706E+04  0.10100000352E+00 0. -1.
</event>
<event>
 5   0  0.1281789E-04  0.1979192E+04  0.7818609E-02  0.8616412E-01
       -2   -1    0    0    0  501  0.00000000000E+00  0.00000000000E+00  0.85601366641E+03  0.85601366642E+03  0.25500000920E-02 0. -1.
        2   -1    0    0  501    0  0.00000000000E+00  0.00000000000E+00 -0.11440235670E+04  0.11440235670E+04  0.25500000920E-02 0.  1.
    10030    2    1    2    0    0  0.00000000000E+00  0.00000000000E+00 -0.28800990061E+03  0.20000372334E+04  0.19791915603E+04 0.  0.
        2    1    3    3  502    0  0.17233579842E+03  0.45842871414E+03 -0.10129707577E+04  0.11251516651E+04  0.25500000920E-02 0.  1.
       -2    1    3    3    0  502 -0.17233579842E+03 -0.45842871414E+03  0.72496085713E+03  0.87488556837E+03  0.25500000920E-02 0. -1.
</event>
<event>
 5   0  0.1159914E-04  0.2069099E+04  0.7818609E-02  0.8574979E-01
        2   -1    0    0  501    0  0.00000000000E+00  0.00000000000E+00  0.17767040770E+04  0.17767040770E+04  0.25500000920E-02 0.  1.
       -2   -1    0    0    0  501  0.00000000000E+00  0.00000000000E+00 -0.60240329634E+03  0.60240329635E+03  0.25500000920E-02 0. -1.
    10030    2    1    2    0    0  0.00000000000E+00  0.00000000000E+00  0.11743007806E+04  0.23791073733E+04  0.20690987339E+04 0.  0.
        3    1    3    3  502    0 -0.50878014936E+03 -0.87384802728E+03  0.33569597806E+03  0.10654386022E+04  0.10100000352E+00 0. -1.
       -3    1    3    3    0  502  0.50878014936E+03  0.87384802728E+03  0.83860480258E+03  0.13136687711E+04  0.10100000352E+00 0.  1.
</event>
<event>
 5   0  0.6168338E-05  0.2000339E+04  0.7818609E-02  0.8606462E-01
       -1   -1    0    0    0  501  0.00000000000E+00  0.00000000000E+00  0.15272590869E+04  0.15272590869E+04  0.50400001928E-02 0. -1.
        1   -1    0    0  501    0  0.00000000000E+00  0.00000000000E+00 -0.65498979457E+03  0.65498979458E+03  0.50400001928E-02 0.  1.
    10030    2    1    2    0    0  0.00000000000E+00  0.00000000000E+00  0.87226929232E+03  0.21822488815E+04  0.20003390869E+04 0.  0.
        5    1    3    3  502    0 -0.11681363353E+03  0.28301756495E+03 -0.60259366050E+03  0.67593311557E+03  0.46999998093E+01 0.  1.
       -5    1    3    3    0  502  0.11681363353E+03 -0.28301756495E+03  0.14748629528E+04  0.15063157659E+04  0.46999998093E+01 0. -1.
</event>
<event>
 5   0  0.1242761E-04  0.1958727E+04  0.7818609E-02  0.8626164E-01
       -2   -1    0    0    0  501  0.00000000000E+00  0.00000000000E+00  0.12913115936E+04  0.12913115936E+04  0.25500000920E-02 0. -1.
        2   -1    0    0  501    0  0.00000000000E+00  0.00000000000E+00 -0.74277413251E+03  0.74277413251E+03  0.25500000920E-02 0.  1.
    10030    2    1    2    0    0  0.00000000000E+00  0.00000000000E+00  0.54853746109E+03  0.20340857261E+04  0.19587269833E+04 0.  0.
        4    1    3    3  502    0  0.92878289953E+03  0.67283006402E+02 -0.40692813835E+02  0.93210632195E+03  0.12699999809E+01 0.  1.
       -4    1    3    3    0  502 -0.92878289953E+03 -0.67283006402E+02  0.58923027493E+03  0.11019794042E+04  0.12699999809E+01 0. -1.
</event>
<event>
 5   0  0.1242761E-04  0.2016631E+04  0.7818609E-02  0.8598884E-01
       -2   -1    0    0    0  501  0.00000000000E+00  0.00000000000E+00  0.11293711320E+04  0.11293711320E+04  0.25500000920E-02 0. -1.
        2   -1    0    0  501    0  0.00000000000E+00  0.00000000000E+00 -0.90023576020E+03  0.90023576021E+03  0.25500000920E-02 0.  1.
    10030    2    1    2    0    0  0.00000000000E+00  0.00000000000E+00  0.22913537180E+03  0.20296068922E+04  0.20166311310E+04 0.  0.
        4    1    3    3  502    0 -0.61594340248E+03  0.79394368409E+03  0.30569186575E+02  0.10053203154E+04  0.12699999809E+01 0.  1.
       -4    1    3    3    0  502  0.61594340248E+03 -0.79394368409E+03  0.19856618523E+03  0.10242865768E+04  0.12699999809E+01 0. -1.
</event>
<event>
 5   0  0.1281789E-04  0.1990083E+04  0.7818609E-02  0.8611271E-01
        2   -1    0    0  501    0  0.00000000000E+00  0.00000000000E+00  0.12161091153E+04  0.12161091153E+04  0.25500000920E-02 0. -1.
       -2   -1    0    0    0  501  0.00000000000E+00  0.00000000000E+00 -0.81416026790E+03  0.81416026791E+03  0.25500000920E-02 0.  1.
    10030    2    1    2    0    0  0.00000000000E+00  0.00000000000E+00  0.40194884738E+03  0.20302693832E+04  0.19900831371E+04 0.  0.
        2    1    3    3  502    0 -0.37009438122E+03  0.20685983957E+03  0.11193449295E+04  0.11969519269E+04  0.25500000920E-02 0. -1.
       -2    1    3    3    0  502  0.37009438122E+03 -0.20685983957E+03 -0.71739608211E+03  0.83331745624E+03  0.25500000920E-02 0.  1.
</event>
<event>
 5   0  0.6168338E-05  0.1978528E+04  0.7818609E-02  0.8616726E-01
        1   -1    0    0  501    0  0.00000000000E+00  0.00000000000E+00  0.12051009614E+04  0.12051009614E+04  0.50400001928E-02 0.  1.
       -1   -1    0    0    0  501  0.00000000000E+00  0.00000000000E+00 -0.81208427555E+03  0.81208427557E+03  0.50400001928E-02 0. -1.
    10030    2    1    2    0    0  0.00000000000E+00  0.00000000000E+00  0.39301668584E+03  0.20171852370E+04  0.19785282826E+04 0.  0.
        5    1    3    3  502    0  0.20843632135E+03 -0.68981091010E+03 -0.49447737681E+03  0.87396496379E+03  0.46999998093E+01 0. -1.
       -5    1    3    3    0  502 -0.20843632135E+03  0.68981091010E+03  0.88749406265E+03  0.11432202732E+04  0.46999998093E+01 0.  1.
</event>
<event>
 5   0  0.1159914E-04  0.1989525E+04  0.7818609E-02  0.8611534E-01
       -2   -1    0    0    0  501  0.00000000000E+00  0.00000000000E+00  0.64002366643E+03  0.64002366643E+03  0.25500000920E-02 0.  1.
        2   -1    0    0  501    0  0.00000000000E+00  0.00000000000E+00 -0.15461178430E+04  0.15461178430E+04  0.25500000920E-02 0. -1.
    10030    2    1    2    0    0  0.00000000000E+00  0.00000000000E+00 -0.90609417659E+03  0.21861415095E+04  0.19895245770E+04 0.  0.
        3    1    3    3  502    0 -0.34128808385E+03 -0.90774372258E+03 -0.69647062065E+03  0.11939629633E+04  0.10100000352E+00 0.  1.
       -3    1    3    3    0  502  0.34128808385E+03  0.90774372258E+03 -0.20962355594E+03  0.99217854617E+03  0.10100000352E+00 0. -1.
</event>
<event>
 5   0  0.4479000E-05  0.1912675E+04  0.7818609E-02  0.8648573E-01
       -3   -1    0    0    0  501  0.00000000000E+00  0.00000000000E+00  0.52859730837E+03  0.52859731802E+03  0.10100000352E+00 0. -1.
        3   -1    0    0  501    0  0.00000000000E+00  0.00000000000E+00 -0.17302051606E+04  0.17302051636E+04  0.10100000352E+00 0.  1.
    10030    2    1    2    0    0  0.00000000000E+00  0.00000000000E+00 -0.12016078522E+04  0.22588024816E+04  0.19126754090E+04 0.  0.
        3    1    3    3  502    0 -0.43915134624E+03 -0.23667293834E+03  0.36276051620E+03  0.61681698011E+03  0.10100000352E+00 0. -1.
       -3    1    3    3    0  502  0.43915134624E+03  0.23667293834E+03 -0.15643683684E+04  0.16419855015E+04  0.10100000352E+00 0.  1.
</event>
<event>
 5   0  0.6214547E-05  0.2004777E+04  0.7818609E-02  0.8604391E-01
       -1   -1    0    0    0  501  0.00000000000E+00  0.00000000000E+00  0.71675477834E+03  0.71675477836E+03  0.50400001928E-02 0. -1.
        1   -1    0    0  501    0  0.00000000000E+00  0.00000000000E+00 -0.14018493533E+04  0.14018493533E+04  0.50400001928E-02 0.  1.
    10030    2    1    2    0    0  0.00000000000E+00  0.00000000000E+00 -0.68509457491E+03  0.21186041316E+04  0.20047765187E+04 0.  0.
        3    1    3    3  502    0  0.73824146480E+02  0.99233999939E+03 -0.21488457299E+03  0.10180196800E+04  0.10100000352E+00 0.  1.
       -3    1    3    3    0  502 -0.73824146480E+02 -0.99233999939E+03 -0.47021000193E+03  0.11005844516E+04  0.10100000352E+00 0. -1.
</event>
<event>
 5   0  0.4479000E-05  0.1998822E+04  0.7818609E-02  0.8607171E-01
        3   -1    0    0  501    0  0.00000000000E+00  0.00000000000E+00  0.16525105709E+04  0.16525105740E+04  0.10100000352E+00 0.  1.
       -3   -1    0    0    0  501  0.00000000000E+00  0.00000000000E+00 -0.60442743061E+03  0.60442743905E+03  0.10100000352E+00 0. -1.
    10030    2    1    2    0    0  0.00000000000E+00  0.00000000000E+00  0.10480831403E+04  0.22569380130E+04  0.19988223847E+04 0.  0.
        5    1    3    3  502    0 -0.39129512027E+03 -0.27366464468E+02  0.15619482875E+04  0.16104550094E+04  0.46999998093E+01 0.  1.
       -5    1    3    3    0  502  0.39129512027E+03  0.27366464468E+02 -0.51386514718E+03  0.64648300365E+03  0.46999998093E+01 0. -1.
</event>
<event>
 5   0  0.1242761E-04  0.1959840E+04  0.7818609E-02  0.8625630E-01
        2   -1    0    0  501    0  0.00000000000E+00  0.00000000000E+00  0.17812409729E+04  0.17812409729E+04  0.25500000920E-02 0. -1.
       -2   -1    0    0    0  501  0.00000000000E+00  0.00000000000E+00 -0.53908678468E+03  0.53908678468E+03  0.25500000920E-02 0.  1.
    10030    2    1    2    0    0  0.00000000000E+00  0.00000000000E+00  0.12421541882E+04  0.23203277575E+04  0.19598402678E+04 0.  0.
        4    1    3    3  502    0 -0.56130920360E+02  0.37755128342E+03 -0.44745241617E+03  0.58814192970E+03  0.12699999809E+01 0.  1.
       -4    1    3    3    0  502  0.56130920360E+02 -0.37755128342E+03  0.16896066043E+04  0.17321858278E+04  0.12699999809E+01 0. -1.
</event>
<event>
 5   0  0.6028501E-05  0.1977521E+04  0.7818609E-02  0.8617203E-01
       -1   -1    0    0    0  501  0.00000000000E+00  0.00000000000E+00  0.52276775080E+03  0.52276775083E+03  0.50400001928E-02 0.  1.
        1   -1    0    0  501    0  0.00000000000E+00  0.00000000000E+00 -0.18701378795E+04  0.18701378795E+04  0.50400001928E-02 0. -1.
    10030    2    1    2    0    0  0.00000000000E+00  0.00000000000E+00 -0.13473701287E+04  0.23929056303E+04  0.19775214517E+04 0.  0.
        4    1    3    3  502    0  0.67065651453E+03 -0.65523870217E+03 -0.10535111054E+04  0.14103209491E+04  0.12699999809E+01 0. -1.
       -4    1    3    3    0  502 -0.67065651453E+03  0.65523870217E+03 -0.29385902325E+03  0.98258468121E+03  0.12699999809E+01 0.  1.
</event>
<event>
 5   0  0.6214547E-05  0.1998813E+04  0.7818609E-02  0.8607176E-01
       -1   -1    0    0    0  501  0.00000000000E+00  0.00000000000E+00  0.82141682566E+03  0.82141682568E+03  0.50400001928E-02 0. -1.
        1   -1    0    0  501    0  0.00000000000E+00  0.00000000000E+00 -0.12159640362E+04  0.12159640362E+04  0.50400001928E-02 0.  1.
    10030    2    1    2    0    0  0.00000000000E+00  0.00000000000E+00 -0.39454721052E+03  0.20373808619E+04  0.19988129665E+04 0.  0.
        3    1    3    3  502    0 -0.65079775727E+03  0.67973377579E+03 -0.54027458239E+03  0.10851139854E+04  0.10100000352E+00 0. -1.
       -3    1    3    3    0  502  0.65079775727E+03 -0.67973377579E+03  0.14572737187E+03  0.95226687642E+03  0.10100000352E+00 0.  1.
</event>
<event>
 5   0  0.1281789E-04  0.2013774E+04  0.7818609E-02  0.8600208E-01
       -2   -1    0    0    0  501  0.00000000000E+00  0.00000000000E+00  0.61065695433E+03  0.61065695433E+03  0.25500000920E-02 0.  1.
        2   -1    0    0  501    0  0.00000000000E+00  0.00000000000E+00 -0.16602138816E+04  0.16602138816E+04  0.25500000920E-02 0. -1.
    10030    2    1    2    0    0  0.00000000000E+00  0.00000000000E+00 -0.10495569273E+04  0.22708708360E+04  0.20137737236E+04 0.  0.
        2    1    3    3  502    0 -0.52038147548E+02 -0.51108238297E+03  0.45175189900E+03  0.68410010177E+03  0.25500000920E-02 0.  1.
       -2    1    3    3    0  502  0.52038147548E+02  0.51108238297E+03 -0.15013088263E+04  0.15867707342E+04  0.25500000920E-02 0. -1.
</event>
<event>
 5   0  0.6214547E-05  0.2038311E+04  0.7818609E-02  0.8588916E-01
        1   -1    0    0  501    0  0.00000000000E+00  0.00000000000E+00  0.19588236661E+04  0.19588236661E+04  0.50400001928E-02 0. -1.
       -1   -1    0    0    0  501  0.00000000000E+00  0.00000000000E+00 -0.53025602656E+03  0.53025602659E+03  0.50400001928E-02 0.  1.
    10030    2    1    2    0    0  0.00000000000E+00  0.00000000000E+00  0.14285676396E+04  0.24890796927E+04  0.20383111185E+04 0.  0.
        3    1    3    3  502    0  0.21757933865E+02  0.90358274456E+03  0.13925031450E+03  0.91450852606E+03  0.10100000352E+00 0. -1.
       -3    1    3    3    0  502 -0.21757933865E+02 -0.90358274456E+03  0.12893173251E+04  0.15745711667E+04  0.10100000352E+00 0.  1.
</event>
<event>
 5   0  0.1242761E-04  0.2096094E+04  0.7818609E-02  0.8562966E-01
       -2   -1    0    0    0  501  0.00000000000E+00  0.00000000000E+00  0.10044226238E+04  0.10044226238E+04  0.25500000920E-02 0.  1.
        2   -1    0    0  501    0  0.00000000000E+00  0.00000000000E+00 -0.10935656770E+04  0.10935656770E+04  0.25500000920E-02 0. -1.
    10030    2    1    2    0    0  0.00000000000E+00  0.00000000000E+00 -0.89143053128E+02  0.20979883008E+04  0.20960936111E+04 0.  0.
        4    1    3    3  502    0 -0.23015850044E+03 -0.53332434490E+03  0.82856595870E+03  0.10118947341E+04  0.12699999809E+01 0.  1.
       -4    1    3    3    0  502  0.23015850044E+03  0.53332434490E+03 -0.91770901183E+03  0.10860935666E+04  0.12699999809E+01 0. -1.
</event>
<event>
 5   0  0.1274868E-04  0.2001225E+04  0.7818609E-02  0.8606048E-01
       -2   -1    0    0    0  501  0.00000000000E+00  0.00000000000E+00  0.92813352026E+03  0.92813352026E+03  0.25500000920E-02 0.  1.
        2   -1    0    0  501    0  0.00000000000E+00  0.00000000000E+00 -0.10787516721E+04  0.10787516721E+04  0.25500000920E-02 0. -1.
    10030    2    1    2    0    0  0.00000000000E+00  0.00000000000E+00 -0.15061815184E+03  0.20068851924E+04  0.20012252116E+04 0.  0.
        1    1    3    3  502    0  0.73211999840E+03  0.35524865384E+03 -0.65921377432E+03  0.10472650564E+04  0.50400001928E-02 0.  1.
       -1    1    3    3    0  502 -0.73211999840E+03 -0.35524865384E+03  0.50859562247E+03  0.95962013596E+03  0.50400001928E-02 0. -1.
</event>
<event>
 5   0  0.1159914E-04  0.2029562E+04  0.7818609E-02  0.8592923E-01
        2   -1    0    0  501    0  0.00000000000E+00  0.00000000000E+00  0.15280836450E+04  0.15280836450E+04  0.25500000920E-02 0. -1.
       -2   -1    0    0    0  501  0.00000000000E+00  0.00000000000E+00 -0.67390318817E+03  0.67390318818E+03  0.25500000920E-02 0.  1.
    10030    2    1    2    0    0  0.00000000000E+00  0.00000000000E+00  0.85418045686E+03  0.22019868332E+04  0.20295619628E+04 0.  0.
        3    1    3    3  502    0 -0.75104943583E+03 -0.15654347979E+03 -0.29356877543E+03  0.82144004787E+03  0.10100000352E+00 0.  1.
       -3    1    3    3    0  502  0.75104943583E+03  0.15654347979E+03  0.11477492323E+04  0.13805467854E+04  0.10100000352E+00 0. -1.
</event>
<event>
 5   0  0.1159914E-04  0.2006636E+04  0.7818609E-02  0.8603524E-01
       -2   -1    0    0    0  501  0.00000000000E+00  0.00000000000E+00  0.89630256882E+03  0.89630256882E+03  0.25500000920E-02 0.  1.
        2   -1    0    0  501    0  0.00000000000E+00  0.00000000000E+00 -0.11231108904E+04  0.11231108904E+04  0.25500000920E-02 0. -1.
    10030    2    1    2    0    0  0.00000000000E+00  0.00000000000E+00 -0.22680832162E+03  0.20194134593E+04  0.20066361665E+04 0.  0.
        3    1    3    3  502    0 -0.82267237559E+03 -0.25016602237E+03 -0.63368185043E+03  0.10681411770E+04  0.10100000352E+00 0. -1.
       -3    1    3    3    0  502  0.82267237559E+03  0.25016602237E+03  0.40687352881E+03  0.95127228224E+03  0.10100000352E+00 0.  1.
</event>
<event>
 5   0  0.1244229E-04  0.2007822E+04  0.7818609E-02  0.8602973E-01
       -2   -1    0    0    0  501  0.00000000000E+00  0.00000000000E+00  0.56896264195E+03  0.56896264195E+03  0.25500000920E-02 0. -1.
        2   -1    0    0  501    0  0.00000000000E+00  0.00000000000E+00 -0.17713585694E+04  0.17713585694E+04  0.25500000920E-02 0.  1.
    10030    2    1    2    0    0  0.00000000000E+00  0.00000000000E+00 -0.12023959275E+04  0.23403212114E+04  0.20078215573E+04 0.  0.
        5    1    3    3  502    0 -0.64399906442E+03 -0.76888318487E+03 -0.55040906930E+03  0.11440665979E+04  0.46999998093E+01 0.  1.
       -5    1    3    3    0  502  0.64399906442E+03  0.76888318487E+03 -0.65198685817E+03  0.11962546134E+04  0.46999998093E+01 0. -1.
</event>
<event>
 5   0  0.6214547E-05  0.2027325E+04  0.7818609E-02  0.8593951E-01
       -1   -1    0    0    0  501  0.00000000000E+00  0.00000000000E+00  0.49686772618E+03  0.49686772621E+03  0.50400001928E-02 0. -1.
        1   -1    0    0  501    0  0.00000000000E+00  0.00000000000E+00 -0.20679773862E+04  0.20679773862E+04  0.50400001928E-02 0.  1.
    10030    2    1    2    0    0  0.00000000000E+00  0.00000000000E+00 -0.15711096600E+04  0.25648451124E+04  0.20273245638E+04 0.  0.
        3    1    3    3  502    0 -0.36628794393E+03 -0.82593890136E+02  0.40563991205E+03  0.55274981412E+03  0.10100000352E+00 0. -1.
       -3    1    3    3    0  502  0.36628794393E+03  0.82593890136E+02 -0.19767495720E+04  0.20120952983E+04  0.10100000352E+00 0.  1.
</event>
<event>
 5   0  0.6028501E-05  0.1991438E+04  0.7818609E-02  0.8610634E-01
        1   -1    0    0  501    0  0.00000000000E+00  0.00000000000E+00  0.13809987056E+04  0.13809987056E+04  0.50400001928E-02 0.  1.
       -1   -1    0    0    0  501  0.00000000000E+00  0.00000000000E+00 -0.71792677567E+03  0.71792677569E+03  0.50400001928E-02 0. -1.
    10030    2    1    2    0    0  0.00000000000E+00  0.00000000000E+00  0.66307192992E+03  0.20989254813E+04  0.19914376193E+04 0.  0.
        4    1    3    3  502    0 -0.17463277226E+03 -0.42182220815E+03 -0.60111207483E+03  0.75482972904E+03  0.12699999809E+01 0. -1.
       -4    1    3    3    0  502  0.17463277226E+03  0.42182220815E+03  0.12641840048E+04  0.13440957522E+04  0.12699999809E+01 0.  1.
</event>
<event>
 5   0  0.1242761E-04  0.2067008E+04  0.7818609E-02  0.8575917E-01
        2   -1    0    0  501    0  0.00000000000E+00  0.00000000000E+00  0.12920790715E+04  0.12920790715E+04  0.25500000920E-02 0. -1.
       -2   -1    0    0    0  501  0.00000000000E+00  0.00000000000E+00 -0.82667600715E+03  0.82667600716E+03  0.25500000920E-02 0.  1.
    10030    2    1    2    0    0  0.00000000000E+00  0.00000000000E+00  0.46540306436E+03  0.21187550787E+04  0.20670082417E+04 0.  0.
        4    1    3    3  502    0  0.58922938431E+03 -0.82087292670E+03  0.45517307978E+03  0.11082453585E+04  0.12699999809E+01 0. -1.
       -4    1    3    3    0  502 -0.58922938431E+03  0.82087292670E+03  0.10229984581E+02  0.10105097202E+04  0.12699999809E+01 0.  1.
</event>
<event>
 5   0  0.6214547E-05  0.1937799E+04  0.7818609E-02  0.8636267E-01
       -1   -1    0    0    0  501  0.00000000000E+00  0.00000000000E+00  0.48671746431E+03  0.48671746434E+03  0.50400001928E-02 0.  1.
        1   -1    0    0  501    0  0.00000000000E+00  0.00000000000E+00 -0.19287701962E+04  0.19287701962E+04  0.50400001928E-02 0. -1.
    10030    2    1    2    0    0  0.00000000000E+00  0.00000000000E+00 -0.14420527318E+04  0.24154876605E+04  0.19377988948E+04 0.  0.
        3    1    3    3  502    0  0.22853111446E+03 -0.33099475636E+03 -0.18197833145E+04  0.18637047301E+04  0.10100000352E+00 0. -1.
       -3    1    3    3    0  502 -0.22853111446E+03  0.33099475636E+03  0.37773058266E+03  0.55178293041E+03  0.10100000352E+00 0.  1.
</event>
<event>
 5   0  0.6222733E-05  0.1994335E+04  0.7818609E-02  0.8609274E-01
        1   -1    0    0  501    0  0.00000000000E+00  0.00000000000E+00  0.13191984512E+04  0.13191984512E+04  0.50400001928E-02 0. -1.
       -1   -1    0    0    0  501  0.00000000000E+00  0.00000000000E+00 -0.75374802206E+03  0.75374802208E+03  0.50400001928E-02 0.  1.
    10030    2    1    2    0    0  0.00000000000E+00  0.00000000000E+00  0.56545042915E+03  0.20729464733E+04  0.19943352008E+04 0.  0.
        2    1    3    3  502    0 -0.49463237098E+03 -0.79808869066E+03 -0.66272171244E+02  0.94127506143E+03  0.25500000920E-02 0.  1.
       -2    1    3    3    0  502  0.49463237098E+03  0.79808869066E+03  0.63172260040E+03  0.11316714119E+04  0.25500000920E-02 0. -1.
</event>
<event>
 5   0  0.6168338E-05  0.1978148E+04  0.7818609E-02  0.8616906E-01
        1   -1    0    0  501    0  0.00000000000E+00  0.00000000000E+00  0.11321260307E+04  0.11321260307E+04  0.50400001928E-02 0. -1.
       -1   -1    0    0    0  501  0.00000000000E+00  0.00000000000E+00 -0.86409793369E+03  0.86409793370E+03  0.50400001928E-02 0.  1.
    10030    2    1    2    0    0  0.00000000000E+00  0.00000000000E+00  0.26802809699E+03  0.19962239644E+04  0.19781483906E+04 0.  0.
        5    1    3    3  502    0 -0.21570334664E+03 -0.86488057310E+03  0.56653205154E+03  0.10561851139E+04  0.46999998093E+01 0. -1.
       -5    1    3    3    0  502  0.21570334664E+03  0.86488057310E+03 -0.29850395456E+03  0.94003885045E+03  0.46999998093E+01 0.  1.
</event>
<event>
 5   0  0.6214547E-05  0.2003137E+04  0.7818609E-02  0.8605156E-01
       -1   -1    0    0    0  501  0.00000000000E+00  0.00000000000E+00  0.47819438183E+03  0.47819438186E+03  0.50400001928E-02 0. -1.
        1   -1    0    0  501    0  0.00000000000E+00  0.00000000000E+00 -0.20977641510E+04  0.20977641510E+04  0.50400001928E-02 0.  1.
    10030    2    1    2    0    0  0.00000000000E+00  0.00000000000E+00 -0.16195697692E+04  0.25759585329E+04  0.20031365719E+04 0.  0.
        3    1    3    3  502    0 -0.31209150586E+03  0.49671080190E+03  0.23415714606E+03  0.63162671571E+03  0.10100000352E+00 0. -1.
       -3    1    3    3    0  502  0.31209150586E+03 -0.49671080190E+03 -0.18537269152E+04  0.19443318172E+04  0.10100000352E+00 0.  1.
</event>
<event>
 5   0  0.6168338E-05  0.2007229E+04  0.7818609E-02  0.8603248E-01
        1   -1    0    0  501    0  0.00000000000E+00  0.00000000000E+00  0.87251749648E+03  0.87251749650E+03  0.50400001928E-02 0.  1.
       -1   -1    0    0    0  501  0.00000000000E+00  0.00000000000E+00 -0.11544087629E+04  0.11544087629E+04  0.50400001928E-02 0. -1.
    10030    2    1    2    0    0  0.00000000000E+00  0.00000000000E+00 -0.28189126639E+03  0.20269262594E+04  0.20072287799E+04 0.  0.
        5    1    3    3  502    0 -0.39146627352E+03  0.49633227437E+03  0.64620895034E+03  0.90399096642E+03  0.46999998093E+01 0.  1.
       -5    1    3    3    0  502  0.39146627352E+03 -0.49633227437E+03 -0.92810021672E+03  0.11229352930E+04  0.46999998093E+01 0. -1.
</event>
<event>
 5   0  0.6222733E-05  0.1989368E+04  0.7818609E-02  0.8611608E-01
        1   -1    0    0  501    0  0.00000000000E+00  0.00000000000E+00  0.13733719150E+04  0.13733719151E+04  0.50400001928E-02 0.  1.
       -1   -1    0    0    0  501  0.00000000000E+00  0.00000000000E+00 -0.72041381517E+03  0.72041381519E+03  0.50400001928E-02 0. -1.
    10030    2    1    2    0    0  0.00000000000E+00  0.00000000000E+00  0.65295809988E+03  0.20937857302E+04  0.19893678403E+04 0.  0.
        2    1    3    3  502    0 -0.88515525592E+03 -0.40276110688E+03  0.10651217354E+03  0.97829503700E+03  0.25500000920E-02 0. -1.
       -2    1    3    3    0  502  0.88515525592E+03  0.40276110688E+03  0.54644592634E+03  0.11154906932E+04  0.25500000920E-02 0.  1.
</event>
<event>
 5   0  0.6222733E-05  0.2195820E+04  0.7818609E-02  0.8520170E-01
       -1   -1    0    0    0  501  0.00000000000E+00  0.00000000000E+00  0.20865380811E+04  0.20865380811E+04  0.50400001928E-02 0. -1.
        1   -1    0    0  501    0  0.00000000000E+00  0.00000000000E+00 -0.57770629071E+03  0.57770629073E+03  0.50400001928E-02 0.  1.
    10030    2    1    2    0    0  0.00000000000E+00  0.00000000000E+00  0.15088317904E+04  0.26642443718E+04  0.21958198244E+04 0.  0.
        2    1    3    3  502    0 -0.95040333892E+03 -0.18535132508E+02  0.14209681157E+04  0.17096082720E+04  0.25500000920E-02 0. -1.
       -2    1    3    3    0  502  0.95040333892E+03  0.18535132508E+02  0.87863674661E+02  0.95463609983E+03  0.25500000920E-02 0.  1.
</event>
<event>
 5   0  0.1244229E-04  0.2002498E+04  0.7818609E-02  0.8605453E-01
        2   -1    0    0  501    0  0.00000000000E+00  0.00000000000E+00  0.16431184823E+04  0.16431184823E+04  0.25500000920E-02 0.  1.
       -2   -1    0    0    0  501  0.00000000000E+00  0.00000000000E+00 -0.61012029045E+03  0.61012029045E+03  0.25500000920E-02 0. -1.
    10030    2    1    2    0    0  0.00000000000E+00  0.00000000000E+00  0.10329981918E+04  0.22532387727E+04  0.20024983652E+04 0.  0.
        5    1    3    3  502    0  0.44210715384E+03  0.38971240365E+03 -0.39425935904E+03  0.70908181842E+03  0.46999998093E+01 0. -1.
       -5    1    3    3    0  502 -0.44210715384E+03 -0.38971240365E+03  0.14272575509E+04  0.15441569543E+04  0.46999998093E+01 0.  1.
</event>
<event>
 5   0  0.6214547E-05  0.1995495E+04  0.7818609E-02  0.8608730E-01
       -1   -1    0    0    0  501  0.00000000000E+00  0.00000000000E+00  0.13010898418E+04  0.13010898418E+04  0.50400001928E-02 0.  1.
        1   -1    0    0  501    0  0.00000000000E+00  0.00000000000E+00 -0.76512754915E+03  0.76512754917E+03  0.50400001928E-02 0. -1.
    10030    2    1    2    0    0  0.00000000000E+00  0.00000000000E+00  0.53596229260E+03  0.20662173909E+04  0.19954946072E+04 0.  0.
        3    1    3    3  502    0  0.80427569779E+03  0.59029472964E+03  0.25361849834E+03  0.10293831254E+04  0.10100000352E+00 0. -1.
       -3    1    3    3    0  502 -0.80427569779E+03 -0.59029472964E+03  0.28234379427E+03  0.10368342656E+04  0.10100000352E+00 0.  1.
</event>
<event>
 5   0  0.1244229E-04  0.1855927E+04  0.7818609E-02  0.8677111E-01
        2   -1    0    0  501    0  0.00000000000E+00  0.00000000000E+00  0.52743705342E+03  0.52743705343E+03  0.25500000920E-02 0.  1.
       -2   -1    0    0    0  501  0.00000000000E+00  0.00000000000E+00 -0.16326430072E+04  0.16326430072E+04  0.25500000920E-02 0. -1.
    10030    2    1    2    0    0  0.00000000000E+00  0.00000000000E+00 -0.11052059538E+04  0.21600800607E+04  0.18559271721E+04 0.  0.
        5    1    3    3  502    0 -0.54628184538E+03 -0.57634499486E+03 -0.11113837838E+04  0.13659404865E+04  0.46999998093E+01 0. -1.
       -5    1    3    3    0  502  0.54628184538E+03  0.57634499486E+03  0.61778300022E+01  0.79413957418E+03  0.46999998093E+01 0.  1.
</event>
<event>
 5   0  0.6214547E-05  0.1895078E+04  0.7818609E-02  0.8657310E-01
        1   -1    0    0  501    0  0.00000000000E+00  0.00000000000E+00  0.13074191519E+04  0.13074191519E+04  0.50400001928E-02 0.  1.
       -1   -1    0    0    0  501  0.00000000000E+00  0.00000000000E+00 -0.68671973840E+03  0.68671973842E+03  0.50400001928E-02 0. -1.
    10030    2    1    2    0    0  0.00000000000E+00  0.00000000000E+00  0.62069941351E+03  0.19941388903E+04  0.18950784026E+04 0.  0.
        3    1    3    3  502    0 -0.78390274980E+03  0.47273910972E+03  0.56776907274E+03  0.10771942801E+04  0.10100000352E+00 0. -1.
       -3    1    3    3    0  502  0.78390274980E+03 -0.47273910972E+03  0.52930340766E+02  0.91694461020E+03  0.10100000352E+00 0.  1.
</event>
<event>
 5   0  0.1242761E-04  0.1988751E+04  0.7818609E-02  0.8611898E-01
        2   -1    0    0  501    0  0.00000000000E+00  0.00000000000E+00  0.11481771950E+04  0.11481771950E+04  0.25500000920E-02 0. -1.
       -2   -1    0    0    0  501  0.00000000000E+00  0.00000000000E+00 -0.86117596503E+03  0.86117596504E+03  0.25500000920E-02 0.  1.
    10030    2    1    2    0    0  0.00000000000E+00  0.00000000000E+00  0.28700122997E+03  0.20093531600E+04  0.19887509688E+04 0.  0.
        4    1    3    3  502    0 -0.32333324419E+03 -0.23859869453E+03  0.10624874494E+04  0.11359379018E+04  0.12699999809E+01 0. -1.
       -4    1    3    3    0  502  0.32333324419E+03  0.23859869453E+03 -0.77548621942E+03  0.87341525819E+03  0.12699999809E+01 0.  1.
</event>
<event>
 5   0  0.6028501E-05  0.1993632E+04  0.7818609E-02  0.8609604E-01
        1   -1    0    0  501    0  0.00000000000E+00  0.00000000000E+00  0.11459436096E+04  0.11459436096E+04  0.50400001928E-02 0.  1.
       -1   -1    0    0    0  501  0.00000000000E+00  0.00000000000E+00 -0.86709542362E+03  0.86709542363E+03  0.50400001928E-02 0. -1.
    10030    2    1    2    0    0  0.00000000000E+00  0.00000000000E+00  0.27884818596E+03  0.20130390332E+04  0.19936323228E+04 0.  0.
        4    1    3    3  502    0  0.93235558177E+03 -0.35123465014E+03  0.10768346038E+03  0.10021227723E+04  0.12699999809E+01 0. -1.
       -4    1    3    3    0  502 -0.93235558177E+03  0.35123465014E+03  0.17116472558E+03  0.10109162609E+04  0.12699999809E+01 0.  1.
</event>
<event>
 5   0  0.1242761E-04  0.2020871E+04  0.7818609E-02  0.8596925E-01
        2   -1    0    0  501    0  0.00000000000E+00  0.00000000000E+00  0.97151583267E+03  0.97151583268E+03  0.25500000920E-02 0.  1.
       -2   -1    0    0    0  501  0.00000000000E+00  0.00000000000E+00 -0.10509140986E+04  0.10509140986E+04  0.25500000920E-02 0. -1.
    10030    2    1    2    0    0  0.00000000000E+00  0.00000000000E+00 -0.79398265919E+02  0.20224299313E+04  0.20208707881E+04 0.  0.
        4    1    3    3  502    0  0.76129622177E+03  0.64910415565E+03 -0.18147681517E+03  0.10167809939E+04  0.12699999809E+01 0.  1.
       -4    1    3    3    0  502 -0.76129622177E+03 -0.64910415565E+03  0.10207854925E+03  0.10056489374E+04  0.12699999809E+01 0. -1.
</event>
<event>
 5   0  0.1281789E-04  0.2015717E+04  0.7818609E-02  0.8599308E-01
        2   -1    0    0  501    0  0.00000000000E+00  0.00000000000E+00  0.53212810385E+03  0.53212810386E+03  0.25500000920E-02 0. -1.
       -2   -1    0    0    0  501  0.00000000000E+00  0.00000000000E+00 -0.19088983187E+04  0.19088983187E+04  0.25500000920E-02 0.  1.
    10030    2    1    2    0    0  0.00000000000E+00  0.00000000000E+00 -0.13767702148E+04  0.24410264225E+04  0.20157166892E+04 0.  0.
        2    1    3    3  502    0  0.30497599821E+03 -0.27253135580E+03  0.42710973564E+03  0.59135981066E+03  0.25500000920E-02 0. -1.
       -2    1    3    3    0  502 -0.30497599821E+03  0.27253135580E+03 -0.18038799504E+04  0.18496666119E+04  0.25500000920E-02 0.  1.
</event>
<event>
 5   0  0.6256535E-05  0.1994942E+04  0.7818609E-02  0.8608989E-01
        1   -1    0    0  501    0  0.00000000000E+00  0.00000000000E+00  0.58467912025E+03  0.58467912027E+03  0.50400001928E-02 0.  1.
       -1   -1    0    0    0  501  0.00000000000E+00  0.00000000000E+00 -0.17016998477E+04  0.17016998477E+04  0.50400001928E-02 0. -1.
    10030    2    1    2    0    0  0.00000000000E+00  0.00000000000E+00 -0.11170207274E+04  0.22863789679E+04  0.19949419740E+04 0.  0.
        1    1    3    3  502    0  0.40500713964E+03 -0.58651721143E+03 -0.13582425792E+04  0.15339022545E+04  0.50400001928E-02 0.  1.
       -1    1    3    3    0  502 -0.40500713964E+03  0.58651721143E+03  0.24122185176E+03  0.75247671343E+03  0.50400001928E-02 0. -1.
</event>
<event>
 5   0  0.4479000E-05  0.1895861E+04  0.7818609E-02  0.8656920E-01
       -3   -1    0    0    0  501  0.00000000000E+00  0.00000000000E+00  0.70342341807E+03  0.70342342532E+03  0.10100000352E+00 0.  1.
        3   -1    0    0  501    0  0.00000000000E+00  0.00000000000E+00 -0.12774266368E+04  0.12774266408E+04  0.10100000352E+00 0. -1.
    10030    2    1    2    0    0  0.00000000000E+00  0.00000000000E+00 -0.57400321875E+03  0.19808500661E+04  0.18958605670E+04 0.  0.
        5    1    3    3  502    0 -0.93800795169E+03 -0.47547401341E+01 -0.14424490323E+03  0.94905753624E+03  0.46999998093E+01 0.  1.
       -5    1    3    3    0  502  0.93800795169E+03  0.47547401341E+01 -0.42975831552E+03  0.10317925299E+04  0.46999998093E+01 0. -1.
</event>
<event>
 5   0  0.6256535E-05  0.2073808E+04  0.7818609E-02  0.8572870E-01
        1   -1    0    0  501    0  0.00000000000E+00  0.00000000000E+00  0.13196186388E+04  0.13196186388E+04  0.50400001928E-02 0. -1.
       -1   -1    0    0    0  501  0.00000000000E+00  0.00000000000E+00 -0.81475801230E+03  0.81475801231E+03  0.50400001928E-02 0.  1.
    10030    2    1    2    0    0  0.00000000000E+00  0.00000000000E+00  0.50486062650E+03  0.21343766511E+04  0.20738079556E+04 0.  0.
        1    1    3    3  502    0  0.73821962833E+03  0.34054102176E+03  0.91483761209E+03  0.12238726501E+04  0.50400001928E-02 0. -1.
       -1    1    3    3    0  502 -0.73821962833E+03 -0.34054102176E+03 -0.40997698558E+03  0.91050400102E+03  0.50400001928E-02 0.  1.
</event>
<event>
 5   0  0.1244229E-04  0.2118223E+04  0.7818609E-02  0.8553258E-01
       -2   -1    0    0    0  501  0.00000000000E+00  0.00000000000E+00  0.36072134884E+03  0.36072134885E+03  0.25500000920E-02 0. -1.
        2   -1    0    0  501    0  0.00000000000E+00  0.00000000000E+00 -0.31096500126E+04  0.31096500126E+04  0.25500000920E-02 0.  1.
    10030    2    1    2    0    0  0.00000000000E+00  0.00000000000E+00 -0.27489286638E+04  0.34703713614E+04  0.21182229788E+04 0.  0.
        5    1    3    3  502    0 -0.55832848700E+03  0.46902294355E+03 -0.26328784914E+04  0.27319927638E+04  0.46999998093E+01 0.  1.
       -5    1    3    3    0  502  0.55832848700E+03 -0.46902294355E+03 -0.11605017236E+03  0.73837859766E+03  0.46999998093E+01 0. -1.
</event>
<event>
 5   0  0.1159914E-04  0.1972406E+04  0.7818609E-02  0.8619632E-01
        2   -1    0    0  501    0  0.00000000000E+00  0.00000000000E+00  0.22575279319E+04  0.22575279319E+04  0.25500000920E-02 0.  1.
       -2   -1    0    0    0  501  0.00000000000E+00  0.00000000000E+00 -0.43082357548E+03  0.43082357549E+03  0.25500000920E-02 0. -1.
    10030    2    1    2    0    0  0.00000000000E+00  0.00000000000E+00  0.18267043565E+04  0.26883515074E+04  0.19724058968E+04 0.  0.
        3    1    3    3  502    0  0.42562805545E+03 -0.53454478815E+03 -0.55897696735E+02  0.68558145747E+03  0.10100000352E+00 0. -1.
       -3    1    3    3    0  502 -0.42562805545E+03  0.53454478815E+03  0.18826020532E+04  0.20027700500E+04  0.10100000352E+00 0.  1.
</event>
<event>
 5   0  0.1159914E-04  0.2002852E+04  0.7818609E-02  0.8605288E-01
       -2   -1    0    0    0  501  0.00000000000E+00  0.00000000000E+00  0.61999400544E+03  0.61999400545E+03  0.25500000920E-02 0. -1.
        2   -1    0    0  501    0  0.00000000000E+00  0.00000000000E+00 -0.16175222652E+04  0.16175222652E+04  0.25500000920E-02 0.  1.
    10030    2    1    2    0    0  0.00000000000E+00  0.00000000000E+00 -0.99752825974E+03  0.22375162706E+04  0.20028520745E+04 0.  0.
        3    1    3    3  502    0 -0.86775004484E+03  0.21093858156E+03 -0.10050369784E+04  0.13444644152E+04  0.10100000352E+00 0. -1.
       -3    1    3    3    0  502  0.86775004484E+03 -0.21093858156E+03  0.75087186402E+01  0.89305185547E+03  0.10100000352E+00 0.  1.
</event>
<event>
 5   0  0.6222733E-05  0.1995121E+04  0.7818609E-02  0.8608905E-01
        1   -1    0    0  501    0  0.00000000000E+00  0.00000000000E+00  0.94638059065E+03  0.94638059066E+03  0.50400001928E-02 0.  1.
       -1   -1    0    0    0  501  0.00000000000E+00  0.00000000000E+00 -0.10515082092E+04  0.10515082092E+04  0.50400001928E-02 0. -1.
    10030    2    1    2    0    0  0.00000000000E+00  0.00000000000E+00 -0.10512761851E+03  0.19978887998E+04  0.19951210089E+04 0.  0.
        2    1    3    3  502    0 -0.88538978531E+03 -0.45911268215E+03 -0.31860669733E+02  0.99785501408E+03  0.25500000920E-02 0.  1.
       -2    1    3    3    0  502  0.88538978531E+03  0.45911268215E+03 -0.73266948777E+02  0.10000337857E+04  0.25500000920E-02 0. -1.
</event>
<event>
 5   0  0.1242761E-04  0.1992534E+04  0.7818609E-02  0.8610119E-01
        2   -1    0    0  501    0  0.00000000000E+00  0.00000000000E+00  0.80847880698E+03  0.80847880699E+03  0.25500000920E-02 0.  1.
       -2   -1    0    0    0  501  0.00000000000E+00  0.00000000000E+00 -0.12276734237E+04  0.12276734237E+04  0.25500000920E-02 0. -1.
    10030    2    1    2    0    0  0.00000000000E+00  0.00000000000E+00 -0.41919461674E+03  0.20361522307E+04  0.19925340097E+04 0.  0.
        4    1    3    3  502    0  0.67670358521E+03  0.45336766785E+03 -0.79580678607E+03  0.11387625030E+04  0.12699999809E+01 0. -1.
       -4    1    3    3    0  502 -0.67670358521E+03 -0.45336766785E+03  0.37661216933E+03  0.89738972776E+03  0.12699999809E+01 0.  1.
</event>
<event>
 5   0  0.6256535E-05  0.2064853E+04  0.7818609E-02  0.8576886E-01
       -1   -1    0    0    0  501  0.00000000000E+00  0.00000000000E+00  0.68854972900E+03  0.68854972902E+03  0.50400001928E-02 0. -1.
        1   -1    0    0  501    0  0.00000000000E+00  0.00000000000E+00 -0.15480430365E+04  0.15480430365E+04  0.50400001928E-02 0.  1.
    10030    2    1    2    0    0  0.00000000000E+00  0.00000000000E+00 -0.85949330752E+03  0.22365927655E+04  0.20648531312E+04 0.  0.
        1    1    3    3  502    0 -0.41529792510E+03 -0.59856975348E+02 -0.14515233714E+04  0.15109517933E+04  0.50400001928E-02 0.  1.
       -1    1    3    3    0  502  0.41529792510E+03  0.59856975348E+02  0.59203006383E+03  0.72564097224E+03  0.50400001928E-02 0. -1.
</event>
<event>
 5   0  0.1159914E-04  0.1992724E+04  0.7818609E-02  0.8610030E-01
       -2   -1    0    0    0  501  0.00000000000E+00  0.00000000000E+00  0.10359679032E+04  0.10359679032E+04  0.25500000920E-02 0. -1.
        2   -1    0    0  501    0  0.00000000000E+00  0.00000000000E+00 -0.95826981023E+03  0.95826981024E+03  0.25500000920E-02 0.  1.
    10030    2    1    2    0    0  0.00000000000E+00  0.00000000000E+00  0.77698092947E+02  0.19942377134E+04  0.19927235292E+04 0.  0.
        3    1    3    3  502    0  0.59768792704E+03 -0.46338292737E+03  0.68801918708E+03  0.10224113690E+04  0.10100000352E+00 0. -1.
       -3    1    3    3    0  502 -0.59768792704E+03  0.46338292737E+03 -0.61032109414E+03  0.97182634440E+03  0.10100000352E+00 0.  1.
</event>
<event>
 5   0  0.6256535E-05  0.1980037E+04  0.7818609E-02  0.8616011E-01
       -1   -1    0    0    0  501  0.00000000000E+00  0.00000000000E+00  0.76833045355E+03  0.76833045357E+03  0.50400001928E-02 0.  1.
        1   -1    0    0  501    0  0.00000000000E+00  0.00000000000E+00 -0.12756703665E+04  0.12756703665E+04  0.50400001928E-02 0. -1.
    10030    2    1    2    0    0  0.00000000000E+00  0.00000000000E+00 -0.50733991299E+03  0.20440008201E+04  0.19800367586E+04 0.  0.
        1    1    3    3  502    0 -0.41387146928E+03 -0.72084422508E+02  0.67175553607E+03  0.79230124152E+03  0.50400001928E-02 0.  1.
       -1    1    3    3    0  502  0.41387146928E+03  0.72084422508E+02 -0.11790954491E+04  0.12516995786E+04  0.50400001928E-02 0. -1.
</event>
<event>
 5   0  0.1244229E-04  0.1986785E+04  0.7818609E-02  0.8612824E-01
        2   -1    0    0  501    0  0.00000000000E+00  0.00000000000E+00  0.98426169936E+03  0.98426169937E+03  0.25500000920E-02 0.  1.
       -2   -1    0    0    0  501  0.00000000000E+00  0.00000000000E+00 -0.10026082142E+04  0.10026082142E+04  0.25500000920E-02 0. -1.
    10030    2    1    2    0    0  0.00000000000E+00  0.00000000000E+00 -0.18346514843E+02  0.19868699136E+04  0.19867852070E+04 0.  0.
        5    1    3    3  502    0 -0.11807734512E+03 -0.22105897953E+03 -0.97046209734E+03  0.10023113809E+04  0.46999998093E+01 0. -1.
       -5    1    3    3    0  502  0.11807734512E+03  0.22105897953E+03  0.95211558250E+03  0.98455853269E+03  0.46999998093E+01 0.  1.
</event>
<event>
 5   0  0.6028501E-05  0.2005827E+04  0.7818609E-02  0.8603901E-01
       -1   -1    0    0    0  501  0.00000000000E+00  0.00000000000E+00  0.77888293036E+03  0.77888293038E+03  0.50400001928E-02 0. -1.
        1   -1    0    0  501    0  0.00000000000E+00  0.00000000000E+00 -0.12913815006E+04  0.12913815006E+04  0.50400001928E-02 0.  1.
    10030    2    1    2    0    0  0.00000000000E+00  0.00000000000E+00 -0.51249857025E+03  0.20702644310E+04  0.20058265204E+04 0.  0.
        4    1    3    3  502    0  0.25153150719E+03 -0.96258096869E+03 -0.12568165628E+03  0.10028099082E+04  0.12699999809E+01 0. -1.
       -4    1    3    3    0  502 -0.25153150719E+03  0.96258096869E+03 -0.38681691397E+03  0.10674545228E+04  0.12699999809E+01 0.  1.
</event>
<event>
 5   0  0.1281789E-04  0.1994412E+04  0.7818609E-02  0.8609238E-01
       -2   -1    0    0    0  501  0.00000000000E+00  0.00000000000E+00  0.85162380507E+03  0.85162380508E+03  0.25500000920E-02 0.  1.
        2   -1    0    0  501    0  0.00000000000E+00  0.00000000000E+00 -0.11676744800E+04  0.11676744800E+04  0.25500000920E-02 0. -1.
    10030    2    1    2    0    0  0.00000000000E+00  0.00000000000E+00 -0.31605067489E+03  0.20192982850E+04  0.19944115761E+04 0.  0.
        2    1    3    3  502    0 -0.11420747818E+03  0.95488362555E+03 -0.42508419290E+03  0.10514478862E+04  0.25500000920E-02 0. -1.
       -2    1    3    3    0  502  0.11420747818E+03 -0.95488362555E+03  0.10903351801E+03  0.96785039880E+03  0.25500000920E-02 0.  1.
</event>
<event>
 5   0  0.1159914E-04  0.1986790E+04  0.7818609E-02  0.8612822E-01
       -2   -1    0    0    0  501  0.00000000000E+00  0.00000000000E+00  0.60774216177E+03  0.60774216178E+03  0.25500000920E-02 0. -1.
        2   -1    0    0  501    0  0.00000000000E+00  0.00000000000E+00 -0.16237700543E+04  0.16237700543E+04  0.25500000920E-02 0.  1.
    10030    2    1    2    0    0  0.00000000000E+00  0.00000000000E+00 -0.10160278925E+04  0.22315122161E+04  0.19867898963E+04 0.  0.
        3    1    3    3  502    0 -0.59844970925E+03 -0.74348927167E+03 -0.81747897983E+03  0.12566583642E+04  0.10100000352E+00 0. -1.
       -3    1    3    3    0  502  0.59844970925E+03  0.74348927167E+03 -0.19854891268E+03  0.97485385188E+03  0.10100000352E+00 0.  1.
</event>
<event>
 5   0  0.6168338E-05  0.1988581E+04  0.7818609E-02  0.8611978E-01
       -1   -1    0    0    0  501  0.00000000000E+00  0.00000000000E+00  0.11687076265E+04  0.11687076265E+04  0.50400001928E-02 0.  1.
        1   -1    0    0  501    0  0.00000000000E+00  0.00000000000E+00 -0.84590301546E+03  0.84590301547E+03  0.50400001928E-02 0. -1.
    10030    2    1    2    0    0  0.00000000000E+00  0.00000000000E+00  0.32280461103E+03  0.20146106420E+04  0.19885807054E+04 0.  0.
        5    1    3    3  502    0 -0.19541107464E+02  0.75721306475E+03  0.81391209204E+03  0.11118581132E+04  0.46999998093E+01 0.  1.
       -5    1    3    3    0  502  0.19541107464E+02 -0.75721306475E+03 -0.49110748101E+03  0.90275252877E+03  0.46999998093E+01 0. -1.
</event>
<event>
 5   0  0.1244229E-04  0.1978892E+04  0.7818609E-02  0.8616554E-01
        2   -1    0    0  501    0  0.00000000000E+00  0.00000000000E+00  0.10975138169E+04  0.10975138169E+04  0.25500000920E-02 0. -1.
       -2   -1    0    0    0  501  0.00000000000E+00  0.00000000000E+00 -0.89201875471E+03  0.89201875472E+03  0.25500000920E-02 0.  1.
    10030    2    1    2    0    0  0.00000000000E+00  0.00000000000E+00  0.20549506219E+03  0.19895325716E+04  0.19788915162E+04 0.  0.
        5    1    3    3  502    0 -0.13230205567E+03  0.50457028292E+03 -0.74253851557E+03  0.90745828633E+03  0.46999998093E+01 0.  1.
       -5    1    3    3    0  502  0.13230205567E+03 -0.50457028292E+03  0.94803357775E+03  0.10820742853E+04  0.46999998093E+01 0. -1.
</event>
<event>
 5   0  0.1242761E-04  0.2004649E+04  0.7818609E-02  0.8604450E-01
        2   -1    0    0  501    0  0.00000000000E+00  0.00000000000E+00  0.12370960402E+04  0.12370960402E+04  0.25500000920E-02 0.  1.
       -2   -1    0    0    0  501  0.00000000000E+00  0.00000000000E+00 -0.81210727827E+03  0.81210727827E+03  0.25500000920E-02 0. -1.
    10030    2    1    2    0    0  0.00000000000E+00  0.00000000000E+00  0.42498876188E+03  0.20492033184E+04  0.20046492942E+04 0.  0.
        4    1    3    3  502    0  0.69487237516E+03 -0.57601937351E+03  0.65808046146E+03  0.11170127318E+04  0.12699999809E+01 0.  1.
       -4    1    3    3    0  502 -0.69487237516E+03  0.57601937351E+03 -0.23309169958E+03  0.93219058660E+03  0.12699999809E+01 0. -1.
</event>
<event>
 5   0  0.1281789E-04  0.1992409E+04  0.7818609E-02  0.8610178E-01
        2   -1    0    0  501    0  0.00000000000E+00  0.00000000000E+00  0.15565972915E+04  0.15565972915E+04  0.25500000920E-02 0.  1.
       -2   -1    0    0    0  501  0.00000000000E+00  0.00000000000E+00 -0.63755954639E+03  0.63755954640E+03  0.25500000920E-02 0. -1.
    10030    2    1    2    0    0  0.00000000000E+00  0.00000000000E+00  0.91903774510E+03  0.21941568379E+04  0.19924090575E+04 0.  0.
        2    1    3    3  502    0  0.36969950625E+03 -0.22803228703E+02  0.14779450288E+04  0.15236532481E+04  0.25500000920E-02 0.  1.
       -2    1    3    3    0  502 -0.36969950625E+03  0.22803228703E+02 -0.55890728371E+03  0.67050358982E+03  0.25500000920E-02 0. -1.
</event>
<event>
 5   0  0.6222733E-05  0.2000724E+04  0.7818609E-02  0.8606282E-01
       -1   -1    0    0    0  501  0.00000000000E+00  0.00000000000E+00  0.93076827155E+03  0.93076827156E+03  0.50400001928E-02 0.  1.
        1   -1    0    0  501    0  0.00000000000E+00  0.00000000000E+00 -0.10751587346E+04  0.10751587346E+04  0.50400001928E-02 0. -1.
    10030    2    1    2    0    0  0.00000000000E+00  0.00000000000E+00 -0.14439046306E+03  0.20059270062E+04  0.20007235062E+04 0.  0.
        2    1    3    3  502    0  0.48479090477E+03 -0.83062751276E+03  0.20376479174E+03  0.98309937273E+03  0.25500000920E-02 0. -1.
       -2    1    3    3    0  502 -0.48479090477E+03  0.83062751276E+03 -0.34815525481E+03  0.10228276335E+04  0.25500000920E-02 0.  1.
</event>
<event>
 5   0  0.1242761E-04  0.2004258E+04  0.7818609E-02  0.8604632E-01
       -2   -1    0    0    0  501  0.00000000000E+00  0.00000000000E+00  0.49731805571E+03  0.49731805572E+03  0.25500000920E-02 0. -1.
        2   -1    0    0  501    0  0.00000000000E+00  0.00000000000E+00 -0.20193574752E+04  0.20193574752E+04  0.25500000920E-02 0.  1.
    10030    2    1    2    0    0  0.00000000000E+00  0.00000000000E+00 -0.15220394195E+04  0.25166755309E+04  0.20042583999E+04 0.  0.
        4    1    3    3  502    0  0.42597270561E+03  0.26121163588E+03 -0.18517699366E+04  0.19180035911E+04  0.12699999809E+01 0.  1.
       -4    1    3    3    0  502 -0.42597270561E+03 -0.26121163588E+03  0.32973051712E+03  0.59867193977E+03  0.12699999809E+01 0. -1.
</event>
<event>
 5   0  0.1244229E-04  0.1981494E+04  0.7818609E-02  0.8615322E-01
       -2   -1    0    0    0  501  0.00000000000E+00  0.00000000000E+00  0.86800193985E+03  0.86800193985E+03  0.25500000920E-02 0. -1.
        2   -1    0    0  501    0  0.00000000000E+00  0.00000000000E+00 -0.11308494668E+04  0.11308494668E+04  0.25500000920E-02 0.  1.
    10030    2    1    2    0    0  0.00000000000E+00  0.00000000000E+00 -0.26284752696E+03  0.19988514067E+04  0.19814939120E+04 0.  0.
        5    1    3    3  502    0 -0.25738959992E+03  0.83776554005E+03  0.33463738603E+03  0.93813899630E+03  0.46999998093E+01 0. -1.
       -5    1    3    3    0  502  0.25738959992E+03 -0.83776554005E+03 -0.59748491299E+03  0.10607124104E+04  0.46999998093E+01 0.  1.
</event>
<event>
 5   0  0.1242761E-04  0.2054624E+04  0.7818609E-02  0.8581500E-01
       -2   -1    0    0    0  501  0.00000000000E+00  0.00000000000E+00  0.87875648348E+03  0.87875648348E+03  0.25500000920E-02 0. -1.
        2   -1    0    0  501    0  0.00000000000E+00  0.00000000000E+00 -0.12009811807E+04  0.12009811807E+04  0.25500000920E-02 0.  1.
    10030    2    1    2    0    0  0.00000000000E+00  0.00000000000E+00 -0.32222469722E+03  0.20797376642E+04  0.20546240523E+04 0.  0.
        4    1    3    3  502    0 -0.46891727483E+03 -0.12275481911E+03 -0.10779518383E+04  0.11819195975E+04  0.12699999809E+01 0.  1.
       -4    1    3    3    0  502  0.46891727483E+03  0.12275481911E+03  0.75572714109E+03  0.89781806672E+03  0.12699999809E+01 0. -1.
</event>
<event>
 5   0  0.1281789E-04  0.2003766E+04  0.7818609E-02  0.8604862E-01
       -2   -1    0    0    0  501  0.00000000000E+00  0.00000000000E+00  0.12952052791E+04  0.12952052792E+04  0.25500000920E-02 0. -1.
        2   -1    0    0  501    0  0.00000000000E+00  0.00000000000E+00 -0.77498866115E+03  0.77498866115E+03  0.25500000920E-02 0.  1.
    10030    2    1    2    0    0  0.00000000000E+00  0.00000000000E+00  0.52021661800E+03  0.20701939403E+04  0.20037658598E+04 0.  0.
        2    1    3    3  502    0  0.67962118403E+01  0.34272104731E+03  0.12327345493E+04  0.12795070824E+04  0.25500000920E-02 0. -1.
       -2    1    3    3    0  502 -0.67962118403E+01 -0.34272104731E+03 -0.71251793134E+03  0.79068685790E+03  0.25500000920E-02 0.  1.
</event>
<event>
 5   0  0.1244229E-04  0.2040759E+04  0.7818609E-02  0.8587798E-01
        2   -1    0    0  501    0  0.00000000000E+00  0.00000000000E+00  0.19600594146E+04  0.19600594146E+04  0.25500000920E-02 0. -1.
       -2   -1    0    0    0  501  0.00000000000E+00  0.00000000000E+00 -0.53119537859E+03  0.53119537859E+03  0.25500000920E-02 0.  1.
    10030    2    1    2    0    0  0.00000000000E+00  0.00000000000E+00  0.14288640360E+04  0.24912547932E+04  0.20407591752E+04 0.  0.
        5    1    3    3  502    0 -0.81833914688E+03 -0.47839611748E+03  0.11754334832E+04  0.15100356843E+04  0.46999998093E+01 0.  1.
       -5    1    3    3    0  502  0.81833914688E+03  0.47839611748E+03  0.25343055285E+03  0.98121910889E+03  0.46999998093E+01 0. -1.
</event>
<event>
 5   0  0.6256535E-05  0.2079995E+04  0.7818609E-02  0.8570107E-01
       -1   -1    0    0    0  501  0.00000000000E+00  0.00000000000E+00  0.87879753432E+03  0.87879753434E+03  0.50400001928E-02 0. -1.
        1   -1    0    0  501    0  0.00000000000E+00  0.00000000000E+00 -0.12307672884E+04  0.12307672884E+04  0.50400001928E-02 0.  1.
    10030    2    1    2    0    0  0.00000000000E+00  0.00000000000E+00 -0.35196975411E+03  0.21095648228E+04  0.20799954408E+04 0.  0.
        1    1    3    3  502    0  0.65082651466E+03  0.70849909464E+03 -0.57663121775E+03  0.11216281383E+04  0.50400001928E-02 0.  1.
       -1    1    3    3    0  502 -0.65082651466E+03 -0.70849909464E+03  0.22466146364E+03  0.98793668449E+03  0.50400001928E-02 0. -1.
</event>
<event>
 5   0  0.1159914E-04  0.1988346E+04  0.7818609E-02  0.8612089E-01
        2   -1    0    0  501    0  0.00000000000E+00  0.00000000000E+00  0.20187691870E+04  0.20187691870E+04  0.25500000920E-02 0.  1.
       -2   -1    0    0    0  501  0.00000000000E+00  0.00000000000E+00 -0.48959511681E+03  0.48959511682E+03  0.25500000920E-02 0. -1.
    10030    2    1    2    0    0  0.00000000000E+00  0.00000000000E+00  0.15291740701E+04  0.25083643038E+04  0.19883455795E+04 0.  0.
        3    1    3    3  502    0  0.41584011033E+03  0.50958553689E+03  0.17050676595E+04  0.18275273323E+04  0.10100000352E+00 0.  1.
       -3    1    3    3    0  502 -0.41584011033E+03 -0.50958553689E+03 -0.17589358932E+03  0.68083697148E+03  0.10100000352E+00 0. -1.
</event>
<event>
 5   0  0.6256535E-05  0.1982978E+04  0.7818609E-02  0.8614620E-01
        1   -1    0    0  501    0  0.00000000000E+00  0.00000000000E+00  0.20090218788E+04  0.20090218788E+04  0.50400001928E-02 0. -1.
       -1   -1    0    0    0  501  0.00000000000E+00  0.00000000000E+00 -0.48931817610E+03  0.48931817613E+03  0.50400001928E-02 0.  1.
    10030    2    1    2    0    0  0.00000000000E+00  0.00000000000E+00  0.15197037026E+04  0.24983400549E+04  0.19829784885E+04 0.  0.
        1    1    3    3  502    0 -0.30484816619E+03  0.93330438945E+03  0.58590709983E+03  0.11433619801E+04  0.50400001928E-02 0.  1.
       -1    1    3    3    0  502  0.30484816619E+03 -0.93330438945E+03  0.93379660282E+03  0.13549780748E+04  0.50400001928E-02 0. -1.
</event>
<event>
 5   0  0.1281789E-04  0.1974285E+04  0.7818609E-02  0.8618739E-01
        2   -1    0    0  501    0  0.00000000000E+00  0.00000000000E+00  0.21907417461E+04  0.21907417461E+04  0.25500000920E-02 0.  1.
       -2   -1    0    0    0  501  0.00000000000E+00  0.00000000000E+00 -0.44480371354E+03  0.44480371355E+03  0.25500000920E-02 0. -1.
    10030    2    1    2    0    0  0.00000000000E+00  0.00000000000E+00  0.17459380325E+04  0.26355454596E+04  0.19742847455E+04 0.  0.
        2    1    3    3  502    0  0.53735708912E+03 -0.78248229631E+03  0.12346824144E+04  0.15573926447E+04  0.25500000920E-02 0.  1.
       -2    1    3    3    0  502 -0.53735708912E+03  0.78248229631E+03  0.51125561809E+03  0.10781528149E+04  0.25500000920E-02 0. -1.
</event>
<event>
 5   0  0.1244229E-04  0.2035560E+04  0.7818609E-02  0.8590173E-01
       -2   -1    0    0    0  501  0.00000000000E+00  0.00000000000E+00  0.73582170283E+03  0.73582170284E+03  0.25500000920E-02 0. -1.
        2   -1    0    0  501    0  0.00000000000E+00  0.00000000000E+00 -0.14077813047E+04  0.14077813047E+04  0.25500000920E-02 0.  1.
    10030    2    1    2    0    0  0.00000000000E+00  0.00000000000E+00 -0.67195960188E+03  0.21436030076E+04  0.20355599101E+04 0.  0.
        5    1    3    3  502    0 -0.25958356835E+02  0.32058149796E+03  0.68088537457E+03  0.75304270558E+03  0.46999998093E+01 0. -1.
       -5    1    3    3    0  502  0.25958356835E+02 -0.32058149796E+03 -0.13528449764E+04  0.13905603020E+04  0.46999998093E+01 0.  1.
</event>
<event>
 5   0  0.6214547E-05  0.1958283E+04  0.7818609E-02  0.8626377E-01
       -1   -1    0    0    0  501  0.00000000000E+00  0.00000000000E+00  0.47890064427E+03  0.47890064429E+03  0.50400001928E-02 0.  1.
        1   -1    0    0  501    0  0.00000000000E+00  0.00000000000E+00 -0.20019144376E+04  0.20019144376E+04  0.50400001928E-02 0. -1.
    10030    2    1    2    0    0  0.00000000000E+00  0.00000000000E+00 -0.15230137933E+04  0.24808150819E+04  0.19582830377E+04 0.  0.
        3    1    3    3  502    0  0.12523904505E+03  0.84167329604E+03 -0.13751287855E+04  0.16171202623E+04  0.10100000352E+00 0. -1.
       -3    1    3    3    0  502 -0.12523904505E+03 -0.84167329604E+03 -0.14788500776E+03  0.86369481959E+03  0.10100000352E+00 0.  1.
</event>
<event>
 5   0  0.6028501E-05  0.1943177E+04  0.7818609E-02  0.8633658E-01
       -1   -1    0    0    0  501  0.00000000000E+00  0.00000000000E+00  0.60523505107E+03  0.60523505109E+03  0.50400001928E-02 0. -1.
        1   -1    0    0  501    0  0.00000000000E+00  0.00000000000E+00 -0.15596982963E+04  0.15596982963E+04  0.50400001928E-02 0.  1.
    10030    2    1    2    0    0  0.00000000000E+00  0.00000000000E+00 -0.95446324521E+03  0.21649333474E+04  0.19431768607E+04 0.  0.
        4    1    3    3  502    0  0.80170508473E+03  0.15398207391E+03 -0.10641743553E+04  0.13412345781E+04  0.12699999809E+01 0.  1.
       -4    1    3    3    0  502 -0.80170508473E+03 -0.15398207391E+03  0.10971111012E+03  0.82369876931E+03  0.12699999809E+01 0. -1.
</event>
<event>
 5   0  0.6168338E-05  0.2158207E+04  0.7818609E-02  0.8536027E-01
        1   -1    0    0  501    0  0.00000000000E+00  0.00000000000E+00  0.19227986964E+04  0.19227986964E+04  0.50400001928E-02 0.  1.
       -1   -1    0    0    0  501  0.00000000000E+00  0.00000000000E+00 -0.60560897869E+03  0.60560897871E+03  0.50400001928E-02 0. -1.
    10030    2    1    2    0    0  0.00000000000E+00  0.00000000000E+00  0.13171897177E+04  0.25284076751E+04  0.21582068064E+04 0.  0.
        5    1    3    3  502    0 -0.10140103908E+04 -0.50546602405E+02  0.10869175377E+04  0.14873412034E+04  0.46999998093E+01 0.  1.
       -5    1    3    3    0  502  0.10140103908E+04  0.50546602405E+02  0.23027217999E+03  0.10410664717E+04  0.46999998093E+01 0. -1.
</event>
<event>
 5   0  0.4479000E-05  0.2028943E+04  0.7818609E-02  0.8593207E-01
       -3   -1    0    0    0  501  0.00000000000E+00  0.00000000000E+00  0.59586798367E+03  0.59586799223E+03  0.10100000352E+00 0.  1.
        3   -1    0    0  501    0  0.00000000000E+00  0.00000000000E+00 -0.17271491463E+04  0.17271491493E+04  0.10100000352E+00 0. -1.
    10030    2    1    2    0    0  0.00000000000E+00  0.00000000000E+00 -0.11312811627E+04  0.23230171415E+04  0.20289434617E+04 0.  0.
        3    1    3    3  502    0  0.53601691420E+03  0.66172597444E+03  0.65591249067E+02  0.85410632811E+03  0.10100000352E+00 0.  1.
       -3    1    3    3    0  502 -0.53601691420E+03 -0.66172597444E+03 -0.11968724117E+04  0.14689108134E+04  0.10100000352E+00 0. -1.
</event>
<event>
 5   0  0.6214547E-05  0.2002628E+04  0.7818609E-02  0.8605393E-01
       -1   -1    0    0    0  501  0.00000000000E+00  0.00000000000E+00  0.71613613061E+03  0.71613613063E+03  0.50400001928E-02 0.  1.
        1   -1    0    0  501    0  0.00000000000E+00  0.00000000000E+00 -0.14000550922E+04  0.14000550922E+04  0.50400001928E-02 0. -1.
    10030    2    1    2    0    0  0.00000000000E+00  0.00000000000E+00 -0.68391896162E+03  0.21161912229E+04  0.20026283094E+04 0.  0.
        3    1    3    3  502    0  0.93003878077E+02 -0.30091638587E+03  0.66242900086E+03  0.73349341101E+03  0.10100000352E+00 0.  1.
       -3    1    3    3    0  502 -0.93003878077E+02  0.30091638587E+03 -0.13463479625E+04  0.13826978118E+04  0.10100000352E+00 0. -1.
</event>
<event>
 5   0  0.1244229E-04  0.1963991E+04  0.7818609E-02  0.8623644E-01
        2   -1    0    0  501    0  0.00000000000E+00  0.00000000000E+00  0.15464207306E+04  0.15464207306E+04  0.25500000920E-02 0.  1.
       -2   -1    0    0    0  501  0.00000000000E+00  0.00000000000E+00 -0.62357864606E+03  0.62357864607E+03  0.25500000920E-02 0. -1.
    10030    2    1    2    0    0  0.00000000000E+00  0.00000000000E+00  0.92284208449E+03  0.21699993766E+04  0.19639907794E+04 0.  0.
        5    1    3    3  502    0  0.53096304297E+03 -0.51475901295E+03  0.11752487498E+04  0.13885713191E+04  0.46999998093E+01 0.  1.
       -5    1    3    3    0  502 -0.53096304297E+03  0.51475901295E+03 -0.25240666527E+03  0.78142805752E+03  0.46999998093E+01 0. -1.
</event>
<event>
 5   0  0.4479000E-05  0.2003793E+04  0.7818609E-02  0.8604849E-01
        3   -1    0    0  501    0  0.00000000000E+00  0.00000000000E+00  0.14691630248E+04  0.14691630283E+04  0.10100000352E+00 0.  1.
       -3   -1    0    0    0  501  0.00000000000E+00  0.00000000000E+00 -0.68324413961E+03  0.68324414708E+03  0.10100000352E+00 0. -1.
    10030    2    1    2    0    0  0.00000000000E+00  0.00000000000E+00  0.78591888521E+03  0.21524071754E+04  0.20037934411E+04 0.  0.
        3    1    3    3  502    0 -0.47594002720E+03 -0.12020416940E+03  0.13311371296E+04  0.14187649628E+04  0.10100000352E+00 0.  1.
       -3    1    3    3    0  502  0.47594002720E+03  0.12020416940E+03 -0.54521824436E+03  0.73364221254E+03  0.10100000352E+00 0. -1.
</event>
<event>
 5   0  0.1244229E-04  0.1997648E+04  0.7818609E-02  0.8607721E-01
        2   -1    0    0  501    0  0.00000000000E+00  0.00000000000E+00  0.13738335965E+04  0.13738335965E+04  0.25500000920E-02 0.  1.
       -2   -1    0    0    0  501  0.00000000000E+00  0.00000000000E+00 -0.72617886105E+03  0.72617886105E+03  0.25500000920E-02 0. -1.
    10030    2    1    2    0    0  0.00000000000E+00  0.00000000000E+00  0.64765473543E+03  0.21000124575E+04  0.19976475328E+04 0.  0.
        5    1    3    3  502    0 -0.10793997758E+03 -0.97425818928E+03  0.52548183454E+03  0.11121975124E+04  0.46999998093E+01 0. -1.
       -5    1    3    3    0  502  0.10793997758E+03  0.97425818928E+03  0.12217290089E+03  0.98781494514E+03  0.46999998093E+01 0.  1.
</event>
<event>
 5   0  0.6256535E-05  0.2011869E+04  0.7818609E-02  0.8601091E-01
       -1   -1    0    0    0  501  0.00000000000E+00  0.00000000000E+00  0.10998393073E+04  0.10998393073E+04  0.50400001928E-02 0. -1.
        1   -1    0    0  501    0  0.00000000000E+00  0.00000000000E+00 -0.92004749704E+03  0.92004749705E+03  0.50400001928E-02 0.  1.
    10030    2    1    2    0    0  0.00000000000E+00  0.00000000000E+00  0.17979181028E+03  0.20198868044E+04  0.20118691825E+04 0.  0.
        1    1    3    3  502    0 -0.45380511737E+03  0.70693700416E+03  0.64545940986E+03  0.10593945734E+04  0.50400001928E-02 0. -1.
       -1    1    3    3    0  502  0.45380511737E+03 -0.70693700416E+03 -0.46566759958E+03  0.96049223095E+03  0.50400001928E-02 0.  1.
</event>
<event>
 5   0  0.6168338E-05  0.2004850E+04  0.7818609E-02  0.8604357E-01
        1   -1    0    0  501    0  0.00000000000E+00  0.00000000000E+00  0.11856012316E+04  0.11856012316E+04  0.50400001928E-02 0.  1.
       -1   -1    0    0    0  501  0.00000000000E+00  0.00000000000E+00 -0.84754953930E+03  0.84754953931E+03  0.50400001928E-02 0. -1.
    10030    2    1    2    0    0  0.00000000000E+00  0.00000000000E+00  0.33805169226E+03  0.20331507709E+04  0.20048498972E+04 0.  0.
        5    1    3    3  502    0 -0.17194704460E+03 -0.23760257487E+03 -0.80305250030E+03  0.85494805572E+03  0.46999998093E+01 0. -1.
       -5    1    3    3    0  502  0.17194704460E+03  0.23760257487E+03  0.11411041926E+04  0.11782027152E+04  0.46999998093E+01 0.  1.
</event>
<event>
 5   0  0.1159914E-04  0.2013290E+04  0.7818609E-02  0.8600432E-01
       -2   -1    0    0    0  501  0.00000000000E+00  0.00000000000E+00  0.72430983098E+03  0.72430983099E+03  0.25500000920E-02 0.  1.
        2   -1    0    0  501    0  0.00000000000E+00  0.00000000000E+00 -0.13990344659E+04  0.13990344659E+04  0.25500000920E-02 0. -1.
    10030    2    1    2    0    0  0.00000000000E+00  0.00000000000E+00 -0.67472463487E+03  0.21233442968E+04  0.20132902598E+04 0.  0.
        3    1    3    3  502    0  0.32755653932E+03  0.22073956336E+02 -0.13409866243E+04  0.13805888898E+04  0.10100000352E+00 0. -1.
       -3    1    3    3    0  502 -0.32755653932E+03 -0.22073956336E+02  0.66626198939E+03  0.74275540705E+03  0.10100000352E+00 0.  1.
</event>
<event>
 5   0  0.1244229E-04  0.1942997E+04  0.7818609E-02  0.8633745E-01
       -2   -1    0    0    0  501  0.00000000000E+00  0.00000000000E+00  0.85274015756E+03  0.85274015756E+03  0.25500000920E-02 0.  1.
        2   -1    0    0  501    0  0.00000000000E+00  0.00000000000E+00 -0.11067958221E+04  0.11067958221E+04  0.25500000920E-02 0. -1.
    10030    2    1    2    0    0  0.00000000000E+00  0.00000000000E+00 -0.25405566453E+03  0.19595359797E+04  0.19429969055E+04 0.  0.
        5    1    3    3  502    0 -0.76923744843E+03  0.54968777960E+03 -0.35232196671E+03  0.10089775842E+04  0.46999998093E+01 0. -1.
       -5    1    3    3    0  502  0.76923744843E+03 -0.54968777960E+03  0.98266302185E+02  0.95055839550E+03  0.46999998093E+01 0.  1.
</event>
<event>
 5   0  0.4479000E-05  0.2035182E+04  0.7818609E-02  0.8590346E-01
       -3   -1    0    0    0  501  0.00000000000E+00  0.00000000000E+00  0.12448763696E+04  0.12448763737E+04  0.10100000352E+00 0. -1.
        3   -1    0    0  501    0  0.00000000000E+00  0.00000000000E+00 -0.83180295267E+03  0.83180295880E+03  0.10100000352E+00 0.  1.
    10030    2    1    2    0    0  0.00000000000E+00  0.00000000000E+00  0.41307341692E+03  0.20766793325E+04  0.20351824002E+04 0.  0.
        5    1    3    3  502    0 -0.30509373627E+03  0.91387676448E+03  0.54065295028E+03  0.11047989099E+04  0.46999998093E+01 0. -1.
       -5    1    3    3    0  502  0.30509373627E+03 -0.91387676448E+03 -0.12757953336E+03  0.97188042263E+03  0.46999998093E+01 0.  1.
</event>
<event>
 5   0  0.1242761E-04  0.1969748E+04  0.7818609E-02  0.8620897E-01
       -2   -1    0    0    0  501  0.00000000000E+00  0.00000000000E+00  0.91908782703E+03  0.91908782703E+03  0.25500000920E-02 0. -1.
        2   -1    0    0  501    0  0.00000000000E+00  0.00000000000E+00 -0.10553688907E+04  0.10553688907E+04  0.25500000920E-02 0.  1.
    10030    2    1    2    0    0  0.00000000000E+00  0.00000000000E+00 -0.13628106365E+03  0.19744567177E+04  0.19697479031E+04 0.  0.
        4    1    3    3  502    0 -0.84986831459E+03 -0.42823935724E+03 -0.32234090659E+03  0.10047737916E+04  0.12699999809E+01 0.  1.
       -4    1    3    3    0  502  0.84986831459E+03  0.42823935724E+03  0.18605984293E+03  0.96968292616E+03  0.12699999809E+01 0. -1.
</event>
<event>
 5   0  0.6214547E-05  0.1929790E+04  0.7818609E-02  0.8640168E-01
        1   -1    0    0  501    0  0.00000000000E+00  0.00000000000E+00  0.80834648744E+03  0.80834648746E+03  0.50400001928E-02 0. -1.
       -1   -1    0    0    0  501  0.00000000000E+00  0.00000000000E+00 -0.11517619926E+04  0.11517619926E+04  0.50400001928E-02 0.  1.
    10030    2    1    2    0    0  0.00000000000E+00  0.00000000000E+00 -0.34341550514E+03  0.19601084801E+04  0.19297904146E+04 0.  0.
        3    1    3    3  502    0  0.65054912444E+03  0.67160684897E+03 -0.41367897382E+03  0.10224481534E+04  0.10100000352E+00 0.  1.
       -3    1    3    3    0  502 -0.65054912444E+03 -0.67160684897E+03  0.70263468673E+02  0.93766032662E+03  0.10100000352E+00 0. -1.
</event>
<event>
 5   0  0.6028501E-05  0.1993945E+04  0.7818609E-02  0.8609457E-01
       -1   -1    0    0    0  501  0.00000000000E+00  0.00000000000E+00  0.76574470643E+03  0.76574470644E+03  0.50400001928E-02 0.  1.
        1   -1    0    0  501    0  0.00000000000E+00  0.00000000000E+00 -0.12980229571E+04  0.12980229571E+04  0.50400001928E-02 0. -1.
    10030    2    1    2    0    0  0.00000000000E+00  0.00000000000E+00 -0.53227825066E+03  0.20637676635E+04  0.19939450426E+04 0.  0.
        4    1    3    3  502    0 -0.62030571657E+03  0.29984724039E+03 -0.10119731020E+04  0.12242461850E+04  0.12699999809E+01 0. -1.
       -4    1    3    3    0  502  0.62030571657E+03 -0.29984724039E+03  0.47969485131E+03  0.83952147849E+03  0.12699999809E+01 0.  1.
</event>
<event>
 5   0  0.6028501E-05  0.1987451E+04  0.7818609E-02  0.8612510E-01
       -1   -1    0    0    0  501  0.00000000000E+00  0.00000000000E+00  0.51871030946E+03  0.51871030948E+03  0.50400001928E-02 0.  1.
        1   -1    0    0  501    0  0.00000000000E+00  0.00000000000E+00 -0.19037422137E+04  0.19037422137E+04  0.50400001928E-02 0. -1.
    10030    2    1    2    0    0  0.00000000000E+00  0.00000000000E+00 -0.13850319043E+04  0.24224525232E+04  0.19874513457E+04 0.  0.
        4    1    3    3  502    0  0.30832712279E+03 -0.40176959898E+03  0.34960672320E+03  0.61539491314E+03  0.12699999809E+01 0.  1.
       -4    1    3    3    0  502 -0.30832712279E+03  0.40176959898E+03 -0.17346386275E+04  0.18070576101E+04  0.12699999809E+01 0. -1.
</event>
<event>
 5   0  0.6028501E-05  0.2023374E+04  0.7818609E-02  0.8595770E-01
        1   -1    0    0  501    0  0.00000000000E+00  0.00000000000E+00  0.75030893796E+03  0.75030893798E+03  0.50400001928E-02 0.  1.
       -1   -1    0    0    0  501  0.00000000000E+00  0.00000000000E+00 -0.13641195503E+04  0.13641195503E+04  0.50400001928E-02 0. -1.
    10030    2    1    2    0    0  0.00000000000E+00  0.00000000000E+00 -0.61381061232E+03  0.21144284883E+04  0.20233744992E+04 0.  0.
        4    1    3    3  502    0  0.19998982706E+03 -0.42409657863E+03 -0.12437157582E+04  0.13291667837E+04  0.12699999809E+01 0. -1.
       -4    1    3    3    0  502 -0.19998982706E+03  0.42409657863E+03  0.62990514586E+03  0.78526170454E+03  0.12699999809E+01 0.  1.
</event>
<event>
 5   0  0.6256535E-05  0.1983791E+04  0.7818609E-02  0.8614237E-01
        1   -1    0    0  501    0  0.00000000000E+00  0.00000000000E+00  0.82820722891E+03  0.82820722892E+03  0.50400001928E-02 0. -1.
       -1   -1    0    0    0  501  0.00000000000E+00  0.00000000000E+00 -0.11879352319E+04  0.11879352319E+04  0.50400001928E-02 0.  1.
    10030    2    1    2    0    0  0.00000000000E+00  0.00000000000E+00 -0.35972800297E+03  0.20161424608E+04  0.19837908625E+04 0.  0.
        1    1    3    3  502    0  0.16993963212E+03  0.11173413815E+03 -0.11665166674E+04  0.11841136481E+04  0.50400001928E-02 0.  1.
       -1    1    3    3    0  502 -0.16993963212E+03 -0.11173413815E+03  0.80678866442E+03  0.83202881275E+03  0.50400001928E-02 0. -1.
</event>
<event>
 5   0  0.6168338E-05  0.1987462E+04  0.7818609E-02  0.8612505E-01
        1   -1    0    0  501    0  0.00000000000E+00  0.00000000000E+00  0.11722790659E+04  0.11722790660E+04  0.50400001928E-02 0.  1.
       -1   -1    0    0    0  501  0.00000000000E+00  0.00000000000E+00 -0.84237700966E+03  0.84237700968E+03  0.50400001928E-02 0. -1.
    10030    2    1    2    0    0  0.00000000000E+00  0.00000000000E+00  0.32990205628E+03  0.20146560756E+04  0.19874616314E+04 0.  0.
        5    1    3    3  502    0  0.78128956426E+03 -0.51450483460E+03  0.50472425852E+03  0.10629662625E+04  0.46999998093E+01 0.  1.
       -5    1    3    3    0  502 -0.78128956426E+03  0.51450483460E+03 -0.17482220224E+03  0.95168981315E+03  0.46999998093E+01 0. -1.
</event>
<event>
 5   0  0.1242761E-04  0.1998511E+04  0.7818609E-02  0.8607317E-01
        2   -1    0    0  501    0  0.00000000000E+00  0.00000000000E+00  0.18034882268E+04  0.18034882268E+04  0.25500000920E-02 0.  1.
       -2   -1    0    0    0  501  0.00000000000E+00  0.00000000000E+00 -0.55365573046E+03  0.55365573046E+03  0.25500000920E-02 0. -1.
    10030    2    1    2    0    0  0.00000000000E+00  0.00000000000E+00  0.12498324963E+04  0.23571439572E+04  0.19985110373E+04 0.  0.
        4    1    3    3  502    0  0.52167506586E+03 -0.16678700289E+03 -0.36085792098E+03  0.65588324473E+03  0.12699999809E+01 0. -1.
       -4    1    3    3    0  502 -0.52167506586E+03  0.16678700289E+03  0.16106904173E+04  0.17012607125E+04  0.12699999809E+01 0.  1.
</event>
<event>
 5   0  0.6168338E-05  0.1997495E+04  0.7818609E-02  0.8607793E-01
       -1   -1    0    0    0  501  0.00000000000E+00  0.00000000000E+00  0.93428284798E+03  0.93428284799E+03  0.50400001928E-02 0.  1.
        1   -1    0    0  501    0  0.00000000000E+00  0.00000000000E+00 -0.10676604271E+04  0.10676604271E+04  0.50400001928E-02 0. -1.
    10030    2    1    2    0    0  0.00000000000E+00  0.00000000000E+00 -0.13337757909E+03  0.20019432751E+04  0.19974952561E+04 0.  0.
        5    1    3    3  502    0 -0.34162947080E+03  0.14962849929E+03  0.86185979037E+03  0.93910796577E+03  0.46999998093E+01 0.  1.
       -5    1    3    3    0  502  0.34162947080E+03 -0.14962849929E+03 -0.99523736946E+03  0.10628353093E+04  0.46999998093E+01 0. -1.
</event>
<event>
 5   0  0.1242761E-04  0.2029417E+04  0.7818609E-02  0.8592989E-01
       -2   -1    0    0    0  501  0.00000000000E+00  0.00000000000E+00  0.10415409355E+04  0.10415409355E+04  0.25500000920E-02 0.  1.
        2   -1    0    0  501    0  0.00000000000E+00  0.00000000000E+00 -0.98856767503E+03  0.98856767504E+03  0.25500000920E-02 0. -1.
    10030    2    1    2    0    0  0.00000000000E+00  0.00000000000E+00  0.52973260513E+02  0.20301086106E+04  0.20294173559E+04 0.  0.
        4    1    3    3  502    0 -0.75355647855E+03  0.52487916793E+03  0.45824293581E+03  0.10263204706E+04  0.12699999809E+01 0. -1.
       -4    1    3    3    0  502  0.75355647855E+03 -0.52487916793E+03 -0.40526967530E+03  0.10037881400E+04  0.12699999809E+01 0.  1.
</event>
<event>
 5   0  0.6256535E-05  0.1989510E+04  0.7818609E-02  0.8611541E-01
        1   -1    0    0  501    0  0.00000000000E+00  0.00000000000E+00  0.51272461832E+03  0.51272461834E+03  0.50400001928E-02 0. -1.
       -1   -1    0    0    0  501  0.00000000000E+00  0.00000000000E+00 -0.19299595117E+04  0.19299595117E+04  0.50400001928E-02 0.  1.
    10030    2    1    2    0    0  0.00000000000E+00  0.00000000000E+00 -0.14172348934E+04  0.24426841300E+04  0.19895102453E+04 0.  0.
        1    1    3    3  502    0  0.46512284096E+03 -0.86773006816E+03 -0.53393114779E+03  0.11199898209E+04  0.50400001928E-02 0. -1.
       -1    1    3    3    0  502 -0.46512284096E+03  0.86773006816E+03 -0.88330374558E+03  0.13226943091E+04  0.50400001928E-02 0.  1.
</event>
<event>
 5   0  0.1274868E-04  0.2015260E+04  0.7818609E-02  0.8599519E-01
        2   -1    0    0  501    0  0.00000000000E+00  0.00000000000E+00  0.86747728597E+03  0.86747728597E+03  0.25500000920E-02 0.  1.
       -2   -1    0    0    0  501  0.00000000000E+00  0.00000000000E+00 -0.11704263576E+04  0.11704263576E+04  0.25500000920E-02 0. -1.
    10030    2    1    2    0    0  0.00000000000E+00  0.00000000000E+00 -0.30294907162E+03  0.20379036436E+04  0.20152600627E+04 0.  0.
        1    1    3    3  502    0  0.19000593730E+03  0.98565346648E+03 -0.62720103962E+02  0.10057578355E+04  0.50400001928E-02 0.  1.
       -1    1    3    3    0  502 -0.19000593730E+03 -0.98565346648E+03 -0.24022896766E+03  0.10321458081E+04  0.50400001928E-02 0. -1.
</event>
<event>
 5   0  0.6214547E-05  0.1983836E+04  0.7818609E-02  0.8614215E-01
       -1   -1    0    0    0  501  0.00000000000E+00  0.00000000000E+00  0.94849946599E+03  0.94849946601E+03  0.50400001928E-02 0.  1.
        1   -1    0    0  501    0  0.00000000000E+00  0.00000000000E+00 -0.10373243025E+04  0.10373243025E+04  0.50400001928E-02 0. -1.
    10030    2    1    2    0    0  0.00000000000E+00  0.00000000000E+00 -0.88824836490E+02  0.19858237685E+04  0.19838362301E+04 0.  0.
        3    1    3    3  502    0 -0.12698361981E+03 -0.97275504322E+03 -0.19127110393E+03  0.99948079482E+03  0.10100000352E+00 0. -1.
       -3    1    3    3    0  502  0.12698361981E+03  0.97275504322E+03  0.10244626744E+03  0.98634297368E+03  0.10100000352E+00 0.  1.
</event>
<event>
 5   0  0.1281789E-04  0.1990653E+04  0.7818609E-02  0.8611003E-01
       -2   -1    0    0    0  501  0.00000000000E+00  0.00000000000E+00  0.60464598267E+03  0.60464598268E+03  0.25500000920E-02 0. -1.
        2   -1    0    0  501    0  0.00000000000E+00  0.00000000000E+00 -0.16384377961E+04  0.16384377961E+04  0.25500000920E-02 0.  1.
    10030    2    1    2    0    0  0.00000000000E+00  0.00000000000E+00 -0.10337918135E+04  0.22430837788E+04  0.19906529896E+04 0.  0.
        2    1    3    3  502    0  0.90454074150E+03  0.32972323595E+03 -0.23236077801E+03  0.99040542028E+03  0.25500000920E-02 0.  1.
       -2    1    3    3    0  502 -0.90454074150E+03 -0.32972323595E+03 -0.80143103545E+03  0.12526783585E+04  0.25500000920E-02 0. -1.
</event>
<event>
 5   0  0.6256535E-05  0.1873365E+04  0.7818609E-02  0.8668229E-01
       -1   -1    0    0    0  501  0.00000000000E+00  0.00000000000E+00  0.16273677955E+04  0.16273677955E+04  0.50400001928E-02 0. -1.
        1   -1    0    0  501    0  0.00000000000E+00  0.00000000000E+00 -0.53913695673E+03  0.53913695676E+03  0.50400001928E-02 0.  1.
    10030    2    1    2    0    0  0.00000000000E+00  0.00000000000E+00  0.10882308387E+04  0.21665047522E+04  0.18733650160E+04 0.  0.
        1    1    3    3  502    0  0.90761956553E+03  0.20974173842E+03  0.65748119016E+03  0.11401957674E+04  0.50400001928E-02 0.  1.
       -1    1    3    3    0  502 -0.90761956553E+03 -0.20974173842E+03  0.43074964857E+03  0.10263089848E+04  0.50400001928E-02 0. -1.
</event>
<event>
 5   0  0.6214547E-05  0.2025156E+04  0.7818609E-02  0.8594949E-01
        1   -1    0    0  501    0  0.00000000000E+00  0.00000000000E+00  0.16064589595E+04  0.16064589595E+04  0.50400001928E-02 0.  1.
       -1   -1    0    0    0  501  0.00000000000E+00  0.00000000000E+00 -0.63824518474E+03  0.63824518476E+03  0.50400001928E-02 0. -1.
    10030    2    1    2    0    0  0.00000000000E+00  0.00000000000E+00  0.96821377475E+03  0.22447041443E+04  0.20251564833E+04 0.  0.
        3    1    3    3  502    0  0.38733004509E+03 -0.42393872271E+03 -0.44031393536E+03  0.72361935873E+03  0.10100000352E+00 0. -1.
       -3    1    3    3    0  502 -0.38733004509E+03  0.42393872271E+03  0.14085277101E+04  0.15210847855E+04  0.10100000352E+00 0.  1.
</event>
<event>
 5   0  0.6256535E-05  0.1996972E+04  0.7818609E-02  0.8608038E-01
       -1   -1    0    0    0  501  0.00000000000E+00  0.00000000000E+00  0.54035116324E+03  0.54035116326E+03  0.50400001928E-02 0. -1.
        1   -1    0    0  501    0  0.00000000000E+00  0.00000000000E+00 -0.18450492170E+04  0.18450492170E+04  0.50400001928E-02 0.  1.
    10030    2    1    2    0    0  0.00000000000E+00  0.00000000000E+00 -0.13046980538E+04  0.23854003803E+04  0.19969721988E+04 0.  0.
        1    1    3    3  502    0 -0.77585037198E+03  0.58527320157E+02 -0.13998530160E+04  0.16015485360E+04  0.50400001928E-02 0.  1.
       -1    1    3    3    0  502  0.77585037198E+03 -0.58527320157E+02  0.95154962183E+02  0.78385184427E+03  0.50400001928E-02 0. -1.
</event>
<event>
 5   0  0.1244229E-04  0.2022156E+04  0.7818609E-02  0.8596331E-01
       -2   -1    0    0    0  501  0.00000000000E+00  0.00000000000E+00  0.67842064987E+03  0.67842064988E+03  0.25500000920E-02 0.  1.
        2   -1    0    0  501    0  0.00000000000E+00  0.00000000000E+00 -0.15068512441E+04  0.15068512441E+04  0.25500000920E-02 0. -1.
    10030    2    1    2    0    0  0.00000000000E+00  0.00000000000E+00 -0.82843059418E+03  0.21852718939E+04  0.20221562751E+04 0.  0.
        5    1    3    3  502    0 -0.36429609809E+03 -0.68452565685E+03  0.28694332791E+03  0.82682863121E+03  0.46999998093E+01 0.  1.
       -5    1    3    3    0  502  0.36429609809E+03  0.68452565685E+03 -0.11153739221E+04  0.13584432627E+04  0.46999998093E+01 0. -1.
</event>
<event>
 5   0  0.1159914E-04  0.1962588E+04  0.7818609E-02  0.8624315E-01
        2   -1    0    0  501    0  0.00000000000E+00  0.00000000000E+00  0.52792875895E+03  0.52792875895E+03  0.25500000920E-02 0. -1.
       -2   -1    0    0    0  501  0.00000000000E+00  0.00000000000E+00 -0.18239915507E+04  0.18239915507E+04  0.25500000920E-02 0.  1.
    10030    2    1    2    0    0  0.00000000000E+00  0.00000000000E+00 -0.12960627918E+04  0.23519203097E+04  0.19625876752E+04 0.  0.
        3    1    3    3  502    0  0.55822079753E+03  0.75567221144E+03 -0.30847245935E+03  0.98884084580E+03  0.10100000352E+00 0. -1.
       -3    1    3    3    0  502 -0.55822079753E+03 -0.75567221144E+03 -0.98759033241E+03  0.13630794639E+04  0.10100000352E+00 0.  1.
</event>
<event>
 5   0  0.1274868E-04  0.2000270E+04  0.7818609E-02  0.8606495E-01
        2   -1    0    0  501    0  0.00000000000E+00  0.00000000000E+00  0.10034138109E+04  0.10034138109E+04  0.25500000920E-02 0.  1.
       -2   -1    0    0    0  501  0.00000000000E+00  0.00000000000E+00 -0.99686653335E+03  0.99686653336E+03  0.25500000920E-02 0. -1.
    10030    2    1    2    0    0  0.00000000000E+00  0.00000000000E+00  0.65472775239E+01  0.20002803442E+04  0.20002696290E+04 0.  0.
        1    1    3    3  502    0 -0.62980283537E+02  0.60530947429E+03  0.79694253701E+03  0.10027379932E+04  0.50400001928E-02 0.  1.
       -1    1    3    3    0  502  0.62980283537E+02 -0.60530947429E+03 -0.79039525949E+03  0.99754235099E+03  0.50400001928E-02 0. -1.
</event>
<event>
 5   0  0.6222733E-05  0.2035969E+04  0.7818609E-02  0.8589986E-01
        1   -1    0    0  501    0  0.00000000000E+00  0.00000000000E+00  0.93829264483E+03  0.93829264484E+03  0.50400001928E-02 0. -1.
       -1   -1    0    0    0  501  0.00000000000E+00  0.00000000000E+00 -0.11044446209E+04  0.11044446209E+04  0.50400001928E-02 0.  1.
    10030    2    1    2    0    0  0.00000000000E+00  0.00000000000E+00 -0.16615197605E+03  0.20427372657E+04  0.20359688253E+04 0.  0.
        2    1    3    3  502    0  0.37436570983E+03 -0.70302780258E+03 -0.71913500431E+03  0.10731043427E+04  0.25500000920E-02 0.  1.
       -2    1    3    3    0  502 -0.37436570983E+03  0.70302780258E+03  0.55298302825E+03  0.96963292304E+03  0.25500000920E-02 0. -1.
</event>
<event>
 5   0  0.6256535E-05  0.1999279E+04  0.7818609E-02  0.8606958E-01
        1   -1    0    0  501    0  0.00000000000E+00  0.00000000000E+00  0.23363141809E+04  0.23363141809E+04  0.50400001928E-02 0.  1.
       -1   -1    0    0    0  501  0.00000000000E+00  0.00000000000E+00 -0.42771611005E+03  0.42771611008E+03  0.50400001928E-02 0. -1.
    10030    2    1    2    0    0  0.00000000000E+00  0.00000000000E+00  0.19085980708E+04  0.27640302910E+04  0.19992790834E+04 0.  0.
        1    1    3    3  502    0  0.13817625149E+03  0.55366426671E+03 -0.18040889032E+03  0.59848489074E+03  0.50400001928E-02 0. -1.
       -1    1    3    3    0  502 -0.13817625149E+03 -0.55366426671E+03  0.20890069612E+04  0.21655454002E+04  0.50400001928E-02 0.  1.
</event>
<event>
 5   0  0.1244229E-04  0.1999922E+04  0.7818609E-02  0.8606657E-01
        2   -1    0    0  501    0  0.00000000000E+00  0.00000000000E+00  0.12417260253E+04  0.12417260253E+04  0.25500000920E-02 0. -1.
       -2   -1    0    0    0  501  0.00000000000E+00  0.00000000000E+00 -0.80526813986E+03  0.80526813986E+03  0.25500000920E-02 0.  1.
    10030    2    1    2    0    0  0.00000000000E+00  0.00000000000E+00  0.43645788540E+03  0.20469941651E+04  0.19999224051E+04 0.  0.
        5    1    3    3  502    0 -0.96443745389E+03  0.25846192383E+03  0.16255994382E+03  0.10116273987E+04  0.46999998093E+01 0. -1.
       -5    1    3    3    0  502  0.96443745389E+03 -0.25846192383E+03  0.27389794157E+03  0.10353667664E+04  0.46999998093E+01 0.  1.
</event>
<event>
 5   0  0.6168338E-05  0.2022006E+04  0.7818609E-02  0.8596401E-01
       -1   -1    0    0    0  501  0.00000000000E+00  0.00000000000E+00  0.75172785005E+03  0.75172785006E+03  0.50400001928E-02 0.  1.
        1   -1    0    0  501    0  0.00000000000E+00  0.00000000000E+00 -0.13597031703E+04  0.13597031703E+04  0.50400001928E-02 0. -1.
    10030    2    1    2    0    0  0.00000000000E+00  0.00000000000E+00 -0.60797532025E+03  0.21114310204E+04  0.20220056785E+04 0.  0.
        5    1    3    3  502    0  0.31448674560E+03 -0.43016856771E+03  0.59317071596E+03  0.79738353261E+03  0.46999998093E+01 0.  1.
       -5    1    3    3    0  502 -0.31448674560E+03  0.43016856771E+03 -0.12011460362E+04  0.13140474878E+04  0.46999998093E+01 0. -1.
</event>
<event>
 5   0  0.6028501E-05  0.2013190E+04  0.7818609E-02  0.8600478E-01
        1   -1    0    0  501    0  0.00000000000E+00  0.00000000000E+00  0.12840606096E+04  0.12840606096E+04  0.50400001928E-02 0.  1.
       -1   -1    0    0    0  501  0.00000000000E+00  0.00000000000E+00 -0.78908567006E+03  0.78908567007E+03  0.50400001928E-02 0. -1.
    10030    2    1    2    0    0  0.00000000000E+00  0.00000000000E+00  0.49497493955E+03  0.20731462797E+04  0.20131903303E+04 0.  0.
        4    1    3    3  502    0  0.97412663510E+02  0.86574067776E+03  0.76672214836E+03  0.11605432408E+04  0.12699999809E+01 0.  1.
       -4    1    3    3    0  502 -0.97412663510E+02 -0.86574067776E+03 -0.27174720881E+03  0.91260303886E+03  0.12699999809E+01 0. -1.
</event>
<event>
 5   0  0.1244229E-04  0.1986971E+04  0.7818609E-02  0.8612736E-01
        2   -1    0    0  501    0  0.00000000000E+00  0.00000000000E+00  0.76069996135E+03  0.76069996136E+03  0.25500000920E-02 0. -1.
       -2   -1    0    0    0  501  0.00000000000E+00  0.00000000000E+00 -0.12975071227E+04  0.12975071227E+04  0.25500000920E-02 0.  1.
    10030    2    1    2    0    0  0.00000000000E+00  0.00000000000E+00 -0.53680716130E+03  0.20582070840E+04  0.19869711805E+04 0.  0.
        5    1    3    3  502    0  0.33504097603E+03  0.68889958270E+03 -0.92366169019E+03  0.12000033744E+04  0.46999998093E+01 0.  1.
       -5    1    3    3    0  502 -0.33504097603E+03 -0.68889958270E+03  0.38685452889E+03  0.85820370961E+03  0.46999998093E+01 0. -1.
</event>
<event>
 5   0  0.4479000E-05  0.1994468E+04  0.7818609E-02  0.8609211E-01
       -3   -1    0    0    0  501  0.00000000000E+00  0.00000000000E+00  0.68452638532E+03  0.68452639278E+03  0.10100000352E+00 0.  1.
        3   -1    0    0  501    0  0.00000000000E+00  0.00000000000E+00 -0.14527936134E+04  0.14527936169E+04  0.10100000352E+00 0. -1.
    10030    2    1    2    0    0  0.00000000000E+00  0.00000000000E+00 -0.76826722804E+03  0.21373200097E+04  0.19944679215E+04 0.  0.
        4    1    3    3  502    0  0.66328731964E+03 -0.70419997664E+03 -0.64360452711E+03  0.11619277412E+04  0.12699999809E+01 0. -1.
       -4    1    3    3    0  502 -0.66328731964E+03  0.70419997664E+03 -0.12466270093E+03  0.97539226848E+03  0.12699999809E+01 0.  1.
</event>
<event>
 5   0  0.1244229E-04  0.1995420E+04  0.7818609E-02  0.8608765E-01
       -2   -1    0    0    0  501  0.00000000000E+00  0.00000000000E+00  0.85395006990E+03  0.85395006990E+03  0.25500000920E-02 0.  1.
        2   -1    0    0  501    0  0.00000000000E+00  0.00000000000E+00 -0.11656710874E+04  0.11656710874E+04  0.25500000920E-02 0. -1.
    10030    2    1    2    0    0  0.00000000000E+00  0.00000000000E+00 -0.31172101748E+03  0.20196211573E+04  0.19954196617E+04 0.  0.
        5    1    3    3  502    0  0.40443681399E+03 -0.57917525489E+03 -0.86895494336E+03  0.11198740536E+04  0.46999998093E+01 0. -1.
       -5    1    3    3    0  502 -0.40443681399E+03  0.57917525489E+03  0.55723392588E+03  0.89974710366E+03  0.46999998093E+01 0.  1.
</event>
<event>
 5   0  0.1242761E-04  0.1997412E+04  0.7818609E-02  0.8607831E-01
        2   -1    0    0  501    0  0.00000000000E+00  0.00000000000E+00  0.15270564592E+04  0.15270564592E+04  0.25500000920E-02 0. -1.
       -2   -1    0    0    0  501  0.00000000000E+00  0.00000000000E+00 -0.65316112223E+03  0.65316112224E+03  0.25500000920E-02 0.  1.
    10030    2    1    2    0    0  0.00000000000E+00  0.00000000000E+00  0.87389533698E+03  0.21802175815E+04  0.19974122365E+04 0.  0.
        4    1    3    3  502    0  0.11972191028E+02 -0.52044709936E+03 -0.49334838687E+03  0.71721876740E+03  0.12699999809E+01 0.  1.
       -4    1    3    3    0  502 -0.11972191028E+02  0.52044709936E+03  0.13672437239E+04  0.14629988140E+04  0.12699999809E+01 0. -1.
</event>
<event>
 5   0  0.1274868E-04  0.2007048E+04  0.7818609E-02  0.8603333E-01
       -2   -1    0    0    0  501  0.00000000000E+00  0.00000000000E+00  0.15458847322E+04  0.15458847322E+04  0.25500000920E-02 0. -1.
        2   -1    0    0  501    0  0.00000000000E+00  0.00000000000E+00 -0.65144572556E+03  0.65144572556E+03  0.25500000920E-02 0.  1.
    10030    2    1    2    0    0  0.00000000000E+00  0.00000000000E+00  0.89443900660E+03  0.21973304577E+04  0.20070475839E+04 0.  0.
        1    1    3    3  502    0  0.14496077904E+03  0.63170530158E+03  0.12860125626E+04  0.14401019154E+04  0.50400001928E-02 0. -1.
       -1    1    3    3    0  502 -0.14496077904E+03 -0.63170530158E+03 -0.39157355602E+03  0.75722854232E+03  0.50400001928E-02 0.  1.
</event>
<event>
 5   0  0.1274868E-04  0.2020923E+04  0.7818609E-02  0.8596900E-01
       -2   -1    0    0    0  501  0.00000000000E+00  0.00000000000E+00  0.88289203508E+03  0.88289203508E+03  0.25500000920E-02 0.  1.
        2   -1    0    0  501    0  0.00000000000E+00  0.00000000000E+00 -0.11564636536E+04  0.11564636536E+04  0.25500000920E-02 0. -1.
    10030    2    1    2    0    0  0.00000000000E+00  0.00000000000E+00 -0.27357161851E+03  0.20393556887E+04  0.20209231045E+04 0.  0.
        1    1    3    3  502    0 -0.10704313778E+03  0.79556636422E+03 -0.75610037807E+03  0.11027564803E+04  0.50400001928E-02 0. -1.
       -1    1    3    3    0  502  0.10704313778E+03 -0.79556636422E+03  0.48252875956E+03  0.93659920833E+03  0.50400001928E-02 0.  1.
</event>
<event>
 5   0  0.6222733E-05  0.1998391E+04  0.7818609E-02  0.8607373E-01
       -1   -1    0    0    0  501  0.00000000000E+00  0.00000000000E+00  0.13438303172E+04  0.13438303172E+04  0.50400001928E-02 0.  1.
        1   -1    0    0  501    0  0.00000000000E+00  0.00000000000E+00 -0.74294481964E+03  0.74294481965E+03  0.50400001928E-02 0. -1.
    10030    2    1    2    0    0  0.00000000000E+00  0.00000000000E+00  0.60088549760E+03  0.20867751369E+04  0.19983911256E+04 0.  0.
        2    1    3    3  502    0  0.18642751182E+03  0.48837054243E+03  0.11896506806E+04  0.12994343945E+04  0.25500000920E-02 0.  1.
       -2    1    3    3    0  502 -0.18642751182E+03 -0.48837054243E+03 -0.58876518299E+03  0.78734074236E+03  0.25500000920E-02 0. -1.
</event>
<event>
 5   0  0.1274868E-04  0.2006198E+04  0.7818609E-02  0.8603728E-01
       -2   -1    0    0    0  501  0.00000000000E+00  0.00000000000E+00  0.39713511168E+03  0.39713511168E+03  0.25500000920E-02 0. -1.
        2   -1    0    0  501    0  0.00000000000E+00  0.00000000000E+00 -0.25336664682E+04  0.25336664682E+04  0.25500000920E-02 0.  1.
    10030    2    1    2    0    0  0.00000000000E+00  0.00000000000E+00 -0.21365313565E+04  0.29308015799E+04  0.20061983110E+04 0.  0.
        1    1    3    3  502    0 -0.29106010039E+03  0.36859634137E+03 -0.23631209184E+04  0.24093401005E+04  0.50400001928E-02 0.  1.
       -1    1    3    3    0  502  0.29106010039E+03 -0.36859634137E+03  0.22658956187E+03  0.52146147938E+03  0.50400001928E-02 0. -1.
</event>
<event>
 5   0  0.6168338E-05  0.1679926E+04  0.7818609E-02  0.8772897E-01
        1   -1    0    0  501    0  0.00000000000E+00  0.00000000000E+00  0.85079343464E+03  0.85079343465E+03  0.50400001928E-02 0.  1.
       -1   -1    0    0    0  501  0.00000000000E+00  0.00000000000E+00 -0.82927058896E+03  0.82927058897E+03  0.50400001928E-02 0. -1.
    10030    2    1    2    0    0  0.00000000000E+00  0.00000000000E+00  0.21522845681E+02  0.16800640236E+04  0.16799261563E+04 0.  0.
        5    1    3    3  502    0 -0.81998406267E+02 -0.17348817140E+03 -0.80704280740E+03  0.82955534307E+03  0.46999998093E+01 0. -1.
       -5    1    3    3    0  502  0.81998406267E+02  0.17348817140E+03  0.82856565308E+03  0.85050868056E+03  0.46999998093E+01 0.  1.
</event>
<event>
 5   0  0.6214547E-05  0.1968876E+04  0.7818609E-02  0.8621312E-01
        1   -1    0    0  501    0  0.00000000000E+00  0.00000000000E+00  0.18827253248E+04  0.18827253248E+04  0.50400001928E-02 0. -1.
       -1   -1    0    0    0  501  0.00000000000E+00  0.00000000000E+00 -0.51474216069E+03  0.51474216071E+03  0.50400001928E-02 0.  1.
    10030    2    1    2    0    0  0.00000000000E+00  0.00000000000E+00  0.13679831642E+04  0.23974674856E+04  0.19688759247E+04 0.  0.
        3    1    3    3  502    0  0.45627437955E+03  0.52307068759E+02 -0.37629935952E+03  0.59373694264E+03  0.10100000352E+00 0.  1.
       -3    1    3    3    0  502 -0.45627437955E+03 -0.52307068759E+02  0.17442825237E+04  0.18037305429E+04  0.10100000352E+00 0. -1.
</event>
<event>
 5   0  0.1242761E-04  0.1970612E+04  0.7818609E-02  0.8620485E-01
        2   -1    0    0  501    0  0.00000000000E+00  0.00000000000E+00  0.16097004505E+04  0.16097004505E+04  0.25500000920E-02 0.  1.
       -2   -1    0    0    0  501  0.00000000000E+00  0.00000000000E+00 -0.60311088176E+03  0.60311088176E+03  0.25500000920E-02 0. -1.
    10030    2    1    2    0    0  0.00000000000E+00  0.00000000000E+00  0.10065895687E+04  0.22128113322E+04  0.19706119436E+04 0.  0.
        4    1    3    3  502    0  0.85676706012E+03 -0.13563852494E+03  0.10280398399E+04  0.13451078507E+04  0.12699999809E+01 0.  1.
       -4    1    3    3    0  502 -0.85676706012E+03  0.13563852494E+03 -0.21450271215E+02  0.86770348149E+03  0.12699999809E+01 0. -1.
</event>
<event>
 5   0  0.6028501E-05  0.1996265E+04  0.7818609E-02  0.8608369E-01
        1   -1    0    0  501    0  0.00000000000E+00  0.00000000000E+00  0.26226091233E+04  0.26226091233E+04  0.50400001928E-02 0.  1.
       -1   -1    0    0    0  501  0.00000000000E+00  0.00000000000E+00 -0.37987679168E+03  0.37987679171E+03  0.50400001928E-02 0. -1.
    10030    2    1    2    0    0  0.00000000000E+00  0.00000000000E+00  0.22427323316E+04  0.30024859150E+04  0.19962648518E+04 0.  0.
        4    1    3    3  502    0 -0.62884841869E+03  0.29909974764E+03  0.45831572205E+02  0.69786326643E+03  0.12699999809E+01 0. -1.
       -4    1    3    3    0  502  0.62884841869E+03 -0.29909974764E+03  0.21969007594E+04  0.23046226486E+04  0.12699999809E+01 0.  1.
</event>
<event>
 5   0  0.1159914E-04  0.1924911E+04  0.7818609E-02  0.8642555E-01
        2   -1    0    0  501    0  0.00000000000E+00  0.00000000000E+00  0.19956112841E+04  0.19956112841E+04  0.25500000920E-02 0. -1.
       -2   -1    0    0    0  501  0.00000000000E+00  0.00000000000E+00 -0.46417902096E+03  0.46417902096E+03  0.25500000920E-02 0.  1.
    10030    2    1    2    0    0  0.00000000000E+00  0.00000000000E+00  0.15314322632E+04  0.24597903051E+04  0.19249113144E+04 0.  0.
        3    1    3    3  502    0  0.64238177541E+02 -0.90796444968E+02 -0.45593910395E+03  0.46930908214E+03  0.10100000352E+00 0.  1.
       -3    1    3    3    0  502 -0.64238177541E+02  0.90796444968E+02  0.19873713671E+04  0.19904812230E+04  0.10100000352E+00 0. -1.
</event>
<event>
 5   0  0.1159914E-04  0.2000736E+04  0.7818609E-02  0.8606277E-01
        2   -1    0    0  501    0  0.00000000000E+00  0.00000000000E+00  0.19477556883E+04  0.19477556883E+04  0.25500000920E-02 0.  1.
       -2   -1    0    0    0  501  0.00000000000E+00  0.00000000000E+00 -0.51378938369E+03  0.51378938369E+03  0.25500000920E-02 0. -1.
    10030    2    1    2    0    0  0.00000000000E+00  0.00000000000E+00  0.14339663046E+04  0.24615450720E+04  0.20007360592E+04 0.  0.
        3    1    3    3  502    0  0.49045543896E+03  0.86297749498E+03  0.86995643086E+03  0.13198866983E+04  0.10100000352E+00 0. -1.
       -3    1    3    3    0  502 -0.49045543896E+03 -0.86297749498E+03  0.56400987378E+03  0.11416583738E+04  0.10100000352E+00 0.  1.
</event>
<event>
 5   0  0.1159914E-04  0.2004549E+04  0.7818609E-02  0.8604497E-01
       -2   -1    0    0    0  501  0.00000000000E+00  0.00000000000E+00  0.65626554900E+03  0.65626554901E+03  0.25500000920E-02 0. -1.
        2   -1    0    0  501    0  0.00000000000E+00  0.00000000000E+00 -0.15307135639E+04  0.15307135639E+04  0.25500000920E-02 0.  1.
    10030    2    1    2    0    0  0.00000000000E+00  0.00000000000E+00 -0.87444801490E+03  0.21869791129E+04  0.20045494031E+04 0.  0.
        3    1    3    3  502    0 -0.46108700937E+03  0.39820352172E+03 -0.13055094984E+04  0.14406673230E+04  0.10100000352E+00 0.  1.
       -3    1    3    3    0  502  0.46108700937E+03 -0.39820352172E+03  0.43106148354E+03  0.74631178988E+03  0.10100000352E+00 0. -1.
</event>
<event>
 5   0  0.6222733E-05  0.2007320E+04  0.7818609E-02  0.8603206E-01
       -1   -1    0    0    0  501  0.00000000000E+00  0.00000000000E+00  0.83472991445E+03  0.83472991446E+03  0.50400001928E-02 0.  1.
        1   -1    0    0  501    0  0.00000000000E+00  0.00000000000E+00 -0.12067776625E+04  0.12067776625E+04  0.50400001928E-02 0. -1.
    10030    2    1    2    0    0  0.00000000000E+00  0.00000000000E+00 -0.37204774809E+03  0.20415075770E+04  0.20073200194E+04 0.  0.
        2    1    3    3  502    0  0.25986678113E+03 -0.41577047735E+03 -0.10766888813E+04  0.11830700659E+04  0.25500000920E-02 0. -1.
       -2    1    3    3    0  502 -0.25986678113E+03  0.41577047735E+03  0.70464113322E+03  0.85843751107E+03  0.25500000920E-02 0.  1.
</event>
<event>
 5   0  0.1244229E-04  0.2004001E+04  0.7818609E-02  0.8604752E-01
       -2   -1    0    0    0  501  0.00000000000E+00  0.00000000000E+00  0.52191005432E+03  0.52191005432E+03  0.25500000920E-02 0.  1.
        2   -1    0    0  501    0  0.00000000000E+00  0.00000000000E+00 -0.19237122179E+04  0.19237122179E+04  0.25500000920E-02 0. -1.
    10030    2    1    2    0    0  0.00000000000E+00  0.00000000000E+00 -0.14018021636E+04  0.24456222723E+04  0.20040007467E+04 0.  0.
        5    1    3    3  502    0 -0.86298025223E+03  0.30430824103E+03 -0.11990814982E+04  0.15083623406E+04  0.46999998093E+01 0.  1.
       -5    1    3    3    0  502  0.86298025223E+03 -0.30430824103E+03 -0.20272066546E+03  0.93725993166E+03  0.46999998093E+01 0. -1.
</event>
<event>
 5   0  0.1244229E-04  0.2185787E+04  0.7818609E-02  0.8524367E-01
       -2   -1    0    0    0  501  0.00000000000E+00  0.00000000000E+00  0.16358294022E+04  0.16358294022E+04  0.25500000920E-02 0. -1.
        2   -1    0    0  501    0  0.00000000000E+00  0.00000000000E+00 -0.73015923939E+03  0.73015923940E+03  0.25500000920E-02 0.  1.
    10030    2    1    2    0    0  0.00000000000E+00  0.00000000000E+00  0.90567016283E+03  0.23659886416E+04  0.21857867710E+04 0.  0.
        5    1    3    3  502    0 -0.87495206632E+03 -0.65299347008E+03  0.50643808945E+03  0.12035128661E+04  0.46999998093E+01 0.  1.
       -5    1    3    3    0  502  0.87495206632E+03  0.65299347008E+03  0.39923207338E+03  0.11624757756E+04  0.46999998093E+01 0. -1.
</event>
<event>
 5   0  0.1242761E-04  0.1996856E+04  0.7818609E-02  0.8608092E-01
        2   -1    0    0  501    0  0.00000000000E+00  0.00000000000E+00  0.11685121934E+04  0.11685121934E+04  0.25500000920E-02 0.  1.
       -2   -1    0    0    0  501  0.00000000000E+00  0.00000000000E+00 -0.85310103237E+03  0.85310103237E+03  0.25500000920E-02 0. -1.
    10030    2    1    2    0    0  0.00000000000E+00  0.00000000000E+00  0.31541116104E+03  0.20216132258E+04  0.19968564881E+04 0.  0.
        4    1    3    3  502    0  0.40923319339E+03  0.85706494622E+03  0.46946037347E+03  0.10594464516E+04  0.12699999809E+01 0.  1.
       -4    1    3    3    0  502 -0.40923319339E+03 -0.85706494622E+03 -0.15404921244E+03  0.96216677419E+03  0.12699999809E+01 0. -1.
</event>
<event>
 5   0  0.1242761E-04  0.2026434E+04  0.7818609E-02  0.8594361E-01
       -2   -1    0    0    0  501  0.00000000000E+00  0.00000000000E+00  0.47528993910E+03  0.47528993911E+03  0.25500000920E-02 0. -1.
        2   -1    0    0  501    0  0.00000000000E+00  0.00000000000E+00 -0.21599622263E+04  0.21599622263E+04  0.25500000920E-02 0.  1.
    10030    2    1    2    0    0  0.00000000000E+00  0.00000000000E+00 -0.16846722872E+04  0.26352521654E+04  0.20264336308E+04 0.  0.
        4    1    3    3  502    0 -0.19658066133E+03 -0.77958718364E+03 -0.16441980873E+04  0.18302429064E+04  0.12699999809E+01 0.  1.
       -4    1    3    3    0  502  0.19658066133E+03  0.77958718364E+03 -0.40474199905E+02  0.80500925899E+03  0.12699999809E+01 0. -1.
</event>
<event>
 5   0  0.6222733E-05  0.2014352E+04  0.7818609E-02  0.8599940E-01
       -1   -1    0    0    0  501  0.00000000000E+00  0.00000000000E+00  0.14814457223E+04  0.14814457223E+04  0.50400001928E-02 0.  1.
        1   -1    0    0  501    0  0.00000000000E+00  0.00000000000E+00 -0.68473920800E+03  0.68473920802E+03  0.50400001928E-02 0. -1.
    10030    2    1    2    0    0  0.00000000000E+00  0.00000000000E+00  0.79670651431E+03  0.21661849303E+04  0.20143524722E+04 0.  0.
        2    1    3    3  502    0  0.32545801825E+03  0.37450018412E+03 -0.54419996524E+03  0.73642848378E+03  0.25500000920E-02 0. -1.
       -2    1    3    3    0  502 -0.32545801825E+03 -0.37450018412E+03  0.13409064795E+04  0.14297564466E+04  0.25500000920E-02 0.  1.
</event>
<event>
 5   0  0.1159914E-04  0.1983465E+04  0.7818609E-02  0.8614390E-01
        2   -1    0    0  501    0  0.00000000000E+00  0.00000000000E+00  0.81942336657E+03  0.81942336657E+03  0.25500000920E-02 0.  1.
       -2   -1    0    0    0  501  0.00000000000E+00  0.00000000000E+00 -0.12002751292E+04  0.12002751292E+04  0.25500000920E-02 0. -1.
    10030    2    1    2    0    0  0.00000000000E+00  0.00000000000E+00 -0.38085176259E+03  0.20196984957E+04  0.19834651367E+04 0.  0.
        3    1    3    3  502    0 -0.38779032310E+03 -0.73802865414E+03 -0.73732745425E+03  0.11129777240E+04  0.10100000352E+00 0. -1.
       -3    1    3    3    0  502  0.38779032310E+03  0.73802865414E+03  0.35647569166E+03  0.90672077178E+03  0.10100000352E+00 0.  1.
</event>
<event>
 5   0  0.6028501E-05  0.1968758E+04  0.7818609E-02  0.8621368E-01
        1   -1    0    0  501    0  0.00000000000E+00  0.00000000000E+00  0.20823273533E+04  0.20823273533E+04  0.50400001928E-02 0.  1.
       -1   -1    0    0    0  501  0.00000000000E+00  0.00000000000E+00 -0.46534570079E+03  0.46534570082E+03  0.50400001928E-02 0. -1.
    10030    2    1    2    0    0  0.00000000000E+00  0.00000000000E+00  0.16169816525E+04  0.25476730541E+04  0.19687580669E+04 0.  0.
        4    1    3    3  502    0  0.45303245028E+03 -0.26189237030E+03 -0.27045153666E+03  0.58904300455E+03  0.12699999809E+01 0. -1.
       -4    1    3    3    0  502 -0.45303245028E+03  0.26189237030E+03  0.18874331891E+04  0.19586300496E+04  0.12699999809E+01 0.  1.
</event>
<event>
 5   0  0.1274868E-04  0.2022869E+04  0.7818609E-02  0.8596003E-01
        2   -1    0    0  501    0  0.00000000000E+00  0.00000000000E+00  0.95488275971E+03  0.95488275971E+03  0.25500000920E-02 0. -1.
       -2   -1    0    0    0  501  0.00000000000E+00  0.00000000000E+00 -0.10713358151E+04  0.10713358151E+04  0.25500000920E-02 0.  1.
    10030    2    1    2    0    0  0.00000000000E+00  0.00000000000E+00 -0.11645305543E+03  0.20262185749E+04  0.20228693480E+04 0.  0.
        1    1    3    3  502    0  0.52583184262E+03  0.29983086048E+03 -0.86987822439E+03  0.10597574236E+04  0.50400001928E-02 0.  1.
       -1    1    3    3    0  502 -0.52583184262E+03 -0.29983086048E+03  0.75342516896E+03  0.96646115124E+03  0.50400001928E-02 0. -1.
</event>
<event>
 5   0  0.1281789E-04  0.2091909E+04  0.7818609E-02  0.8564816E-01
       -2   -1    0    0    0  501  0.00000000000E+00  0.00000000000E+00  0.14402871972E+04  0.14402871972E+04  0.25500000920E-02 0. -1.
        2   -1    0    0  501    0  0.00000000000E+00  0.00000000000E+00 -0.75958509057E+03  0.75958509058E+03  0.25500000920E-02 0.  1.
    10030    2    1    2    0    0  0.00000000000E+00  0.00000000000E+00  0.68070210660E+03  0.21998722878E+04  0.20919088710E+04 0.  0.
        2    1    3    3  502    0 -0.71315936207E+03  0.26444036464E+03 -0.41468420101E+03  0.86630708685E+03  0.25500000920E-02 0.  1.
       -2    1    3    3    0  502  0.71315936207E+03 -0.26444036464E+03  0.10953863076E+04  0.13335652009E+04  0.25500000920E-02 0. -1.
</event>
<event>
 5   0  0.6028501E-05  0.2007076E+04  0.7818609E-02  0.8603320E-01
        1   -1    0    0  501    0  0.00000000000E+00  0.00000000000E+00  0.12540122604E+04  0.12540122604E+04  0.50400001928E-02 0.  1.
       -1   -1    0    0    0  501  0.00000000000E+00  0.00000000000E+00 -0.80309286658E+03  0.80309286660E+03  0.50400001928E-02 0. -1.
    10030    2    1    2    0    0  0.00000000000E+00  0.00000000000E+00  0.45091939380E+03  0.20571051270E+04  0.20070757843E+04 0.  0.
        4    1    3    3  502    0  0.16657201531E+03 -0.71200958497E+03 -0.47897340354E+03  0.87414016014E+03  0.12699999809E+01 0. -1.
       -4    1    3    3    0  502 -0.16657201531E+03  0.71200958497E+03  0.92989279733E+03  0.11829649669E+04  0.12699999809E+01 0.  1.
</event>
<event>
 5   0  0.6222733E-05  0.2074942E+04  0.7818609E-02  0.8572363E-01
       -1   -1    0    0    0  501  0.00000000000E+00  0.00000000000E+00  0.66311245641E+03  0.66311245643E+03  0.50400001928E-02 0.  1.
        1   -1    0    0  501    0  0.00000000000E+00  0.00000000000E+00 -0.16231726685E+04  0.16231726685E+04  0.50400001928E-02 0. -1.
    10030    2    1    2    0    0  0.00000000000E+00  0.00000000000E+00 -0.96006021212E+03  0.22862851250E+04  0.20749419418E+04 0.  0.
        2    1    3    3  502    0  0.52818012761E+03 -0.24892973185E+03 -0.14249346860E+04  0.15399282833E+04  0.25500000920E-02 0. -1.
       -2    1    3    3    0  502 -0.52818012761E+03  0.24892973185E+03  0.46487447384E+03  0.74635684162E+03  0.25500000920E-02 0.  1.
</event>
<event>
 5   0  0.1242761E-04  0.1912622E+04  0.7818609E-02  0.8648599E-01
       -2   -1    0    0    0  501  0.00000000000E+00  0.00000000000E+00  0.85287302320E+03  0.85287302321E+03  0.25500000920E-02 0.  1.
        2   -1    0    0  501    0  0.00000000000E+00  0.00000000000E+00 -0.10722937418E+04  0.10722937418E+04  0.25500000920E-02 0. -1.
    10030    2    1    2    0    0  0.00000000000E+00  0.00000000000E+00 -0.21942071864E+03  0.19251667651E+04  0.19126216619E+04 0.  0.
        4    1    3    3  502    0 -0.31683294281E+03 -0.57531893107E+03 -0.80936221147E+03  0.10423261430E+04  0.12699999809E+01 0. -1.
       -4    1    3    3    0  502  0.31683294281E+03  0.57531893107E+03  0.58994149284E+03  0.88284062206E+03  0.12699999809E+01 0.  1.
</event>
<event>
 5   0  0.1242761E-04  0.2012689E+04  0.7818609E-02  0.8600711E-01
        2   -1    0    0  501    0  0.00000000000E+00  0.00000000000E+00  0.27971675276E+04  0.27971675276E+04  0.25500000920E-02 0. -1.
       -2   -1    0    0    0  501  0.00000000000E+00  0.00000000000E+00 -0.36205525701E+03  0.36205525702E+03  0.25500000920E-02 0.  1.
    10030    2    1    2    0    0  0.00000000000E+00  0.00000000000E+00  0.24351122706E+04  0.31592227847E+04  0.20126889557E+04 0.  0.
        4    1    3    3  502    0 -0.57653111778E+03  0.24460080033E+03 -0.18897830200E+02  0.62655919288E+03  0.12699999809E+01 0.  1.
       -4    1    3    3    0  502  0.57653111778E+03 -0.24460080033E+03  0.24540101008E+04  0.25326635918E+04  0.12699999809E+01 0. -1.
</event>
<event>
 5   0  0.6028501E-05  0.2009933E+04  0.7818609E-02  0.8601991E-01
       -1   -1    0    0    0  501  0.00000000000E+00  0.00000000000E+00  0.19727192275E+04  0.19727192275E+04  0.50400001928E-02 0.  1.
        1   -1    0    0  501    0  0.00000000000E+00  0.00000000000E+00 -0.51196197289E+03  0.51196197292E+03  0.50400001928E-02 0. -1.
    10030    2    1    2    0    0  0.00000000000E+00  0.00000000000E+00  0.14607572546E+04  0.24846812004E+04  0.20099325638E+04 0.  0.
        4    1    3    3  502    0 -0.35992925794E+03 -0.77140747363E+03  0.70037610849E+02  0.85412261468E+03  0.12699999809E+01 0. -1.
       -4    1    3    3    0  502  0.35992925794E+03  0.77140747363E+03  0.13907196438E+04  0.16305585857E+04  0.12699999809E+01 0.  1.
</event>
<event>
 5   0  0.6222733E-05  0.1986653E+04  0.7818609E-02  0.8612887E-01
        1   -1    0    0  501    0  0.00000000000E+00  0.00000000000E+00  0.45271354946E+03  0.45271354949E+03  0.50400001928E-02 0. -1.
       -1   -1    0    0    0  501  0.00000000000E+00  0.00000000000E+00 -0.21795176737E+04  0.21795176737E+04  0.50400001928E-02 0.  1.
    10030    2    1    2    0    0  0.00000000000E+00  0.00000000000E+00 -0.17268041242E+04  0.26322312232E+04  0.19866526442E+04 0.  0.
        2    1    3    3  502    0  0.33282852300E+03 -0.72631736763E+03 -0.81356432022E+02  0.80307572076E+03  0.25500000920E-02 0. -1.
       -2    1    3    3    0  502 -0.33282852300E+03  0.72631736763E+03 -0.16454476922E+04  0.18291555024E+04  0.25500000920E-02 0.  1.
</event>
<event>
 5   0  0.1244229E-04  0.1998158E+04  0.7818609E-02  0.8607482E-01
       -2   -1    0    0    0  501  0.00000000000E+00  0.00000000000E+00  0.73454331774E+03  0.73454331775E+03  0.25500000920E-02 0.  1.
        2   -1    0    0  501    0  0.00000000000E+00  0.00000000000E+00 -0.13588833429E+04  0.13588833429E+04  0.25500000920E-02 0. -1.
    10030    2    1    2    0    0  0.00000000000E+00  0.00000000000E+00 -0.62434002514E+03  0.20934266606E+04  0.19981578307E+04 0.  0.
        5    1    3    3  502    0  0.29999087156E+03  0.10738854054E+03  0.67987115375E+03  0.75084865143E+03  0.46999998093E+01 0.  1.
       -5    1    3    3    0  502 -0.29999087156E+03 -0.10738854054E+03 -0.13042111789E+04  0.13425780092E+04  0.46999998093E+01 0. -1.
</event>
<event>
 5   0  0.1244229E-04  0.1985540E+04  0.7818609E-02  0.8613411E-01
        2   -1    0    0  501    0  0.00000000000E+00  0.00000000000E+00  0.86773891425E+03  0.86773891426E+03  0.25500000920E-02 0.  1.
       -2   -1    0    0    0  501  0.00000000000E+00  0.00000000000E+00 -0.11358165056E+04  0.11358165056E+04  0.25500000920E-02 0. -1.
    10030    2    1    2    0    0  0.00000000000E+00  0.00000000000E+00 -0.26807759131E+03  0.20035554198E+04  0.19855399078E+04 0.  0.
        5    1    3    3  502    0 -0.44780065420E+03  0.52115429699E+03  0.58901198706E+03  0.90503283812E+03  0.46999998093E+01 0.  1.
       -5    1    3    3    0  502  0.44780065420E+03 -0.52115429699E+03 -0.85708957836E+03  0.10985225817E+04  0.46999998093E+01 0. -1.
</event>
<event>
 5   0  0.6168338E-05  0.1970369E+04  0.7818609E-02  0.8620601E-01
       -1   -1    0    0    0  501  0.00000000000E+00  0.00000000000E+00  0.11327695543E+04  0.11327695543E+04  0.50400001928E-02 0. -1.
        1   -1    0    0  501    0  0.00000000000E+00  0.00000000000E+00 -0.85682781045E+03  0.85682781046E+03  0.50400001928E-02 0.  1.
    10030    2    1    2    0    0  0.00000000000E+00  0.00000000000E+00  0.27594174384E+03  0.19895973648E+04  0.19703689573E+04 0.  0.
        5    1    3    3  502    0 -0.22834978910E+03  0.63030447880E+03 -0.59097357187E+03  0.89369973415E+03  0.46999998093E+01 0.  1.
       -5    1    3    3    0  502  0.22834978910E+03 -0.63030447880E+03  0.86691531570E+03  0.10958976306E+04  0.46999998093E+01 0. -1.
</event>
<event>
 5   0  0.1281789E-04  0.2000822E+04  0.7818609E-02  0.8606236E-01
       -2   -1    0    0    0  501  0.00000000000E+00  0.00000000000E+00  0.10486568643E+04  0.10486568643E+04  0.25500000920E-02 0. -1.
        2   -1    0    0  501    0  0.00000000000E+00  0.00000000000E+00 -0.95438512180E+03  0.95438512180E+03  0.25500000920E-02 0.  1.
    10030    2    1    2    0    0  0.00000000000E+00  0.00000000000E+00  0.94271742520E+02  0.20030419861E+04  0.20008223401E+04 0.  0.
        2    1    3    3  502    0  0.15226349620E+01  0.10001797437E+04  0.68622931292E+02  0.10025322662E+04  0.25500000920E-02 0. -1.
       -2    1    3    3    0  502 -0.15226349620E+01 -0.10001797437E+04  0.25648811228E+02  0.10005097199E+04  0.25500000920E-02 0.  1.
</event>
<event>
 5   0  0.6028501E-05  0.1988881E+04  0.7818609E-02  0.8611837E-01
        1   -1    0    0  501    0  0.00000000000E+00  0.00000000000E+00  0.81660385445E+03  0.81660385447E+03  0.50400001928E-02 0. -1.
       -1   -1    0    0    0  501  0.00000000000E+00  0.00000000000E+00 -0.12110051695E+04  0.12110051695E+04  0.50400001928E-02 0.  1.
    10030    2    1    2    0    0  0.00000000000E+00  0.00000000000E+00 -0.39440131507E+03  0.20276090240E+04  0.19888805788E+04 0.  0.
        4    1    3    3  502    0  0.60061232931E+03 -0.34998621190E+02 -0.10044206201E+04  0.11708212795E+04  0.12699999809E+01 0.  1.
       -4    1    3    3    0  502 -0.60061232931E+03  0.34998621190E+02  0.61001930506E+03  0.85678774445E+03  0.12699999809E+01 0. -1.
</event>
<event>
 5   0  0.1159914E-04  0.2007747E+04  0.7818609E-02  0.8603007E-01
        2   -1    0    0  501    0  0.00000000000E+00  0.00000000000E+00  0.13349487896E+04  0.13349487896E+04  0.25500000920E-02 0. -1.
       -2   -1    0    0    0  501  0.00000000000E+00  0.00000000000E+00 -0.75490721441E+03  0.75490721442E+03  0.25500000920E-02 0.  1.
    10030    2    1    2    0    0  0.00000000000E+00  0.00000000000E+00  0.58004157517E+03  0.20898560040E+04  0.20077474663E+04 0.  0.
        3    1    3    3  502    0  0.25779983238E+03 -0.39634103784E+03  0.12117959143E+04  0.13007675888E+04  0.10100000352E+00 0. -1.
       -3    1    3    3    0  502 -0.25779983238E+03  0.39634103784E+03 -0.63175433914E+03  0.78908841524E+03  0.10100000352E+00 0.  1.
</event>
<event>
 5   0  0.1244229E-04  0.2008185E+04  0.7818609E-02  0.8602803E-01
       -2   -1    0    0    0  501  0.00000000000E+00  0.00000000000E+00  0.70449382649E+03  0.70449382650E+03  0.25500000920E-02 0. -1.
        2   -1    0    0  501    0  0.00000000000E+00  0.00000000000E+00 -0.14311014094E+04  0.14311014094E+04  0.25500000920E-02 0.  1.
    10030    2    1    2    0    0  0.00000000000E+00  0.00000000000E+00 -0.72660758290E+03  0.21355952359E+04  0.20081853580E+04 0.  0.
        5    1    3    3  502    0  0.90871710052E+03  0.38705968052E+03 -0.17129948147E+03  0.10024707314E+04  0.46999998093E+01 0. -1.
       -5    1    3    3    0  502 -0.90871710052E+03 -0.38705968052E+03 -0.55530810143E+03  0.11331245044E+04  0.46999998093E+01 0.  1.
</event>
<event>
 5   0  0.1281789E-04  0.2025052E+04  0.7818609E-02  0.8594997E-01
       -2   -1    0    0    0  501  0.00000000000E+00  0.00000000000E+00  0.54797037923E+03  0.54797037924E+03  0.25500000920E-02 0. -1.
        2   -1    0    0  501    0  0.00000000000E+00  0.00000000000E+00 -0.18709207698E+04  0.18709207698E+04  0.25500000920E-02 0.  1.
    10030    2    1    2    0    0  0.00000000000E+00  0.00000000000E+00 -0.13229503906E+04  0.24188911491E+04  0.20250522598E+04 0.  0.
        2    1    3    3  502    0 -0.94888931346E+02 -0.19239394309E+03  0.52051408002E+03  0.56298689695E+03  0.25500000920E-02 0. -1.
       -2    1    3    3    0  502  0.94888931346E+02  0.19239394309E+03 -0.18434644706E+04  0.18559042521E+04  0.25500000920E-02 0.  1.
</event>
<event>
 5   0  0.6214547E-05  0.1959079E+04  0.7818609E-02  0.8625995E-01
        1   -1    0    0  501    0  0.00000000000E+00  0.00000000000E+00  0.85387418412E+03  0.85387418414E+03  0.50400001928E-02 0.  1.
       -1   -1    0    0    0  501  0.00000000000E+00  0.00000000000E+00 -0.11236992999E+04  0.11236992999E+04  0.50400001928E-02 0. -1.
    10030    2    1    2    0    0  0.00000000000E+00  0.00000000000E+00 -0.26982511577E+03  0.19775734840E+04  0.19590791949E+04 0.  0.
        3    1    3    3  502    0  0.30571676011E+03  0.88377674862E+03 -0.42916697373E+03  0.10289355570E+04  0.10100000352E+00 0.  1.
       -3    1    3    3    0  502 -0.30571676011E+03 -0.88377674862E+03  0.15934185796E+03  0.94863792709E+03  0.10100000352E+00 0. -1.
</event>
<event>
 5   0  0.1281789E-04  0.1938547E+04  0.7818609E-02  0.8635904E-01
        2   -1    0    0  501    0  0.00000000000E+00  0.00000000000E+00  0.24620505067E+04  0.24620505067E+04  0.25500000920E-02 0.  1.
       -2   -1    0    0    0  501  0.00000000000E+00  0.00000000000E+00 -0.38158881545E+03  0.38158881546E+03  0.25500000920E-02 0. -1.
    10030    2    1    2    0    0  0.00000000000E+00  0.00000000000E+00  0.20804616912E+04  0.28436393222E+04  0.19385468129E+04 0.  0.
        2    1    3    3  502    0  0.56058510287E+03  0.77708997536E+03  0.12546504024E+04  0.15786931683E+04  0.25500000920E-02 0.  1.
       -2    1    3    3    0  502 -0.56058510287E+03 -0.77708997536E+03  0.82581128885E+03  0.12649461539E+04  0.25500000920E-02 0. -1.
</event>
<event>
 5   0  0.6168338E-05  0.1987810E+04  0.7818609E-02  0.8612341E-01
        1   -1    0    0  501    0  0.00000000000E+00  0.00000000000E+00  0.18551872648E+04  0.18551872648E+04  0.50400001928E-02 0. -1.
       -1   -1    0    0    0  501  0.00000000000E+00  0.00000000000E+00 -0.53247827266E+03  0.53247827268E+03  0.50400001928E-02 0.  1.
    10030    2    1    2    0    0  0.00000000000E+00  0.00000000000E+00  0.13227089921E+04  0.23876655374E+04  0.19878097597E+04 0.  0.
        5    1    3    3  502    0 -0.58480674816E+03  0.92595426980E+01 -0.30386829290E+03  0.65912267541E+03  0.46999998093E+01 0.  1.
       -5    1    3    3    0  502  0.58480674816E+03 -0.92595426980E+01  0.16265772850E+04  0.17285428620E+04  0.46999998093E+01 0. -1.
</event>
<event>
 5   0  0.6028501E-05  0.2378989E+04  0.7818609E-02  0.8447412E-01
       -1   -1    0    0    0  501  0.00000000000E+00  0.00000000000E+00  0.84631374250E+03  0.84631374251E+03  0.50400001928E-02 0. -1.
        1   -1    0    0  501    0  0.00000000000E+00  0.00000000000E+00 -0.16718350427E+04  0.16718350427E+04  0.50400001928E-02 0.  1.
    10030    2    1    2    0    0  0.00000000000E+00  0.00000000000E+00 -0.82552130023E+03  0.25181487852E+04  0.23789888372E+04 0.  0.
        4    1    3    3  502    0 -0.57696566568E+03  0.66638003163E+03  0.43267418092E+03  0.98191663885E+03  0.12699999809E+01 0. -1.
       -4    1    3    3    0  502  0.57696566568E+03 -0.66638003163E+03 -0.12581954812E+04  0.15362321464E+04  0.12699999809E+01 0.  1.
</event>
<event>
 5   0  0.1159914E-04  0.1999872E+04  0.7818609E-02  0.8606680E-01
        2   -1    0    0  501    0  0.00000000000E+00  0.00000000000E+00  0.12246429899E+04  0.12246429899E+04  0.25500000920E-02 0. -1.
       -2   -1    0    0    0  501  0.00000000000E+00  0.00000000000E+00 -0.81646037437E+03  0.81646037438E+03  0.25500000920E-02 0.  1.
    10030    2    1    2    0    0  0.00000000000E+00  0.00000000000E+00  0.40818261552E+03  0.20411033643E+04  0.19998724699E+04 0.  0.
        3    1    3    3  502    0  0.35036479346E+03  0.72406083395E+03 -0.40216955374E+03  0.89931081385E+03  0.10100000352E+00 0.  1.
       -3    1    3    3    0  502 -0.35036479346E+03 -0.72406083395E+03  0.81035216926E+03  0.11417925504E+04  0.10100000352E+00 0. -1.
</event>
<event>
 5   0  0.6214547E-05  0.1998100E+04  0.7818609E-02  0.8607509E-01
        1   -1    0    0  501    0  0.00000000000E+00  0.00000000000E+00  0.52700433720E+03  0.52700433723E+03  0.50400001928E-02 0.  1.
       -1   -1    0    0    0  501  0.00000000000E+00  0.00000000000E+00 -0.18939140665E+04  0.18939140665E+04  0.50400001928E-02 0. -1.
    10030    2    1    2    0    0  0.00000000000E+00  0.00000000000E+00 -0.13669097293E+04  0.24209184038E+04  0.19981000249E+04 0.  0.
        3    1    3    3  502    0  0.36468015628E+03  0.19100852555E+03  0.41945990918E+03  0.58772655107E+03  0.10100000352E+00 0.  1.
       -3    1    3    3    0  502 -0.36468015628E+03 -0.19100852555E+03 -0.17863696385E+04  0.18331918527E+04  0.10100000352E+00 0. -1.
</event>
<event>
 5   0  0.6222733E-05  0.1992147E+04  0.7818609E-02  0.8610301E-01
        1   -1    0    0  501    0  0.00000000000E+00  0.00000000000E+00  0.16842604605E+04  0.16842604605E+04  0.50400001928E-02 0.  1.
       -1   -1    0    0    0  501  0.00000000000E+00  0.00000000000E+00 -0.58907878553E+03  0.58907878555E+03  0.50400001928E-02 0. -1.
    10030    2    1    2    0    0  0.00000000000E+00  0.00000000000E+00  0.10951816749E+04  0.22733392460E+04  0.19921466880E+04 0.  0.
        2    1    3    3  502    0  0.86782710378E+03 -0.23551902312E+03  0.58665410493E+02  0.90112969250E+03  0.25500000920E-02 0. -1.
       -2    1    3    3    0  502 -0.86782710378E+03  0.23551902312E+03  0.10365162644E+04  0.13722095535E+04  0.25500000920E-02 0.  1.
</event>
<event>
 5   0  0.6222733E-05  0.2014201E+04  0.7818609E-02  0.8600010E-01
       -1   -1    0    0    0  501  0.00000000000E+00  0.00000000000E+00  0.79707022164E+03  0.79707022166E+03  0.50400001928E-02 0.  1.
        1   -1    0    0  501    0  0.00000000000E+00  0.00000000000E+00 -0.12724745836E+04  0.12724745836E+04  0.50400001928E-02 0. -1.
    10030    2    1    2    0    0  0.00000000000E+00  0.00000000000E+00 -0.47540436196E+03  0.20695448053E+04  0.20142011800E+04 0.  0.
        2    1    3    3  502    0 -0.90475570407E+03 -0.35922056168E+03 -0.50292117313E+03  0.10956970395E+04  0.25500000920E-02 0. -1.
       -2    1    3    3    0  502  0.90475570407E+03  0.35922056168E+03  0.27516811166E+02  0.97384776577E+03  0.25500000920E-02 0.  1.
</event>
<event>
 5   0  0.1242761E-04  0.2001222E+04  0.7818609E-02  0.8606050E-01
       -2   -1    0    0    0  501  0.00000000000E+00  0.00000000000E+00  0.44148946790E+03  0.44148946791E+03  0.25500000920E-02 0.  1.
        2   -1    0    0  501    0  0.00000000000E+00  0.00000000000E+00 -0.22678286132E+04  0.22678286132E+04  0.25500000920E-02 0. -1.
    10030    2    1    2    0    0  0.00000000000E+00  0.00000000000E+00 -0.18263391453E+04  0.27093180811E+04  0.20012220744E+04 0.  0.
        4    1    3    3  502    0 -0.41023616670E+03 -0.63199884780E+03 -0.21792303327E+02  0.75378562833E+03  0.12699999809E+01 0.  1.
       -4    1    3    3    0  502  0.41023616670E+03  0.63199884780E+03 -0.18045468420E+04  0.19555324528E+04  0.12699999809E+01 0. -1.
</event>
<event>
 5   0  0.6256535E-05  0.1936917E+04  0.7818609E-02  0.8636695E-01
        1   -1    0    0  501    0  0.00000000000E+00  0.00000000000E+00  0.18202499394E+04  0.18202499394E+04  0.50400001928E-02 0. -1.
       -1   -1    0    0    0  501  0.00000000000E+00  0.00000000000E+00 -0.51526558259E+03  0.51526558261E+03  0.50400001928E-02 0.  1.
    10030    2    1    2    0    0  0.00000000000E+00  0.00000000000E+00  0.13049843568E+04  0.23355155220E+04  0.19369172884E+04 0.  0.
        1    1    3    3  502    0 -0.86683325400E+03 -0.42926386545E+03  0.70962155039E+03  0.11996791660E+04  0.50400001928E-02 0. -1.
       -1    1    3    3    0  502  0.86683325400E+03  0.42926386545E+03  0.59536280639E+03  0.11358363560E+04  0.50400001928E-02 0.  1.
</event>
<event>
 5   0  0.6256535E-05  0.1996794E+04  0.7818609E-02  0.8608121E-01
        1   -1    0    0  501    0  0.00000000000E+00  0.00000000000E+00  0.95320836359E+03  0.95320836360E+03  0.50400001928E-02 0. -1.
       -1   -1    0    0    0  501  0.00000000000E+00  0.00000000000E+00 -0.10457275292E+04  0.10457275292E+04  0.50400001928E-02 0.  1.
    10030    2    1    2    0    0  0.00000000000E+00  0.00000000000E+00 -0.92519165567E+02  0.19989358928E+04  0.19967936567E+04 0.  0.
        1    1    3    3  502    0  0.38332372646E+03  0.68604053051E+03  0.57019936234E+03  0.97093563206E+03  0.50400001928E-02 0. -1.
       -1    1    3    3    0  502 -0.38332372646E+03 -0.68604053051E+03 -0.66271852790E+03  0.10280002607E+04  0.50400001928E-02 0.  1.
</event>
<event>
 5   0  0.1244229E-04  0.1987312E+04  0.7818609E-02  0.8612576E-01
        2   -1    0    0  501    0  0.00000000000E+00  0.00000000000E+00  0.11267943220E+04  0.11267943220E+04  0.25500000920E-02 0.  1.
       -2   -1    0    0    0  501  0.00000000000E+00  0.00000000000E+00 -0.87624888948E+03  0.87624888948E+03  0.25500000920E-02 0. -1.
    10030    2    1    2    0    0  0.00000000000E+00  0.00000000000E+00  0.25054543254E+03  0.20030432115E+04  0.19873120272E+04 0.  0.
        5    1    3    3  502    0 -0.56255385797E+03 -0.44900056106E+03 -0.56517671374E+03  0.91515854074E+03  0.46999998093E+01 0. -1.
       -5    1    3    3    0  502  0.56255385797E+03  0.44900056106E+03  0.81572214628E+03  0.10878846708E+04  0.46999998093E+01 0.  1.
</event>
<event>
 5   0  0.1274868E-04  0.1932797E+04  0.7818609E-02  0.8638701E-01
       -2   -1    0    0    0  501  0.00000000000E+00  0.00000000000E+00  0.53939914044E+03  0.53939914044E+03  0.25500000920E-02 0. -1.
        2   -1    0    0  501    0  0.00000000000E+00  0.00000000000E+00 -0.17314200198E+04  0.17314200198E+04  0.25500000920E-02 0.  1.
    10030    2    1    2    0    0  0.00000000000E+00  0.00000000000E+00 -0.11920208794E+04  0.22708191603E+04  0.19327974239E+04 0.  0.
        1    1    3    3  502    0  0.13957039734E+03 -0.85506323457E+03 -0.92981043857E+02  0.87135440864E+03  0.50400001928E-02 0. -1.
       -1    1    3    3    0  502 -0.13957039734E+03  0.85506323457E+03 -0.10990398355E+04  0.13994647516E+04  0.50400001928E-02 0.  1.
</event>
<event>
 5   0  0.1274868E-04  0.2024782E+04  0.7818609E-02  0.8595121E-01
       -2   -1    0    0    0  501  0.00000000000E+00  0.00000000000E+00  0.86989256501E+03  0.86989256501E+03  0.25500000920E-02 0. -1.
        2   -1    0    0  501    0  0.00000000000E+00  0.00000000000E+00 -0.11782323479E+04  0.11782323479E+04  0.25500000920E-02 0.  1.
    10030    2    1    2    0    0  0.00000000000E+00  0.00000000000E+00 -0.30833978289E+03  0.20481249129E+04  0.20247820221E+04 0.  0.
        1    1    3    3  502    0  0.25498731205E+03 -0.51101178542E+03  0.69140024390E+03  0.89676411137E+03  0.50400001928E-02 0. -1.
       -1    1    3    3    0  502 -0.25498731205E+03  0.51101178542E+03 -0.99974002679E+03  0.11513608015E+04  0.50400001928E-02 0.  1.
</event>
<event>
 5   0  0.6214547E-05  0.1968094E+04  0.7818609E-02  0.8621685E-01
       -1   -1    0    0    0  501  0.00000000000E+00  0.00000000000E+00  0.11774082980E+04  0.11774082980E+04  0.50400001928E-02 0.  1.
        1   -1    0    0  501    0  0.00000000000E+00  0.00000000000E+00 -0.82244078494E+03  0.82244078496E+03  0.50400001928E-02 0. -1.
    10030    2    1    2    0    0  0.00000000000E+00  0.00000000000E+00  0.35496751308E+03  0.19998490830E+04  0.19680941084E+04 0.  0.
        3    1    3    3  502    0  0.71797621517E+03 -0.60265534119E+03  0.48175684159E+03  0.10539321470E+04  0.10100000352E+00 0.  1.
       -3    1    3    3    0  502 -0.71797621517E+03  0.60265534119E+03 -0.12678932851E+03  0.94591693601E+03  0.10100000352E+00 0. -1.
</event>
<event>
 5   0  0.1244229E-04  0.2009832E+04  0.7818609E-02  0.8602038E-01
        2   -1    0    0  501    0  0.00000000000E+00  0.00000000000E+00  0.11295356830E+04  0.11295356830E+04  0.25500000920E-02 0. -1.
       -2   -1    0    0    0  501  0.00000000000E+00  0.00000000000E+00 -0.89404496287E+03  0.89404496287E+03  0.25500000920E-02 0.  1.
    10030    2    1    2    0    0  0.00000000000E+00  0.00000000000E+00  0.23549072013E+03  0.20235806459E+04  0.20098315231E+04 0.  0.
        5    1    3    3  502    0 -0.66216439957E+03  0.63853285129E+03 -0.28955596320E+03  0.96439133139E+03  0.46999998093E+01 0.  1.
       -5    1    3    3    0  502  0.66216439957E+03 -0.63853285129E+03  0.52504668333E+03  0.10591893145E+04  0.46999998093E+01 0. -1.
</event>
<event>
 5   0  0.1281789E-04  0.1995702E+04  0.7818609E-02  0.8608633E-01
       -2   -1    0    0    0  501  0.00000000000E+00  0.00000000000E+00  0.12917326503E+04  0.12917326503E+04  0.25500000920E-02 0. -1.
        2   -1    0    0  501    0  0.00000000000E+00  0.00000000000E+00 -0.77082998212E+03  0.77082998213E+03  0.25500000920E-02 0.  1.
    10030    2    1    2    0    0  0.00000000000E+00  0.00000000000E+00  0.52090266817E+03  0.20625626324E+04  0.19957016368E+04 0.  0.
        2    1    3    3  502    0  0.46455586538E+03 -0.87685116389E+03  0.36897470724E+03  0.10586890243E+04  0.25500000920E-02 0.  1.
       -2    1    3    3    0  502 -0.46455586538E+03  0.87685116389E+03  0.15192796092E+03  0.10038736081E+04  0.25500000920E-02 0. -1.
</event>
<event>
 5   0  0.6168338E-05  0.1986658E+04  0.7818609E-02  0.8612884E-01
       -1   -1    0    0    0  501  0.00000000000E+00  0.00000000000E+00  0.90406210726E+03  0.90406210727E+03  0.50400001928E-02 0. -1.
        1   -1    0    0  501    0  0.00000000000E+00  0.00000000000E+00 -0.10914105698E+04  0.10914105698E+04  0.50400001928E-02 0.  1.
    10030    2    1    2    0    0  0.00000000000E+00  0.00000000000E+00 -0.18734846250E+03  0.19954726770E+04  0.19866584403E+04 0.  0.
        5    1    3    3  502    0 -0.36003575090E+03  0.38969867711E+03  0.74980747226E+03  0.91854457503E+03  0.46999998093E+01 0. -1.
       -5    1    3    3    0  502  0.36003575090E+03 -0.38969867711E+03 -0.93715593476E+03  0.10769281020E+04  0.46999998093E+01 0.  1.
</event>
<event>
 5   0  0.1274868E-04  0.2017106E+04  0.7818609E-02  0.8598665E-01
        2   -1    0    0  501    0  0.00000000000E+00  0.00000000000E+00  0.71807731687E+03  0.71807731688E+03  0.25500000920E-02 0. -1.
       -2   -1    0    0    0  501  0.00000000000E+00  0.00000000000E+00 -0.14165314804E+04  0.14165314804E+04  0.25500000920E-02 0.  1.
    10030    2    1    2    0    0  0.00000000000E+00  0.00000000000E+00 -0.69845416351E+03  0.21346087973E+04  0.20171059711E+04 0.  0.
        1    1    3    3  502    0 -0.74933326374E+03 -0.63977496270E+03 -0.12135398413E+03  0.99274323595E+03  0.50400001928E-02 0. -1.
       -1    1    3    3    0  502  0.74933326374E+03  0.63977496270E+03 -0.57710017938E+03  0.11418655613E+04  0.50400001928E-02 0.  1.
</event>
<event>
 5   0  0.1242761E-04  0.1899377E+04  0.7818609E-02  0.8655166E-01
       -2   -1    0    0    0  501  0.00000000000E+00  0.00000000000E+00  0.86198279040E+03  0.86198279041E+03  0.25500000920E-02 0.  1.
        2   -1    0    0  501    0  0.00000000000E+00  0.00000000000E+00 -0.10463185477E+04  0.10463185477E+04  0.25500000920E-02 0. -1.
    10030    2    1    2    0    0  0.00000000000E+00  0.00000000000E+00 -0.18433575727E+03  0.19083013381E+04  0.18993773521E+04 0.  0.
        4    1    3    3  502    0  0.55827308066E+03 -0.49130976980E+03 -0.68558057603E+03  0.10114724226E+04  0.12699999809E+01 0. -1.
       -4    1    3    3    0  502 -0.55827308066E+03  0.49130976980E+03  0.50124481876E+03  0.89682891552E+03  0.12699999809E+01 0.  1.
</event>
<event>
 5   0  0.1274868E-04  0.2012755E+04  0.7818609E-02  0.8600680E-01
        2   -1    0    0  501    0  0.00000000000E+00  0.00000000000E+00  0.12336929105E+04  0.12336929105E+04  0.25500000920E-02 0. -1.
       -2   -1    0    0    0  501  0.00000000000E+00  0.00000000000E+00 -0.82094669044E+03  0.82094669045E+03  0.25500000920E-02 0.  1.
    10030    2    1    2    0    0  0.00000000000E+00  0.00000000000E+00  0.41274622005E+03  0.20546396009E+04  0.20127554366E+04 0.  0.
        1    1    3    3  502    0  0.58735553921E+03 -0.68695901913E+03  0.65818578990E+03  0.11180821783E+04  0.50400001928E-02 0. -1.
       -1    1    3    3    0  502 -0.58735553921E+03  0.68695901913E+03 -0.24543956985E+03  0.93655742263E+03  0.50400001928E-02 0.  1.
</event>
<event>
 5   0  0.1281789E-04  0.1993243E+04  0.7818609E-02  0.8609787E-01
       -2   -1    0    0    0  501  0.00000000000E+00  0.00000000000E+00  0.95454566087E+03  0.95454566087E+03  0.25500000920E-02 0. -1.
        2   -1    0    0  501    0  0.00000000000E+00  0.00000000000E+00 -0.10405515050E+04  0.10405515050E+04  0.25500000920E-02 0.  1.
    10030    2    1    2    0    0  0.00000000000E+00  0.00000000000E+00 -0.86005844114E+02  0.19950971659E+04  0.19932425081E+04 0.  0.
        2    1    3    3  502    0 -0.77220881825E+03  0.23829733020E+03  0.54077371723E+03  0.97238278976E+03  0.25500000920E-02 0. -1.
       -2    1    3    3    0  502  0.77220881825E+03 -0.23829733020E+03 -0.62677956135E+03  0.10227143761E+04  0.25500000920E-02 0.  1.
</event>
<event>
 5   0  0.6222733E-05  0.1938816E+04  0.7818609E-02  0.8635773E-01
        1   -1    0    0  501    0  0.00000000000E+00  0.00000000000E+00  0.12476170741E+04  0.12476170741E+04  0.50400001928E-02 0.  1.
       -1   -1    0    0    0  501  0.00000000000E+00  0.00000000000E+00 -0.75323737324E+03  0.75323737325E+03  0.50400001928E-02 0. -1.
    10030    2    1    2    0    0  0.00000000000E+00  0.00000000000E+00  0.49437970083E+03  0.20008544473E+04  0.19388159353E+04 0.  0.
        2    1    3    3  502    0 -0.49665036926E+03  0.21671456496E+03 -0.58234988583E+03  0.79546098678E+03  0.25500000920E-02 0. -1.
       -2    1    3    3    0  502  0.49665036926E+03 -0.21671456496E+03  0.10767295867E+04  0.12053934606E+04  0.25500000920E-02 0.  1.
</event>
<event>
 5   0  0.6222733E-05  0.1994966E+04  0.7818609E-02  0.8608978E-01
       -1   -1    0    0    0  501  0.00000000000E+00  0.00000000000E+00  0.63310833096E+03  0.63310833098E+03  0.50400001928E-02 0. -1.
        1   -1    0    0  501    0  0.00000000000E+00  0.00000000000E+00 -0.15715674023E+04  0.15715674023E+04  0.50400001928E-02 0.  1.
    10030    2    1    2    0    0  0.00000000000E+00  0.00000000000E+00 -0.93845907132E+03  0.22046757333E+04  0.19949660800E+04 0.  0.
        2    1    3    3  502    0  0.30821453671E+03 -0.76001272235E+03 -0.10966774433E+04  0.13694221239E+04  0.25500000920E-02 0.  1.
       -2    1    3    3    0  502 -0.30821453671E+03  0.76001272235E+03  0.15821837195E+03  0.83525360939E+03  0.25500000920E-02 0. -1.
</event>
<event>
 5   0  0.1274868E-04  0.1955926E+04  0.7818609E-02  0.8627508E-01
       -2   -1    0    0    0  501  0.00000000000E+00  0.00000000000E+00  0.46688932825E+03  0.46688932826E+03  0.25500000920E-02 0.  1.
        2   -1    0    0  501    0  0.00000000000E+00  0.00000000000E+00 -0.20484766884E+04  0.20484766884E+04  0.25500000920E-02 0. -1.
    10030    2    1    2    0    0  0.00000000000E+00  0.00000000000E+00 -0.15815873601E+04  0.25153660166E+04  0.19559262818E+04 0.  0.
        1    1    3    3  502    0 -0.84257626891E+03  0.32529066030E+03 -0.12731176367E+04  0.15609539710E+04  0.50400001928E-02 0. -1.
       -1    1    3    3    0  502  0.84257626891E+03 -0.32529066030E+03 -0.30846972343E+03  0.95441204566E+03  0.50400001928E-02 0.  1.
</event>
<event>
 5   0  0.6256535E-05  0.1999422E+04  0.7818609E-02  0.8606891E-01
       -1   -1    0    0    0  501  0.00000000000E+00  0.00000000000E+00  0.57266475995E+03  0.57266475997E+03  0.50400001928E-02 0. -1.
        1   -1    0    0  501    0  0.00000000000E+00  0.00000000000E+00 -0.17452137728E+04  0.17452137728E+04  0.50400001928E-02 0.  1.
    10030    2    1    2    0    0  0.00000000000E+00  0.00000000000E+00 -0.11725490128E+04  0.23178785328E+04  0.19994223429E+04 0.  0.
        1    1    3    3  502    0 -0.20469914631E+03 -0.71605576306E+03 -0.13594197984E+04  0.15500515426E+04  0.50400001928E-02 0.  1.
       -1    1    3    3    0  502  0.20469914631E+03  0.71605576306E+03  0.18687078558E+03  0.76782699018E+03  0.50400001928E-02 0. -1.
</event>
<event>
 5   0  0.6168338E-05  0.2003171E+04  0.7818609E-02  0.8605140E-01
       -1   -1    0    0    0  501  0.00000000000E+00  0.00000000000E+00  0.14215098488E+04  0.14215098488E+04  0.50400001928E-02 0. -1.
        1   -1    0    0  501    0  0.00000000000E+00  0.00000000000E+00 -0.70570952329E+03  0.70570952331E+03  0.50400001928E-02 0.  1.
    10030    2    1    2    0    0  0.00000000000E+00  0.00000000000E+00  0.71580032554E+03  0.21272193721E+04  0.20031705247E+04 0.  0.
        5    1    3    3  502    0  0.62079423827E+03  0.55802746884E+03 -0.22988422615E+03  0.86582272416E+03  0.46999998093E+01 0.  1.
       -5    1    3    3    0  502 -0.62079423827E+03 -0.55802746884E+03  0.94568455169E+03  0.12613966480E+04  0.46999998093E+01 0. -1.
</event>
<event>
 5   0  0.1159914E-04  0.1750073E+04  0.7818609E-02  0.8733310E-01
       -2   -1    0    0    0  501  0.00000000000E+00  0.00000000000E+00  0.44932515489E+03  0.44932515490E+03  0.25500000920E-02 0.  1.
        2   -1    0    0  501    0  0.00000000000E+00  0.00000000000E+00 -0.17040866824E+04  0.17040866824E+04  0.25500000920E-02 0. -1.
    10030    2    1    2    0    0  0.00000000000E+00  0.00000000000E+00 -0.12547615275E+04  0.21534118373E+04  0.17500731556E+04 0.  0.
        3    1    3    3  502    0  0.39644927909E+03 -0.28762326405E+03 -0.15196110959E+04  0.15965954609E+04  0.10100000352E+00 0. -1.
       -3    1    3    3    0  502 -0.39644927909E+03  0.28762326405E+03  0.26484956838E+03  0.55681637636E+03  0.10100000352E+00 0.  1.
</event>
<event>
 5   0  0.6028501E-05  0.1984672E+04  0.7818609E-02  0.8613821E-01
       -1   -1    0    0    0  501  0.00000000000E+00  0.00000000000E+00  0.81988044348E+03  0.81988044350E+03  0.50400001928E-02 0. -1.
        1   -1    0    0  501    0  0.00000000000E+00  0.00000000000E+00 -0.12010664638E+04  0.12010664639E+04  0.50400001928E-02 0.  1.
    10030    2    1    2    0    0  0.00000000000E+00  0.00000000000E+00 -0.38118602036E+03  0.20209469073E+04  0.19846721695E+04 0.  0.
        4    1    3    3  502    0 -0.28941827786E+02 -0.77736476800E+03 -0.81796735519E+03  0.11288072550E+04  0.12699999809E+01 0.  1.
       -4    1    3    3    0  502  0.28941827786E+02  0.77736476800E+03  0.43678133483E+03  0.89213965234E+03  0.12699999809E+01 0. -1.
</event>
<event>
 5   0  0.1281789E-04  0.1996103E+04  0.7818609E-02  0.8608445E-01
       -2   -1    0    0    0  501  0.00000000000E+00  0.00000000000E+00  0.66015235627E+03  0.66015235628E+03  0.25500000920E-02 0. -1.
        2   -1    0    0  501    0  0.00000000000E+00  0.00000000000E+00 -0.15089044224E+04  0.15089044224E+04  0.25500000920E-02 0.  1.
    10030    2    1    2    0    0  0.00000000000E+00  0.00000000000E+00 -0.84875206609E+03  0.21690567786E+04  0.19961030132E+04 0.  0.
        2    1    3    3  502    0  0.80685222749E+02 -0.37188759166E+03 -0.14269775313E+04  0.14768464243E+04  0.25500000920E-02 0.  1.
       -2    1    3    3    0  502 -0.80685222749E+02  0.37188759166E+03  0.57822546525E+03  0.69221035435E+03  0.25500000920E-02 0. -1.
</event>
<event>
 5   0  0.6028501E-05  0.1943188E+04  0.7818609E-02  0.8633652E-01
       -1   -1    0    0    0  501  0.00000000000E+00  0.00000000000E+00  0.11744984355E+04  0.11744984355E+04  0.50400001928E-02 0. -1.
        1   -1    0    0  501    0  0.00000000000E+00  0.00000000000E+00 -0.80374331870E+03  0.80374331872E+03  0.50400001928E-02 0.  1.
    10030    2    1    2    0    0  0.00000000000E+00  0.00000000000E+00  0.37075511679E+03  0.19782417542E+04  0.19431883803E+04 0.  0.
        4    1    3    3  502    0 -0.34596957631E+03 -0.59255324843E+03  0.88566663875E+03  0.11203665953E+04  0.12699999809E+01 0. -1.
       -4    1    3    3    0  502  0.34596957631E+03  0.59255324843E+03 -0.51491152196E+03  0.85787515893E+03  0.12699999809E+01 0.  1.
</event>
<event>
 5   0  0.6256535E-05  0.2002980E+04  0.7818609E-02  0.8605229E-01
       -1   -1    0    0    0  501  0.00000000000E+00  0.00000000000E+00  0.60130418624E+03  0.60130418626E+03  0.50400001928E-02 0.  1.
        1   -1    0    0  501    0  0.00000000000E+00  0.00000000000E+00 -0.16680113591E+04  0.16680113591E+04  0.50400001928E-02 0. -1.
    10030    2    1    2    0    0  0.00000000000E+00  0.00000000000E+00 -0.10667071729E+04  0.22693155454E+04  0.20029799929E+04 0.  0.
        1    1    3    3  502    0  0.34717716188E+03 -0.91799218239E+03 -0.75921154630E+03  0.12408238395E+04  0.50400001928E-02 0. -1.
       -1    1    3    3    0  502 -0.34717716188E+03  0.91799218239E+03 -0.30749562658E+03  0.10284917059E+04  0.50400001928E-02 0.  1.
</event>
<event>
 5   0  0.1244229E-04  0.2007201E+04  0.7818609E-02  0.8603261E-01
       -2   -1    0    0    0  501  0.00000000000E+00  0.00000000000E+00  0.61062206306E+03  0.61062206306E+03  0.25500000920E-02 0.  1.
        2   -1    0    0  501    0  0.00000000000E+00  0.00000000000E+00 -0.16494880515E+04  0.16494880515E+04  0.25500000920E-02 0. -1.
    10030    2    1    2    0    0  0.00000000000E+00  0.00000000000E+00 -0.10388659884E+04  0.22601101145E+04  0.20072008340E+04 0.  0.
        5    1    3    3  502    0 -0.66491839972E+03 -0.64077936454E+03 -0.76874447572E+02  0.92663177314E+03  0.46999998093E+01 0.  1.
       -5    1    3    3    0  502  0.66491839972E+03  0.64077936454E+03 -0.96199154086E+03  0.13334783414E+04  0.46999998093E+01 0. -1.
</event>
<event>
 5   0  0.6214547E-05  0.1973492E+04  0.7818609E-02  0.8619115E-01
       -1   -1    0    0    0  501  0.00000000000E+00  0.00000000000E+00  0.11190586363E+04  0.11190586363E+04  0.50400001928E-02 0.  1.
        1   -1    0    0  501    0  0.00000000000E+00  0.00000000000E+00 -0.87007713068E+03  0.87007713070E+03  0.50400001928E-02 0. -1.
    10030    2    1    2    0    0  0.00000000000E+00  0.00000000000E+00  0.24898150558E+03  0.19891357670E+04  0.19734916542E+04 0.  0.
        3    1    3    3  502    0  0.87313930184E+03 -0.89760160928E+02 -0.32990241418E+03  0.93769117516E+03  0.10100000352E+00 0. -1.
       -3    1    3    3    0  502 -0.87313930184E+03  0.89760160928E+02  0.57888391976E+03  0.10514445918E+04  0.10100000352E+00 0.  1.
</event>
<event>
 5   0  0.6168338E-05  0.1987281E+04  0.7818609E-02  0.8612590E-01
       -1   -1    0    0    0  501  0.00000000000E+00  0.00000000000E+00  0.98927539132E+03  0.98927539133E+03  0.50400001928E-02 0.  1.
        1   -1    0    0  501    0  0.00000000000E+00  0.00000000000E+00 -0.99802494881E+03  0.99802494882E+03  0.50400001928E-02 0. -1.
    10030    2    1    2    0    0  0.00000000000E+00  0.00000000000E+00 -0.87495574931E+01  0.19873003402E+04  0.19872810791E+04 0.  0.
        5    1    3    3  502    0 -0.16907992016E+03  0.81423729410E+03 -0.54818979679E+03  0.99604444369E+03  0.46999998093E+01 0. -1.
       -5    1    3    3    0  502  0.16907992016E+03 -0.81423729410E+03  0.53944023930E+03  0.99125589646E+03  0.46999998093E+01 0.  1.
</event>
<event>
 5   0  0.1281789E-04  0.2012157E+04  0.7818609E-02  0.8600958E-01
        2   -1    0    0  501    0  0.00000000000E+00  0.00000000000E+00  0.11136122648E+04  0.11136122648E+04  0.25500000920E-02 0.  1.
       -2   -1    0    0    0  501  0.00000000000E+00  0.00000000000E+00 -0.90892896944E+03  0.90892896944E+03  0.25500000920E-02 0. -1.
    10030    2    1    2    0    0  0.00000000000E+00  0.00000000000E+00  0.20468329540E+03  0.20225412343E+04  0.20121574971E+04 0.  0.
        2    1    3    3  502    0  0.49633197051E+03 -0.64746063519E+03  0.69414456266E+03  0.10711616932E+04  0.25500000920E-02 0.  1.
       -2    1    3    3    0  502 -0.49633197051E+03  0.64746063519E+03 -0.48946126726E+03  0.95137954110E+03  0.25500000920E-02 0. -1.
</event>
<event>
 5   0  0.1242761E-04  0.2003445E+04  0.7818609E-02  0.8605012E-01
       -2   -1    0    0    0  501  0.00000000000E+00  0.00000000000E+00  0.84960181182E+03  0.84960181182E+03  0.25500000920E-02 0. -1.
        2   -1    0    0  501    0  0.00000000000E+00  0.00000000000E+00 -0.11810797494E+04  0.11810797494E+04  0.25500000920E-02 0.  1.
    10030    2    1    2    0    0  0.00000000000E+00  0.00000000000E+00 -0.33147793760E+03  0.20306815612E+04  0.20034445288E+04 0.  0.
        4    1    3    3  502    0 -0.69088477773E+02 -0.48162904868E+03 -0.10532606459E+04  0.11602152212E+04  0.12699999809E+01 0.  1.
       -4    1    3    3    0  502  0.69088477773E+02  0.48162904868E+03  0.72178270831E+03  0.87046634008E+03  0.12699999809E+01 0. -1.
</event>
<event>
 5   0  0.6214547E-05  0.2000106E+04  0.7818609E-02  0.8606571E-01
       -1   -1    0    0    0  501  0.00000000000E+00  0.00000000000E+00  0.89681065708E+03  0.89681065710E+03  0.50400001928E-02 0.  1.
        1   -1    0    0  501    0  0.00000000000E+00  0.00000000000E+00 -0.11151805155E+04  0.11151805155E+04  0.50400001928E-02 0. -1.
    10030    2    1    2    0    0  0.00000000000E+00  0.00000000000E+00 -0.21836985840E+03  0.20119911726E+04  0.20001057681E+04 0.  0.
        3    1    3    3  502    0 -0.98456502105E+02 -0.59886841718E+03  0.69037709792E+03  0.91921575892E+03  0.10100000352E+00 0.  1.
       -3    1    3    3    0  502  0.98456502105E+02  0.59886841718E+03 -0.90874695632E+03  0.10927754137E+04  0.10100000352E+00 0. -1.
</event>
<event>
 5   0  0.1281789E-04  0.2015052E+04  0.7818609E-02  0.8599615E-01
        2   -1    0    0  501    0  0.00000000000E+00  0.00000000000E+00  0.13641962706E+04  0.13641962706E+04  0.25500000920E-02 0. -1.
       -2   -1    0    0    0  501  0.00000000000E+00  0.00000000000E+00 -0.74410777722E+03  0.74410777722E+03  0.25500000920E-02 0.  1.
    10030    2    1    2    0    0  0.00000000000E+00  0.00000000000E+00  0.62008849335E+03  0.21083040478E+04  0.20150524108E+04 0.  0.
        2    1    3    3  502    0 -0.74704647310E+02  0.32227595299E+03 -0.68566156794E+03  0.76129781292E+03  0.25500000920E-02 0.  1.
       -2    1    3    3    0  502  0.74704647310E+02 -0.32227595299E+03  0.13057500613E+04  0.13470062349E+04  0.25500000920E-02 0. -1.
</event>
<event>
 5   0  0.1242761E-04  0.1998210E+04  0.7818609E-02  0.8607458E-01
        2   -1    0    0  501    0  0.00000000000E+00  0.00000000000E+00  0.52965894744E+03  0.52965894745E+03  0.25500000920E-02 0. -1.
       -2   -1    0    0    0  501  0.00000000000E+00  0.00000000000E+00 -0.18846284738E+04  0.18846284738E+04  0.25500000920E-02 0.  1.
    10030    2    1    2    0    0  0.00000000000E+00  0.00000000000E+00 -0.13549695264E+04  0.24142874213E+04  0.19982095323E+04 0.  0.
        4    1    3    3  502    0 -0.46045628766E+03 -0.66968023683E+03 -0.13796259941E+04  0.16012061420E+04  0.12699999809E+01 0.  1.
       -4    1    3    3    0  502  0.46045628766E+03  0.66968023683E+03  0.24656467772E+02  0.81308127930E+03  0.12699999809E+01 0. -1.
</event>
<event>
 5   0  0.1159914E-04  0.2007714E+04  0.7818609E-02  0.8603023E-01
       -2   -1    0    0    0  501  0.00000000000E+00  0.00000000000E+00  0.10314364829E+04  0.10314364829E+04  0.25500000920E-02 0.  1.
        2   -1    0    0  501    0  0.00000000000E+00  0.00000000000E+00 -0.97701511450E+03  0.97701511451E+03  0.25500000920E-02 0. -1.
    10030    2    1    2    0    0  0.00000000000E+00  0.00000000000E+00  0.54421368354E+02  0.20084515974E+04  0.20077141564E+04 0.  0.
        3    1    3    3  502    0 -0.91135616986E+02  0.27597900882E+03  0.98842723978E+03  0.10302710966E+04  0.10100000352E+00 0.  1.
       -3    1    3    3    0  502  0.91135616986E+02 -0.27597900882E+03 -0.93400587142E+03  0.97818050075E+03  0.10100000352E+00 0. -1.
</event>
<event>
 5   0  0.6168338E-05  0.1966376E+04  0.7818609E-02  0.8622504E-01
        1   -1    0    0  501    0  0.00000000000E+00  0.00000000000E+00  0.16192573954E+04  0.16192573954E+04  0.50400001928E-02 0.  1.
       -1   -1    0    0    0  501  0.00000000000E+00  0.00000000000E+00 -0.59697652678E+03  0.59697652680E+03  0.50400001928E-02 0. -1.
    10030    2    1    2    0    0  0.00000000000E+00  0.00000000000E+00  0.10222808686E+04  0.22162339222E+04  0.19663760128E+04 0.  0.
        5    1    3    3  502    0  0.74157803693E+02 -0.49688581686E+03 -0.44137412489E+03  0.66875115175E+03  0.46999998093E+01 0. -1.
       -5    1    3    3    0  502 -0.74157803693E+02  0.49688581686E+03  0.14636549935E+04  0.15474827705E+04  0.46999998093E+01 0.  1.
</event>
<event>
 5   0  0.1281789E-04  0.1949418E+04  0.7818609E-02  0.8630641E-01
       -2   -1    0    0    0  501  0.00000000000E+00  0.00000000000E+00  0.11372686273E+04  0.11372686273E+04  0.25500000920E-02 0.  1.
        2   -1    0    0  501    0  0.00000000000E+00  0.00000000000E+00 -0.83538543922E+03  0.83538543923E+03  0.25500000920E-02 0. -1.
    10030    2    1    2    0    0  0.00000000000E+00  0.00000000000E+00  0.30188318810E+03  0.19726540666E+04  0.19494180175E+04 0.  0.
        2    1    3    3  502    0  0.82684076303E+03 -0.51611500262E+03  0.15515152065E+03  0.98697129528E+03  0.25500000920E-02 0.  1.
       -2    1    3    3    0  502 -0.82684076303E+03  0.51611500262E+03  0.14673166745E+03  0.98568277127E+03  0.25500000920E-02 0. -1.
</event>
<event>
 5   0  0.4479000E-05  0.2050056E+04  0.7818609E-02  0.8583569E-01
       -3   -1    0    0    0  501  0.00000000000E+00  0.00000000000E+00  0.13668392007E+04  0.13668392045E+04  0.10100000352E+00 0. -1.
        3   -1    0    0  501    0  0.00000000000E+00  0.00000000000E+00 -0.76869458781E+03  0.76869459444E+03  0.10100000352E+00 0.  1.
    10030    2    1    2    0    0  0.00000000000E+00  0.00000000000E+00  0.59814461293E+03  0.21355337989E+04  0.20500555183E+04 0.  0.
        1    1    3    3  502    0 -0.12579071433E+03  0.96007482047E+03  0.64942125309E+03  0.11658966201E+04  0.50400001928E-02 0. -1.
       -1    1    3    3    0  502  0.12579071433E+03 -0.96007482047E+03 -0.51276640162E+02  0.96963717883E+03  0.50400001928E-02 0.  1.
</event>
<event>
 5   0  0.6028501E-05  0.1975032E+04  0.7818609E-02  0.8618384E-01
        1   -1    0    0  501    0  0.00000000000E+00  0.00000000000E+00  0.17339913758E+04  0.17339913758E+04  0.50400001928E-02 0.  1.
       -1   -1    0    0    0  501  0.00000000000E+00  0.00000000000E+00 -0.56239461897E+03  0.56239461899E+03  0.50400001928E-02 0. -1.
    10030    2    1    2    0    0  0.00000000000E+00  0.00000000000E+00  0.11715967569E+04  0.22963859948E+04  0.19750315634E+04 0.  0.
        4    1    3    3  502    0  0.42065132705E+03  0.13687616635E+03 -0.44075088387E+03  0.62445622617E+03  0.12699999809E+01 0. -1.
       -4    1    3    3    0  502 -0.42065132705E+03 -0.13687616635E+03  0.16123476407E+04  0.16719297687E+04  0.12699999809E+01 0.  1.
</event>
<event>
 5   0  0.1281789E-04  0.1962201E+04  0.7818609E-02  0.8624500E-01
        2   -1    0    0  501    0  0.00000000000E+00  0.00000000000E+00  0.16561457284E+04  0.16561457284E+04  0.25500000920E-02 0. -1.
       -2   -1    0    0    0  501  0.00000000000E+00  0.00000000000E+00 -0.58120375006E+03  0.58120375007E+03  0.25500000920E-02 0.  1.
    10030    2    1    2    0    0  0.00000000000E+00  0.00000000000E+00  0.10749419783E+04  0.22373494785E+04  0.19622009153E+04 0.  0.
        2    1    3    3  502    0 -0.70636991120E+03  0.43662767307E+03 -0.58241384951E+02  0.83246275308E+03  0.25500000920E-02 0.  1.
       -2    1    3    3    0  502  0.70636991120E+03 -0.43662767307E+03  0.11331833633E+04  0.14048867254E+04  0.25500000920E-02 0. -1.
</event>
<event>
 5   0  0.6168338E-05  0.1991207E+04  0.7818609E-02  0.8610743E-01
        1   -1    0    0  501    0  0.00000000000E+00  0.00000000000E+00  0.66565059936E+03  0.66565059938E+03  0.50400001928E-02 0. -1.
       -1   -1    0    0    0  501  0.00000000000E+00  0.00000000000E+00 -0.14891089173E+04  0.14891089173E+04  0.50400001928E-02 0.  1.
    10030    2    1    2    0    0  0.00000000000E+00  0.00000000000E+00 -0.82345831793E+03  0.21547595167E+04  0.19912069137E+04 0.  0.
        5    1    3    3  502    0 -0.34309510924E+03  0.85806367156E+03 -0.81258276812E+03  0.12305691218E+04  0.46999998093E+01 0. -1.
       -5    1    3    3    0  502  0.34309510924E+03 -0.85806367156E+03 -0.10875549812E+02  0.92419039490E+03  0.46999998093E+01 0.  1.
</event>
<event>
 5   0  0.6168338E-05  0.2014664E+04  0.7818609E-02  0.8599795E-01
        1   -1    0    0  501    0  0.00000000000E+00  0.00000000000E+00  0.16178255125E+04  0.16178255126E+04  0.50400001928E-02 0.  1.
       -1   -1    0    0    0  501  0.00000000000E+00  0.00000000000E+00 -0.62721091013E+03  0.62721091015E+03  0.50400001928E-02 0. -1.
    10030    2    1    2    0    0  0.00000000000E+00  0.00000000000E+00  0.99061460242E+03  0.22450364227E+04  0.20146640536E+04 0.  0.
        5    1    3    3  502    0  0.45258624564E+03  0.10220524832E+03 -0.50103148184E+03  0.68288714904E+03  0.46999998093E+01 0. -1.
       -5    1    3    3    0  502 -0.45258624564E+03 -0.10220524832E+03  0.14916460843E+04  0.15621492737E+04  0.46999998093E+01 0.  1.
</event>
<event>
 5   0  0.6214547E-05  0.1997540E+04  0.7818609E-02  0.8607772E-01
       -1   -1    0    0    0  501  0.00000000000E+00  0.00000000000E+00  0.66593425234E+03  0.66593425236E+03  0.50400001928E-02 0. -1.
        1   -1    0    0  501    0  0.00000000000E+00  0.00000000000E+00 -0.14979581736E+04  0.14979581736E+04  0.50400001928E-02 0.  1.
    10030    2    1    2    0    0  0.00000000000E+00  0.00000000000E+00 -0.83202392121E+03  0.21638924259E+04  0.19975401437E+04 0.  0.
        3    1    3    3  502    0  0.76834773702E+03  0.26753427478E+03  0.21155031522E+03  0.84064640560E+03  0.10100000352E+00 0. -1.
       -3    1    3    3    0  502 -0.76834773702E+03 -0.26753427478E+03 -0.10435742364E+04  0.13232460203E+04  0.10100000352E+00 0.  1.
</event>
<event>
 5   0  0.6222733E-05  0.2007262E+04  0.7818609E-02  0.8603233E-01
       -1   -1    0    0    0  501  0.00000000000E+00  0.00000000000E+00  0.12038669250E+04  0.12038669250E+04  0.50400001928E-02 0.  1.
        1   -1    0    0  501    0  0.00000000000E+00  0.00000000000E+00 -0.83669948978E+03  0.83669948980E+03  0.50400001928E-02 0. -1.
    10030    2    1    2    0    0  0.00000000000E+00  0.00000000000E+00  0.36716743519E+03  0.20405664148E+04  0.20072616590E+04 0.  0.
        2    1    3    3  502    0 -0.49808070071E+03  0.58119491997E+03 -0.47634270433E+03  0.90153995552E+03  0.25500000920E-02 0. -1.
       -2    1    3    3    0  502  0.49808070071E+03 -0.58119491997E+03  0.84351013953E+03  0.11390264593E+04  0.25500000920E-02 0.  1.
</event>
<event>
 5   0  0.1244229E-04  0.1994112E+04  0.7818609E-02  0.8609379E-01
       -2   -1    0    0    0  501  0.00000000000E+00  0.00000000000E+00  0.62415475676E+03  0.62415475676E+03  0.25500000920E-02 0. -1.
        2   -1    0    0  501    0  0.00000000000E+00  0.00000000000E+00 -0.15927466226E+04  0.15927466226E+04  0.25500000920E-02 0.  1.
    10030    2    1    2    0    0  0.00000000000E+00  0.00000000000E+00 -0.96859186588E+03  0.22169013794E+04  0.19941117128E+04 0.  0.
        5    1    3    3  502    0  0.55744238719E+02  0.57296970235E+03  0.42071589961E+03  0.71303973111E+03  0.46999998093E+01 0. -1.
       -5    1    3    3    0  502 -0.55744238719E+02 -0.57296970235E+03 -0.13893077655E+04  0.15038616483E+04  0.46999998093E+01 0.  1.
</event>
<event>
 5   0  0.6028501E-05  0.2018117E+04  0.7818609E-02  0.8598197E-01
       -1   -1    0    0    0  501  0.00000000000E+00  0.00000000000E+00  0.19833787080E+04  0.19833787080E+04  0.50400001928E-02 0. -1.
        1   -1    0    0  501    0  0.00000000000E+00  0.00000000000E+00 -0.51336573551E+03  0.51336573554E+03  0.50400001928E-02 0.  1.
    10030    2    1    2    0    0  0.00000000000E+00  0.00000000000E+00  0.14700129725E+04  0.24967444435E+04  0.20181166163E+04 0.  0.
        4    1    3    3  502    0  0.31155039453E+02 -0.79152371388E+03  0.15083256669E+04  0.17036808259E+04  0.12699999809E+01 0. -1.
       -4    1    3    3    0  502 -0.31155039453E+02  0.79152371388E+03 -0.38312694472E+02  0.79306361761E+03  0.12699999809E+01 0.  1.
</event>
<event>
 5   0  0.6168338E-05  0.1991537E+04  0.7818609E-02  0.8610588E-01
       -1   -1    0    0    0  501  0.00000000000E+00  0.00000000000E+00  0.88501963597E+03  0.88501963598E+03  0.50400001928E-02 0. -1.
        1   -1    0    0  501    0  0.00000000000E+00  0.00000000000E+00 -0.11203762164E+04  0.11203762164E+04  0.50400001928E-02 0.  1.
    10030    2    1    2    0    0  0.00000000000E+00  0.00000000000E+00 -0.23535658039E+03  0.20053958524E+04  0.19915370458E+04 0.  0.
        5    1    3    3  502    0 -0.86855588487E+03  0.19860917313E+03  0.33004819589E+03  0.95015200384E+03  0.46999998093E+01 0. -1.
       -5    1    3    3    0  502  0.86855588487E+03 -0.19860917313E+03 -0.56540477628E+03  0.10552438485E+04  0.46999998093E+01 0.  1.
</event>
<event>
 5   0  0.1281789E-04  0.2012976E+04  0.7818609E-02  0.8600578E-01
        2   -1    0    0  501    0  0.00000000000E+00  0.00000000000E+00  0.95721403331E+03  0.95721403332E+03  0.25500000920E-02 0.  1.
       -2   -1    0    0    0  501  0.00000000000E+00  0.00000000000E+00 -0.10582988003E+04  0.10582988003E+04  0.25500000920E-02 0. -1.
    10030    2    1    2    0    0  0.00000000000E+00  0.00000000000E+00 -0.10108476701E+03  0.20155128336E+04  0.20129763666E+04 0.  0.
        2    1    3    3  502    0  0.15784217095E+03  0.14039574417E+03 -0.10358521563E+04  0.10571730254E+04  0.25500000920E-02 0. -1.
       -2    1    3    3    0  502 -0.15784217095E+03 -0.14039574417E+03  0.93476738931E+03  0.95833980823E+03  0.25500000920E-02 0.  1.
</event>
<event>
 5   0  0.6222733E-05  0.2002308E+04  0.7818609E-02  0.8605542E-01
       -1   -1    0    0    0  501  0.00000000000E+00  0.00000000000E+00  0.13050344726E+04  0.13050344726E+04  0.50400001928E-02 0.  1.
        1   -1    0    0  501    0  0.00000000000E+00  0.00000000000E+00 -0.76803303550E+03  0.76803303551E+03  0.50400001928E-02 0. -1.
    10030    2    1    2    0    0  0.00000000000E+00  0.00000000000E+00  0.53700143712E+03  0.20730675081E+04  0.20023082554E+04 0.  0.
        2    1    3    3  502    0  0.93500433216E+03  0.32933271987E+03  0.41350895459E+03  0.10740962699E+04  0.25500000920E-02 0.  1.
       -2    1    3    3    0  502 -0.93500433216E+03 -0.32933271987E+03  0.12349248253E+03  0.99897123821E+03  0.25500000920E-02 0. -1.
</event>
<event>
 5   0  0.1244229E-04  0.2007593E+04  0.7818609E-02  0.8603079E-01
        2   -1    0    0  501    0  0.00000000000E+00  0.00000000000E+00  0.95945623927E+03  0.95945623927E+03  0.25500000920E-02 0.  1.
       -2   -1    0    0    0  501  0.00000000000E+00  0.00000000000E+00 -0.10501857446E+04  0.10501857446E+04  0.25500000920E-02 0. -1.
    10030    2    1    2    0    0  0.00000000000E+00  0.00000000000E+00 -0.90729505280E+02  0.20096419838E+04  0.20075928522E+04 0.  0.
        5    1    3    3  502    0  0.52122800551E+03 -0.63020873429E+03 -0.62797555771E+03  0.10311241795E+04  0.46999998093E+01 0. -1.
       -5    1    3    3    0  502 -0.52122800551E+03  0.63020873429E+03  0.53724605243E+03  0.97851780431E+03  0.46999998093E+01 0.  1.
</event>
<event>
 5   0  0.6256535E-05  0.2027792E+04  0.7818609E-02  0.8593736E-01
        1   -1    0    0  501    0  0.00000000000E+00  0.00000000000E+00  0.89284254441E+03  0.89284254442E+03  0.50400001928E-02 0. -1.
       -1   -1    0    0    0  501  0.00000000000E+00  0.00000000000E+00 -0.11513622195E+04  0.11513622195E+04  0.50400001928E-02 0.  1.
    10030    2    1    2    0    0  0.00000000000E+00  0.00000000000E+00 -0.25851967506E+03  0.20442047639E+04  0.20277920737E+04 0.  0.
        1    1    3    3  502    0  0.30760231240E+03 -0.95939396803E+03 -0.14632847879E+02  0.10076061179E+04  0.50400001928E-02 0. -1.
       -1    1    3    3    0  502 -0.30760231240E+03  0.95939396803E+03 -0.24388682718E+03  0.10365986460E+04  0.50400001928E-02 0.  1.
</event>
<event>
 5   0  0.1159914E-04  0.2041211E+04  0.7818609E-02  0.8587592E-01
        2   -1    0    0  501    0  0.00000000000E+00  0.00000000000E+00  0.17095054973E+04  0.17095054973E+04  0.25500000920E-02 0.  1.
       -2   -1    0    0    0  501  0.00000000000E+00  0.00000000000E+00 -0.60931964114E+03  0.60931964115E+03  0.25500000920E-02 0. -1.
    10030    2    1    2    0    0  0.00000000000E+00  0.00000000000E+00  0.11001858562E+04  0.23188251385E+04  0.20412106958E+04 0.  0.
        3    1    3    3  502    0  0.99090712563E+03 -0.19011562527E+03  0.37559732815E+03  0.10766216818E+04  0.10100000352E+00 0. -1.
       -3    1    3    3    0  502 -0.99090712563E+03  0.19011562527E+03  0.72458852801E+03  0.12422034567E+04  0.10100000352E+00 0.  1.
</event>
<event>
 5   0  0.1244229E-04  0.1997597E+04  0.7818609E-02  0.8607745E-01
       -2   -1    0    0    0  501  0.00000000000E+00  0.00000000000E+00  0.55029847000E+03  0.55029847001E+03  0.25500000920E-02 0.  1.
        2   -1    0    0  501    0  0.00000000000E+00  0.00000000000E+00 -0.18128320774E+04  0.18128320774E+04  0.25500000920E-02 0. -1.
    10030    2    1    2    0    0  0.00000000000E+00  0.00000000000E+00 -0.12625336074E+04  0.23631305474E+04  0.19975972753E+04 0.  0.
        5    1    3    3  502    0  0.17345081957E+03 -0.86761905082E+03 -0.11794487749E+04  0.14744387091E+04  0.46999998093E+01 0. -1.
       -5    1    3    3    0  502 -0.17345081957E+03  0.86761905082E+03 -0.83084832481E+02  0.88869183835E+03  0.46999998093E+01 0.  1.
</event>
<event>
 5   0  0.6256535E-05  0.2038831E+04  0.7818609E-02  0.8588678E-01
       -1   -1    0    0    0  501  0.00000000000E+00  0.00000000000E+00  0.89991216759E+03  0.89991216760E+03  0.50400001928E-02 0.  1.
        1   -1    0    0  501    0  0.00000000000E+00  0.00000000000E+00 -0.11547883490E+04  0.11547883490E+04  0.50400001928E-02 0. -1.
    10030    2    1    2    0    0  0.00000000000E+00  0.00000000000E+00 -0.25487618142E+03  0.20547005166E+04  0.20388311223E+04 0.  0.
        1    1    3    3  502    0 -0.30859088196E+02 -0.53492214667E+03  0.74655729750E+03  0.91893513634E+03  0.50400001928E-02 0.  1.
       -1    1    3    3    0  502  0.30859088196E+02  0.53492214667E+03 -0.10014334789E+04  0.11357653803E+04  0.50400001928E-02 0. -1.
</event>
<event>
 5   0  0.1281789E-04  0.2048133E+04  0.7818609E-02  0.8584442E-01
        2   -1    0    0  501    0  0.00000000000E+00  0.00000000000E+00  0.13208703543E+04  0.13208703543E+04  0.25500000920E-02 0.  1.
       -2   -1    0    0    0  501  0.00000000000E+00  0.00000000000E+00 -0.79395551912E+03  0.79395551912E+03  0.25500000920E-02 0. -1.
    10030    2    1    2    0    0  0.00000000000E+00  0.00000000000E+00  0.52691483513E+03  0.21148258734E+04  0.20481331088E+04 0.  0.
        2    1    3    3  502    0 -0.68019264789E+03  0.62588236413E+03 -0.19171601363E+03  0.94400519165E+03  0.25500000920E-02 0. -1.
       -2    1    3    3    0  502  0.68019264789E+03 -0.62588236413E+03  0.71863084876E+03  0.11708206817E+04  0.25500000920E-02 0.  1.
</event>
<event>
 5   0  0.1244229E-04  0.1993407E+04  0.7818609E-02  0.8609709E-01
       -2   -1    0    0    0  501  0.00000000000E+00  0.00000000000E+00  0.68468860023E+03  0.68468860024E+03  0.25500000920E-02 0.  1.
        2   -1    0    0  501    0  0.00000000000E+00  0.00000000000E+00 -0.14509048917E+04  0.14509048917E+04  0.25500000920E-02 0. -1.
    10030    2    1    2    0    0  0.00000000000E+00  0.00000000000E+00 -0.76621629145E+03  0.21355934919E+04  0.19934071730E+04 0.  0.
        5    1    3    3  502    0 -0.19235937724E+03  0.55793858205E+02 -0.14291113376E+04  0.14430857181E+04  0.46999998093E+01 0. -1.
       -5    1    3    3    0  502  0.19235937724E+03 -0.55793858205E+02  0.66289504612E+03  0.69250777382E+03  0.46999998093E+01 0.  1.
</event>
<event>
 5   0  0.6222733E-05  0.1984881E+04  0.7818609E-02  0.8613722E-01
       -1   -1    0    0    0  501  0.00000000000E+00  0.00000000000E+00  0.53066718487E+03  0.53066718490E+03  0.50400001928E-02 0.  1.
        1   -1    0    0  501    0  0.00000000000E+00  0.00000000000E+00 -0.18560369432E+04  0.18560369432E+04  0.50400001928E-02 0. -1.
    10030    2    1    2    0    0  0.00000000000E+00  0.00000000000E+00 -0.13253697583E+04  0.23867041281E+04  0.19848807518E+04 0.  0.
        2    1    3    3  502    0  0.81664444742E+02  0.44546894415E+03 -0.17245346697E+04  0.17830119149E+04  0.25500000920E-02 0. -1.
       -2    1    3    3    0  502 -0.81664444742E+02 -0.44546894415E+03  0.39916491140E+03  0.60369221316E+03  0.25500000920E-02 0.  1.
</event>
<event>
 5   0  0.1244229E-04  0.2023323E+04  0.7818609E-02  0.8595793E-01
        2   -1    0    0  501    0  0.00000000000E+00  0.00000000000E+00  0.17736770421E+04  0.17736770421E+04  0.25500000920E-02 0. -1.
       -2   -1    0    0    0  501  0.00000000000E+00  0.00000000000E+00 -0.57702670670E+03  0.57702670671E+03  0.25500000920E-02 0.  1.
    10030    2    1    2    0    0  0.00000000000E+00  0.00000000000E+00  0.11966503354E+04  0.23507037488E+04  0.20233230314E+04 0.  0.
        5    1    3    3  502    0 -0.82988960735E+03 -0.54858965533E+03  0.38482639207E+03  0.10666680891E+04  0.46999998093E+01 0. -1.
       -5    1    3    3    0  502  0.82988960735E+03  0.54858965533E+03  0.81182394328E+03  0.12840356596E+04  0.46999998093E+01 0.  1.
</event>
<event>
 5   0  0.6028501E-05  0.1986618E+04  0.7818609E-02  0.8612903E-01
        1   -1    0    0  501    0  0.00000000000E+00  0.00000000000E+00  0.97206307051E+03  0.97206307052E+03  0.50400001928E-02 0. -1.
       -1   -1    0    0    0  501  0.00000000000E+00  0.00000000000E+00 -0.10150195685E+04  0.10150195685E+04  0.50400001928E-02 0.  1.
    10030    2    1    2    0    0  0.00000000000E+00  0.00000000000E+00 -0.42956498007E+02  0.19870826390E+04  0.19866182708E+04 0.  0.
        4    1    3    3  502    0  0.48750875649E+03  0.69245116728E+03  0.49778471667E+03  0.98231595923E+03  0.12699999809E+01 0. -1.
       -4    1    3    3    0  502 -0.48750875649E+03 -0.69245116728E+03 -0.54074121467E+03  0.10047666798E+04  0.12699999809E+01 0.  1.
</event>
<event>
 5   0  0.6168338E-05  0.2001366E+04  0.7818609E-02  0.8605982E-01
       -1   -1    0    0    0  501  0.00000000000E+00  0.00000000000E+00  0.73458657219E+03  0.73458657221E+03  0.50400001928E-02 0.  1.
        1   -1    0    0  501    0  0.00000000000E+00  0.00000000000E+00 -0.13631699631E+04  0.13631699631E+04  0.50400001928E-02 0. -1.
    10030    2    1    2    0    0  0.00000000000E+00  0.00000000000E+00 -0.62858339095E+03  0.20977565354E+04  0.20013658842E+04 0.  0.
        5    1    3    3  502    0  0.89500701529E+03  0.12033049156E+03  0.13754689545E+03  0.91348684887E+03  0.46999998093E+01 0.  1.
       -5    1    3    3    0  502 -0.89500701529E+03 -0.12033049156E+03 -0.76613028640E+03  0.11842696865E+04  0.46999998093E+01 0. -1.
</event>
<event>
 5   0  0.6168338E-05  0.1993682E+04  0.7818609E-02  0.8609580E-01
        1   -1    0    0  501    0  0.00000000000E+00  0.00000000000E+00  0.14719770674E+04  0.14719770674E+04  0.50400001928E-02 0.  1.
       -1   -1    0    0    0  501  0.00000000000E+00  0.00000000000E+00 -0.67507311579E+03  0.67507311581E+03  0.50400001928E-02 0. -1.
    10030    2    1    2    0    0  0.00000000000E+00  0.00000000000E+00  0.79690395156E+03  0.21470501832E+04  0.19936821665E+04 0.  0.
        5    1    3    3  502    0  0.80562733139E+03 -0.24762987651E+03 -0.17476674769E+03  0.86076794719E+03  0.46999998093E+01 0. -1.
       -5    1    3    3    0  502 -0.80562733139E+03  0.24762987651E+03  0.97167069925E+03  0.12862822360E+04  0.46999998093E+01 0.  1.
</event>
<event>
 5   0  0.4479000E-05  0.1961139E+04  0.7818609E-02  0.8625008E-01
       -3   -1    0    0    0  501  0.00000000000E+00  0.00000000000E+00  0.25614605474E+04  0.25614605494E+04  0.10100000352E+00 0.  1.
        3   -1    0    0  501    0  0.00000000000E+00  0.00000000000E+00 -0.37537821374E+03  0.37537822733E+03  0.10100000352E+00 0. -1.
    10030    2    1    2    0    0  0.00000000000E+00  0.00000000000E+00  0.21860823336E+04  0.29368387767E+04  0.19611389627E+04 0.  0.
        3    1    3    3  502    0  0.66459890592E+03  0.71444539951E+03  0.12381733718E+04  0.15764508376E+04  0.10100000352E+00 0. -1.
       -3    1    3    3    0  502 -0.66459890592E+03 -0.71444539951E+03  0.94790896188E+03  0.13603879391E+04  0.10100000352E+00 0.  1.
</event>
<event>
 5   0  0.1159914E-04  0.1993777E+04  0.7818609E-02  0.8609535E-01
        2   -1    0    0  501    0  0.00000000000E+00  0.00000000000E+00  0.17800202037E+04  0.17800202037E+04  0.25500000920E-02 0. -1.
       -2   -1    0    0    0  501  0.00000000000E+00  0.00000000000E+00 -0.55830105774E+03  0.55830105774E+03  0.25500000920E-02 0.  1.
    10030    2    1    2    0    0  0.00000000000E+00  0.00000000000E+00  0.12217191459E+04  0.23383212614E+04  0.19937774826E+04 0.  0.
        3    1    3    3  502    0  0.68295172856E+03  0.30733199501E+03  0.13825211378E+04  0.15723360726E+04  0.10100000352E+00 0. -1.
       -3    1    3    3    0  502 -0.68295172856E+03 -0.30733199501E+03 -0.16080199182E+03  0.76598518881E+03  0.10100000352E+00 0.  1.
</event>
<event>
 5   0  0.6168338E-05  0.1973910E+04  0.7818609E-02  0.8618917E-01
        1   -1    0    0  501    0  0.00000000000E+00  0.00000000000E+00  0.21076568847E+04  0.21076568847E+04  0.50400001928E-02 0. -1.
       -1   -1    0    0    0  501  0.00000000000E+00  0.00000000000E+00 -0.46216261361E+03  0.46216261363E+03  0.50400001928E-02 0.  1.
    10030    2    1    2    0    0  0.00000000000E+00  0.00000000000E+00  0.16454942711E+04  0.25698194983E+04  0.19739100430E+04 0.  0.
        5    1    3    3  502    0 -0.17289582773E+03 -0.65134861030E+03 -0.11598008037E+03  0.68382852268E+03  0.46999998093E+01 0.  1.
       -5    1    3    3    0  502  0.17289582773E+03  0.65134861030E+03  0.17614743514E+04  0.18859909756E+04  0.46999998093E+01 0. -1.
</event>
<event>
 5   0  0.6168338E-05  0.1997561E+04  0.7818609E-02  0.8607762E-01
        1   -1    0    0  501    0  0.00000000000E+00  0.00000000000E+00  0.16330269615E+04  0.16330269615E+04  0.50400001928E-02 0.  1.
       -1   -1    0    0    0  501  0.00000000000E+00  0.00000000000E+00 -0.61086682209E+03  0.61086682211E+03  0.50400001928E-02 0. -1.
    10030    2    1    2    0    0  0.00000000000E+00  0.00000000000E+00  0.10221601394E+04  0.22438937836E+04  0.19975605026E+04 0.  0.
        5    1    3    3  502    0 -0.14867134173E+03  0.34292626419E+03  0.15514913971E+04  0.15958850948E+04  0.46999998093E+01 0.  1.
       -5    1    3    3    0  502  0.14867134173E+03 -0.34292626419E+03 -0.52933125765E+03  0.64800868886E+03  0.46999998093E+01 0. -1.
</event>
<event>
 5   0  0.1159914E-04  0.2004360E+04  0.7818609E-02  0.8604585E-01
       -2   -1    0    0    0  501  0.00000000000E+00  0.00000000000E+00  0.15002923579E+04  0.15002923579E+04  0.25500000920E-02 0.  1.
        2   -1    0    0  501    0  0.00000000000E+00  0.00000000000E+00 -0.66944582880E+03  0.66944582880E+03  0.25500000920E-02 0. -1.
    10030    2    1    2    0    0  0.00000000000E+00  0.00000000000E+00  0.83084652906E+03  0.21697381867E+04  0.20043597092E+04 0.  0.
        3    1    3    3  502    0 -0.47903763938E+03  0.18518942261E+03  0.13470056223E+04  0.14415950676E+04  0.10100000352E+00 0.  1.
       -3    1    3    3    0  502  0.47903763938E+03 -0.18518942261E+03 -0.51615909321E+03  0.72814311910E+03  0.10100000352E+00 0. -1.
</event>
<event>
 5   0  0.1274868E-04  0.2003618E+04  0.7818609E-02  0.8604931E-01
        2   -1    0    0  501    0  0.00000000000E+00  0.00000000000E+00  0.13122795748E+04  0.13122795748E+04  0.25500000920E-02 0. -1.
       -2   -1    0    0    0  501  0.00000000000E+00  0.00000000000E+00 -0.76479205920E+03  0.76479205920E+03  0.25500000920E-02 0.  1.
    10030    2    1    2    0    0  0.00000000000E+00  0.00000000000E+00  0.54748751558E+03  0.20770716340E+04  0.20036177263E+04 0.  0.
        1    1    3    3  502    0  0.68622981230E+02  0.90986943421E+03 -0.15499970435E+03  0.92552493713E+03  0.50400001928E-02 0.  1.
       -1    1    3    3    0  502 -0.68622981230E+02 -0.90986943421E+03  0.70248721993E+03  0.11515466969E+04  0.50400001928E-02 0. -1.
</event>
<event>
 5   0  0.1242761E-04  0.2001094E+04  0.7818609E-02  0.8606109E-01
       -2   -1    0    0    0  501  0.00000000000E+00  0.00000000000E+00  0.78358548851E+03  0.78358548851E+03  0.25500000920E-02 0. -1.
        2   -1    0    0  501    0  0.00000000000E+00  0.00000000000E+00 -0.12775811340E+04  0.12775811340E+04  0.25500000920E-02 0.  1.
    10030    2    1    2    0    0  0.00000000000E+00  0.00000000000E+00 -0.49399564548E+03  0.20611666225E+04  0.20010937379E+04 0.  0.
        4    1    3    3  502    0  0.10808291794E+03 -0.97989663252E+03 -0.70948456928E+02  0.98838991497E+03  0.12699999809E+01 0. -1.
       -4    1    3    3    0  502 -0.10808291794E+03  0.97989663252E+03 -0.42304718855E+03  0.10727767075E+04  0.12699999809E+01 0.  1.
</event>
<event>
 5   0  0.6222733E-05  0.1997325E+04  0.7818609E-02  0.8607872E-01
       -1   -1    0    0    0  501  0.00000000000E+00  0.00000000000E+00  0.10103769313E+04  0.10103769313E+04  0.50400001928E-02 0. -1.
        1   -1    0    0  501    0  0.00000000000E+00  0.00000000000E+00 -0.98708403960E+03  0.98708403962E+03  0.50400001928E-02 0.  1.
    10030    2    1    2    0    0  0.00000000000E+00  0.00000000000E+00  0.23292891661E+02  0.19974609709E+04  0.19973251542E+04 0.  0.
        2    1    3    3  502    0 -0.84808531399E+03  0.25587036383E+03  0.47277280099E+03  0.10041077951E+04  0.25500000920E-02 0. -1.
       -2    1    3    3    0  502  0.84808531399E+03 -0.25587036383E+03 -0.44947990933E+03  0.99335317576E+03  0.25500000920E-02 0.  1.
</event>
<event>
 5   0  0.1244229E-04  0.1986097E+04  0.7818609E-02  0.8613149E-01
        2   -1    0    0  501    0  0.00000000000E+00  0.00000000000E+00  0.64128935778E+03  0.64128935779E+03  0.25500000920E-02 0.  1.
       -2   -1    0    0    0  501  0.00000000000E+00  0.00000000000E+00 -0.15377533392E+04  0.15377533392E+04  0.25500000920E-02 0. -1.
    10030    2    1    2    0    0  0.00000000000E+00  0.00000000000E+00 -0.89646398144E+03  0.21790426970E+04  0.19860965247E+04 0.  0.
        5    1    3    3  502    0 -0.40372808304E+03 -0.56384890805E+03  0.33159346130E+03  0.76869907618E+03  0.46999998093E+01 0.  1.
       -5    1    3    3    0  502  0.40372808304E+03  0.56384890805E+03 -0.12280574427E+04  0.14103436208E+04  0.46999998093E+01 0. -1.
</event>
<event>
 5   0  0.6028501E-05  0.2017133E+04  0.7818609E-02  0.8598652E-01
       -1   -1    0    0    0  501  0.00000000000E+00  0.00000000000E+00  0.41796498996E+03  0.41796498999E+03  0.50400001928E-02 0. -1.
        1   -1    0    0  501    0  0.00000000000E+00  0.00000000000E+00 -0.24337110855E+04  0.24337110855E+04  0.50400001928E-02 0.  1.
    10030    2    1    2    0    0  0.00000000000E+00  0.00000000000E+00 -0.20157460956E+04  0.28516760755E+04  0.20171326476E+04 0.  0.
        4    1    3    3  502    0 -0.57108372694E+03 -0.42138842710E+03  0.51883866543E+01  0.70974175720E+03  0.12699999809E+01 0. -1.
       -4    1    3    3    0  502  0.57108372694E+03  0.42138842710E+03 -0.20209344822E+04  0.21419343183E+04  0.12699999809E+01 0.  1.
</event>
<event>
 5   0  0.1274868E-04  0.2029147E+04  0.7818609E-02  0.8593114E-01
        2   -1    0    0  501    0  0.00000000000E+00  0.00000000000E+00  0.21209512201E+04  0.21209512201E+04  0.25500000920E-02 0.  1.
       -2   -1    0    0    0  501  0.00000000000E+00  0.00000000000E+00 -0.48532893165E+03  0.48532893165E+03  0.25500000920E-02 0. -1.
    10030    2    1    2    0    0  0.00000000000E+00  0.00000000000E+00  0.16356222884E+04  0.26062801517E+04  0.20291466085E+04 0.  0.
        1    1    3    3  502    0  0.37193585791E+03 -0.65903668026E+03  0.16858117323E+04  0.18478708897E+04  0.50400001928E-02 0.  1.
       -1    1    3    3    0  502 -0.37193585791E+03  0.65903668026E+03 -0.50189443905E+02  0.75840926197E+03  0.50400001928E-02 0. -1.
</event>
<event>
 5   0  0.1244229E-04  0.2059316E+04  0.7818609E-02  0.8579380E-01
        2   -1    0    0  501    0  0.00000000000E+00  0.00000000000E+00  0.14612135762E+04  0.14612135762E+04  0.25500000920E-02 0.  1.
       -2   -1    0    0    0  501  0.00000000000E+00  0.00000000000E+00 -0.72555848334E+03  0.72555848335E+03  0.25500000920E-02 0. -1.
    10030    2    1    2    0    0  0.00000000000E+00  0.00000000000E+00  0.73565509283E+03  0.21867720595E+04  0.20593163003E+04 0.  0.
        5    1    3    3  502    0  0.97724749434E+03 -0.29110061038E+03  0.21607877317E+03  0.10423360095E+04  0.46999998093E+01 0.  1.
       -5    1    3    3    0  502 -0.97724749434E+03  0.29110061038E+03  0.51957631966E+03  0.11444360500E+04  0.46999998093E+01 0. -1.
</event>
<event>
 5   0  0.1281789E-04  0.1979864E+04  0.7818609E-02  0.8616093E-01
        2   -1    0    0  501    0  0.00000000000E+00  0.00000000000E+00  0.11408247409E+04  0.11408247409E+04  0.25500000920E-02 0.  1.
       -2   -1    0    0    0  501  0.00000000000E+00  0.00000000000E+00 -0.85899749516E+03  0.85899749516E+03  0.25500000920E-02 0. -1.
    10030    2    1    2    0    0  0.00000000000E+00  0.00000000000E+00  0.28182724571E+03  0.19998222360E+04  0.19798642325E+04 0.  0.
        2    1    3    3  502    0 -0.77778637993E+03  0.50294774184E+03 -0.21197547205E+03  0.95017981697E+03  0.25500000920E-02 0. -1.
       -2    1    3    3    0  502  0.77778637993E+03 -0.50294774184E+03  0.49380271776E+03  0.10496424191E+04  0.25500000920E-02 0.  1.
</event>
<event>
 5   0  0.6256535E-05  0.1867398E+04  0.7818609E-02  0.8671257E-01
        1   -1    0    0  501    0  0.00000000000E+00  0.00000000000E+00  0.53933488066E+03  0.53933488069E+03  0.50400001928E-02 0. -1.
       -1   -1    0    0    0  501  0.00000000000E+00  0.00000000000E+00 -0.16164242587E+04  0.16164242587E+04  0.50400001928E-02 0.  1.
    10030    2    1    2    0    0  0.00000000000E+00  0.00000000000E+00 -0.10770893780E+04  0.21557591394E+04  0.18673981736E+04 0.  0.
        1    1    3    3  502    0 -0.21287954391E+03  0.88880918454E+03 -0.31800989320E+03  0.96769300863E+03  0.50400001928E-02 0.  1.
       -1    1    3    3    0  502  0.21287954391E+03 -0.88880918454E+03 -0.75907948483E+03  0.11880661308E+04  0.50400001928E-02 0. -1.
</event>
<event>
 5   0  0.6028501E-05  0.1864197E+04  0.7818609E-02  0.8672886E-01
       -1   -1    0    0    0  501  0.00000000000E+00  0.00000000000E+00  0.12487054964E+04  0.12487054964E+04  0.50400001928E-02 0.  1.
        1   -1    0    0  501    0  0.00000000000E+00  0.00000000000E+00 -0.69576654066E+03  0.69576654068E+03  0.50400001928E-02 0. -1.
    10030    2    1    2    0    0  0.00000000000E+00  0.00000000000E+00  0.55293895570E+03  0.19444720371E+04  0.18641968818E+04 0.  0.
        4    1    3    3  502    0  0.78912771586E+03 -0.18547328195E+03  0.75637187150E+03  0.11087032566E+04  0.12699999809E+01 0.  1.
       -4    1    3    3    0  502 -0.78912771586E+03  0.18547328195E+03 -0.20343291581E+03  0.83576878046E+03  0.12699999809E+01 0. -1.
</event>
<event>
 5   0  0.1281789E-04  0.2001316E+04  0.7818609E-02  0.8606006E-01
        2   -1    0    0  501    0  0.00000000000E+00  0.00000000000E+00  0.22388905854E+04  0.22388905854E+04  0.25500000920E-02 0. -1.
       -2   -1    0    0    0  501  0.00000000000E+00  0.00000000000E+00 -0.44723783372E+03  0.44723783373E+03  0.25500000920E-02 0.  1.
    10030    2    1    2    0    0  0.00000000000E+00  0.00000000000E+00  0.17916527517E+04  0.26861284191E+04  0.20013161423E+04 0.  0.
        2    1    3    3  502    0  0.80644860414E+03  0.44025731778E+03  0.36378963869E+03  0.98819469650E+03  0.25500000920E-02 0.  1.
       -2    1    3    3    0  502 -0.80644860414E+03 -0.44025731778E+03  0.14278631130E+04  0.16979337226E+04  0.25500000920E-02 0. -1.
</event>
<event>
 5   0  0.1244229E-04  0.2008808E+04  0.7818609E-02  0.8602513E-01
        2   -1    0    0  501    0  0.00000000000E+00  0.00000000000E+00  0.13712361034E+04  0.13712361034E+04  0.25500000920E-02 0.  1.
       -2   -1    0    0    0  501  0.00000000000E+00  0.00000000000E+00 -0.73570690239E+03  0.73570690239E+03  0.25500000920E-02 0. -1.
    10030    2    1    2    0    0  0.00000000000E+00  0.00000000000E+00  0.63552920100E+03  0.21069430058E+04  0.20088084688E+04 0.  0.
        5    1    3    3  502    0  0.27036801616E+03 -0.75622823257E+03 -0.31488172083E+03  0.86264279514E+03  0.46999998093E+01 0. -1.
       -5    1    3    3    0  502 -0.27036801616E+03  0.75622823257E+03  0.95041092183E+03  0.12443002106E+04  0.46999998093E+01 0.  1.
</event>
<event>
 5   0  0.6028501E-05  0.1698397E+04  0.7818609E-02  0.8762279E-01
       -1   -1    0    0    0  501  0.00000000000E+00  0.00000000000E+00  0.87146031724E+03  0.87146031725E+03  0.50400001928E-02 0.  1.
        1   -1    0    0  501    0  0.00000000000E+00  0.00000000000E+00 -0.82750578840E+03  0.82750578841E+03  0.50400001928E-02 0. -1.
    10030    2    1    2    0    0  0.00000000000E+00  0.00000000000E+00  0.43954528845E+02  0.16989661057E+04  0.16983974292E+04 0.  0.
        4    1    3    3  502    0  0.49984366092E+03 -0.63675784800E+03 -0.23468729222E+03  0.84284279696E+03  0.12699999809E+01 0. -1.
       -4    1    3    3    0  502 -0.49984366092E+03  0.63675784800E+03  0.27864182106E+03  0.85612330870E+03  0.12699999809E+01 0.  1.
</event>
<event>
 5   0  0.6222733E-05  0.1785146E+04  0.7818609E-02  0.8714239E-01
       -1   -1    0    0    0  501  0.00000000000E+00  0.00000000000E+00  0.39811094426E+03  0.39811094429E+03  0.50400001928E-02 0.  1.
        1   -1    0    0  501    0  0.00000000000E+00  0.00000000000E+00 -0.20011676463E+04  0.20011676463E+04  0.50400001928E-02 0. -1.
    10030    2    1    2    0    0  0.00000000000E+00  0.00000000000E+00 -0.16030567020E+04  0.23992785906E+04  0.17851462028E+04 0.  0.
        2    1    3    3  502    0  0.46316593669E+03 -0.62292912734E+03 -0.20935918969E+03  0.80398672434E+03  0.25500000920E-02 0.  1.
       -2    1    3    3    0  502 -0.46316593669E+03  0.62292912734E+03 -0.13936975123E+04  0.15952918662E+04  0.25500000920E-02 0. -1.
</event>
<event>
 5   0  0.1242761E-04  0.1974172E+04  0.7818609E-02  0.8618792E-01
        2   -1    0    0  501    0  0.00000000000E+00  0.00000000000E+00  0.85278824321E+03  0.85278824322E+03  0.25500000920E-02 0. -1.
       -2   -1    0    0    0  501  0.00000000000E+00  0.00000000000E+00 -0.11425326779E+04  0.11425326779E+04  0.25500000920E-02 0.  1.
    10030    2    1    2    0    0  0.00000000000E+00  0.00000000000E+00 -0.28974443472E+03  0.19953209211E+04  0.19741716594E+04 0.  0.
        4    1    3    3  502    0  0.53513163643E+03  0.59293565274E+03 -0.73108423475E+03  0.10827854486E+04  0.12699999809E+01 0.  1.
       -4    1    3    3    0  502 -0.53513163643E+03 -0.59293565274E+03  0.44133980003E+03  0.91253547251E+03  0.12699999809E+01 0. -1.
</event>
<event>
 5   0  0.4479000E-05  0.1969580E+04  0.7818609E-02  0.8620977E-01
        3   -1    0    0  501    0  0.00000000000E+00  0.00000000000E+00  0.91483222370E+03  0.91483222927E+03  0.10100000352E+00 0. -1.
       -3   -1    0    0    0  501  0.00000000000E+00  0.00000000000E+00 -0.10600973138E+04  0.10600973186E+04  0.10100000352E+00 0.  1.
    10030    2    1    2    0    0  0.00000000000E+00  0.00000000000E+00 -0.14526509008E+03  0.19749295479E+04  0.19695798467E+04 0.  0.
        4    1    3    3  502    0 -0.24097913932E+03  0.86310050069E+03 -0.48214870129E+03  0.10175865580E+04  0.12699999809E+01 0.  1.
       -4    1    3    3    0  502  0.24097913932E+03 -0.86310050069E+03  0.33688361122E+03  0.95734298989E+03  0.12699999809E+01 0. -1.
</event>
<event>
 5   0  0.1242761E-04  0.2002437E+04  0.7818609E-02  0.8605482E-01
        2   -1    0    0  501    0  0.00000000000E+00  0.00000000000E+00  0.27370951448E+04  0.27370951448E+04  0.25500000920E-02 0. -1.
       -2   -1    0    0    0  501  0.00000000000E+00  0.00000000000E+00 -0.36624157496E+03  0.36624157497E+03  0.25500000920E-02 0.  1.
    10030    2    1    2    0    0  0.00000000000E+00  0.00000000000E+00  0.23708535698E+04  0.31033367197E+04  0.20024365525E+04 0.  0.
        4    1    3    3  502    0 -0.15268953852E+02 -0.66983117000E+03  0.23384565437E+04  0.24325475446E+04  0.12699999809E+01 0. -1.
       -4    1    3    3    0  502  0.15268953852E+02  0.66983117000E+03  0.32397026119E+02  0.67078917512E+03  0.12699999809E+01 0.  1.
</event>
<event>
 5   0  0.1242761E-04  0.1992809E+04  0.7818609E-02  0.8609990E-01
        2   -1    0    0  501    0  0.00000000000E+00  0.00000000000E+00  0.15232706810E+04  0.15232706810E+04  0.25500000920E-02 0.  1.
       -2   -1    0    0    0  501  0.00000000000E+00  0.00000000000E+00 -0.65176995892E+03  0.65176995893E+03  0.25500000920E-02 0. -1.
    10030    2    1    2    0    0  0.00000000000E+00  0.00000000000E+00  0.87150072203E+03  0.21750406399E+04  0.19928091421E+04 0.  0.
        4    1    3    3  502    0  0.25590031511E+03 -0.16823771703E+03  0.14706283189E+04  0.15021778077E+04  0.12699999809E+01 0.  1.
       -4    1    3    3    0  502 -0.25590031511E+03  0.16823771703E+03 -0.59912759687E+03  0.67286283218E+03  0.12699999809E+01 0. -1.
</event>
<event>
 5   0  0.1159914E-04  0.2010163E+04  0.7818609E-02  0.8601884E-01
       -2   -1    0    0    0  501  0.00000000000E+00  0.00000000000E+00  0.58389000707E+03  0.58389000708E+03  0.25500000920E-02 0. -1.
        2   -1    0    0  501    0  0.00000000000E+00  0.00000000000E+00 -0.17301019820E+04  0.17301019820E+04  0.25500000920E-02 0.  1.
    10030    2    1    2    0    0  0.00000000000E+00  0.00000000000E+00 -0.11462119749E+04  0.23139919891E+04  0.20101634346E+04 0.  0.
        3    1    3    3  502    0  0.99937056540E+03 -0.83679727508E+02 -0.49635444671E+03  0.11189779134E+04  0.10100000352E+00 0.  1.
       -3    1    3    3    0  502 -0.99937056540E+03  0.83679727508E+02 -0.64985752820E+03  0.11950140756E+04  0.10100000352E+00 0. -1.
</event>
<event>
 5   0  0.6222733E-05  0.1975027E+04  0.7818609E-02  0.8618386E-01
       -1   -1    0    0    0  501  0.00000000000E+00  0.00000000000E+00  0.95140720926E+03  0.95140720928E+03  0.50400001928E-02 0.  1.
        1   -1    0    0  501    0  0.00000000000E+00  0.00000000000E+00 -0.10249896696E+04  0.10249896696E+04  0.50400001928E-02 0. -1.
    10030    2    1    2    0    0  0.00000000000E+00  0.00000000000E+00 -0.73582460313E+02  0.19763968789E+04  0.19750266440E+04 0.  0.
        2    1    3    3  502    0 -0.85094610043E+03 -0.47409296623E+03  0.12552227152E+03  0.98215540884E+03  0.25500000920E-02 0.  1.
       -2    1    3    3    0  502  0.85094610043E+03  0.47409296623E+03 -0.19910473183E+03  0.99424147002E+03  0.25500000920E-02 0. -1.
</event>
<event>
 5   0  0.6256535E-05  0.1978515E+04  0.7818609E-02  0.8616732E-01
        1   -1    0    0  501    0  0.00000000000E+00  0.00000000000E+00  0.74928731907E+03  0.74928731908E+03  0.50400001928E-02 0. -1.
       -1   -1    0    0    0  501  0.00000000000E+00  0.00000000000E+00 -0.13060818031E+04  0.13060818031E+04  0.50400001928E-02 0.  1.
    10030    2    1    2    0    0  0.00000000000E+00  0.00000000000E+00 -0.55679448401E+03  0.20553691222E+04  0.19785151329E+04 0.  0.
        1    1    3    3  502    0 -0.72348311223E+03  0.59416335963E+03 -0.61045812535E+03  0.11176390448E+04  0.50400001928E-02 0.  1.
       -1    1    3    3    0  502  0.72348311223E+03 -0.59416335963E+03  0.53663641333E+02  0.93773007739E+03  0.50400001928E-02 0. -1.
</event>
<event>
 5   0  0.6168338E-05  0.1981228E+04  0.7818609E-02  0.8615448E-01
        1   -1    0    0  501    0  0.00000000000E+00  0.00000000000E+00  0.10742825053E+04  0.10742825053E+04  0.50400001928E-02 0.  1.
       -1   -1    0    0    0  501  0.00000000000E+00  0.00000000000E+00 -0.91346154090E+03  0.91346154091E+03  0.50400001928E-02 0. -1.
    10030    2    1    2    0    0  0.00000000000E+00  0.00000000000E+00  0.16082096442E+03  0.19877440462E+04  0.19812276524E+04 0.  0.
        5    1    3    3  502    0 -0.29692893396E+03  0.56307831673E+03 -0.68107843923E+03  0.93226279181E+03  0.46999998093E+01 0. -1.
       -5    1    3    3    0  502  0.29692893396E+03 -0.56307831673E+03  0.84189940366E+03  0.10554812544E+04  0.46999998093E+01 0.  1.
</event>
<event>
 5   0  0.1274868E-04  0.1991823E+04  0.7818609E-02  0.8610453E-01
       -2   -1    0    0    0  501  0.00000000000E+00  0.00000000000E+00  0.15877433488E+04  0.15877433488E+04  0.25500000920E-02 0.  1.
        2   -1    0    0  501    0  0.00000000000E+00  0.00000000000E+00 -0.62468491348E+03  0.62468491348E+03  0.25500000920E-02 0. -1.
    10030    2    1    2    0    0  0.00000000000E+00  0.00000000000E+00  0.96305843531E+03  0.22124282623E+04  0.19918225990E+04 0.  0.
        1    1    3    3  502    0  0.58419170092E+03  0.47121204318E+03  0.12086446670E+04  0.14227236781E+04  0.50400001928E-02 0.  1.
       -1    1    3    3    0  502 -0.58419170092E+03 -0.47121204318E+03 -0.24558623170E+03  0.78970458419E+03  0.50400001928E-02 0. -1.
</event>
<event>
 5   0  0.1244229E-04  0.1995670E+04  0.7818609E-02  0.8608648E-01
       -2   -1    0    0    0  501  0.00000000000E+00  0.00000000000E+00  0.64185975973E+03  0.64185975973E+03  0.25500000920E-02 0. -1.
        2   -1    0    0  501    0  0.00000000000E+00  0.00000000000E+00 -0.15512344109E+04  0.15512344109E+04  0.25500000920E-02 0.  1.
    10030    2    1    2    0    0  0.00000000000E+00  0.00000000000E+00 -0.90937465115E+03  0.21930941706E+04  0.19956702596E+04 0.  0.
        5    1    3    3  502    0 -0.12820138045E+03 -0.76096773684E+03 -0.11498355071E+04  0.13847928631E+04  0.46999998093E+01 0.  1.
       -5    1    3    3    0  502  0.12820138045E+03  0.76096773684E+03  0.24046085591E+03  0.80830130749E+03  0.46999998093E+01 0. -1.
</event>
<event>
 5   0  0.1242761E-04  0.1977572E+04  0.7818609E-02  0.8617179E-01
        2   -1    0    0  501    0  0.00000000000E+00  0.00000000000E+00  0.10118377823E+04  0.10118377823E+04  0.25500000920E-02 0. -1.
       -2   -1    0    0    0  501  0.00000000000E+00  0.00000000000E+00 -0.96625980769E+03  0.96625980769E+03  0.25500000920E-02 0.  1.
    10030    2    1    2    0    0  0.00000000000E+00  0.00000000000E+00  0.45577974563E+02  0.19780975899E+04  0.19775724319E+04 0.  0.
        4    1    3    3  502    0 -0.20268215466E+03 -0.95168503813E+03 -0.15307607576E+03  0.98499663222E+03  0.12699999809E+01 0.  1.
       -4    1    3    3    0  502  0.20268215466E+03  0.95168503813E+03  0.19865405032E+03  0.99310095772E+03  0.12699999809E+01 0. -1.
</event>
<event>
 5   0  0.6168338E-05  0.1980359E+04  0.7818609E-02  0.8615859E-01
       -1   -1    0    0    0  501  0.00000000000E+00  0.00000000000E+00  0.64777363348E+03  0.64777363350E+03  0.50400001928E-02 0. -1.
        1   -1    0    0  501    0  0.00000000000E+00  0.00000000000E+00 -0.15135772522E+04  0.15135772522E+04  0.50400001928E-02 0.  1.
    10030    2    1    2    0    0  0.00000000000E+00  0.00000000000E+00 -0.86580361876E+03  0.21613508857E+04  0.19803589940E+04 0.  0.
        5    1    3    3  502    0  0.27441411787E+03 -0.51582873825E+03 -0.13053689836E+04  0.14301722514E+04  0.46999998093E+01 0.  1.
       -5    1    3    3    0  502 -0.27441411787E+03  0.51582873825E+03  0.43956536488E+03  0.73117863432E+03  0.46999998093E+01 0. -1.
</event>
<event>
 5   0  0.6256535E-05  0.1991474E+04  0.7818609E-02  0.8610617E-01
       -1   -1    0    0    0  501  0.00000000000E+00  0.00000000000E+00  0.11352865331E+04  0.11352865331E+04  0.50400001928E-02 0.  1.
        1   -1    0    0  501    0  0.00000000000E+00  0.00000000000E+00 -0.87334075429E+03  0.87334075430E+03  0.50400001928E-02 0. -1.
    10030    2    1    2    0    0  0.00000000000E+00  0.00000000000E+00  0.26194577879E+03  0.20086272874E+04  0.19914738232E+04 0.  0.
        1    1    3    3  502    0  0.42797804771E+03  0.49976699191E+03 -0.62283307838E+03  0.90600954690E+03  0.50400001928E-02 0. -1.
       -1    1    3    3    0  502 -0.42797804771E+03 -0.49976699191E+03  0.88477885717E+03  0.11026177405E+04  0.50400001928E-02 0.  1.
</event>
<event>
 5   0  0.6222733E-05  0.2011405E+04  0.7818609E-02  0.8601307E-01
        1   -1    0    0  501    0  0.00000000000E+00  0.00000000000E+00  0.82242690642E+03  0.82242690644E+03  0.50400001928E-02 0.  1.
       -1   -1    0    0    0  501  0.00000000000E+00  0.00000000000E+00 -0.12298211103E+04  0.12298211103E+04  0.50400001928E-02 0. -1.
    10030    2    1    2    0    0  0.00000000000E+00  0.00000000000E+00 -0.40739420390E+03  0.20522480168E+04  0.20114054502E+04 0.  0.
        2    1    3    3  502    0 -0.62153787089E+03  0.34346499917E+03  0.52291546918E+03  0.88188327942E+03  0.25500000920E-02 0.  1.
       -2    1    3    3    0  502  0.62153787089E+03 -0.34346499917E+03 -0.93030967308E+03  0.11703647374E+04  0.25500000920E-02 0. -1.
</event>
<event>
 5   0  0.6222733E-05  0.1995011E+04  0.7818609E-02  0.8608957E-01
       -1   -1    0    0    0  501  0.00000000000E+00  0.00000000000E+00  0.14053390260E+04  0.14053390260E+04  0.50400001928E-02 0.  1.
        1   -1    0    0  501    0  0.00000000000E+00  0.00000000000E+00 -0.70802645723E+03  0.70802645725E+03  0.50400001928E-02 0. -1.
    10030    2    1    2    0    0  0.00000000000E+00  0.00000000000E+00  0.69731256880E+03  0.21133654833E+04  0.19950109893E+04 0.  0.
        2    1    3    3  502    0  0.47465066961E+03 -0.32566239363E+03 -0.51433168858E+03  0.77193674526E+03  0.25500000920E-02 0. -1.
       -2    1    3    3    0  502 -0.47465066961E+03  0.32566239363E+03  0.12116442574E+04  0.13414287380E+04  0.25500000920E-02 0.  1.
</event>
<event>
 5   0  0.6168338E-05  0.1975720E+04  0.7818609E-02  0.8618057E-01
       -1   -1    0    0    0  501  0.00000000000E+00  0.00000000000E+00  0.91089505224E+03  0.91089505225E+03  0.50400001928E-02 0. -1.
        1   -1    0    0  501    0  0.00000000000E+00  0.00000000000E+00 -0.10713279503E+04  0.10713279503E+04  0.50400001928E-02 0.  1.
    10030    2    1    2    0    0  0.00000000000E+00  0.00000000000E+00 -0.16043289807E+03  0.19822230026E+04  0.19757199491E+04 0.  0.
        5    1    3    3  502    0  0.74857996742E+03  0.31881193805E+03 -0.64226766398E+03  0.10366015925E+04  0.46999998093E+01 0.  1.
       -5    1    3    3    0  502 -0.74857996742E+03 -0.31881193805E+03  0.48183476591E+03  0.94562141003E+03  0.46999998093E+01 0. -1.
</event>
<event>
 5   0  0.1274868E-04  0.1999911E+04  0.7818609E-02  0.8606662E-01
       -2   -1    0    0    0  501  0.00000000000E+00  0.00000000000E+00  0.15341297692E+04  0.15341297692E+04  0.25500000920E-02 0. -1.
        2   -1    0    0  501    0  0.00000000000E+00  0.00000000000E+00 -0.65177722643E+03  0.65177722644E+03  0.25500000920E-02 0.  1.
    10030    2    1    2    0    0  0.00000000000E+00  0.00000000000E+00  0.88235254280E+03  0.21859069957E+04  0.19999108440E+04 0.  0.
        1    1    3    3  502    0 -0.34099089414E+03 -0.57505043736E+03 -0.37158906643E+03  0.76487661078E+03  0.50400001928E-02 0.  1.
       -1    1    3    3    0  502  0.34099089414E+03  0.57505043736E+03  0.12539416092E+04  0.14210303849E+04  0.50400001928E-02 0. -1.
</event>
<event>
 5   0  0.6222733E-05  0.2008337E+04  0.7818609E-02  0.8602733E-01
       -1   -1    0    0    0  501  0.00000000000E+00  0.00000000000E+00  0.85254362577E+03  0.85254362579E+03  0.50400001928E-02 0. -1.
        1   -1    0    0  501    0  0.00000000000E+00  0.00000000000E+00 -0.11827596488E+04  0.11827596488E+04  0.50400001928E-02 0.  1.
    10030    2    1    2    0    0  0.00000000000E+00  0.00000000000E+00 -0.33021602305E+03  0.20353032746E+04  0.20083368238E+04 0.  0.
        2    1    3    3  502    0  0.61568669874E+03  0.77213719229E+03  0.19236174299E+02  0.98774287399E+03  0.25500000920E-02 0. -1.
       -2    1    3    3    0  502 -0.61568669874E+03 -0.77213719229E+03 -0.34945219735E+03  0.10475604006E+04  0.25500000920E-02 0.  1.
</event>
<event>
 5   0  0.6256535E-05  0.2009266E+04  0.7818609E-02  0.8602301E-01
        1   -1    0    0  501    0  0.00000000000E+00  0.00000000000E+00  0.14493149079E+04  0.14493149079E+04  0.50400001928E-02 0. -1.
       -1   -1    0    0    0  501  0.00000000000E+00  0.00000000000E+00 -0.69638936391E+03  0.69638936393E+03  0.50400001928E-02 0.  1.
    10030    2    1    2    0    0  0.00000000000E+00  0.00000000000E+00  0.75292554401E+03  0.21457042719E+04  0.20092660221E+04 0.  0.
        1    1    3    3  502    0 -0.64989726240E+03 -0.56791797192E+03  0.92556741069E+03  0.12655324201E+04  0.50400001928E-02 0.  1.
       -1    1    3    3    0  502  0.64989726240E+03  0.56791797192E+03 -0.17264186669E+03  0.88017185178E+03  0.50400001928E-02 0. -1.
</event>
<event>
 5   0  0.1242761E-04  0.2009504E+04  0.7818609E-02  0.8602190E-01
       -2   -1    0    0    0  501  0.00000000000E+00  0.00000000000E+00  0.69211231923E+03  0.69211231923E+03  0.25500000920E-02 0.  1.
        2   -1    0    0  501    0  0.00000000000E+00  0.00000000000E+00 -0.14586164720E+04  0.14586164720E+04  0.25500000920E-02 0. -1.
    10030    2    1    2    0    0  0.00000000000E+00  0.00000000000E+00 -0.76650415276E+03  0.21507287912E+04  0.20095038485E+04 0.  0.
        4    1    3    3  502    0  0.28147283966E+03  0.35586323417E+03 -0.13427251055E+04  0.14173136290E+04  0.12699999809E+01 0. -1.
       -4    1    3    3    0  502 -0.28147283966E+03 -0.35586323417E+03  0.57622095278E+03  0.73341516226E+03  0.12699999809E+01 0.  1.
</event>
<event>
 5   0  0.6168338E-05  0.1879858E+04  0.7818609E-02  0.8664948E-01
        1   -1    0    0  501    0  0.00000000000E+00  0.00000000000E+00  0.17716775342E+04  0.17716775342E+04  0.50400001928E-02 0. -1.
       -1   -1    0    0    0  501  0.00000000000E+00  0.00000000000E+00 -0.49866084462E+03  0.49866084465E+03  0.50400001928E-02 0.  1.
    10030    2    1    2    0    0  0.00000000000E+00  0.00000000000E+00  0.12730166896E+04  0.22703383789E+04  0.18798576708E+04 0.  0.
        5    1    3    3  502    0  0.62244672411E+03  0.40081510859E+03  0.13358923826E+04  0.15273255133E+04  0.46999998093E+01 0. -1.
       -5    1    3    3    0  502 -0.62244672411E+03 -0.40081510859E+03 -0.62875693028E+02  0.74301286557E+03  0.46999998093E+01 0.  1.
</event>
<event>
 5   0  0.6168338E-05  0.1997634E+04  0.7818609E-02  0.8607728E-01
        1   -1    0    0  501    0  0.00000000000E+00  0.00000000000E+00  0.11852347705E+04  0.11852347705E+04  0.50400001928E-02 0. -1.
       -1   -1    0    0    0  501  0.00000000000E+00  0.00000000000E+00 -0.84171936960E+03  0.84171936961E+03  0.50400001928E-02 0.  1.
    10030    2    1    2    0    0  0.00000000000E+00  0.00000000000E+00  0.34351540088E+03  0.20269541401E+04  0.19976336640E+04 0.  0.
        5    1    3    3  502    0  0.68514238668E+03  0.53358590682E+03  0.67243603305E+03  0.10983288754E+04  0.46999998093E+01 0. -1.
       -5    1    3    3    0  502 -0.68514238668E+03 -0.53358590682E+03 -0.32892063217E+03  0.92862526470E+03  0.46999998093E+01 0.  1.
</event>
<event>
 5   0  0.6222733E-05  0.1999251E+04  0.7818609E-02  0.8606971E-01
       -1   -1    0    0    0  501  0.00000000000E+00  0.00000000000E+00  0.97193051321E+03  0.97193051323E+03  0.50400001928E-02 0. -1.
        1   -1    0    0  501    0  0.00000000000E+00  0.00000000000E+00 -0.10281095398E+04  0.10281095398E+04  0.50400001928E-02 0.  1.
    10030    2    1    2    0    0  0.00000000000E+00  0.00000000000E+00 -0.56179026582E+02  0.20000400530E+04  0.19992508924E+04 0.  0.
        2    1    3    3  502    0 -0.73986086845E+03 -0.66625339836E+03  0.61183243642E+02  0.99751244844E+03  0.25500000920E-02 0. -1.
       -2    1    3    3    0  502  0.73986086845E+03  0.66625339836E+03 -0.11736227022E+03  0.10025276046E+04  0.25500000920E-02 0.  1.
</event>
<event>
 5   0  0.1274868E-04  0.1978738E+04  0.7818609E-02  0.8616626E-01
        2   -1    0    0  501    0  0.00000000000E+00  0.00000000000E+00  0.10574729370E+04  0.10574729370E+04  0.25500000920E-02 0. -1.
       -2   -1    0    0    0  501  0.00000000000E+00  0.00000000000E+00 -0.92565144871E+03  0.92565144871E+03  0.25500000920E-02 0.  1.
    10030    2    1    2    0    0  0.00000000000E+00  0.00000000000E+00  0.13182148832E+03  0.19831243857E+04  0.19787383416E+04 0.  0.
        1    1    3    3  502    0  0.76764060590E+03  0.61073086692E+03 -0.63165509600E+02  0.98298228533E+03  0.50400001928E-02 0. -1.
       -1    1    3    3    0  502 -0.76764060590E+03 -0.61073086692E+03  0.19498699792E+03  0.10001421004E+04  0.50400001928E-02 0.  1.
</event>
<event>
 5   0  0.6028501E-05  0.1991435E+04  0.7818609E-02  0.8610636E-01
       -1   -1    0    0    0  501  0.00000000000E+00  0.00000000000E+00  0.12910378774E+04  0.12910378774E+04  0.50400001928E-02 0.  1.
        1   -1    0    0  501    0  0.00000000000E+00  0.00000000000E+00 -0.76795055628E+03  0.76795055630E+03  0.50400001928E-02 0. -1.
    10030    2    1    2    0    0  0.00000000000E+00  0.00000000000E+00  0.52308732115E+03  0.20589884337E+04  0.19914349160E+04 0.  0.
        4    1    3    3  502    0 -0.66325242216E+03 -0.22398617896E+03  0.99364373693E+03  0.12154847069E+04  0.12699999809E+01 0.  1.
       -4    1    3    3    0  502  0.66325242216E+03  0.22398617896E+03 -0.47055641578E+03  0.84350372684E+03  0.12699999809E+01 0. -1.
</event>
<event>
 5   0  0.1274868E-04  0.1991190E+04  0.7818609E-02  0.8610751E-01
        2   -1    0    0  501    0  0.00000000000E+00  0.00000000000E+00  0.20905290201E+04  0.20905290201E+04  0.25500000920E-02 0. -1.
       -2   -1    0    0    0  501  0.00000000000E+00  0.00000000000E+00 -0.47414289483E+03  0.47414289484E+03  0.25500000920E-02 0.  1.
    10030    2    1    2    0    0  0.00000000000E+00  0.00000000000E+00  0.16163861253E+04  0.25646719150E+04  0.19911900777E+04 0.  0.
        1    1    3    3  502    0  0.43473786419E+03 -0.16041278907E+03  0.19431628259E+04  0.19976513814E+04  0.50400001928E-02 0. -1.
       -1    1    3    3    0  502 -0.43473786419E+03  0.16041278907E+03 -0.32677670060E+03  0.56702053361E+03  0.50400001928E-02 0.  1.
</event>
<event>
 5   0  0.1159914E-04  0.1984970E+04  0.7818609E-02  0.8613680E-01
       -2   -1    0    0    0  501  0.00000000000E+00  0.00000000000E+00  0.46571993514E+03  0.46571993514E+03  0.25500000920E-02 0.  1.
        2   -1    0    0  501    0  0.00000000000E+00  0.00000000000E+00 -0.21150621630E+04  0.21150621630E+04  0.25500000920E-02 0. -1.
    10030    2    1    2    0    0  0.00000000000E+00  0.00000000000E+00 -0.16493422278E+04  0.25807820981E+04  0.19849701392E+04 0.  0.
        3    1    3    3  502    0  0.57589606302E+03  0.64054879338E+03 -0.14656753067E+04  0.17000479837E+04  0.10100000352E+00 0. -1.
       -3    1    3    3    0  502 -0.57589606302E+03 -0.64054879338E+03 -0.18366692111E+03  0.88073411437E+03  0.10100000352E+00 0.  1.
</event>
<event>
 5   0  0.1159914E-04  0.2006490E+04  0.7818609E-02  0.8603592E-01
        2   -1    0    0  501    0  0.00000000000E+00  0.00000000000E+00  0.13442912875E+04  0.13442912875E+04  0.25500000920E-02 0. -1.
       -2   -1    0    0    0  501  0.00000000000E+00  0.00000000000E+00 -0.74872200077E+03  0.74872200077E+03  0.25500000920E-02 0.  1.
    10030    2    1    2    0    0  0.00000000000E+00  0.00000000000E+00  0.59556928675E+03  0.20930132883E+04  0.20064899326E+04 0.  0.
        3    1    3    3  502    0 -0.66615928037E+03  0.72298939409E+03  0.89111790276E+02  0.98712854895E+03  0.10100000352E+00 0.  1.
       -3    1    3    3    0  502  0.66615928037E+03 -0.72298939409E+03  0.50645749648E+03  0.11058847393E+04  0.10100000352E+00 0. -1.
</event>
<event>
 5   0  0.6256535E-05  0.1989666E+04  0.7818609E-02  0.8611467E-01
       -1   -1    0    0    0  501  0.00000000000E+00  0.00000000000E+00  0.11923280711E+04  0.11923280711E+04  0.50400001928E-02 0.  1.
        1   -1    0    0  501    0  0.00000000000E+00  0.00000000000E+00 -0.83005089556E+03  0.83005089557E+03  0.50400001928E-02 0. -1.
    10030    2    1    2    0    0  0.00000000000E+00  0.00000000000E+00  0.36227717558E+03  0.20223789667E+04  0.19896662869E+04 0.  0.
        1    1    3    3  502    0 -0.46409230623E+03 -0.70064479629E+03  0.72225224117E+03  0.11081214280E+04  0.50400001928E-02 0.  1.
       -1    1    3    3    0  502  0.46409230623E+03  0.70064479629E+03 -0.35997506559E+03  0.91425753873E+03  0.50400001928E-02 0. -1.
</event>
<event>
 5   0  0.6168338E-05  0.1993423E+04  0.7818609E-02  0.8609702E-01
       -1   -1    0    0    0  501  0.00000000000E+00  0.00000000000E+00  0.13848603825E+04  0.13848603825E+04  0.50400001928E-02 0. -1.
        1   -1    0    0  501    0  0.00000000000E+00  0.00000000000E+00 -0.71735272540E+03  0.71735272541E+03  0.50400001928E-02 0.  1.
    10030    2    1    2    0    0  0.00000000000E+00  0.00000000000E+00  0.66750765712E+03  0.21022131079E+04  0.19934225540E+04 0.  0.
        5    1    3    3  502    0 -0.37738125464E+03  0.66332973142E+03 -0.34231688024E+03  0.83643641745E+03  0.46999998093E+01 0.  1.
       -5    1    3    3    0  502  0.37738125464E+03 -0.66332973142E+03  0.10098245374E+04  0.12657766905E+04  0.46999998093E+01 0. -1.
</event>
<event>
 5   0  0.1159914E-04  0.1997317E+04  0.7818609E-02  0.8607876E-01
       -2   -1    0    0    0  501  0.00000000000E+00  0.00000000000E+00  0.13795985055E+04  0.13795985055E+04  0.25500000920E-02 0.  1.
        2   -1    0    0  501    0  0.00000000000E+00  0.00000000000E+00 -0.72290488787E+03  0.72290488788E+03  0.25500000920E-02 0. -1.
    10030    2    1    2    0    0  0.00000000000E+00  0.00000000000E+00  0.65669361764E+03  0.21025033934E+04  0.19973167029E+04 0.  0.
        3    1    3    3  502    0  0.61079564066E+03 -0.56010714430E+03  0.91494344838E+03  0.12344686516E+04  0.10100000352E+00 0.  1.
       -3    1    3    3    0  502 -0.61079564066E+03  0.56010714430E+03 -0.25824983074E+03  0.86803474183E+03  0.10100000352E+00 0. -1.
</event>
<event>
 5   0  0.6168338E-05  0.1924386E+04  0.7818609E-02  0.8642812E-01
       -1   -1    0    0    0  501  0.00000000000E+00  0.00000000000E+00  0.72620216090E+03  0.72620216092E+03  0.50400001928E-02 0.  1.
        1   -1    0    0  501    0  0.00000000000E+00  0.00000000000E+00 -0.12748730466E+04  0.12748730466E+04  0.50400001928E-02 0. -1.
    10030    2    1    2    0    0  0.00000000000E+00  0.00000000000E+00 -0.54867088569E+03  0.20010752075E+04  0.19243861996E+04 0.  0.
        5    1    3    3  502    0 -0.12598478556E+03  0.37245023889E+03  0.63884223362E+03  0.75015520801E+03  0.46999998093E+01 0.  1.
       -5    1    3    3    0  502  0.12598478556E+03 -0.37245023889E+03 -0.11875131193E+04  0.12509199995E+04  0.46999998093E+01 0. -1.
</event>
<event>
 5   0  0.1281789E-04  0.1994830E+04  0.7818609E-02  0.8609041E-01
        2   -1    0    0  501    0  0.00000000000E+00  0.00000000000E+00  0.12450105973E+04  0.12450105973E+04  0.25500000920E-02 0. -1.
       -2   -1    0    0    0  501  0.00000000000E+00  0.00000000000E+00 -0.79905912461E+03  0.79905912461E+03  0.25500000920E-02 0.  1.
    10030    2    1    2    0    0  0.00000000000E+00  0.00000000000E+00  0.44595147269E+03  0.20440697219E+04  0.19948303968E+04 0.  0.
        2    1    3    3  502    0 -0.52931514702E+03  0.83442358996E+03  0.83981567203E+02  0.99171072193E+03  0.25500000920E-02 0.  1.
       -2    1    3    3    0  502  0.52931514702E+03 -0.83442358996E+03  0.36196990549E+03  0.10523590000E+04  0.25500000920E-02 0. -1.
</event>
<event>
 5   0  0.6214547E-05  0.2001386E+04  0.7818609E-02  0.8605973E-01
        1   -1    0    0  501    0  0.00000000000E+00  0.00000000000E+00  0.14712061150E+04  0.14712061150E+04  0.50400001928E-02 0. -1.
       -1   -1    0    0    0  501  0.00000000000E+00  0.00000000000E+00 -0.68065693040E+03  0.68065693042E+03  0.50400001928E-02 0.  1.
    10030    2    1    2    0    0  0.00000000000E+00  0.00000000000E+00  0.79054918455E+03  0.21518630454E+04  0.20013861579E+04 0.  0.
        3    1    3    3  502    0  0.91204777132E+03  0.13717174764E+03  0.81271754176E+03  0.12292912748E+04  0.10100000352E+00 0.  1.
       -3    1    3    3    0  502 -0.91204777132E+03 -0.13717174764E+03 -0.22168357209E+02  0.92257177054E+03  0.10100000352E+00 0. -1.
</event>
<event>
 5   0  0.6256535E-05  0.1991596E+04  0.7818609E-02  0.8610560E-01
        1   -1    0    0  501    0  0.00000000000E+00  0.00000000000E+00  0.13240203958E+04  0.13240203958E+04  0.50400001928E-02 0. -1.
       -1   -1    0    0    0  501  0.00000000000E+00  0.00000000000E+00 -0.74894150347E+03  0.74894150348E+03  0.50400001928E-02 0.  1.
    10030    2    1    2    0    0  0.00000000000E+00  0.00000000000E+00  0.57507889232E+03  0.20729618993E+04  0.19915961698E+04 0.  0.
        1    1    3    3  502    0  0.95452968327E+03  0.28130484861E+03  0.32584645304E+03  0.10471080389E+04  0.50400001928E-02 0. -1.
       -1    1    3    3    0  502 -0.95452968327E+03 -0.28130484861E+03  0.24923243929E+03  0.10258538604E+04  0.50400001928E-02 0.  1.
</event>
<event>
 5   0  0.6028501E-05  0.2008478E+04  0.7818609E-02  0.8602667E-01
        1   -1    0    0  501    0  0.00000000000E+00  0.00000000000E+00  0.13690148019E+04  0.13690148019E+04  0.50400001928E-02 0. -1.
       -1   -1    0    0    0  501  0.00000000000E+00  0.00000000000E+00 -0.73665840909E+03  0.73665840910E+03  0.50400001928E-02 0.  1.
    10030    2    1    2    0    0  0.00000000000E+00  0.00000000000E+00  0.63235639277E+03  0.21056732110E+04  0.20084782956E+04 0.  0.
        4    1    3    3  502    0 -0.44729411638E+03  0.39624871869E+03 -0.52997870204E+03  0.79872655592E+03  0.12699999809E+01 0.  1.
       -4    1    3    3    0  502  0.44729411638E+03 -0.39624871869E+03  0.11623350948E+04  0.13069466550E+04  0.12699999809E+01 0. -1.
</event>
<event>
 5   0  0.1242761E-04  0.2015252E+04  0.7818609E-02  0.8599523E-01
       -2   -1    0    0    0  501  0.00000000000E+00  0.00000000000E+00  0.68787788458E+03  0.68787788458E+03  0.25500000920E-02 0. -1.
        2   -1    0    0  501    0  0.00000000000E+00  0.00000000000E+00 -0.14760039183E+04  0.14760039183E+04  0.25500000920E-02 0.  1.
    10030    2    1    2    0    0  0.00000000000E+00  0.00000000000E+00 -0.78812603368E+03  0.21638818028E+04  0.20152522948E+04 0.  0.
        4    1    3    3  502    0 -0.74596654210E+03 -0.32741528370E+03  0.24266575535E+03  0.85003242976E+03  0.12699999809E+01 0. -1.
       -4    1    3    3    0  502  0.74596654210E+03  0.32741528370E+03 -0.10307917890E+04  0.13138493731E+04  0.12699999809E+01 0.  1.
</event>
<event>
 5   0  0.6214547E-05  0.2009940E+04  0.7818609E-02  0.8601987E-01
        1   -1    0    0  501    0  0.00000000000E+00  0.00000000000E+00  0.12036575381E+04  0.12036575381E+04  0.50400001928E-02 0.  1.
       -1   -1    0    0    0  501  0.00000000000E+00  0.00000000000E+00 -0.83907970292E+03  0.83907970294E+03  0.50400001928E-02 0. -1.
    10030    2    1    2    0    0  0.00000000000E+00  0.00000000000E+00  0.36457783514E+03  0.20427372410E+04  0.20099399090E+04 0.  0.
        3    1    3    3  502    0 -0.29830968095E+02  0.66848339831E+03 -0.57974912551E+03  0.88536376659E+03  0.10100000352E+00 0. -1.
       -3    1    3    3    0  502  0.29830968095E+02 -0.66848339831E+03  0.94432696065E+03  0.11573734744E+04  0.10100000352E+00 0.  1.
</event>
<event>
 5   0  0.6168338E-05  0.1968564E+04  0.7818609E-02  0.8621461E-01
        1   -1    0    0  501    0  0.00000000000E+00  0.00000000000E+00  0.14989139155E+04  0.14989139155E+04  0.50400001928E-02 0.  1.
       -1   -1    0    0    0  501  0.00000000000E+00  0.00000000000E+00 -0.64634190249E+03  0.64634190251E+03  0.50400001928E-02 0. -1.
    10030    2    1    2    0    0  0.00000000000E+00  0.00000000000E+00  0.85257201300E+03  0.21452558180E+04  0.19685638134E+04 0.  0.
        5    1    3    3  502    0  0.88612002373E+03 -0.22503014011E+03  0.28948178648E+02  0.91471708602E+03  0.46999998093E+01 0. -1.
       -5    1    3    3    0  502 -0.88612002373E+03  0.22503014011E+03  0.82362383435E+03  0.12305387320E+04  0.46999998093E+01 0.  1.
</event>
<event>
 5   0  0.6028501E-05  0.2001096E+04  0.7818609E-02  0.8606109E-01
        1   -1    0    0  501    0  0.00000000000E+00  0.00000000000E+00  0.88392812437E+03  0.88392812438E+03  0.50400001928E-02 0. -1.
       -1   -1    0    0    0  501  0.00000000000E+00  0.00000000000E+00 -0.11325534751E+04  0.11325534751E+04  0.50400001928E-02 0.  1.
    10030    2    1    2    0    0  0.00000000000E+00  0.00000000000E+00 -0.24862535072E+03  0.20164815995E+04  0.20010955689E+04 0.  0.
        4    1    3    3  502    0 -0.35954168236E+03  0.93369923770E+03 -0.12981065637E+03  0.10089186822E+04  0.12699999809E+01 0.  1.
       -4    1    3    3    0  502  0.35954168236E+03 -0.93369923770E+03 -0.11881469435E+03  0.10075629173E+04  0.12699999809E+01 0. -1.
</event>
<event>
 5   0  0.1281789E-04  0.1969155E+04  0.7818609E-02  0.8621179E-01
        2   -1    0    0  501    0  0.00000000000E+00  0.00000000000E+00  0.11910638080E+04  0.11910638080E+04  0.25500000920E-02 0.  1.
       -2   -1    0    0    0  501  0.00000000000E+00  0.00000000000E+00 -0.81388845257E+03  0.81388845257E+03  0.25500000920E-02 0. -1.
    10030    2    1    2    0    0  0.00000000000E+00  0.00000000000E+00  0.37717535542E+03  0.20049522606E+04  0.19691552296E+04 0.  0.
        2    1    3    3  502    0  0.11650254505E+03 -0.23603814571E+03 -0.77739862187E+03  0.82075298752E+03  0.25500000920E-02 0. -1.
       -2    1    3    3    0  502 -0.11650254505E+03  0.23603814571E+03  0.11545739773E+04  0.11841992730E+04  0.25500000920E-02 0.  1.
</event>
<event>
 5   0  0.1242761E-04  0.1905452E+04  0.7818609E-02  0.8652147E-01
        2   -1    0    0  501    0  0.00000000000E+00  0.00000000000E+00  0.26696007777E+04  0.26696007777E+04  0.25500000920E-02 0. -1.
       -2   -1    0    0    0  501  0.00000000000E+00  0.00000000000E+00 -0.34000848151E+03  0.34000848152E+03  0.25500000920E-02 0.  1.
    10030    2    1    2    0    0  0.00000000000E+00  0.00000000000E+00  0.23295922962E+04  0.30096092592E+04  0.19054520793E+04 0.  0.
        4    1    3    3  502    0  0.62253174284E+02  0.15099153548E+03 -0.31773165020E+03  0.35725189424E+03  0.12699999809E+01 0.  1.
       -4    1    3    3    0  502 -0.62253174284E+02 -0.15099153548E+03  0.26473239464E+04  0.26523573650E+04  0.12699999809E+01 0. -1.
</event>
<event>
 5   0  0.1242761E-04  0.1964356E+04  0.7818609E-02  0.8623469E-01
       -2   -1    0    0    0  501  0.00000000000E+00  0.00000000000E+00  0.60338287071E+03  0.60338287072E+03  0.25500000920E-02 0. -1.
        2   -1    0    0  501    0  0.00000000000E+00  0.00000000000E+00 -0.15987759681E+04  0.15987759681E+04  0.25500000920E-02 0.  1.
    10030    2    1    2    0    0  0.00000000000E+00  0.00000000000E+00 -0.99539309742E+03  0.22021588389E+04  0.19643564170E+04 0.  0.
        4    1    3    3  502    0 -0.16933780316E+03  0.20054425658E+03  0.56333627900E+03  0.62148424482E+03  0.12699999809E+01 0. -1.
       -4    1    3    3    0  502  0.16933780316E+03 -0.20054425658E+03 -0.15587293764E+04  0.15806745940E+04  0.12699999809E+01 0.  1.
</event>
<event>
 5   0  0.6028501E-05  0.2211941E+04  0.7818609E-02  0.8513474E-01
       -1   -1    0    0    0  501  0.00000000000E+00  0.00000000000E+00  0.52877801660E+03  0.52877801662E+03  0.50400001928E-02 0. -1.
        1   -1    0    0  501    0  0.00000000000E+00  0.00000000000E+00 -0.23132024854E+04  0.23132024854E+04  0.50400001928E-02 0.  1.
    10030    2    1    2    0    0  0.00000000000E+00  0.00000000000E+00 -0.17844244688E+04  0.28419805020E+04  0.22119408873E+04 0.  0.
        4    1    3    3  502    0  0.87743041437E+03 -0.39232653293E+03 -0.18922421813E+03  0.97959770219E+03  0.12699999809E+01 0. -1.
       -4    1    3    3    0  502 -0.87743041437E+03  0.39232653293E+03 -0.15952002507E+04  0.18623827998E+04  0.12699999809E+01 0.  1.
</event>
<event>
 5   0  0.1281789E-04  0.2012320E+04  0.7818609E-02  0.8600882E-01
       -2   -1    0    0    0  501  0.00000000000E+00  0.00000000000E+00  0.11414257901E+04  0.11414257901E+04  0.25500000920E-02 0. -1.
        2   -1    0    0  501    0  0.00000000000E+00  0.00000000000E+00 -0.88692439021E+03  0.88692439022E+03  0.25500000920E-02 0.  1.
    10030    2    1    2    0    0  0.00000000000E+00  0.00000000000E+00  0.25450139991E+03  0.20283501803E+04  0.20123204247E+04 0.  0.
        2    1    3    3  502    0 -0.94496992942E+03 -0.19861608742E+03  0.41224285874E+03  0.10499336609E+04  0.25500000920E-02 0. -1.
       -2    1    3    3    0  502  0.94496992942E+03  0.19861608742E+03 -0.15774145882E+03  0.97841651945E+03  0.25500000920E-02 0.  1.
</event>
<event>
 5   0  0.1242761E-04  0.2007523E+04  0.7818609E-02  0.8603111E-01
        2   -1    0    0  501    0  0.00000000000E+00  0.00000000000E+00  0.13689372911E+04  0.13689372911E+04  0.25500000920E-02 0.  1.
       -2   -1    0    0    0  501  0.00000000000E+00  0.00000000000E+00 -0.73599966961E+03  0.73599966962E+03  0.25500000920E-02 0. -1.
    10030    2    1    2    0    0  0.00000000000E+00  0.00000000000E+00  0.63293762147E+03  0.21049369607E+04  0.20075232442E+04 0.  0.
        4    1    3    3  502    0 -0.85545836599E+03  0.16990521998E+03 -0.20448950859E+03  0.89582050197E+03  0.12699999809E+01 0. -1.
       -4    1    3    3    0  502  0.85545836599E+03 -0.16990521998E+03  0.83742713006E+03  0.12091164587E+04  0.12699999809E+01 0.  1.
</event>
<event>
 5   0  0.1244229E-04  0.1989507E+04  0.7818609E-02  0.8611542E-01
       -2   -1    0    0    0  501  0.00000000000E+00  0.00000000000E+00  0.11918467970E+04  0.11918467970E+04  0.25500000920E-02 0. -1.
        2   -1    0    0  501    0  0.00000000000E+00  0.00000000000E+00 -0.83025281139E+03  0.83025281139E+03  0.25500000920E-02 0.  1.
    10030    2    1    2    0    0  0.00000000000E+00  0.00000000000E+00  0.36159398564E+03  0.20220996084E+04  0.19895066263E+04 0.  0.
        5    1    3    3  502    0  0.81922665409E+03  0.55894168076E+03  0.25928877281E+03  0.10250857871E+04  0.46999998093E+01 0. -1.
       -5    1    3    3    0  502 -0.81922665409E+03 -0.55894168076E+03  0.10230521283E+03  0.99701382129E+03  0.46999998093E+01 0.  1.
</event>
<event>
 5   0  0.4479000E-05  0.2030570E+04  0.7818609E-02  0.8592460E-01
       -4   -1    0    0    0  501  0.00000000000E+00  0.00000000000E+00  0.10412088358E+04  0.10412096104E+04  0.12699999809E+01 0.  1.
        4   -1    0    0  501    0  0.00000000000E+00  0.00000000000E+00 -0.99000460585E+03  0.99000542044E+03  0.12699999809E+01 0. -1.
    10030    2    1    2    0    0  0.00000000000E+00  0.00000000000E+00  0.51204229976E+02  0.20312150308E+04  0.20305695330E+04 0.  0.
        4    1    3    3  502    0 -0.92750177243E+03  0.40537220660E+03  0.10446486062E+03  0.10175955403E+04  0.12699999809E+01 0.  1.
       -4    1    3    3    0  502  0.92750177243E+03 -0.40537220660E+03 -0.53260630641E+02  0.10136194904E+04  0.12699999809E+01 0. -1.
</event>
<event>
 5   0  0.1244229E-04  0.1965194E+04  0.7818609E-02  0.8623069E-01
        2   -1    0    0  501    0  0.00000000000E+00  0.00000000000E+00  0.12626597661E+04  0.12626597661E+04  0.25500000920E-02 0. -1.
       -2   -1    0    0    0  501  0.00000000000E+00  0.00000000000E+00 -0.76465296965E+03  0.76465296965E+03  0.25500000920E-02 0.  1.
    10030    2    1    2    0    0  0.00000000000E+00  0.00000000000E+00  0.49800679645E+03  0.20273127358E+04  0.19651936697E+04 0.  0.
        5    1    3    3  502    0  0.83587938423E+03 -0.12676037107E+03 -0.26753531657E+03  0.88676928920E+03  0.46999998093E+01 0.  1.
       -5    1    3    3    0  502 -0.83587938423E+03  0.12676037107E+03  0.76554211302E+03  0.11405434466E+04  0.46999998093E+01 0. -1.
</event>
<event>
 5   0  0.4479000E-05  0.2002043E+04  0.7818609E-02  0.8605666E-01
       -3   -1    0    0    0  501  0.00000000000E+00  0.00000000000E+00  0.13597342912E+04  0.13597342950E+04  0.10100000352E+00 0. -1.
        3   -1    0    0  501    0  0.00000000000E+00  0.00000000000E+00 -0.73694113445E+03  0.73694114137E+03  0.10100000352E+00 0.  1.
    10030    2    1    2    0    0  0.00000000000E+00  0.00000000000E+00  0.62279315677E+03  0.20966754364E+04  0.20020430988E+04 0.  0.
        2    1    3    3  502    0 -0.35218886043E+03  0.70953238405E+03  0.95234757630E+03  0.12387247893E+04  0.25500000920E-02 0. -1.
       -2    1    3    3    0  502  0.35218886043E+03 -0.70953238405E+03 -0.32955441953E+03  0.85795064710E+03  0.25500000920E-02 0.  1.
</event>
<event>
 5   0  0.6222733E-05  0.2004686E+04  0.7818609E-02  0.8604433E-01
        1   -1    0    0  501    0  0.00000000000E+00  0.00000000000E+00  0.10946070845E+04  0.10946070845E+04  0.50400001928E-02 0.  1.
       -1   -1    0    0    0  501  0.00000000000E+00  0.00000000000E+00 -0.91785537353E+03  0.91785537354E+03  0.50400001928E-02 0. -1.
    10030    2    1    2    0    0  0.00000000000E+00  0.00000000000E+00  0.17675171097E+03  0.20124624581E+04  0.20046855059E+04 0.  0.
        2    1    3    3  502    0 -0.65622540036E+03  0.47754159473E+03  0.67888672753E+03  0.10580949577E+04  0.25500000920E-02 0.  1.
       -2    1    3    3    0  502  0.65622540036E+03 -0.47754159473E+03 -0.50213501656E+03  0.95436750031E+03  0.25500000920E-02 0. -1.
</event>
<event>
 5   0  0.1274868E-04  0.2006461E+04  0.7818609E-02  0.8603606E-01
       -2   -1    0    0    0  501  0.00000000000E+00  0.00000000000E+00  0.12905925052E+04  0.12905925052E+04  0.25500000920E-02 0. -1.
        2   -1    0    0  501    0  0.00000000000E+00  0.00000000000E+00 -0.77985232736E+03  0.77985232736E+03  0.25500000920E-02 0.  1.
    10030    2    1    2    0    0  0.00000000000E+00  0.00000000000E+00  0.51074017784E+03  0.20704448326E+04  0.20064611323E+04 0.  0.
        1    1    3    3  502    0  0.56250832163E+03  0.82136903566E+03  0.12727920414E+03  0.10036247807E+04  0.50400001928E-02 0. -1.
       -1    1    3    3    0  502 -0.56250832163E+03 -0.82136903566E+03  0.38346097371E+03  0.10668200518E+04  0.50400001928E-02 0.  1.
</event>
<event>
 5   0  0.6028501E-05  0.1998106E+04  0.7818609E-02  0.8607506E-01
        1   -1    0    0  501    0  0.00000000000E+00  0.00000000000E+00  0.11133199154E+04  0.11133199154E+04  0.50400001928E-02 0. -1.
       -1   -1    0    0    0  501  0.00000000000E+00  0.00000000000E+00 -0.89651437860E+03  0.89651437862E+03  0.50400001928E-02 0.  1.
    10030    2    1    2    0    0  0.00000000000E+00  0.00000000000E+00  0.21680553676E+03  0.20098342940E+04  0.19981064157E+04 0.  0.
        4    1    3    3  502    0 -0.44021874368E+03 -0.69841684312E+03  0.67431237584E+03  0.10659631430E+04  0.12699999809E+01 0. -1.
       -4    1    3    3    0  502  0.44021874368E+03  0.69841684312E+03 -0.45750683908E+03  0.94387115103E+03  0.12699999809E+01 0.  1.
</event>
<event>
 5   0  0.1159914E-04  0.1982762E+04  0.7818609E-02  0.8614722E-01
        2   -1    0    0  501    0  0.00000000000E+00  0.00000000000E+00  0.14728528869E+04  0.14728528869E+04  0.25500000920E-02 0. -1.
       -2   -1    0    0    0  501  0.00000000000E+00  0.00000000000E+00 -0.66730127055E+03  0.66730127056E+03  0.25500000920E-02 0.  1.
    10030    2    1    2    0    0  0.00000000000E+00  0.00000000000E+00  0.80555161637E+03  0.21401541575E+04  0.19827623184E+04 0.  0.
        3    1    3    3  502    0  0.54207152344E+03  0.42881515650E+03  0.11699049994E+04  0.13588236430E+04  0.10100000352E+00 0. -1.
       -3    1    3    3    0  502 -0.54207152344E+03 -0.42881515650E+03 -0.36435338301E+03  0.78133051449E+03  0.10100000352E+00 0.  1.
</event>
<event>
 5   0  0.6168338E-05  0.2000357E+04  0.7818609E-02  0.8606454E-01
        1   -1    0    0  501    0  0.00000000000E+00  0.00000000000E+00  0.14605497189E+04  0.14605497189E+04  0.50400001928E-02 0. -1.
       -1   -1    0    0    0  501  0.00000000000E+00  0.00000000000E+00 -0.68491817154E+03  0.68491817156E+03  0.50400001928E-02 0.  1.
    10030    2    1    2    0    0  0.00000000000E+00  0.00000000000E+00  0.77563154735E+03  0.21454678905E+04  0.20003570111E+04 0.  0.
        5    1    3    3  502    0  0.81539871895E+03  0.53075065582E+03  0.13912551639E+03  0.98282721210E+03  0.46999998093E+01 0. -1.
       -5    1    3    3    0  502 -0.81539871895E+03 -0.53075065582E+03  0.63650603096E+03  0.11626406784E+04  0.46999998093E+01 0.  1.
</event>
<event>
 5   0  0.6214547E-05  0.1998350E+04  0.7818609E-02  0.8607393E-01
        1   -1    0    0  501    0  0.00000000000E+00  0.00000000000E+00  0.19626822501E+04  0.19626822501E+04  0.50400001928E-02 0.  1.
       -1   -1    0    0    0  501  0.00000000000E+00  0.00000000000E+00 -0.50866633183E+03  0.50866633186E+03  0.50400001928E-02 0. -1.
    10030    2    1    2    0    0  0.00000000000E+00  0.00000000000E+00  0.14540159183E+04  0.24713485820E+04  0.19983496999E+04 0.  0.
        3    1    3    3  502    0  0.32030192665E+03 -0.14772451533E+03 -0.42910950754E+03  0.55547352440E+03  0.10100000352E+00 0. -1.
       -3    1    3    3    0  502 -0.32030192665E+03  0.14772451533E+03  0.18831254258E+04  0.19158750576E+04  0.10100000352E+00 0.  1.
</event>
<event>
 5   0  0.4479000E-05  0.2000420E+04  0.7818609E-02  0.8606424E-01
       -3   -1    0    0    0  501  0.00000000000E+00  0.00000000000E+00  0.10223016719E+04  0.10223016769E+04  0.10100000352E+00 0. -1.
        3   -1    0    0  501    0  0.00000000000E+00  0.00000000000E+00 -0.97859615399E+03  0.97859615920E+03  0.10100000352E+00 0.  1.
    10030    2    1    2    0    0  0.00000000000E+00  0.00000000000E+00  0.43705517950E+02  0.20008978361E+04  0.20004204504E+04 0.  0.
        3    1    3    3  502    0 -0.26265948908E+03 -0.20157767167E+02  0.98697894703E+03  0.10215301243E+04  0.10100000352E+00 0. -1.
       -3    1    3    3    0  502  0.26265948908E+03  0.20157767167E+02 -0.94327342908E+03  0.97936771183E+03  0.10100000352E+00 0.  1.
</event>
<event>
 5   0  0.1281789E-04  0.1977732E+04  0.7818609E-02  0.8617103E-01
        2   -1    0    0  501    0  0.00000000000E+00  0.00000000000E+00  0.12331972838E+04  0.12331972838E+04  0.25500000920E-02 0. -1.
       -2   -1    0    0    0  501  0.00000000000E+00  0.00000000000E+00 -0.79294353191E+03  0.79294353192E+03  0.25500000920E-02 0.  1.
    10030    2    1    2    0    0  0.00000000000E+00  0.00000000000E+00  0.44025375188E+03  0.20261408157E+04  0.19777318420E+04 0.  0.
        2    1    3    3  502    0  0.44134445804E+03  0.12476435917E+03 -0.67739026352E+03  0.81805173741E+03  0.25500000920E-02 0.  1.
       -2    1    3    3    0  502 -0.44134445804E+03 -0.12476435917E+03  0.11176440154E+04  0.12080890783E+04  0.25500000920E-02 0. -1.
</event>
<event>
 5   0  0.1244229E-04  0.2013872E+04  0.7818609E-02  0.8600162E-01
       -2   -1    0    0    0  501  0.00000000000E+00  0.00000000000E+00  0.97123106449E+03  0.97123106449E+03  0.25500000920E-02 0. -1.
        2   -1    0    0  501    0  0.00000000000E+00  0.00000000000E+00 -0.10439540561E+04  0.10439540561E+04  0.25500000920E-02 0.  1.
    10030    2    1    2    0    0  0.00000000000E+00  0.00000000000E+00 -0.72722991629E+02  0.20151851206E+04  0.20138724977E+04 0.  0.
        5    1    3    3  502    0 -0.53256046695E+03  0.70007492421E+03  0.45403238230E+03  0.98989547157E+03  0.46999998093E+01 0. -1.
       -5    1    3    3    0  502  0.53256046695E+03 -0.70007492421E+03 -0.52675537392E+03  0.10252896490E+04  0.46999998093E+01 0.  1.
</event>
<event>
 5   0  0.6028501E-05  0.1993951E+04  0.7818609E-02  0.8609454E-01
        1   -1    0    0  501    0  0.00000000000E+00  0.00000000000E+00  0.97646572606E+03  0.97646572608E+03  0.50400001928E-02 0.  1.
       -1   -1    0    0    0  501  0.00000000000E+00  0.00000000000E+00 -0.10179155730E+04  0.10179155731E+04  0.50400001928E-02 0. -1.
    10030    2    1    2    0    0  0.00000000000E+00  0.00000000000E+00 -0.41449846977E+02  0.19943812991E+04  0.19939505201E+04 0.  0.
        4    1    3    3  502    0  0.53987701255E+03  0.30068027602E+02 -0.85851365571E+03  0.10146026734E+04  0.12699999809E+01 0. -1.
       -4    1    3    3    0  502 -0.53987701255E+03 -0.30068027602E+02  0.81706380873E+03  0.97977862571E+03  0.12699999809E+01 0.  1.
</event>
<event>
 5   0  0.1242761E-04  0.1983998E+04  0.7818609E-02  0.8614139E-01
        2   -1    0    0  501    0  0.00000000000E+00  0.00000000000E+00  0.17623873639E+04  0.17623873639E+04  0.25500000920E-02 0.  1.
       -2   -1    0    0    0  501  0.00000000000E+00  0.00000000000E+00 -0.55836857288E+03  0.55836857288E+03  0.25500000920E-02 0. -1.
    10030    2    1    2    0    0  0.00000000000E+00  0.00000000000E+00  0.12040187910E+04  0.23207559368E+04  0.19839976989E+04 0.  0.
        4    1    3    3  502    0 -0.19948606373E+03 -0.67302489799E+03  0.14219133300E+04  0.15857478784E+04  0.12699999809E+01 0.  1.
       -4    1    3    3    0  502  0.19948606373E+03  0.67302489799E+03 -0.21789453894E+03  0.73500805842E+03  0.12699999809E+01 0. -1.
</event>
<event>
 5   0  0.6168338E-05  0.1981851E+04  0.7818609E-02  0.8615153E-01
       -1   -1    0    0    0  501  0.00000000000E+00  0.00000000000E+00  0.79365330935E+03  0.79365330936E+03  0.50400001928E-02 0.  1.
        1   -1    0    0  501    0  0.00000000000E+00  0.00000000000E+00 -0.12372325757E+04  0.12372325757E+04  0.50400001928E-02 0. -1.
    10030    2    1    2    0    0  0.00000000000E+00  0.00000000000E+00 -0.44357926631E+03  0.20308858850E+04  0.19818513851E+04 0.  0.
        5    1    3    3  502    0  0.16132684974E+03 -0.58177923030E+03 -0.10269903537E+04  0.11913121765E+04  0.46999998093E+01 0. -1.
       -5    1    3    3    0  502 -0.16132684974E+03  0.58177923030E+03  0.58341108736E+03  0.83957370857E+03  0.46999998093E+01 0.  1.
</event>
<event>
 5   0  0.1281789E-04  0.2038792E+04  0.7818609E-02  0.8588696E-01
       -2   -1    0    0    0  501  0.00000000000E+00  0.00000000000E+00  0.42431544016E+03  0.42431544017E+03  0.25500000920E-02 0.  1.
        2   -1    0    0  501    0  0.00000000000E+00  0.00000000000E+00 -0.24490468436E+04  0.24490468436E+04  0.25500000920E-02 0. -1.
    10030    2    1    2    0    0  0.00000000000E+00  0.00000000000E+00 -0.20247314034E+04  0.28733622838E+04  0.20387921811E+04 0.  0.
        2    1    3    3  502    0  0.34617439723E+03  0.12334570896E+03  0.32771165242E+03  0.49238785967E+03  0.25500000920E-02 0.  1.
       -2    1    3    3    0  502 -0.34617439723E+03 -0.12334570896E+03 -0.23524430558E+04  0.23809744241E+04  0.25500000920E-02 0. -1.
</event>
<event>
 5   0  0.1159914E-04  0.2052024E+04  0.7818609E-02  0.8582677E-01
        2   -1    0    0  501    0  0.00000000000E+00  0.00000000000E+00  0.16716608572E+04  0.16716608572E+04  0.25500000920E-02 0.  1.
       -2   -1    0    0    0  501  0.00000000000E+00  0.00000000000E+00 -0.62973355203E+03  0.62973355204E+03  0.25500000920E-02 0. -1.
    10030    2    1    2    0    0  0.00000000000E+00  0.00000000000E+00  0.10419273052E+04  0.23013944092E+04  0.20520242975E+04 0.  0.
        3    1    3    3  502    0 -0.32769476359E+03 -0.72711227912E+03  0.12448678773E+04  0.14784357161E+04  0.10100000352E+00 0.  1.
       -3    1    3    3    0  502  0.32769476359E+03  0.72711227912E+03 -0.20294057216E+03  0.82295869311E+03  0.10100000352E+00 0. -1.
</event>
<event>
 5   0  0.6222733E-05  0.2011315E+04  0.7818609E-02  0.8601349E-01
       -1   -1    0    0    0  501  0.00000000000E+00  0.00000000000E+00  0.18971211335E+04  0.18971211335E+04  0.50400001928E-02 0. -1.
        1   -1    0    0  501    0  0.00000000000E+00  0.00000000000E+00 -0.53309551760E+03  0.53309551763E+03  0.50400001928E-02 0.  1.
    10030    2    1    2    0    0  0.00000000000E+00  0.00000000000E+00  0.13640256159E+04  0.24302166512E+04  0.20113147667E+04 0.  0.
        2    1    3    3  502    0  0.55772410857E+03  0.49268150695E+02 -0.32735653853E+03  0.64857215117E+03  0.25500000920E-02 0.  1.
       -2    1    3    3    0  502 -0.55772410857E+03 -0.49268150695E+02  0.16913821544E+04  0.17816445000E+04  0.25500000920E-02 0. -1.
</event>
<event>
 5   0  0.6168338E-05  0.1992123E+04  0.7818609E-02  0.8610312E-01
       -1   -1    0    0    0  501  0.00000000000E+00  0.00000000000E+00  0.12928317946E+04  0.12928317946E+04  0.50400001928E-02 0.  1.
        1   -1    0    0  501    0  0.00000000000E+00  0.00000000000E+00 -0.76741516376E+03  0.76741516378E+03  0.50400001928E-02 0. -1.
    10030    2    1    2    0    0  0.00000000000E+00  0.00000000000E+00  0.52541663083E+03  0.20602469584E+04  0.19921232124E+04 0.  0.
        5    1    3    3  502    0  0.72799024245E+03 -0.33992085127E+03  0.87156878086E+03  0.11853987549E+04  0.46999998093E+01 0.  1.
       -5    1    3    3    0  502 -0.72799024245E+03  0.33992085127E+03 -0.34615215004E+03  0.87484820352E+03  0.46999998093E+01 0. -1.
</event>
<event>
 5   0  0.1159914E-04  0.1985312E+04  0.7818609E-02  0.8613519E-01
        2   -1    0    0  501    0  0.00000000000E+00  0.00000000000E+00  0.60209219307E+03  0.60209219308E+03  0.25500000920E-02 0. -1.
       -2   -1    0    0    0  501  0.00000000000E+00  0.00000000000E+00 -0.16365703287E+04  0.16365703287E+04  0.25500000920E-02 0.  1.
    10030    2    1    2    0    0  0.00000000000E+00  0.00000000000E+00 -0.10344781357E+04  0.22386625218E+04  0.19853122861E+04 0.  0.
        3    1    3    3  502    0 -0.88447323646E+02  0.78876319579E+02 -0.16285647931E+04  0.16328709987E+04  0.10100000352E+00 0.  1.
       -3    1    3    3    0  502  0.88447323646E+02 -0.78876319579E+02  0.59408665739E+03  0.60579152317E+03  0.10100000352E+00 0. -1.
</event>
<event>
 5   0  0.1159914E-04  0.1993169E+04  0.7818609E-02  0.8609821E-01
        2   -1    0    0  501    0  0.00000000000E+00  0.00000000000E+00  0.82576966008E+03  0.82576966008E+03  0.25500000920E-02 0. -1.
       -2   -1    0    0    0  501  0.00000000000E+00  0.00000000000E+00 -0.12027330453E+04  0.12027330453E+04  0.25500000920E-02 0.  1.
    10030    2    1    2    0    0  0.00000000000E+00  0.00000000000E+00 -0.37696338524E+03  0.20285027054E+04  0.19931687916E+04 0.  0.
        3    1    3    3  502    0  0.94853753561E+03 -0.24815501840E+03 -0.37018546941E+03  0.10480179682E+04  0.10100000352E+00 0. -1.
       -3    1    3    3    0  502 -0.94853753561E+03  0.24815501840E+03 -0.67779158342E+01  0.98048473724E+03  0.10100000352E+00 0.  1.
</event>
<event>
 5   0  0.1281789E-04  0.1974962E+04  0.7818609E-02  0.8618417E-01
        2   -1    0    0  501    0  0.00000000000E+00  0.00000000000E+00  0.11257153814E+04  0.11257153814E+04  0.25500000920E-02 0. -1.
       -2   -1    0    0    0  501  0.00000000000E+00  0.00000000000E+00 -0.86622146770E+03  0.86622146770E+03  0.25500000920E-02 0.  1.
    10030    2    1    2    0    0  0.00000000000E+00  0.00000000000E+00  0.25949391368E+03  0.19919368491E+04  0.19749621058E+04 0.  0.
        2    1    3    3  502    0  0.47081521379E+03  0.27737105835E+03  0.95932301039E+03  0.11040390880E+04  0.25500000920E-02 0. -1.
       -2    1    3    3    0  502 -0.47081521379E+03 -0.27737105835E+03 -0.69982909671E+03  0.88789776109E+03  0.25500000920E-02 0.  1.
</event>
<event>
 5   0  0.6256535E-05  0.1990819E+04  0.7818609E-02  0.8610925E-01
       -1   -1    0    0    0  501  0.00000000000E+00  0.00000000000E+00  0.77668867463E+03  0.77668867465E+03  0.50400001928E-02 0. -1.
        1   -1    0    0  501    0  0.00000000000E+00  0.00000000000E+00 -0.12757230947E+04  0.12757230947E+04  0.50400001928E-02 0.  1.
    10030    2    1    2    0    0  0.00000000000E+00  0.00000000000E+00 -0.49903442007E+03  0.20524117694E+04  0.19908186051E+04 0.  0.
        1    1    3    3  502    0 -0.43453190949E+03  0.16605056082E+03  0.65773741784E+03  0.80561112205E+03  0.50400001928E-02 0. -1.
       -1    1    3    3    0  502  0.43453190949E+03 -0.16605056082E+03 -0.11567718379E+04  0.12468006473E+04  0.50400001928E-02 0.  1.
</event>
<event>
 5   0  0.1242761E-04  0.1921970E+04  0.7818609E-02  0.8643997E-01
       -2   -1    0    0    0  501  0.00000000000E+00  0.00000000000E+00  0.10633129190E+04  0.10633129190E+04  0.25500000920E-02 0.  1.
        2   -1    0    0  501    0  0.00000000000E+00  0.00000000000E+00 -0.86850474804E+03  0.86850474805E+03  0.25500000920E-02 0. -1.
    10030    2    1    2    0    0  0.00000000000E+00  0.00000000000E+00  0.19480817094E+03  0.19318176670E+04  0.19219701546E+04 0.  0.
        4    1    3    3  502    0  0.61525454782E+03 -0.27465556459E+03  0.78612788999E+03  0.10353610530E+04  0.12699999809E+01 0.  1.
       -4    1    3    3    0  502 -0.61525454782E+03  0.27465556459E+03 -0.59131971905E+03  0.89645661402E+03  0.12699999809E+01 0. -1.
</event>
<event>
 5   0  0.1159914E-04  0.2004422E+04  0.7818609E-02  0.8604556E-01
       -2   -1    0    0    0  501  0.00000000000E+00  0.00000000000E+00  0.71751230770E+03  0.71751230771E+03  0.25500000920E-02 0. -1.
        2   -1    0    0  501    0  0.00000000000E+00  0.00000000000E+00 -0.13998743330E+04  0.13998743330E+04  0.25500000920E-02 0.  1.
    10030    2    1    2    0    0  0.00000000000E+00  0.00000000000E+00 -0.68236202530E+03  0.21173866407E+04  0.20044221743E+04 0.  0.
        3    1    3    3  502    0 -0.34731541602E+03 -0.74448796839E+03 -0.94758615746E+03  0.12541171673E+04  0.10100000352E+00 0.  1.
       -3    1    3    3    0  502  0.34731541602E+03  0.74448796839E+03  0.26522413215E+03  0.86326947343E+03  0.10100000352E+00 0. -1.
</event>
<event>
 5   0  0.6222733E-05  0.1988515E+04  0.7818609E-02  0.8612009E-01
        1   -1    0    0  501    0  0.00000000000E+00  0.00000000000E+00  0.11581274660E+04  0.11581274660E+04  0.50400001928E-02 0.  1.
       -1   -1    0    0    0  501  0.00000000000E+00  0.00000000000E+00 -0.85357461235E+03  0.85357461236E+03  0.50400001928E-02 0. -1.
    10030    2    1    2    0    0  0.00000000000E+00  0.00000000000E+00  0.30455285366E+03  0.20117020784E+04  0.19885152279E+04 0.  0.
        2    1    3    3  502    0 -0.40800763093E+03 -0.88185312023E+03  0.36547782300E+03  0.10381277338E+04  0.25500000920E-02 0.  1.
       -2    1    3    3    0  502  0.40800763093E+03  0.88185312023E+03 -0.60924969348E+02  0.97357434459E+03  0.25500000920E-02 0. -1.
</event>
<event>
 5   0  0.6256535E-05  0.1833929E+04  0.7818609E-02  0.8688462E-01
        1   -1    0    0  501    0  0.00000000000E+00  0.00000000000E+00  0.15983017180E+04  0.15983017180E+04  0.50400001928E-02 0. -1.
       -1   -1    0    0    0  501  0.00000000000E+00  0.00000000000E+00 -0.52607326938E+03  0.52607326941E+03  0.50400001928E-02 0.  1.
    10030    2    1    2    0    0  0.00000000000E+00  0.00000000000E+00  0.10722284486E+04  0.21243749874E+04  0.18339289084E+04 0.  0.
        1    1    3    3  502    0 -0.49160204494E+03 -0.49602719146E+03  0.12244536172E+04  0.14096106576E+04  0.50400001928E-02 0. -1.
       -1    1    3    3    0  502  0.49160204494E+03  0.49602719146E+03 -0.15222516857E+03  0.71476432985E+03  0.50400001928E-02 0.  1.
</event>
<event>
 5   0  0.1274868E-04  0.2002196E+04  0.7818609E-02  0.8605594E-01
       -2   -1    0    0    0  501  0.00000000000E+00  0.00000000000E+00  0.54007239627E+03  0.54007239627E+03  0.25500000920E-02 0. -1.
        2   -1    0    0  501    0  0.00000000000E+00  0.00000000000E+00 -0.18556725979E+04  0.18556725979E+04  0.25500000920E-02 0.  1.
    10030    2    1    2    0    0  0.00000000000E+00  0.00000000000E+00 -0.13156002017E+04  0.23957449942E+04  0.20021963407E+04 0.  0.
        1    1    3    3  502    0  0.72109154786E+03  0.50780516660E+03 -0.91032349889E+02  0.88663746615E+03  0.50400001928E-02 0. -1.
       -1    1    3    3    0  502 -0.72109154786E+03 -0.50780516660E+03 -0.12245678518E+04  0.15091075281E+04  0.50400001928E-02 0.  1.
</event>
<event>
 5   0  0.6168338E-05  0.1691758E+04  0.7818609E-02  0.8766079E-01
        1   -1    0    0  501    0  0.00000000000E+00  0.00000000000E+00  0.15583989222E+04  0.15583989222E+04  0.50400001928E-02 0. -1.
       -1   -1    0    0    0  501  0.00000000000E+00  0.00000000000E+00 -0.45913238745E+03  0.45913238748E+03  0.50400001928E-02 0.  1.
    10030    2    1    2    0    0  0.00000000000E+00  0.00000000000E+00  0.10992665348E+04  0.20175313097E+04  0.16917581598E+04 0.  0.
        5    1    3    3  502    0  0.74643756706E+03 -0.33916477229E+03  0.30151229534E+03  0.87357514761E+03  0.46999998093E+01 0.  1.
       -5    1    3    3    0  502 -0.74643756706E+03  0.33916477229E+03  0.79775423944E+03  0.11439561621E+04  0.46999998093E+01 0. -1.
</event>
<event>
 5   0  0.6256535E-05  0.1977269E+04  0.7818609E-02  0.8617322E-01
        1   -1    0    0  501    0  0.00000000000E+00  0.00000000000E+00  0.14809171006E+04  0.14809171006E+04  0.50400001928E-02 0.  1.
       -1   -1    0    0    0  501  0.00000000000E+00  0.00000000000E+00 -0.65999523210E+03  0.65999523212E+03  0.50400001928E-02 0. -1.
    10030    2    1    2    0    0  0.00000000000E+00  0.00000000000E+00  0.82092186849E+03  0.21409123327E+04  0.19772690515E+04 0.  0.
        1    1    3    3  502    0 -0.26954384573E+03  0.93543461440E+03  0.22384088697E+03  0.99889766507E+03  0.50400001928E-02 0. -1.
       -1    1    3    3    0  502  0.26954384573E+03 -0.93543461440E+03  0.59708098152E+03  0.11420146676E+04  0.50400001928E-02 0.  1.
</event>
<event>
 5   0  0.1159914E-04  0.1995793E+04  0.7818609E-02  0.8608590E-01
        2   -1    0    0  501    0  0.00000000000E+00  0.00000000000E+00  0.24965371404E+04  0.24965371404E+04  0.25500000920E-02 0.  1.
       -2   -1    0    0    0  501  0.00000000000E+00  0.00000000000E+00 -0.39887156405E+03  0.39887156406E+03  0.25500000920E-02 0. -1.
    10030    2    1    2    0    0  0.00000000000E+00  0.00000000000E+00  0.20976655764E+04  0.28954087045E+04  0.19957932497E+04 0.  0.
        3    1    3    3  502    0  0.20168727882E+03  0.45769008168E+03 -0.20390112981E+03  0.54012373605E+03  0.10100000352E+00 0. -1.
       -3    1    3    3    0  502 -0.20168727882E+03 -0.45769008168E+03  0.23015667062E+04  0.23552849684E+04  0.10100000352E+00 0.  1.
</event>
<event>
 5   0  0.6256535E-05  0.2026848E+04  0.7818609E-02  0.8594170E-01
        1   -1    0    0  501    0  0.00000000000E+00  0.00000000000E+00  0.16251959874E+04  0.16251959874E+04  0.50400001928E-02 0. -1.
       -1   -1    0    0    0  501  0.00000000000E+00  0.00000000000E+00 -0.63194131258E+03  0.63194131260E+03  0.50400001928E-02 0.  1.
    10030    2    1    2    0    0  0.00000000000E+00  0.00000000000E+00  0.99325467482E+03  0.22571373000E+04  0.20268482780E+04 0.  0.
        1    1    3    3  502    0 -0.78828578181E+03 -0.25631090188E+03  0.11459148692E+04  0.14142880328E+04  0.50400001928E-02 0. -1.
       -1    1    3    3    0  502  0.78828578181E+03  0.25631090188E+03 -0.15266019439E+03  0.84284926719E+03  0.50400001928E-02 0.  1.
</event>
<event>
 5   0  0.6256535E-05  0.2007074E+04  0.7818609E-02  0.8603320E-01
        1   -1    0    0  501    0  0.00000000000E+00  0.00000000000E+00  0.11374415544E+04  0.11374415544E+04  0.50400001928E-02 0.  1.
       -1   -1    0    0    0  501  0.00000000000E+00  0.00000000000E+00 -0.88539642442E+03  0.88539642443E+03  0.50400001928E-02 0. -1.
    10030    2    1    2    0    0  0.00000000000E+00  0.00000000000E+00  0.25204513000E+03  0.20228379789E+04  0.20070741743E+04 0.  0.
        1    1    3    3  502    0 -0.14680731167E+03 -0.91097211013E+02  0.11223390478E+04  0.11355597857E+04  0.50400001928E-02 0.  1.
       -1    1    3    3    0  502  0.14680731167E+03  0.91097211013E+02 -0.87029391783E+03  0.88727819315E+03  0.50400001928E-02 0. -1.
</event>
<event>
 5   0  0.6222733E-05  0.2011625E+04  0.7818609E-02  0.8601205E-01
        1   -1    0    0  501    0  0.00000000000E+00  0.00000000000E+00  0.16780180768E+04  0.16780180768E+04  0.50400001928E-02 0.  1.
       -1   -1    0    0    0  501  0.00000000000E+00  0.00000000000E+00 -0.60288909888E+03  0.60288909890E+03  0.50400001928E-02 0. -1.
    10030    2    1    2    0    0  0.00000000000E+00  0.00000000000E+00  0.10751289779E+04  0.22809071757E+04  0.20116250210E+04 0.  0.
        2    1    3    3  502    0 -0.57561515544E+03  0.52983144893E+03 -0.17919894428E+03  0.80259979634E+03  0.25500000920E-02 0. -1.
       -2    1    3    3    0  502  0.57561515544E+03 -0.52983144893E+03  0.12543279222E+04  0.14783073793E+04  0.25500000920E-02 0.  1.
</event>
<event>
 5   0  0.1274868E-04  0.2022800E+04  0.7818609E-02  0.8596034E-01
        2   -1    0    0  501    0  0.00000000000E+00  0.00000000000E+00  0.79416180317E+03  0.79416180317E+03  0.25500000920E-02 0.  1.
       -2   -1    0    0    0  501  0.00000000000E+00  0.00000000000E+00 -0.12880625828E+04  0.12880625828E+04  0.25500000920E-02 0. -1.
    10030    2    1    2    0    0  0.00000000000E+00  0.00000000000E+00 -0.49390077961E+03  0.20822243859E+04  0.20228001417E+04 0.  0.
        1    1    3    3  502    0  0.60637448889E+02  0.90928075897E+03 -0.69854288591E+03  0.11482293161E+04  0.50400001928E-02 0. -1.
       -1    1    3    3    0  502 -0.60637448889E+02 -0.90928075897E+03  0.20464210630E+03  0.93399506987E+03  0.50400001928E-02 0.  1.
</event>
<event>
 5   0  0.4479000E-05  0.1983381E+04  0.7818609E-02  0.8614430E-01
        3   -1    0    0  501    0  0.00000000000E+00  0.00000000000E+00  0.12311631450E+04  0.12311631492E+04  0.10100000352E+00 0.  1.
       -3   -1    0    0    0  501  0.00000000000E+00  0.00000000000E+00 -0.79879771562E+03  0.79879772201E+03  0.10100000352E+00 0. -1.
    10030    2    1    2    0    0  0.00000000000E+00  0.00000000000E+00  0.43236542939E+03  0.20299608712E+04  0.19833812730E+04 0.  0.
        3    1    3    3  502    0  0.64623566821E+03  0.20478893867E+03  0.95698452503E+03  0.11727652961E+04  0.10100000352E+00 0.  1.
       -3    1    3    3    0  502 -0.64623566821E+03 -0.20478893867E+03 -0.52461909564E+03  0.85719557511E+03  0.10100000352E+00 0. -1.
</event>
<event>
 5   0  0.1159914E-04  0.1907055E+04  0.7818609E-02  0.8651352E-01
       -2   -1    0    0    0  501  0.00000000000E+00  0.00000000000E+00  0.11403765291E+04  0.11403765291E+04  0.25500000920E-02 0. -1.
        2   -1    0    0  501    0  0.00000000000E+00  0.00000000000E+00 -0.79729363876E+03  0.79729363876E+03  0.25500000920E-02 0.  1.
    10030    2    1    2    0    0  0.00000000000E+00  0.00000000000E+00  0.34308289033E+03  0.19376701679E+04  0.19070552718E+04 0.  0.
        3    1    3    3  502    0 -0.36230768875E+03  0.36283150218E+03  0.98837602513E+03  0.11134633975E+04  0.10100000352E+00 0. -1.
       -3    1    3    3    0  502  0.36230768875E+03 -0.36283150218E+03 -0.64529313479E+03  0.82420677036E+03  0.10100000352E+00 0.  1.
</event>
<event>
 5   0  0.1281789E-04  0.2089520E+04  0.7818609E-02  0.8565874E-01
        2   -1    0    0  501    0  0.00000000000E+00  0.00000000000E+00  0.17162778260E+04  0.17162778260E+04  0.25500000920E-02 0. -1.
       -2   -1    0    0    0  501  0.00000000000E+00  0.00000000000E+00 -0.63598272592E+03  0.63598272593E+03  0.25500000920E-02 0.  1.
    10030    2    1    2    0    0  0.00000000000E+00  0.00000000000E+00  0.10802951001E+04  0.23522605519E+04  0.20895196101E+04 0.  0.
        2    1    3    3  502    0 -0.85785959910E+02 -0.26781199724E+03  0.16728706057E+04  0.16963427013E+04  0.25500000920E-02 0. -1.
       -2    1    3    3    0  502  0.85785959910E+02  0.26781199724E+03 -0.59257550568E+03  0.65591785059E+03  0.25500000920E-02 0.  1.
</event>
<event>
 5   0  0.1274868E-04  0.1986164E+04  0.7818609E-02  0.8613117E-01
       -2   -1    0    0    0  501  0.00000000000E+00  0.00000000000E+00  0.56573221439E+03  0.56573221439E+03  0.25500000920E-02 0.  1.
        2   -1    0    0  501    0  0.00000000000E+00  0.00000000000E+00 -0.17432489314E+04  0.17432489314E+04  0.25500000920E-02 0. -1.
    10030    2    1    2    0    0  0.00000000000E+00  0.00000000000E+00 -0.11775167171E+04  0.23089811458E+04  0.19861642210E+04 0.  0.
        1    1    3    3  502    0  0.73641508132E+03 -0.61762765281E+03 -0.87925433260E+03  0.13026355096E+04  0.50400001928E-02 0.  1.
       -1    1    3    3    0  502 -0.73641508132E+03  0.61762765281E+03 -0.29826238446E+03  0.10063456362E+04  0.50400001928E-02 0. -1.
</event>
<event>
 5   0  0.1159914E-04  0.2019470E+04  0.7818609E-02  0.8597572E-01
       -2   -1    0    0    0  501  0.00000000000E+00  0.00000000000E+00  0.49740397179E+03  0.49740397180E+03  0.25500000920E-02 0.  1.
        2   -1    0    0  501    0  0.00000000000E+00  0.00000000000E+00 -0.20497719403E+04  0.20497719403E+04  0.25500000920E-02 0. -1.
    10030    2    1    2    0    0  0.00000000000E+00  0.00000000000E+00 -0.15523679685E+04  0.25471759121E+04  0.20194699348E+04 0.  0.
        3    1    3    3  502    0  0.13867898965E+03 -0.41665301488E+03 -0.19230276213E+04  0.19725280327E+04  0.10100000352E+00 0. -1.
       -3    1    3    3    0  502 -0.13867898965E+03  0.41665301488E+03  0.37065965279E+03  0.57464787948E+03  0.10100000352E+00 0.  1.
</event>
<event>
 5   0  0.6256535E-05  0.2005422E+04  0.7818609E-02  0.8604090E-01
       -1   -1    0    0    0  501  0.00000000000E+00  0.00000000000E+00  0.58422481557E+03  0.58422481559E+03  0.50400001928E-02 0.  1.
        1   -1    0    0  501    0  0.00000000000E+00  0.00000000000E+00 -0.17209625238E+04  0.17209625238E+04  0.50400001928E-02 0. -1.
    10030    2    1    2    0    0  0.00000000000E+00  0.00000000000E+00 -0.11367377082E+04  0.23051873394E+04  0.20054216645E+04 0.  0.
        1    1    3    3  502    0 -0.33950221586E+03  0.56090295234E+03 -0.14404240829E+04  0.15826229542E+04  0.50400001928E-02 0. -1.
       -1    1    3    3    0  502  0.33950221586E+03 -0.56090295234E+03  0.30368637469E+03  0.72256438517E+03  0.50400001928E-02 0.  1.
</event>
<event>
 5   0  0.4479000E-05  0.2001051E+04  0.7818609E-02  0.8606130E-01
       -3   -1    0    0    0  501  0.00000000000E+00  0.00000000000E+00  0.14050769988E+04  0.14050770024E+04  0.10100000352E+00 0.  1.
        3   -1    0    0  501    0  0.00000000000E+00  0.00000000000E+00 -0.71245276789E+03  0.71245277505E+03  0.10100000352E+00 0. -1.
    10030    2    1    2    0    0  0.00000000000E+00  0.00000000000E+00  0.69262423087E+03  0.21175297774E+04  0.20010507323E+04 0.  0.
        1    1    3    3  502    0 -0.44395664114E+03  0.53917426269E+03 -0.41180033866E+03  0.81079337917E+03  0.50400001928E-02 0. -1.
       -1    1    3    3    0  502  0.44395664114E+03 -0.53917426269E+03  0.11044245695E+04  0.13067363983E+04  0.50400001928E-02 0.  1.
</event>
<event>
 5   0  0.1242761E-04  0.2093436E+04  0.7818609E-02  0.8564140E-01
        2   -1    0    0  501    0  0.00000000000E+00  0.00000000000E+00  0.24171623591E+04  0.24171623591E+04  0.25500000920E-02 0. -1.
       -2   -1    0    0    0  501  0.00000000000E+00  0.00000000000E+00 -0.45326654437E+03  0.45326654437E+03  0.25500000920E-02 0.  1.
    10030    2    1    2    0    0  0.00000000000E+00  0.00000000000E+00  0.19638958147E+04  0.28704289035E+04  0.20934362466E+04 0.  0.
        4    1    3    3  502    0 -0.46456286788E+03 -0.26556386259E+03 -0.25154016556E+03  0.59128410355E+03  0.12699999809E+01 0.  1.
       -4    1    3    3    0  502  0.46456286788E+03  0.26556386259E+03  0.22154359803E+04  0.22791447999E+04  0.12699999809E+01 0. -1.
</event>
<event>
 5   0  0.1281789E-04  0.2011048E+04  0.7818609E-02  0.8601473E-01
        2   -1    0    0  501    0  0.00000000000E+00  0.00000000000E+00  0.86936828747E+03  0.86936828748E+03  0.25500000920E-02 0. -1.
       -2   -1    0    0    0  501  0.00000000000E+00  0.00000000000E+00 -0.11630034693E+04  0.11630034693E+04  0.25500000920E-02 0.  1.
    10030    2    1    2    0    0  0.00000000000E+00  0.00000000000E+00 -0.29363518182E+03  0.20323717568E+04  0.20110478208E+04 0.  0.
        2    1    3    3  502    0 -0.82880181060E+02  0.99630297996E+03 -0.25561402018E+03  0.10319046853E+04  0.25500000920E-02 0.  1.
       -2    1    3    3    0  502  0.82880181060E+02 -0.99630297996E+03 -0.38021161637E+02  0.10004670714E+04  0.25500000920E-02 0. -1.
</event>
<event>
 5   0  0.6222733E-05  0.2004209E+04  0.7818609E-02  0.8604655E-01
       -1   -1    0    0    0  501  0.00000000000E+00  0.00000000000E+00  0.53323753729E+03  0.53323753731E+03  0.50400001928E-02 0. -1.
        1   -1    0    0  501    0  0.00000000000E+00  0.00000000000E+00 -0.18832388076E+04  0.18832388076E+04  0.50400001928E-02 0.  1.
    10030    2    1    2    0    0  0.00000000000E+00  0.00000000000E+00 -0.13500012703E+04  0.24164763449E+04  0.20042091946E+04 0.  0.
        2    1    3    3  502    0  0.14891682464E+03  0.30461820795E+03  0.46197262459E+03  0.57305076490E+03  0.25500000920E-02 0. -1.
       -2    1    3    3    0  502 -0.14891682464E+03 -0.30461820795E+03 -0.18119738949E+04  0.18434255800E+04  0.25500000920E-02 0.  1.
</event>
<event>
 5   0  0.4479000E-05  0.1974886E+04  0.7818609E-02  0.8618453E-01
       -4   -1    0    0    0  501  0.00000000000E+00  0.00000000000E+00  0.92552504208E+03  0.92552591343E+03  0.12699999809E+01 0. -1.
        4   -1    0    0  501    0  0.00000000000E+00  0.00000000000E+00 -0.10535013902E+04  0.10535021556E+04  0.12699999809E+01 0.  1.
    10030    2    1    2    0    0  0.00000000000E+00  0.00000000000E+00 -0.12797634807E+03  0.19790280691E+04  0.19748858581E+04 0.  0.
        1    1    3    3  502    0  0.26378939483E+03 -0.36148695028E+03 -0.94605360547E+03  0.10465539090E+04  0.50400001928E-02 0.  1.
       -1    1    3    3    0  502 -0.26378939483E+03  0.36148695028E+03  0.81807725740E+03  0.93247416005E+03  0.50400001928E-02 0. -1.
</event>
<event>
 5   0  0.1274868E-04  0.2005168E+04  0.7818609E-02  0.8604208E-01
        2   -1    0    0  501    0  0.00000000000E+00  0.00000000000E+00  0.14291565079E+04  0.14291565079E+04  0.25500000920E-02 0. -1.
       -2   -1    0    0    0  501  0.00000000000E+00  0.00000000000E+00 -0.70333439332E+03  0.70333439332E+03  0.25500000920E-02 0.  1.
    10030    2    1    2    0    0  0.00000000000E+00  0.00000000000E+00  0.72582211459E+03  0.21324909012E+04  0.20051682478E+04 0.  0.
        1    1    3    3  502    0  0.69513506037E+03  0.30872157870E+03  0.10575735515E+04  0.13026832240E+04  0.50400001928E-02 0. -1.
       -1    1    3    3    0  502 -0.69513506037E+03 -0.30872157870E+03 -0.33175143687E+03  0.82980767724E+03  0.50400001928E-02 0.  1.
</event>
<event>
 5   0  0.6256535E-05  0.1996326E+04  0.7818609E-02  0.8608340E-01
       -1   -1    0    0    0  501  0.00000000000E+00  0.00000000000E+00  0.95744844011E+03  0.95744844012E+03  0.50400001928E-02 0. -1.
        1   -1    0    0  501    0  0.00000000000E+00  0.00000000000E+00 -0.10406086025E+04  0.10406086026E+04  0.50400001928E-02 0.  1.
    10030    2    1    2    0    0  0.00000000000E+00  0.00000000000E+00 -0.83160162429E+02  0.19980570427E+04  0.19963257082E+04 0.  0.
        1    1    3    3  502    0  0.22589908314E+03  0.67575727564E+03  0.65806178042E+03  0.96990906698E+03  0.50400001928E-02 0. -1.
       -1    1    3    3    0  502 -0.22589908314E+03 -0.67575727564E+03 -0.74122194285E+03  0.10281479757E+04  0.50400001928E-02 0.  1.
</event>
<event>
 5   0  0.6168338E-05  0.2002885E+04  0.7818609E-02  0.8605273E-01
        1   -1    0    0  501    0  0.00000000000E+00  0.00000000000E+00  0.16112103624E+04  0.16112103624E+04  0.50400001928E-02 0.  1.
       -1   -1    0    0    0  501  0.00000000000E+00  0.00000000000E+00 -0.62244309567E+03  0.62244309569E+03  0.50400001928E-02 0. -1.
    10030    2    1    2    0    0  0.00000000000E+00  0.00000000000E+00  0.98876726676E+03  0.22336534581E+04  0.20028846854E+04 0.  0.
        5    1    3    3  502    0 -0.28622340502E+03  0.89911539756E+03  0.86849295041E+03  0.12824330121E+04  0.46999998093E+01 0.  1.
       -5    1    3    3    0  502  0.28622340502E+03 -0.89911539756E+03  0.12027431635E+03  0.95122044599E+03  0.46999998093E+01 0. -1.
</event>
<event>
 5   0  0.6256535E-05  0.1992830E+04  0.7818609E-02  0.8609980E-01
       -1   -1    0    0    0  501  0.00000000000E+00  0.00000000000E+00  0.92753488656E+03  0.92753488658E+03  0.50400001928E-02 0.  1.
        1   -1    0    0  501    0  0.00000000000E+00  0.00000000000E+00 -0.10704105374E+04  0.10704105374E+04  0.50400001928E-02 0. -1.
    10030    2    1    2    0    0  0.00000000000E+00  0.00000000000E+00 -0.14287565079E+03  0.19979454239E+04  0.19928302651E+04 0.  0.
        1    1    3    3  502    0 -0.56675609651E+03  0.14903140207E+03  0.73649682698E+03  0.94119626429E+03  0.50400001928E-02 0.  1.
       -1    1    3    3    0  502  0.56675609651E+03 -0.14903140207E+03 -0.87937247777E+03  0.10567491597E+04  0.50400001928E-02 0. -1.
</event>
<event>
 5   0  0.6214547E-05  0.2011226E+04  0.7818609E-02  0.8601390E-01
       -1   -1    0    0    0  501  0.00000000000E+00  0.00000000000E+00  0.89989751746E+03  0.89989751747E+03  0.50400001928E-02 0.  1.
        1   -1    0    0  501    0  0.00000000000E+00  0.00000000000E+00 -0.11237468699E+04  0.11237468699E+04  0.50400001928E-02 0. -1.
    10030    2    1    2    0    0  0.00000000000E+00  0.00000000000E+00 -0.22384935247E+03  0.20236443874E+04  0.20112255155E+04 0.  0.
        3    1    3    3  502    0  0.12795473087E+03 -0.94372330740E+03  0.21297929335E+03  0.97588231036E+03  0.10100000352E+00 0.  1.
       -3    1    3    3    0  502 -0.12795473087E+03  0.94372330740E+03 -0.43682864581E+03  0.10477620770E+04  0.10100000352E+00 0. -1.
</event>
<event>
 5   0  0.1159914E-04  0.2021896E+04  0.7818609E-02  0.8596452E-01
        2   -1    0    0  501    0  0.00000000000E+00  0.00000000000E+00  0.88162746523E+03  0.88162746523E+03  0.25500000920E-02 0. -1.
       -2   -1    0    0    0  501  0.00000000000E+00  0.00000000000E+00 -0.11592376420E+04  0.11592376420E+04  0.25500000920E-02 0.  1.
    10030    2    1    2    0    0  0.00000000000E+00  0.00000000000E+00 -0.27761017677E+03  0.20408651072E+04  0.20218958865E+04 0.  0.
        3    1    3    3  502    0  0.75292234914E+03 -0.92985288475E+02 -0.81326362369E+03  0.11121762718E+04  0.10100000352E+00 0.  1.
       -3    1    3    3    0  502 -0.75292234914E+03  0.92985288475E+02  0.53565344692E+03  0.92868883545E+03  0.10100000352E+00 0. -1.
</event>
<event>
 5   0  0.1274868E-04  0.2001061E+04  0.7818609E-02  0.8606125E-01
        2   -1    0    0  501    0  0.00000000000E+00  0.00000000000E+00  0.14111851297E+04  0.14111851297E+04  0.25500000920E-02 0. -1.
       -2   -1    0    0    0  501  0.00000000000E+00  0.00000000000E+00 -0.70937653246E+03  0.70937653247E+03  0.25500000920E-02 0.  1.
    10030    2    1    2    0    0  0.00000000000E+00  0.00000000000E+00  0.70180859725E+03  0.21205616622E+04  0.20010613324E+04 0.  0.
        1    1    3    3  502    0  0.94087375520E+03 -0.26907739515E+03  0.57171145252E+03  0.11333578662E+04  0.50400001928E-02 0.  1.
       -1    1    3    3    0  502 -0.94087375520E+03  0.26907739515E+03  0.13009714472E+03  0.98720379603E+03  0.50400001928E-02 0. -1.
</event>
<event>
 5   0  0.4479000E-05  0.2007850E+04  0.7818609E-02  0.8602959E-01
        3   -1    0    0  501    0  0.00000000000E+00  0.00000000000E+00  0.10793491977E+04  0.10793492024E+04  0.10100000352E+00 0.  1.
       -3   -1    0    0    0  501  0.00000000000E+00  0.00000000000E+00 -0.93377119180E+03  0.93377119726E+03  0.10100000352E+00 0. -1.
    10030    2    1    2    0    0  0.00000000000E+00  0.00000000000E+00  0.14557800591E+03  0.20131203997E+04  0.20078497922E+04 0.  0.
        5    1    3    3  502    0 -0.27875945284E+03 -0.78195984713E+03  0.63878397862E+03  0.10474899028E+04  0.46999998093E+01 0. -1.
       -5    1    3    3    0  502  0.27875945284E+03  0.78195984713E+03 -0.49320597271E+03  0.96563049692E+03  0.46999998093E+01 0.  1.
</event>
<event>
 5   0  0.1242761E-04  0.2116079E+04  0.7818609E-02  0.8554193E-01
        2   -1    0    0  501    0  0.00000000000E+00  0.00000000000E+00  0.16502013045E+04  0.16502013045E+04  0.25500000920E-02 0. -1.
       -2   -1    0    0    0  501  0.00000000000E+00  0.00000000000E+00 -0.67837057129E+03  0.67837057129E+03  0.25500000920E-02 0.  1.
    10030    2    1    2    0    0  0.00000000000E+00  0.00000000000E+00  0.97183073320E+03  0.23285718758E+04  0.21160793952E+04 0.  0.
        4    1    3    3  502    0  0.24115228689E+03 -0.91385853419E+03  0.10092269494E+04  0.13826903103E+04  0.12699999809E+01 0.  1.
       -4    1    3    3    0  502 -0.24115228689E+03  0.91385853419E+03 -0.37396216198E+02  0.94588156545E+03  0.12699999809E+01 0. -1.
</event>
<event>
 5   0  0.6222733E-05  0.1969302E+04  0.7818609E-02  0.8621109E-01
        1   -1    0    0  501    0  0.00000000000E+00  0.00000000000E+00  0.23692097654E+04  0.23692097654E+04  0.50400001928E-02 0. -1.
       -1   -1    0    0    0  501  0.00000000000E+00  0.00000000000E+00 -0.40922418218E+03  0.40922418221E+03  0.50400001928E-02 0.  1.
    10030    2    1    2    0    0  0.00000000000E+00  0.00000000000E+00  0.19599855832E+04  0.27784339476E+04  0.19693023422E+04 0.  0.
        2    1    3    3  502    0  0.43870295254E+03  0.29124039798E+03 -0.19388059440E+03  0.56113361588E+03  0.25500000920E-02 0.  1.
       -2    1    3    3    0  502 -0.43870295254E+03 -0.29124039798E+03  0.21538661776E+04  0.22173003317E+04  0.25500000920E-02 0. -1.
</event>
<event>
 5   0  0.1244229E-04  0.1934961E+04  0.7818609E-02  0.8637647E-01
        2   -1    0    0  501    0  0.00000000000E+00  0.00000000000E+00  0.13939750893E+04  0.13939750893E+04  0.25500000920E-02 0.  1.
       -2   -1    0    0    0  501  0.00000000000E+00  0.00000000000E+00 -0.67147404429E+03  0.67147404429E+03  0.25500000920E-02 0. -1.
    10030    2    1    2    0    0  0.00000000000E+00  0.00000000000E+00  0.72250104501E+03  0.20654491336E+04  0.19349605586E+04 0.  0.
        5    1    3    3  502    0 -0.45900179354E+03 -0.36621663434E+03  0.11819972006E+04  0.13198245118E+04  0.46999998093E+01 0.  1.
       -5    1    3    3    0  502  0.45900179354E+03  0.36621663434E+03 -0.45949615554E+03  0.74562462184E+03  0.46999998093E+01 0. -1.
</event>
<event>
 5   0  0.1244229E-04  0.2005999E+04  0.7818609E-02  0.8603821E-01
        2   -1    0    0  501    0  0.00000000000E+00  0.00000000000E+00  0.97712508699E+03  0.97712508700E+03  0.25500000920E-02 0. -1.
       -2   -1    0    0    0  501  0.00000000000E+00  0.00000000000E+00 -0.10295593322E+04  0.10295593322E+04  0.25500000920E-02 0.  1.
    10030    2    1    2    0    0  0.00000000000E+00  0.00000000000E+00 -0.52434245195E+02  0.20066844192E+04  0.20059992543E+04 0.  0.
        5    1    3    3  502    0 -0.83523967090E+03 -0.11004981556E+03 -0.57069145610E+03  0.10175692103E+04  0.46999998093E+01 0.  1.
       -5    1    3    3    0  502  0.83523967090E+03  0.11004981556E+03  0.51825721091E+03  0.98911520886E+03  0.46999998093E+01 0. -1.
</event>
<event>
 5   0  0.1159914E-04  0.2003690E+04  0.7818609E-02  0.8604897E-01
        2   -1    0    0  501    0  0.00000000000E+00  0.00000000000E+00  0.18760621453E+04  0.18760621453E+04  0.25500000920E-02 0.  1.
       -2   -1    0    0    0  501  0.00000000000E+00  0.00000000000E+00 -0.53500014696E+03  0.53500014696E+03  0.25500000920E-02 0. -1.
    10030    2    1    2    0    0  0.00000000000E+00  0.00000000000E+00  0.13410619983E+04  0.24110622922E+04  0.20036901192E+04 0.  0.
        3    1    3    3  502    0  0.39509609159E+03  0.81007150157E+03  0.14412301653E+03  0.91273666155E+03  0.10100000352E+00 0. -1.
       -3    1    3    3    0  502 -0.39509609159E+03 -0.81007150157E+03  0.11969389818E+04  0.14983256307E+04  0.10100000352E+00 0.  1.
</event>
<event>
 5   0  0.1244229E-04  0.1994492E+04  0.7818609E-02  0.8609200E-01
        2   -1    0    0  501    0  0.00000000000E+00  0.00000000000E+00  0.11186470450E+04  0.11186470450E+04  0.25500000920E-02 0.  1.
       -2   -1    0    0    0  501  0.00000000000E+00  0.00000000000E+00 -0.88901969637E+03  0.88901969637E+03  0.25500000920E-02 0. -1.
    10030    2    1    2    0    0  0.00000000000E+00  0.00000000000E+00  0.22962734867E+03  0.20076667414E+04  0.19944916709E+04 0.  0.
        5    1    3    3  502    0  0.73932896772E+03  0.65289462905E+03  0.26274858096E+03  0.10207534599E+04  0.46999998093E+01 0.  1.
       -5    1    3    3    0  502 -0.73932896772E+03 -0.65289462905E+03 -0.33121232289E+02  0.98691328149E+03  0.46999998093E+01 0. -1.
</event>
<event>
 5   0  0.1281789E-04  0.2089746E+04  0.7818609E-02  0.8565774E-01
        2   -1    0    0  501    0  0.00000000000E+00  0.00000000000E+00  0.76007813347E+03  0.76007813347E+03  0.25500000920E-02 0.  1.
       -2   -1    0    0    0  501  0.00000000000E+00  0.00000000000E+00 -0.14363782395E+04  0.14363782395E+04  0.25500000920E-02 0. -1.
    10030    2    1    2    0    0  0.00000000000E+00  0.00000000000E+00 -0.67630010602E+03  0.21964563730E+04  0.20897461006E+04 0.  0.
        2    1    3    3  502    0  0.77336552317E+03 -0.28318828900E+03 -0.10140010864E+04  0.13063261625E+04  0.25500000920E-02 0. -1.
       -2    1    3    3    0  502 -0.77336552317E+03  0.28318828900E+03  0.33770098041E+03  0.89013021049E+03  0.25500000920E-02 0.  1.
</event>
<event>
 5   0  0.1244229E-04  0.2043096E+04  0.7818609E-02  0.8586733E-01
       -2   -1    0    0    0  501  0.00000000000E+00  0.00000000000E+00  0.68173581112E+03  0.68173581113E+03  0.25500000920E-02 0.  1.
        2   -1    0    0  501    0  0.00000000000E+00  0.00000000000E+00 -0.15307399726E+04  0.15307399726E+04  0.25500000920E-02 0. -1.
    10030    2    1    2    0    0  0.00000000000E+00  0.00000000000E+00 -0.84900416143E+03  0.22124757837E+04  0.20430959418E+04 0.  0.
        5    1    3    3  502    0 -0.12819457360E+02 -0.23801161940E+03 -0.15001934299E+04  0.15190181982E+04  0.46999998093E+01 0. -1.
       -5    1    3    3    0  502  0.12819457360E+02  0.23801161940E+03  0.65118926847E+03  0.69345758545E+03  0.46999998093E+01 0.  1.
</event>
<event>
 5   0  0.1281789E-04  0.1995966E+04  0.7818609E-02  0.8608509E-01
        2   -1    0    0  501    0  0.00000000000E+00  0.00000000000E+00  0.18932889214E+04  0.18932889214E+04  0.25500000920E-02 0.  1.
       -2   -1    0    0    0  501  0.00000000000E+00  0.00000000000E+00 -0.52605289298E+03  0.52605289298E+03  0.25500000920E-02 0. -1.
    10030    2    1    2    0    0  0.00000000000E+00  0.00000000000E+00  0.13672360284E+04  0.24193418144E+04  0.19959660461E+04 0.  0.
        2    1    3    3  502    0 -0.31264121518E+03 -0.62752058262E+03 -0.17727730997E+03  0.72315548513E+03  0.25500000920E-02 0. -1.
       -2    1    3    3    0  502  0.31264121518E+03  0.62752058262E+03  0.15445133384E+04  0.16961863292E+04  0.25500000920E-02 0.  1.
</event>
<event>
 5   0  0.1242761E-04  0.2008147E+04  0.7818609E-02  0.8602821E-01
       -2   -1    0    0    0  501  0.00000000000E+00  0.00000000000E+00  0.10182905971E+04  0.10182905971E+04  0.25500000920E-02 0.  1.
        2   -1    0    0  501    0  0.00000000000E+00  0.00000000000E+00 -0.99005446786E+03  0.99005446786E+03  0.25500000920E-02 0. -1.
    10030    2    1    2    0    0  0.00000000000E+00  0.00000000000E+00  0.28236129208E+02  0.20083450649E+04  0.20081465636E+04 0.  0.
        4    1    3    3  502    0 -0.73366614541E+03 -0.31056560272E+03 -0.59704342630E+03  0.99557996781E+03  0.12699999809E+01 0.  1.
       -4    1    3    3    0  502  0.73366614541E+03  0.31056560272E+03  0.62527955551E+03  0.10127650971E+04  0.12699999809E+01 0. -1.
</event>
<event>
 5   0  0.1274868E-04  0.2002912E+04  0.7818609E-02  0.8605260E-01
       -2   -1    0    0    0  501  0.00000000000E+00  0.00000000000E+00  0.44224003971E+03  0.44224003971E+03  0.25500000920E-02 0. -1.
        2   -1    0    0  501    0  0.00000000000E+00  0.00000000000E+00 -0.22678054733E+04  0.22678054733E+04  0.25500000920E-02 0.  1.
    10030    2    1    2    0    0  0.00000000000E+00  0.00000000000E+00 -0.18255654336E+04  0.27100455131E+04  0.20029122623E+04 0.  0.
        1    1    3    3  502    0 -0.19374918697E+03  0.28017681282E+03  0.36144267326E+03  0.49666749438E+03  0.50400001928E-02 0. -1.
       -1    1    3    3    0  502  0.19374918697E+03 -0.28017681282E+03 -0.21870081069E+04  0.22133780187E+04  0.50400001928E-02 0.  1.
</event>
<event>
 5   0  0.6256535E-05  0.2003306E+04  0.7818609E-02  0.8605076E-01
       -1   -1    0    0    0  501  0.00000000000E+00  0.00000000000E+00  0.93413370724E+03  0.93413370725E+03  0.50400001928E-02 0. -1.
        1   -1    0    0  501    0  0.00000000000E+00  0.00000000000E+00 -0.10740528989E+04  0.10740528989E+04  0.50400001928E-02 0.  1.
    10030    2    1    2    0    0  0.00000000000E+00  0.00000000000E+00 -0.13991919166E+03  0.20081866062E+04  0.20033062834E+04 0.  0.
        1    1    3    3  502    0 -0.97305510857E+03  0.29351579494E+02 -0.30635447667E+03  0.10205639740E+04  0.50400001928E-02 0.  1.
       -1    1    3    3    0  502  0.97305510857E+03 -0.29351579494E+02  0.16643528501E+03  0.98762263221E+03  0.50400001928E-02 0. -1.
</event>
<event>
 5   0  0.6168338E-05  0.2049015E+04  0.7818609E-02  0.8584041E-01
       -1   -1    0    0    0  501  0.00000000000E+00  0.00000000000E+00  0.86897089872E+03  0.86897089873E+03  0.50400001928E-02 0. -1.
        1   -1    0    0  501    0  0.00000000000E+00  0.00000000000E+00 -0.12078832761E+04  0.12078832761E+04  0.50400001928E-02 0.  1.
    10030    2    1    2    0    0  0.00000000000E+00  0.00000000000E+00 -0.33891237736E+03  0.20768541748E+04  0.20490148033E+04 0.  0.
        5    1    3    3  502    0  0.52800159169E+03  0.26060107886E+03  0.68032291849E+03  0.89975550376E+03  0.46999998093E+01 0. -1.
       -5    1    3    3    0  502 -0.52800159169E+03 -0.26060107886E+03 -0.10192352958E+04  0.11770986711E+04  0.46999998093E+01 0.  1.
</event>
<event>
 5   0  0.6222733E-05  0.2008321E+04  0.7818609E-02  0.8602740E-01
        1   -1    0    0  501    0  0.00000000000E+00  0.00000000000E+00  0.14993477277E+04  0.14993477278E+04  0.50400001928E-02 0. -1.
       -1   -1    0    0    0  501  0.00000000000E+00  0.00000000000E+00 -0.67251773189E+03  0.67251773190E+03  0.50400001928E-02 0.  1.
    10030    2    1    2    0    0  0.00000000000E+00  0.00000000000E+00  0.82682999586E+03  0.21718654597E+04  0.20083206250E+04 0.  0.
        2    1    3    3  502    0  0.60410482277E+03 -0.24689283700E+03 -0.41191033775E+03  0.77173106469E+03  0.25500000920E-02 0.  1.
       -2    1    3    3    0  502 -0.60410482277E+03  0.24689283700E+03  0.12387403336E+04  0.14001343950E+04  0.25500000920E-02 0. -1.
</event>
<event>
 5   0  0.6168338E-05  0.2004146E+04  0.7818609E-02  0.8604685E-01
       -1   -1    0    0    0  501  0.00000000000E+00  0.00000000000E+00  0.75386431563E+03  0.75386431565E+03  0.50400001928E-02 0.  1.
        1   -1    0    0  501    0  0.00000000000E+00  0.00000000000E+00 -0.13320042433E+04  0.13320042433E+04  0.50400001928E-02 0. -1.
    10030    2    1    2    0    0  0.00000000000E+00  0.00000000000E+00 -0.57813992764E+03  0.20858685589E+04  0.20041461696E+04 0.  0.
        5    1    3    3  502    0 -0.10951479758E+03  0.71710154416E+03 -0.10085623112E+04  0.12423558834E+04  0.46999998093E+01 0. -1.
       -5    1    3    3    0  502  0.10951479758E+03 -0.71710154416E+03  0.43042238352E+03  0.84351267552E+03  0.46999998093E+01 0.  1.
</event>
<event>
 5   0  0.1274868E-04  0.1989491E+04  0.7818609E-02  0.8611550E-01
        2   -1    0    0  501    0  0.00000000000E+00  0.00000000000E+00  0.11433791165E+04  0.11433791165E+04  0.25500000920E-02 0.  1.
       -2   -1    0    0    0  501  0.00000000000E+00  0.00000000000E+00 -0.86543390930E+03  0.86543390930E+03  0.25500000920E-02 0. -1.
    10030    2    1    2    0    0  0.00000000000E+00  0.00000000000E+00  0.27794520724E+03  0.20088130258E+04  0.19894914512E+04 0.  0.
        1    1    3    3  502    0 -0.42933305399E+02  0.14486389990E+03 -0.85378016178E+03  0.86704635567E+03  0.50400001928E-02 0. -1.
       -1    1    3    3    0  502  0.42933305399E+02 -0.14486389990E+03  0.11317253690E+04  0.11417666702E+04  0.50400001928E-02 0.  1.
</event>
<event>
 5   0  0.1242761E-04  0.1999657E+04  0.7818609E-02  0.8606781E-01
       -2   -1    0    0    0  501  0.00000000000E+00  0.00000000000E+00  0.71316113379E+03  0.71316113379E+03  0.25500000920E-02 0. -1.
        2   -1    0    0  501    0  0.00000000000E+00  0.00000000000E+00 -0.14017265600E+04  0.14017265600E+04  0.25500000920E-02 0.  1.
    10030    2    1    2    0    0  0.00000000000E+00  0.00000000000E+00 -0.68856542617E+03  0.21148876938E+04  0.19996568733E+04 0.  0.
        4    1    3    3  502    0 -0.58556001316E+02  0.43369473862E+03 -0.12950492420E+04  0.13669945441E+04  0.12699999809E+01 0.  1.
       -4    1    3    3    0  502  0.58556001316E+02 -0.43369473862E+03  0.60648381579E+03  0.74789314966E+03  0.12699999809E+01 0. -1.
</event>
<event>
 5   0  0.6028501E-05  0.2011121E+04  0.7818609E-02  0.8601439E-01
        1   -1    0    0  501    0  0.00000000000E+00  0.00000000000E+00  0.20227022215E+04  0.20227022215E+04  0.50400001928E-02 0. -1.
       -1   -1    0    0    0  501  0.00000000000E+00  0.00000000000E+00 -0.49990136200E+03  0.49990136202E+03  0.50400001928E-02 0.  1.
    10030    2    1    2    0    0  0.00000000000E+00  0.00000000000E+00  0.15228008595E+04  0.25226035835E+04  0.20111206781E+04 0.  0.
        4    1    3    3  502    0  0.37069698656E+03  0.60278822967E+03  0.16575030216E+04  0.18022452067E+04  0.12699999809E+01 0. -1.
       -4    1    3    3    0  502 -0.37069698656E+03 -0.60278822967E+03 -0.13470216208E+03  0.72035837681E+03  0.12699999809E+01 0.  1.
</event>
<event>
 5   0  0.6222733E-05  0.2089187E+04  0.7818609E-02  0.8566022E-01
        1   -1    0    0  501    0  0.00000000000E+00  0.00000000000E+00  0.12668578119E+04  0.12668578119E+04  0.50400001928E-02 0. -1.
       -1   -1    0    0    0  501  0.00000000000E+00  0.00000000000E+00 -0.86132459170E+03  0.86132459171E+03  0.50400001928E-02 0.  1.
    10030    2    1    2    0    0  0.00000000000E+00  0.00000000000E+00  0.40553322020E+03  0.21281824036E+04  0.20891871985E+04 0.  0.
        2    1    3    3  502    0 -0.55165865712E+03  0.88193407099E+03  0.29962452516E+03  0.10825478445E+04  0.25500000920E-02 0.  1.
       -2    1    3    3    0  502  0.55165865712E+03 -0.88193407099E+03  0.10590869504E+03  0.10456345591E+04  0.25500000920E-02 0. -1.
</event>
<event>
 5   0  0.6222733E-05  0.1986873E+04  0.7818609E-02  0.8612783E-01
        1   -1    0    0  501    0  0.00000000000E+00  0.00000000000E+00  0.15804851775E+04  0.15804851775E+04  0.50400001928E-02 0. -1.
       -1   -1    0    0    0  501  0.00000000000E+00  0.00000000000E+00 -0.62443842448E+03  0.62443842450E+03  0.50400001928E-02 0.  1.
    10030    2    1    2    0    0  0.00000000000E+00  0.00000000000E+00  0.95604675301E+03  0.22049236020E+04  0.19868725920E+04 0.  0.
        2    1    3    3  502    0  0.58621390260E+03  0.20046881891E+03 -0.38378640285E+03  0.72878425475E+03  0.25500000920E-02 0.  1.
       -2    1    3    3    0  502 -0.58621390260E+03 -0.20046881891E+03  0.13398331559E+04  0.14761393472E+04  0.25500000920E-02 0. -1.
</event>
<event>
 5   0  0.1281789E-04  0.1645957E+04  0.7818609E-02  0.8792802E-01
       -2   -1    0    0    0  501  0.00000000000E+00  0.00000000000E+00  0.60075956911E+03  0.60075956912E+03  0.25500000920E-02 0.  1.
        2   -1    0    0  501    0  0.00000000000E+00  0.00000000000E+00 -0.11273955138E+04  0.11273955138E+04  0.25500000920E-02 0. -1.
    10030    2    1    2    0    0  0.00000000000E+00  0.00000000000E+00 -0.52663594473E+03  0.17281550830E+04  0.16459570385E+04 0.  0.
        2    1    3    3  502    0 -0.75911380397E+03  0.22449084648E+03 -0.49959803863E+03  0.93608125060E+03  0.25500000920E-02 0. -1.
       -2    1    3    3    0  502  0.75911380397E+03 -0.22449084648E+03 -0.27037906097E+02  0.79207383235E+03  0.25500000920E-02 0.  1.
</event>
<event>
 5   0  0.6256535E-05  0.1950240E+04  0.7818609E-02  0.8630245E-01
       -1   -1    0    0    0  501  0.00000000000E+00  0.00000000000E+00  0.69919686155E+03  0.69919686157E+03  0.50400001928E-02 0. -1.
        1   -1    0    0  501    0  0.00000000000E+00  0.00000000000E+00 -0.13599299047E+04  0.13599299047E+04  0.50400001928E-02 0.  1.
    10030    2    1    2    0    0  0.00000000000E+00  0.00000000000E+00 -0.66073304313E+03  0.20591267663E+04  0.19502396994E+04 0.  0.
        1    1    3    3  502    0 -0.26213103803E+03 -0.81186123502E+03 -0.82899166915E+03  0.11895623286E+04  0.50400001928E-02 0.  1.
       -1    1    3    3    0  502  0.26213103803E+03  0.81186123502E+03  0.16825862602E+03  0.86956443768E+03  0.50400001928E-02 0. -1.
</event>
<event>
 5   0  0.6222733E-05  0.1923394E+04  0.7818609E-02  0.8643299E-01
        1   -1    0    0  501    0  0.00000000000E+00  0.00000000000E+00  0.10089430279E+04  0.10089430279E+04  0.50400001928E-02 0. -1.
       -1   -1    0    0    0  501  0.00000000000E+00  0.00000000000E+00 -0.91666321577E+03  0.91666321579E+03  0.50400001928E-02 0.  1.
    10030    2    1    2    0    0  0.00000000000E+00  0.00000000000E+00  0.92279812104E+02  0.19256062437E+04  0.19233938343E+04 0.  0.
        2    1    3    3  502    0 -0.75423919717E+02  0.58822862119E+03 -0.71180376504E+03  0.92648058716E+03  0.25500000920E-02 0.  1.
       -2    1    3    3    0  502  0.75423919717E+02 -0.58822862119E+03  0.80408357715E+03  0.99912565651E+03  0.25500000920E-02 0. -1.
</event>
<event>
 5   0  0.6214547E-05  0.1948869E+04  0.7818609E-02  0.8630906E-01
       -1   -1    0    0    0  501  0.00000000000E+00  0.00000000000E+00  0.93036630410E+03  0.93036630412E+03  0.50400001928E-02 0. -1.
        1   -1    0    0  501    0  0.00000000000E+00  0.00000000000E+00 -0.10205901488E+04  0.10205901488E+04  0.50400001928E-02 0.  1.
    10030    2    1    2    0    0  0.00000000000E+00  0.00000000000E+00 -0.90223844723E+02  0.19509564530E+04  0.19488690924E+04 0.  0.
        3    1    3    3  502    0 -0.65219350008E+03 -0.65457361385E+03 -0.35479693588E+03  0.98979990574E+03  0.10100000352E+00 0.  1.
       -3    1    3    3    0  502  0.65219350008E+03  0.65457361385E+03  0.26457309115E+03  0.96115654722E+03  0.10100000352E+00 0. -1.
</event>
<event>
 5   0  0.6028501E-05  0.2019663E+04  0.7818609E-02  0.8597482E-01
        1   -1    0    0  501    0  0.00000000000E+00  0.00000000000E+00  0.20256221537E+04  0.20256221537E+04  0.50400001928E-02 0. -1.
       -1   -1    0    0    0  501  0.00000000000E+00  0.00000000000E+00 -0.50343056178E+03  0.50343056181E+03  0.50400001928E-02 0.  1.
    10030    2    1    2    0    0  0.00000000000E+00  0.00000000000E+00  0.15221915919E+04  0.25290527155E+04  0.20196634362E+04 0.  0.
        4    1    3    3  502    0 -0.27611870921E+03 -0.92705282127E+03  0.11242165598E+04  0.14830822503E+04  0.12699999809E+01 0. -1.
       -4    1    3    3    0  502  0.27611870921E+03  0.92705282127E+03  0.39797503213E+03  0.10459704652E+04  0.12699999809E+01 0.  1.
</event>
<event>
 5   0  0.1242761E-04  0.1969999E+04  0.7818609E-02  0.8620777E-01
        2   -1    0    0  501    0  0.00000000000E+00  0.00000000000E+00  0.12758378163E+04  0.12758378163E+04  0.25500000920E-02 0.  1.
       -2   -1    0    0    0  501  0.00000000000E+00  0.00000000000E+00 -0.76046009525E+03  0.76046009525E+03  0.25500000920E-02 0. -1.
    10030    2    1    2    0    0  0.00000000000E+00  0.00000000000E+00  0.51537772109E+03  0.20362979116E+04  0.19699987283E+04 0.  0.
        4    1    3    3  502    0 -0.69398418668E+03  0.58840375581E+03 -0.13235527048E+03  0.91943056384E+03  0.12699999809E+01 0. -1.
       -4    1    3    3    0  502  0.69398418668E+03 -0.58840375581E+03  0.64773299157E+03  0.11168673478E+04  0.12699999809E+01 0.  1.
</event>
<event>
 5   0  0.1281789E-04  0.2053251E+04  0.7818609E-02  0.8582121E-01
       -2   -1    0    0    0  501  0.00000000000E+00  0.00000000000E+00  0.10137680687E+04  0.10137680687E+04  0.25500000920E-02 0. -1.
        2   -1    0    0  501    0  0.00000000000E+00  0.00000000000E+00 -0.10396457815E+04  0.10396457815E+04  0.25500000920E-02 0.  1.
    10030    2    1    2    0    0  0.00000000000E+00  0.00000000000E+00 -0.25877712820E+02  0.20534138503E+04  0.20532507846E+04 0.  0.
        2    1    3    3  502    0 -0.70030301209E+03 -0.69909486445E+03 -0.28645967753E+03  0.10301539133E+04  0.25500000920E-02 0.  1.
       -2    1    3    3    0  502  0.70030301209E+03  0.69909486445E+03  0.26058196470E+03  0.10232599370E+04  0.25500000920E-02 0. -1.
</event>
<event>
 5   0  0.1244229E-04  0.2033235E+04  0.7818609E-02  0.8591238E-01
        2   -1    0    0  501    0  0.00000000000E+00  0.00000000000E+00  0.13631858915E+04  0.13631858915E+04  0.25500000920E-02 0. -1.
       -2   -1    0    0    0  501  0.00000000000E+00  0.00000000000E+00 -0.75815858049E+03  0.75815858050E+03  0.25500000920E-02 0.  1.
    10030    2    1    2    0    0  0.00000000000E+00  0.00000000000E+00  0.60502731097E+03  0.21213444720E+04  0.20332349401E+04 0.  0.
        5    1    3    3  502    0  0.73044232355E+03  0.18353149128E+03  0.10149356793E+04  0.12638616694E+04  0.46999998093E+01 0. -1.
       -5    1    3    3    0  502 -0.73044232355E+03 -0.18353149128E+03 -0.40990836829E+03  0.85748280257E+03  0.46999998093E+01 0.  1.
</event>
<event>
 5   0  0.1159914E-04  0.2006272E+04  0.7818609E-02  0.8603694E-01
       -2   -1    0    0    0  501  0.00000000000E+00  0.00000000000E+00  0.33810219885E+03  0.33810219886E+03  0.25500000920E-02 0. -1.
        2   -1    0    0  501    0  0.00000000000E+00  0.00000000000E+00 -0.29762649944E+04  0.29762649944E+04  0.25500000920E-02 0.  1.
    10030    2    1    2    0    0  0.00000000000E+00  0.00000000000E+00 -0.26381627956E+04  0.33143671933E+04  0.20062719048E+04 0.  0.
        3    1    3    3  502    0  0.13721766028E+03 -0.90745010799E+02  0.31566583009E+03  0.35596105091E+03  0.10100000352E+00 0. -1.
       -3    1    3    3    0  502 -0.13721766028E+03  0.90745010799E+02 -0.29538286256E+04  0.29584061424E+04  0.10100000352E+00 0.  1.
</event>
<event>
 5   0  0.1274868E-04  0.2005833E+04  0.7818609E-02  0.8603898E-01
       -2   -1    0    0    0  501  0.00000000000E+00  0.00000000000E+00  0.84275383224E+03  0.84275383225E+03  0.25500000920E-02 0. -1.
        2   -1    0    0  501    0  0.00000000000E+00  0.00000000000E+00 -0.11935181510E+04  0.11935181510E+04  0.25500000920E-02 0.  1.
    10030    2    1    2    0    0  0.00000000000E+00  0.00000000000E+00 -0.35076431877E+03  0.20362719833E+04  0.20058334882E+04 0.  0.
        1    1    3    3  502    0  0.91317604732E+03 -0.85236771112E+02  0.23659155388E+03  0.94717018742E+03  0.50400001928E-02 0.  1.
       -1    1    3    3    0  502 -0.91317604732E+03  0.85236771112E+02 -0.58735587264E+03  0.10891017958E+04  0.50400001928E-02 0. -1.
</event>
<event>
 5   0  0.6214547E-05  0.1988998E+04  0.7818609E-02  0.8611782E-01
       -1   -1    0    0    0  501  0.00000000000E+00  0.00000000000E+00  0.72043009378E+03  0.72043009380E+03  0.50400001928E-02 0.  1.
        1   -1    0    0  501    0  0.00000000000E+00  0.00000000000E+00 -0.13728309514E+04  0.13728309514E+04  0.50400001928E-02 0. -1.
    10030    2    1    2    0    0  0.00000000000E+00  0.00000000000E+00 -0.65240085765E+03  0.20932610452E+04  0.19889984727E+04 0.  0.
        3    1    3    3  502    0  0.64309451817E+03  0.13652699899E+03 -0.11115188513E+04  0.12913885348E+04  0.10100000352E+00 0. -1.
       -3    1    3    3    0  502 -0.64309451817E+03 -0.13652699899E+03  0.45911799365E+03  0.80187251047E+03  0.10100000352E+00 0.  1.
</event>
<event>
 5   0  0.6214547E-05  0.2028479E+04  0.7818609E-02  0.8593420E-01
        1   -1    0    0  501    0  0.00000000000E+00  0.00000000000E+00  0.77013018113E+03  0.77013018114E+03  0.50400001928E-02 0. -1.
       -1   -1    0    0    0  501  0.00000000000E+00  0.00000000000E+00 -0.13357244672E+04  0.13357244672E+04  0.50400001928E-02 0.  1.
    10030    2    1    2    0    0  0.00000000000E+00  0.00000000000E+00 -0.56559428610E+03  0.21058546484E+04  0.20284789631E+04 0.  0.
        3    1    3    3  502    0 -0.52471865861E+03 -0.55497721610E+03  0.41000584211E+03  0.86685303359E+03  0.10100000352E+00 0. -1.
       -3    1    3    3    0  502  0.52471865861E+03  0.55497721610E+03 -0.97560012821E+03  0.12390016148E+04  0.10100000352E+00 0.  1.
</event>
<event>
 5   0  0.1244229E-04  0.1998014E+04  0.7818609E-02  0.8607550E-01
        2   -1    0    0  501    0  0.00000000000E+00  0.00000000000E+00  0.69687723403E+03  0.69687723403E+03  0.25500000920E-02 0. -1.
       -2   -1    0    0    0  501  0.00000000000E+00  0.00000000000E+00 -0.14321243219E+04  0.14321243219E+04  0.25500000920E-02 0.  1.
    10030    2    1    2    0    0  0.00000000000E+00  0.00000000000E+00 -0.73524708783E+03  0.21290015559E+04  0.19980138500E+04 0.  0.
        5    1    3    3  502    0 -0.83921529637E+03  0.49822770119E+03 -0.59486405450E+03  0.11429779041E+04  0.46999998093E+01 0. -1.
       -5    1    3    3    0  502  0.83921529637E+03 -0.49822770119E+03 -0.14038303333E+03  0.98602365181E+03  0.46999998093E+01 0.  1.
</event>
<event>
 5   0  0.6028501E-05  0.1993918E+04  0.7818609E-02  0.8609469E-01
        1   -1    0    0  501    0  0.00000000000E+00  0.00000000000E+00  0.89671852834E+03  0.89671852835E+03  0.50400001928E-02 0.  1.
       -1   -1    0    0    0  501  0.00000000000E+00  0.00000000000E+00 -0.11084051381E+04  0.11084051381E+04  0.50400001928E-02 0. -1.
    10030    2    1    2    0    0  0.00000000000E+00  0.00000000000E+00 -0.21168660975E+03  0.20051236664E+04  0.19939181771E+04 0.  0.
        4    1    3    3  502    0  0.26405549460E+03 -0.92914130038E+03 -0.35400320464E+03  0.10287607798E+04  0.12699999809E+01 0. -1.
       -4    1    3    3    0  502 -0.26405549460E+03  0.92914130038E+03  0.14231659489E+03  0.97636288663E+03  0.12699999809E+01 0.  1.
</event>
<event>
 5   0  0.1274868E-04  0.2000802E+04  0.7818609E-02  0.8606246E-01
       -2   -1    0    0    0  501  0.00000000000E+00  0.00000000000E+00  0.65709646341E+03  0.65709646342E+03  0.25500000920E-02 0. -1.
        2   -1    0    0  501    0  0.00000000000E+00  0.00000000000E+00 -0.15230669916E+04  0.15230669916E+04  0.25500000920E-02 0.  1.
    10030    2    1    2    0    0  0.00000000000E+00  0.00000000000E+00 -0.86597052819E+03  0.21801634550E+04  0.20008017730E+04 0.  0.
        1    1    3    3  502    0 -0.70587353060E+03 -0.70652253883E+03 -0.36972582035E+03  0.10649547978E+04  0.50400001928E-02 0.  1.
       -1    1    3    3    0  502  0.70587353060E+03  0.70652253883E+03 -0.49624470784E+03  0.11152086572E+04  0.50400001928E-02 0. -1.
</event>
<event>
 5   0  0.1159914E-04  0.1954819E+04  0.7818609E-02  0.8628041E-01
       -2   -1    0    0    0  501  0.00000000000E+00  0.00000000000E+00  0.90792831235E+03  0.90792831235E+03  0.25500000920E-02 0.  1.
        2   -1    0    0  501    0  0.00000000000E+00  0.00000000000E+00 -0.10522078331E+04  0.10522078331E+04  0.25500000920E-02 0. -1.
    10030    2    1    2    0    0  0.00000000000E+00  0.00000000000E+00 -0.14427952075E+03  0.19601361454E+04  0.19548189503E+04 0.  0.
        3    1    3    3  502    0  0.40834380585E+03 -0.79190377363E+03  0.33079031279E+03  0.95040964416E+03  0.10100000352E+00 0.  1.
       -3    1    3    3    0  502 -0.40834380585E+03  0.79190377363E+03 -0.47506983354E+03  0.10097265013E+04  0.10100000352E+00 0. -1.
</event>
<event>
 5   0  0.6214547E-05  0.1999331E+04  0.7818609E-02  0.8606934E-01
       -1   -1    0    0    0  501  0.00000000000E+00  0.00000000000E+00  0.67185099219E+03  0.67185099221E+03  0.50400001928E-02 0.  1.
        1   -1    0    0  501    0  0.00000000000E+00  0.00000000000E+00 -0.14874293471E+04  0.14874293471E+04  0.50400001928E-02 0. -1.
    10030    2    1    2    0    0  0.00000000000E+00  0.00000000000E+00 -0.81557835493E+03  0.21592803393E+04  0.19993307707E+04 0.  0.
        3    1    3    3  502    0 -0.25341599300E+03 -0.94768605899E+03 -0.61553819498E+03  0.11581087218E+04  0.10100000352E+00 0.  1.
       -3    1    3    3    0  502  0.25341599300E+03  0.94768605899E+03 -0.20004015995E+03  0.10011716175E+04  0.10100000352E+00 0. -1.
</event>
<event>
 5   0  0.1159914E-04  0.1998419E+04  0.7818609E-02  0.8607360E-01
        2   -1    0    0  501    0  0.00000000000E+00  0.00000000000E+00  0.11347278002E+04  0.11347278003E+04  0.25500000920E-02 0.  1.
       -2   -1    0    0    0  501  0.00000000000E+00  0.00000000000E+00 -0.87987610581E+03  0.87987610582E+03  0.25500000920E-02 0. -1.
    10030    2    1    2    0    0  0.00000000000E+00  0.00000000000E+00  0.25485169444E+03  0.20146039061E+04  0.19984192534E+04 0.  0.
        3    1    3    3  502    0  0.85846759090E+03 -0.26479165141E+03  0.56839114448E+03  0.10630850044E+04  0.10100000352E+00 0.  1.
       -3    1    3    3    0  502 -0.85846759090E+03  0.26479165141E+03 -0.31353945005E+03  0.95151890166E+03  0.10100000352E+00 0. -1.
</event>
<event>
 5   0  0.1274868E-04  0.2005111E+04  0.7818609E-02  0.8604235E-01
        2   -1    0    0  501    0  0.00000000000E+00  0.00000000000E+00  0.12765597925E+04  0.12765597925E+04  0.25500000920E-02 0. -1.
       -2   -1    0    0    0  501  0.00000000000E+00  0.00000000000E+00 -0.78736394220E+03  0.78736394220E+03  0.25500000920E-02 0.  1.
    10030    2    1    2    0    0  0.00000000000E+00  0.00000000000E+00  0.48919585030E+03  0.20639237347E+04  0.20051106211E+04 0.  0.
        1    1    3    3  502    0  0.93339239081E+03 -0.51404379270E+02  0.61751353649E+03  0.11203511651E+04  0.50400001928E-02 0. -1.
       -1    1    3    3    0  502 -0.93339239081E+03  0.51404379270E+02 -0.12831768619E+03  0.94357256957E+03  0.50400001928E-02 0.  1.
</event>
<event>
 5   0  0.6222733E-05  0.2000518E+04  0.7818609E-02  0.8606378E-01
        1   -1    0    0  501    0  0.00000000000E+00  0.00000000000E+00  0.13041433272E+04  0.13041433272E+04  0.50400001928E-02 0. -1.
       -1   -1    0    0    0  501  0.00000000000E+00  0.00000000000E+00 -0.76718451288E+03  0.76718451290E+03  0.50400001928E-02 0.  1.
    10030    2    1    2    0    0  0.00000000000E+00  0.00000000000E+00  0.53695881429E+03  0.20713278401E+04  0.20005184960E+04 0.  0.
        2    1    3    3  502    0  0.89184792400E+03 -0.44791663354E+01 -0.20043677652E+03  0.91410485386E+03  0.25500000920E-02 0.  1.
       -2    1    3    3    0  502 -0.89184792400E+03  0.44791663354E+01  0.73739559080E+03  0.11572229862E+04  0.25500000920E-02 0. -1.
</event>
<event>
 5   0  0.1242761E-04  0.1998564E+04  0.7818609E-02  0.8607292E-01
        2   -1    0    0  501    0  0.00000000000E+00  0.00000000000E+00  0.10538409055E+04  0.10538409055E+04  0.25500000920E-02 0. -1.
       -2   -1    0    0    0  501  0.00000000000E+00  0.00000000000E+00 -0.94754813397E+03  0.94754813397E+03  0.25500000920E-02 0.  1.
    10030    2    1    2    0    0  0.00000000000E+00  0.00000000000E+00  0.10629277151E+03  0.20013890395E+04  0.19985644683E+04 0.  0.
        4    1    3    3  502    0  0.24538919131E+02 -0.47298807453E+03 -0.82800826386E+03  0.95389683673E+03  0.12699999809E+01 0.  1.
       -4    1    3    3    0  502 -0.24538919131E+02  0.47298807453E+03  0.93430103537E+03  0.10474922027E+04  0.12699999809E+01 0. -1.
</event>
<event>
 5   0  0.1281789E-04  0.1856249E+04  0.7818609E-02  0.8676946E-01
       -2   -1    0    0    0  501  0.00000000000E+00  0.00000000000E+00  0.46483100606E+03  0.46483100607E+03  0.25500000920E-02 0. -1.
        2   -1    0    0  501    0  0.00000000000E+00  0.00000000000E+00 -0.18531789393E+04  0.18531789393E+04  0.25500000920E-02 0.  1.
    10030    2    1    2    0    0  0.00000000000E+00  0.00000000000E+00 -0.13883479332E+04  0.23180099454E+04  0.18562489389E+04 0.  0.
        2    1    3    3  502    0  0.52563631976E+03  0.73545960374E+03 -0.43157579772E+03  0.10017245323E+04  0.25500000920E-02 0.  1.
       -2    1    3    3    0  502 -0.52563631976E+03 -0.73545960374E+03 -0.95677213553E+03  0.13162854131E+04  0.25500000920E-02 0. -1.
</event>
<event>
 5   0  0.6214547E-05  0.1778695E+04  0.7818609E-02  0.8717712E-01
        1   -1    0    0  501    0  0.00000000000E+00  0.00000000000E+00  0.75856707754E+03  0.75856707756E+03  0.50400001928E-02 0. -1.
       -1   -1    0    0    0  501  0.00000000000E+00  0.00000000000E+00 -0.10426754587E+04  0.10426754587E+04  0.50400001928E-02 0.  1.
    10030    2    1    2    0    0  0.00000000000E+00  0.00000000000E+00 -0.28410838118E+03  0.18012425363E+04  0.17786953371E+04 0.  0.
        3    1    3    3  502    0 -0.81717129203E+03  0.30416172016E+03  0.35253805183E+02  0.87265463587E+03  0.10100000352E+00 0. -1.
       -3    1    3    3    0  502  0.81717129203E+03 -0.30416172016E+03 -0.31936218637E+03  0.92858790042E+03  0.10100000352E+00 0.  1.
</event>
<event>
 5   0  0.6028501E-05  0.1984178E+04  0.7818609E-02  0.8614054E-01
       -1   -1    0    0    0  501  0.00000000000E+00  0.00000000000E+00  0.10451282708E+04  0.10451282709E+04  0.50400001928E-02 0. -1.
        1   -1    0    0  501    0  0.00000000000E+00  0.00000000000E+00 -0.94174104803E+03  0.94174104804E+03  0.50400001928E-02 0.  1.
    10030    2    1    2    0    0  0.00000000000E+00  0.00000000000E+00  0.10338722282E+03  0.19868693189E+04  0.19841776061E+04 0.  0.
        4    1    3    3  502    0 -0.24327818932E+03 -0.32314172188E+03 -0.85542367178E+03  0.94623259347E+03  0.12699999809E+01 0.  1.
       -4    1    3    3    0  502  0.24327818932E+03  0.32314172188E+03  0.95881089459E+03  0.10406367254E+04  0.12699999809E+01 0. -1.
</event>
<event>
 5   0  0.6168338E-05  0.1998969E+04  0.7818609E-02  0.8607103E-01
       -1   -1    0    0    0  501  0.00000000000E+00  0.00000000000E+00  0.10037222460E+04  0.10037222460E+04  0.50400001928E-02 0.  1.
        1   -1    0    0  501    0  0.00000000000E+00  0.00000000000E+00 -0.99526448711E+03  0.99526448713E+03  0.50400001928E-02 0. -1.
    10030    2    1    2    0    0  0.00000000000E+00  0.00000000000E+00  0.84577588574E+01  0.19989867331E+04  0.19989688405E+04 0.  0.
        5    1    3    3  502    0  0.70017612786E+03  0.68151775378E+03 -0.20609170802E+03  0.99860349531E+03  0.46999998093E+01 0. -1.
       -5    1    3    3    0  502 -0.70017612786E+03 -0.68151775378E+03  0.21454946687E+03  0.10003832378E+04  0.46999998093E+01 0.  1.
</event>
<event>
 5   0  0.6028501E-05  0.2029705E+04  0.7818609E-02  0.8592857E-01
        1   -1    0    0  501    0  0.00000000000E+00  0.00000000000E+00  0.10271793665E+04  0.10271793665E+04  0.50400001928E-02 0. -1.
       -1   -1    0    0    0  501  0.00000000000E+00  0.00000000000E+00 -0.10026739254E+04  0.10026739255E+04  0.50400001928E-02 0.  1.
    10030    2    1    2    0    0  0.00000000000E+00  0.00000000000E+00  0.24505441043E+02  0.20298532920E+04  0.20297053654E+04 0.  0.
        4    1    3    3  502    0  0.14708173291E+03 -0.10025758126E+04 -0.43725089202E+02  0.10142508528E+04  0.12699999809E+01 0.  1.
       -4    1    3    3    0  502 -0.14708173291E+03  0.10025758126E+04  0.68230530246E+02  0.10156024391E+04  0.12699999809E+01 0. -1.
</event>
<event>
 5   0  0.6256535E-05  0.2002650E+04  0.7818609E-02  0.8605383E-01
       -1   -1    0    0    0  501  0.00000000000E+00  0.00000000000E+00  0.59830688181E+03  0.59830688183E+03  0.50400001928E-02 0.  1.
        1   -1    0    0  501    0  0.00000000000E+00  0.00000000000E+00 -0.16758158611E+04  0.16758158611E+04  0.50400001928E-02 0. -1.
    10030    2    1    2    0    0  0.00000000000E+00  0.00000000000E+00 -0.10775089793E+04  0.22741227429E+04  0.20026504062E+04 0.  0.
        1    1    3    3  502    0  0.76988735757E+03 -0.31055740296E+03 -0.11745441816E+04  0.14383068096E+04  0.50400001928E-02 0. -1.
       -1    1    3    3    0  502 -0.76988735757E+03  0.31055740296E+03  0.97035202356E+02  0.83581593333E+03  0.50400001928E-02 0.  1.
</event>
<event>
 5   0  0.1244229E-04  0.1986307E+04  0.7818609E-02  0.8613050E-01
        2   -1    0    0  501    0  0.00000000000E+00  0.00000000000E+00  0.15721308497E+04  0.15721308497E+04  0.25500000920E-02 0.  1.
       -2   -1    0    0    0  501  0.00000000000E+00  0.00000000000E+00 -0.62739916181E+03  0.62739916181E+03  0.25500000920E-02 0. -1.
    10030    2    1    2    0    0  0.00000000000E+00  0.00000000000E+00  0.94473168789E+03  0.21995300115E+04  0.19863067008E+04 0.  0.
        5    1    3    3  502    0 -0.66549914559E+03  0.73553184146E+03  0.41771983332E+03  0.10762937107E+04  0.46999998093E+01 0. -1.
       -5    1    3    3    0  502  0.66549914559E+03 -0.73553184146E+03  0.52701185457E+03  0.11232363008E+04  0.46999998093E+01 0.  1.
</event>
<event>
 5   0  0.6028501E-05  0.2008869E+04  0.7818609E-02  0.8602485E-01
       -1   -1    0    0    0  501  0.00000000000E+00  0.00000000000E+00  0.12106104637E+04  0.12106104637E+04  0.50400001928E-02 0.  1.
        1   -1    0    0  501    0  0.00000000000E+00  0.00000000000E+00 -0.83337172639E+03  0.83337172641E+03  0.50400001928E-02 0. -1.
    10030    2    1    2    0    0  0.00000000000E+00  0.00000000000E+00  0.37723873734E+03  0.20439821901E+04  0.20088688680E+04 0.  0.
        4    1    3    3  502    0  0.60785711604E+03 -0.71449657818E+03 -0.17667022186E+03  0.95457300085E+03  0.12699999809E+01 0. -1.
       -4    1    3    3    0  502 -0.60785711604E+03  0.71449657818E+03  0.55390895920E+03  0.10894091893E+04  0.12699999809E+01 0.  1.
</event>
<event>
 5   0  0.1244229E-04  0.1970137E+04  0.7818609E-02  0.8620711E-01
       -2   -1    0    0    0  501  0.00000000000E+00  0.00000000000E+00  0.90746437322E+03  0.90746437322E+03  0.25500000920E-02 0.  1.
        2   -1    0    0  501    0  0.00000000000E+00  0.00000000000E+00 -0.10693086902E+04  0.10693086902E+04  0.25500000920E-02 0. -1.
    10030    2    1    2    0    0  0.00000000000E+00  0.00000000000E+00 -0.16184431697E+03  0.19767730634E+04  0.19701365844E+04 0.  0.
        5    1    3    3  502    0  0.42247052799E+02 -0.39557302744E+03  0.82326523309E+03  0.91435800840E+03  0.46999998093E+01 0.  1.
       -5    1    3    3    0  502 -0.42247052799E+02  0.39557302744E+03 -0.98510955005E+03  0.10624150550E+04  0.46999998093E+01 0. -1.
</event>
<event>
 5   0  0.1159914E-04  0.1993383E+04  0.7818609E-02  0.8609721E-01
       -2   -1    0    0    0  501  0.00000000000E+00  0.00000000000E+00  0.12211968956E+04  0.12211968956E+04  0.25500000920E-02 0. -1.
        2   -1    0    0  501    0  0.00000000000E+00  0.00000000000E+00 -0.81345902029E+03  0.81345902029E+03  0.25500000920E-02 0.  1.
    10030    2    1    2    0    0  0.00000000000E+00  0.00000000000E+00  0.40773787536E+03  0.20346559159E+04  0.19933826831E+04 0.  0.
        3    1    3    3  502    0  0.20379420828E+03  0.33812811846E+03  0.11379847379E+04  0.12045214725E+04  0.10100000352E+00 0. -1.
       -3    1    3    3    0  502 -0.20379420828E+03 -0.33812811846E+03 -0.73024686251E+03  0.83013444347E+03  0.10100000352E+00 0.  1.
</event>
<event>
 5   0  0.1159914E-04  0.2002710E+04  0.7818609E-02  0.8605355E-01
       -2   -1    0    0    0  501  0.00000000000E+00  0.00000000000E+00  0.18742622405E+04  0.18742622405E+04  0.25500000920E-02 0. -1.
        2   -1    0    0  501    0  0.00000000000E+00  0.00000000000E+00 -0.53499035415E+03  0.53499035416E+03  0.25500000920E-02 0.  1.
    10030    2    1    2    0    0  0.00000000000E+00  0.00000000000E+00  0.13392718863E+04  0.24092525946E+04  0.20027103833E+04 0.  0.
        3    1    3    3  502    0 -0.68778692236E+03 -0.65134230067E+03  0.27905189775E+03  0.98750575444E+03  0.10100000352E+00 0.  1.
       -3    1    3    3    0  502  0.68778692236E+03  0.65134230067E+03  0.10602199886E+04  0.14217468402E+04  0.10100000352E+00 0. -1.
</event>
<event>
 5   0  0.6168338E-05  0.1934272E+04  0.7818609E-02  0.8637983E-01
        1   -1    0    0  501    0  0.00000000000E+00  0.00000000000E+00  0.92446165721E+03  0.92446165722E+03  0.50400001928E-02 0. -1.
       -1   -1    0    0    0  501  0.00000000000E+00  0.00000000000E+00 -0.10117799990E+04  0.10117799991E+04  0.50400001928E-02 0.  1.
    10030    2    1    2    0    0  0.00000000000E+00  0.00000000000E+00 -0.87318341836E+02  0.19362416563E+04  0.19342717644E+04 0.  0.
        5    1    3    3  502    0  0.11573624388E+03  0.98493237966E+02 -0.99974124930E+03  0.10112370897E+04  0.46999998093E+01 0.  1.
       -5    1    3    3    0  502 -0.11573624388E+03 -0.98493237966E+02  0.91242290747E+03  0.92500456655E+03  0.46999998093E+01 0. -1.
</event>
<event>
 5   0  0.1244229E-04  0.1992378E+04  0.7818609E-02  0.8610192E-01
       -2   -1    0    0    0  501  0.00000000000E+00  0.00000000000E+00  0.61184810818E+03  0.61184810818E+03  0.25500000920E-02 0. -1.
        2   -1    0    0  501    0  0.00000000000E+00  0.00000000000E+00 -0.16219596848E+04  0.16219596848E+04  0.25500000920E-02 0.  1.
    10030    2    1    2    0    0  0.00000000000E+00  0.00000000000E+00 -0.10101115766E+04  0.22338077930E+04  0.19923784426E+04 0.  0.
        5    1    3    3  502    0 -0.10872938501E+03  0.80335757576E+03  0.14403217815E+03  0.82339105656E+03  0.46999998093E+01 0. -1.
       -5    1    3    3    0  502  0.10872938501E+03 -0.80335757576E+03 -0.11541437548E+04  0.14104167364E+04  0.46999998093E+01 0.  1.
</event>
<event>
 5   0  0.1159914E-04  0.1973837E+04  0.7818609E-02  0.8618951E-01
       -2   -1    0    0    0  501  0.00000000000E+00  0.00000000000E+00  0.47327560886E+03  0.47327560887E+03  0.25500000920E-02 0.  1.
        2   -1    0    0  501    0  0.00000000000E+00  0.00000000000E+00 -0.20580142727E+04  0.20580142727E+04  0.25500000920E-02 0. -1.
    10030    2    1    2    0    0  0.00000000000E+00  0.00000000000E+00 -0.15847386638E+04  0.25312898815E+04  0.19738368301E+04 0.  0.
        3    1    3    3  502    0  0.79654973245E+03 -0.20341646329E+03 -0.92141356672E+02  0.82726040254E+03  0.10100000352E+00 0.  1.
       -3    1    3    3    0  502 -0.79654973245E+03  0.20341646329E+03 -0.14925973071E+04  0.17040294790E+04  0.10100000352E+00 0. -1.
</event>
<event>
 5   0  0.6214547E-05  0.2006453E+04  0.7818609E-02  0.8603610E-01
        1   -1    0    0  501    0  0.00000000000E+00  0.00000000000E+00  0.21626336505E+04  0.21626336505E+04  0.50400001928E-02 0. -1.
       -1   -1    0    0    0  501  0.00000000000E+00  0.00000000000E+00 -0.46538771441E+03  0.46538771444E+03  0.50400001928E-02 0.  1.
    10030    2    1    2    0    0  0.00000000000E+00  0.00000000000E+00  0.16972459361E+04  0.26280213649E+04  0.20064527224E+04 0.  0.
        3    1    3    3  502    0 -0.80263346844E+03 -0.14258830384E+03  0.82750192168E+02  0.81938972019E+03  0.10100000352E+00 0. -1.
       -3    1    3    3    0  502  0.80263346844E+03  0.14258830384E+03  0.16144957439E+04  0.18086316447E+04  0.10100000352E+00 0.  1.
</event>
<event>
 5   0  0.6214547E-05  0.1996836E+04  0.7818609E-02  0.8608101E-01
       -1   -1    0    0    0  501  0.00000000000E+00  0.00000000000E+00  0.87541155350E+03  0.87541155352E+03  0.50400001928E-02 0.  1.
        1   -1    0    0  501    0  0.00000000000E+00  0.00000000000E+00 -0.11387084784E+04  0.11387084784E+04  0.50400001928E-02 0. -1.
    10030    2    1    2    0    0  0.00000000000E+00  0.00000000000E+00 -0.26329692489E+03  0.20141200319E+04  0.19968360554E+04 0.  0.
        3    1    3    3  502    0 -0.99107954950E+02 -0.94166339842E+03 -0.45106951623E+03  0.10488165051E+04  0.10100000352E+00 0. -1.
       -3    1    3    3    0  502  0.99107954950E+02  0.94166339842E+03  0.18777259134E+03  0.96530352684E+03  0.10100000352E+00 0.  1.
</event>
<event>
 5   0  0.6028501E-05  0.1992822E+04  0.7818609E-02  0.8609984E-01
       -1   -1    0    0    0  501  0.00000000000E+00  0.00000000000E+00  0.99532597765E+03  0.99532597767E+03  0.50400001928E-02 0.  1.
        1   -1    0    0  501    0  0.00000000000E+00  0.00000000000E+00 -0.99749694492E+03  0.99749694493E+03  0.50400001928E-02 0. -1.
    10030    2    1    2    0    0  0.00000000000E+00  0.00000000000E+00 -0.21709672680E+01  0.19928229226E+04  0.19928217401E+04 0.  0.
        4    1    3    3  502    0  0.13756627330E+03 -0.79172863402E+03 -0.59021595429E+03  0.99705325589E+03  0.12699999809E+01 0. -1.
       -4    1    3    3    0  502 -0.13756627330E+03  0.79172863402E+03  0.58804498702E+03  0.99576966671E+03  0.12699999809E+01 0.  1.
</event>
<event>
 5   0  0.1274868E-04  0.1974502E+04  0.7818609E-02  0.8618635E-01
       -2   -1    0    0    0  501  0.00000000000E+00  0.00000000000E+00  0.48960977325E+03  0.48960977325E+03  0.25500000920E-02 0. -1.
        2   -1    0    0  501    0  0.00000000000E+00  0.00000000000E+00 -0.19906972765E+04  0.19906972765E+04  0.25500000920E-02 0.  1.
    10030    2    1    2    0    0  0.00000000000E+00  0.00000000000E+00 -0.15010875033E+04  0.24803070498E+04  0.19745023091E+04 0.  0.
        1    1    3    3  502    0 -0.81003573643E+03  0.51070042606E+03 -0.10522648530E+04  0.14227558260E+04  0.50400001928E-02 0.  1.
       -1    1    3    3    0  502  0.81003573643E+03 -0.51070042606E+03 -0.44882265021E+03  0.10575512237E+04  0.50400001928E-02 0. -1.
</event>
<event>
 5   0  0.1244229E-04  0.1994728E+04  0.7818609E-02  0.8609089E-01
        2   -1    0    0  501    0  0.00000000000E+00  0.00000000000E+00  0.16922847779E+04  0.16922847779E+04  0.25500000920E-02 0.  1.
       -2   -1    0    0    0  501  0.00000000000E+00  0.00000000000E+00 -0.58780596652E+03  0.58780596653E+03  0.25500000920E-02 0. -1.
    10030    2    1    2    0    0  0.00000000000E+00  0.00000000000E+00  0.11044788114E+04  0.22800907445E+04  0.19947281414E+04 0.  0.
        5    1    3    3  502    0 -0.59479936853E+03  0.79261572241E+03  0.42348907457E+03  0.10776785506E+04  0.46999998093E+01 0. -1.
       -5    1    3    3    0  502  0.59479936853E+03 -0.79261572241E+03  0.68098973685E+03  0.12024121938E+04  0.46999998093E+01 0.  1.
</event>
<event>
 5   0  0.1281789E-04  0.2086476E+04  0.7818609E-02  0.8567225E-01
        2   -1    0    0  501    0  0.00000000000E+00  0.00000000000E+00  0.12225539938E+04  0.12225539938E+04  0.25500000920E-02 0.  1.
       -2   -1    0    0    0  501  0.00000000000E+00  0.00000000000E+00 -0.89022245493E+03  0.89022245494E+03  0.25500000920E-02 0. -1.
    10030    2    1    2    0    0  0.00000000000E+00  0.00000000000E+00  0.33233153885E+03  0.21127764487E+04  0.20864755140E+04 0.  0.
        2    1    3    3  502    0  0.45374481623E+03  0.59016300728E+03 -0.57391531451E+03  0.93997634101E+03  0.25500000920E-02 0. -1.
       -2    1    3    3    0  502 -0.45374481623E+03 -0.59016300728E+03  0.90624685335E+03  0.11728001077E+04  0.25500000920E-02 0.  1.
</event>
<event>
 5   0  0.1159914E-04  0.1921419E+04  0.7818609E-02  0.8644268E-01
        2   -1    0    0  501    0  0.00000000000E+00  0.00000000000E+00  0.21241086187E+04  0.21241086187E+04  0.25500000920E-02 0.  1.
       -2   -1    0    0    0  501  0.00000000000E+00  0.00000000000E+00 -0.43451778441E+03  0.43451778442E+03  0.25500000920E-02 0. -1.
    10030    2    1    2    0    0  0.00000000000E+00  0.00000000000E+00  0.16895908343E+04  0.25586264031E+04  0.19214192368E+04 0.  0.
        3    1    3    3  502    0  0.23947438211E+03 -0.21872452267E+03 -0.35941267657E+03  0.48411349783E+03  0.10100000352E+00 0. -1.
       -3    1    3    3    0  502 -0.23947438211E+03  0.21872452267E+03  0.20490035108E+04  0.20745129053E+04  0.10100000352E+00 0.  1.
</event>
<event>
 5   0  0.6222733E-05  0.1998717E+04  0.7818609E-02  0.8607221E-01
        1   -1    0    0  501    0  0.00000000000E+00  0.00000000000E+00  0.15129341085E+04  0.15129341085E+04  0.50400001928E-02 0.  1.
       -1   -1    0    0    0  501  0.00000000000E+00  0.00000000000E+00 -0.66011943261E+03  0.66011943263E+03  0.50400001928E-02 0. -1.
    10030    2    1    2    0    0  0.00000000000E+00  0.00000000000E+00  0.85281467592E+03  0.21730535412E+04  0.19987167937E+04 0.  0.
        2    1    3    3  502    0  0.78300278811E+03  0.35845044906E+03  0.97772454656E+03  0.13028911618E+04  0.25500000920E-02 0.  1.
       -2    1    3    3    0  502 -0.78300278811E+03 -0.35845044906E+03 -0.12490987065E+03  0.87016237933E+03  0.25500000920E-02 0. -1.
</event>
<event>
 5   0  0.6256535E-05  0.1992528E+04  0.7818609E-02  0.8610122E-01
        1   -1    0    0  501    0  0.00000000000E+00  0.00000000000E+00  0.77156673391E+03  0.77156673393E+03  0.50400001928E-02 0. -1.
       -1   -1    0    0    0  501  0.00000000000E+00  0.00000000000E+00 -0.12863978396E+04  0.12863978397E+04  0.50400001928E-02 0.  1.
    10030    2    1    2    0    0  0.00000000000E+00  0.00000000000E+00 -0.51483110573E+03  0.20579645736E+04  0.19925278213E+04 0.  0.
        1    1    3    3  502    0 -0.14315231669E+03  0.63250190725E+03 -0.10385538310E+04  0.12243958953E+04  0.50400001928E-02 0.  1.
       -1    1    3    3    0  502  0.14315231669E+03 -0.63250190725E+03  0.52372272528E+03  0.83356867830E+03  0.50400001928E-02 0. -1.
</event>
<event>
 5   0  0.1159914E-04  0.1991562E+04  0.7818609E-02  0.8610576E-01
       -2   -1    0    0    0  501  0.00000000000E+00  0.00000000000E+00  0.49286609981E+03  0.49286609982E+03  0.25500000920E-02 0. -1.
        2   -1    0    0  501    0  0.00000000000E+00  0.00000000000E+00 -0.20118643909E+04  0.20118643909E+04  0.25500000920E-02 0.  1.
    10030    2    1    2    0    0  0.00000000000E+00  0.00000000000E+00 -0.15189982911E+04  0.25047304907E+04  0.19915619556E+04 0.  0.
        3    1    3    3  502    0 -0.76781799106E+03 -0.55101434425E+03 -0.11540522701E+04  0.14916426942E+04  0.10100000352E+00 0.  1.
       -3    1    3    3    0  502  0.76781799106E+03  0.55101434425E+03 -0.36494602100E+03  0.10130877965E+04  0.10100000352E+00 0. -1.
</event>
<event>
 5   0  0.1244229E-04  0.2010920E+04  0.7818609E-02  0.8601532E-01
       -2   -1    0    0    0  501  0.00000000000E+00  0.00000000000E+00  0.87983379781E+03  0.87983379781E+03  0.25500000920E-02 0.  1.
        2   -1    0    0  501    0  0.00000000000E+00  0.00000000000E+00 -0.11490237467E+04  0.11490237467E+04  0.25500000920E-02 0. -1.
    10030    2    1    2    0    0  0.00000000000E+00  0.00000000000E+00 -0.26918994893E+03  0.20288575445E+04  0.20109201146E+04 0.  0.
        5    1    3    3  502    0 -0.14303890452E+03  0.16093533687E+03 -0.11254795185E+04  0.11458998854E+04  0.46999998093E+01 0. -1.
       -5    1    3    3    0  502  0.14303890452E+03 -0.16093533687E+03  0.85628956956E+03  0.88295765912E+03  0.46999998093E+01 0.  1.
</event>
<event>
 5   0  0.6214547E-05  0.1969792E+04  0.7818609E-02  0.8620875E-01
       -1   -1    0    0    0  501  0.00000000000E+00  0.00000000000E+00  0.10021203427E+04  0.10021203427E+04  0.50400001928E-02 0.  1.
        1   -1    0    0  501    0  0.00000000000E+00  0.00000000000E+00 -0.96796792078E+03  0.96796792080E+03  0.50400001928E-02 0. -1.
    10030    2    1    2    0    0  0.00000000000E+00  0.00000000000E+00  0.34152421874E+02  0.19700882635E+04  0.19697922169E+04 0.  0.
        3    1    3    3  502    0 -0.54049339687E+03  0.56677816313E+03  0.61436755374E+03  0.99539846270E+03  0.10100000352E+00 0.  1.
       -3    1    3    3    0  502  0.54049339687E+03 -0.56677816313E+03 -0.58021513187E+03  0.97468980076E+03  0.10100000352E+00 0. -1.
</event>
<event>
 5   0  0.6222733E-05  0.2359996E+04  0.7818609E-02  0.8454634E-01
        1   -1    0    0  501    0  0.00000000000E+00  0.00000000000E+00  0.12349113272E+04  0.12349113272E+04  0.50400001928E-02 0.  1.
       -1   -1    0    0    0  501  0.00000000000E+00  0.00000000000E+00 -0.11275268283E+04  0.11275268283E+04  0.50400001928E-02 0. -1.
    10030    2    1    2    0    0  0.00000000000E+00  0.00000000000E+00  0.10738449887E+03  0.23624381555E+04  0.23599963152E+04 0.  0.
        2    1    3    3  502    0 -0.10019897106E+04 -0.59662632474E+03  0.23401552704E+03  0.11894156626E+04  0.25500000920E-02 0.  1.
       -2    1    3    3    0  502  0.10019897106E+04  0.59662632474E+03 -0.12663102817E+03  0.11730224929E+04  0.25500000920E-02 0. -1.
</event>
<event>
 5   0  0.6222733E-05  0.2001375E+04  0.7818609E-02  0.8605978E-01
        1   -1    0    0  501    0  0.00000000000E+00  0.00000000000E+00  0.13511677022E+04  0.13511677022E+04  0.50400001928E-02 0.  1.
       -1   -1    0    0    0  501  0.00000000000E+00  0.00000000000E+00 -0.74111838475E+03  0.74111838477E+03  0.50400001928E-02 0. -1.
    10030    2    1    2    0    0  0.00000000000E+00  0.00000000000E+00  0.61004931742E+03  0.20922860870E+04  0.20013747525E+04 0.  0.
        2    1    3    3  502    0 -0.34777544756E+03  0.30625298910E+03 -0.62218877780E+03  0.77579477343E+03  0.25500000920E-02 0. -1.
       -2    1    3    3    0  502  0.34777544756E+03 -0.30625298910E+03  0.12322380952E+04  0.13164913135E+04  0.25500000920E-02 0.  1.
</event>
<event>
 5   0  0.1242761E-04  0.1985582E+04  0.7818609E-02  0.8613392E-01
       -2   -1    0    0    0  501  0.00000000000E+00  0.00000000000E+00  0.59149806329E+03  0.59149806330E+03  0.25500000920E-02 0. -1.
        2   -1    0    0  501    0  0.00000000000E+00  0.00000000000E+00 -0.16663343171E+04  0.16663343171E+04  0.25500000920E-02 0.  1.
    10030    2    1    2    0    0  0.00000000000E+00  0.00000000000E+00 -0.10748362538E+04  0.22578323804E+04  0.19855815484E+04 0.  0.
        4    1    3    3  502    0  0.22209442694E+03  0.57291051959E+03 -0.14241333280E+04  0.15510350566E+04  0.12699999809E+01 0.  1.
       -4    1    3    3    0  502 -0.22209442694E+03 -0.57291051959E+03  0.34929707422E+03  0.70679732378E+03  0.12699999809E+01 0. -1.
</event>
<event>
 5   0  0.6168338E-05  0.1997187E+04  0.7818609E-02  0.8607937E-01
       -1   -1    0    0    0  501  0.00000000000E+00  0.00000000000E+00  0.45587515792E+03  0.45587515795E+03  0.50400001928E-02 0.  1.
        1   -1    0    0  501    0  0.00000000000E+00  0.00000000000E+00 -0.21874165092E+04  0.21874165092E+04  0.50400001928E-02 0. -1.
    10030    2    1    2    0    0  0.00000000000E+00  0.00000000000E+00 -0.17315413513E+04  0.26432916672E+04  0.19971868682E+04 0.  0.
        5    1    3    3  502    0 -0.97048535845E+03  0.14928721060E+03 -0.11063370549E+04  0.14792336771E+04  0.46999998093E+01 0. -1.
       -5    1    3    3    0  502  0.97048535845E+03 -0.14928721060E+03 -0.62520429639E+03  0.11640579901E+04  0.46999998093E+01 0.  1.
</event>
<event>
 5   0  0.1244229E-04  0.2001080E+04  0.7818609E-02  0.8606116E-01
        2   -1    0    0  501    0  0.00000000000E+00  0.00000000000E+00  0.16348290482E+04  0.16348290482E+04  0.25500000920E-02 0. -1.
       -2   -1    0    0    0  501  0.00000000000E+00  0.00000000000E+00 -0.61234581366E+03  0.61234581367E+03  0.25500000920E-02 0.  1.
    10030    2    1    2    0    0  0.00000000000E+00  0.00000000000E+00  0.10224832346E+04  0.22471748619E+04  0.20010804319E+04 0.  0.
        5    1    3    3  502    0  0.83340824267E+03 -0.21110741474E+03  0.10859653566E+04  0.13850915079E+04  0.46999998093E+01 0.  1.
       -5    1    3    3    0  502 -0.83340824267E+03  0.21110741474E+03 -0.63482121990E+02  0.86208335404E+03  0.46999998093E+01 0. -1.
</event>
<event>
 5   0  0.6222733E-05  0.1936595E+04  0.7818609E-02  0.8636852E-01
        1   -1    0    0  501    0  0.00000000000E+00  0.00000000000E+00  0.20990400074E+04  0.20990400074E+04  0.50400001928E-02 0.  1.
       -1   -1    0    0    0  501  0.00000000000E+00  0.00000000000E+00 -0.44668061066E+03  0.44668061069E+03  0.50400001928E-02 0. -1.
    10030    2    1    2    0    0  0.00000000000E+00  0.00000000000E+00  0.16523593968E+04  0.25457206181E+04  0.19365954377E+04 0.  0.
        2    1    3    3  502    0  0.91270840953E+03 -0.49040557048E+02  0.40602440005E+03  0.10001487042E+04  0.25500000920E-02 0. -1.
       -2    1    3    3    0  502 -0.91270840953E+03  0.49040557048E+02  0.12463349967E+04  0.15455719139E+04  0.25500000920E-02 0.  1.
</event>
<event>
 5   0  0.1274868E-04  0.1819985E+04  0.7818609E-02  0.8695743E-01
        2   -1    0    0  501    0  0.00000000000E+00  0.00000000000E+00  0.67034601953E+03  0.67034601953E+03  0.25500000920E-02 0. -1.
       -2   -1    0    0    0  501  0.00000000000E+00  0.00000000000E+00 -0.12353115538E+04  0.12353115538E+04  0.25500000920E-02 0.  1.
    10030    2    1    2    0    0  0.00000000000E+00  0.00000000000E+00 -0.56496553430E+03  0.19056575734E+04  0.18199848164E+04 0.  0.
        1    1    3    3  502    0  0.77715647049E+03  0.28666798282E+03  0.11199503689E+03  0.83587893879E+03  0.50400001928E-02 0. -1.
       -1    1    3    3    0  502 -0.77715647049E+03 -0.28666798282E+03 -0.67696057119E+03  0.10697786346E+04  0.50400001928E-02 0.  1.
</event>
<event>
 5   0  0.6168338E-05  0.1962843E+04  0.7818609E-02  0.8624193E-01
       -1   -1    0    0    0  501  0.00000000000E+00  0.00000000000E+00  0.76823050673E+03  0.76823050675E+03  0.50400001928E-02 0.  1.
        1   -1    0    0  501    0  0.00000000000E+00  0.00000000000E+00 -0.12537743507E+04  0.12537743507E+04  0.50400001928E-02 0. -1.
    10030    2    1    2    0    0  0.00000000000E+00  0.00000000000E+00 -0.48554384394E+03  0.20220048574E+04  0.19628425355E+04 0.  0.
        5    1    3    3  502    0  0.64663676278E+02  0.84179373446E+03  0.27267712182E+03  0.88722769634E+03  0.46999998093E+01 0.  1.
       -5    1    3    3    0  502 -0.64663676278E+02 -0.84179373446E+03 -0.75822096575E+03  0.11347771611E+04  0.46999998093E+01 0. -1.
</event>
<event>
 5   0  0.4479000E-05  0.1943627E+04  0.7818609E-02  0.8633440E-01
       -4   -1    0    0    0  501  0.00000000000E+00  0.00000000000E+00  0.96267656720E+03  0.96267740492E+03  0.12699999809E+01 0.  1.
        4   -1    0    0  501    0  0.00000000000E+00  0.00000000000E+00 -0.98103551291E+03  0.98103633495E+03  0.12699999809E+01 0. -1.
    10030    2    1    2    0    0  0.00000000000E+00  0.00000000000E+00 -0.18358945710E+02  0.19437137399E+04  0.19436270351E+04 0.  0.
        5    1    3    3  502    0 -0.74746721183E+03  0.50314993255E+03 -0.37324562105E+03  0.97529558136E+03  0.46999998093E+01 0. -1.
       -5    1    3    3    0  502  0.74746721183E+03 -0.50314993255E+03  0.35488667534E+03  0.96841815850E+03  0.46999998093E+01 0.  1.
</event>
<event>
 5   0  0.1281789E-04  0.2021072E+04  0.7818609E-02  0.8596832E-01
        2   -1    0    0  501    0  0.00000000000E+00  0.00000000000E+00  0.15042672026E+04  0.15042672026E+04  0.25500000920E-02 0. -1.
       -2   -1    0    0    0  501  0.00000000000E+00  0.00000000000E+00 -0.67885714707E+03  0.67885714708E+03  0.25500000920E-02 0.  1.
    10030    2    1    2    0    0  0.00000000000E+00  0.00000000000E+00  0.82541005553E+03  0.21831243497E+04  0.20210715392E+04 0.  0.
        2    1    3    3  502    0 -0.57899916260E+03 -0.76396131317E+03  0.67206230354E+02  0.96093371037E+03  0.25500000920E-02 0.  1.
       -2    1    3    3    0  502  0.57899916260E+03  0.76396131317E+03  0.75820382518E+03  0.12221906393E+04  0.25500000920E-02 0. -1.
</event>
<event>
 5   0  0.1281789E-04  0.1992377E+04  0.7818609E-02  0.8610193E-01
        2   -1    0    0  501    0  0.00000000000E+00  0.00000000000E+00  0.99345818629E+03  0.99345818629E+03  0.25500000920E-02 0. -1.
       -2   -1    0    0    0  501  0.00000000000E+00  0.00000000000E+00 -0.99892620055E+03  0.99892620056E+03  0.25500000920E-02 0.  1.
    10030    2    1    2    0    0  0.00000000000E+00  0.00000000000E+00 -0.54680142627E+01  0.19923843869E+04  0.19923768835E+04 0.  0.
        2    1    3    3  502    0  0.10653781518E+03 -0.98982198574E+03 -0.38699986556E+02  0.99629090053E+03  0.25500000920E-02 0. -1.
       -2    1    3    3    0  502 -0.10653781518E+03  0.98982198574E+03  0.33231972294E+02  0.99609348632E+03  0.25500000920E-02 0.  1.
</event>
<event>
 5   0  0.1242761E-04  0.2009263E+04  0.7818609E-02  0.8602302E-01
       -2   -1    0    0    0  501  0.00000000000E+00  0.00000000000E+00  0.55033324789E+03  0.55033324790E+03  0.25500000920E-02 0. -1.
        2   -1    0    0  501    0  0.00000000000E+00  0.00000000000E+00 -0.18339517943E+04  0.18339517943E+04  0.25500000920E-02 0.  1.
    10030    2    1    2    0    0  0.00000000000E+00  0.00000000000E+00 -0.12836185464E+04  0.23842850422E+04  0.20092631957E+04 0.  0.
        4    1    3    3  502    0  0.21210413624E+03 -0.89902570490E+03 -0.11105686455E+04  0.14445067365E+04  0.12699999809E+01 0. -1.
       -4    1    3    3    0  502 -0.21210413624E+03  0.89902570490E+03 -0.17304990092E+03  0.93977830566E+03  0.12699999809E+01 0.  1.
</event>
<event>
 5   0  0.1281789E-04  0.1987287E+04  0.7818609E-02  0.8612587E-01
        2   -1    0    0  501    0  0.00000000000E+00  0.00000000000E+00  0.13351308362E+04  0.13351308362E+04  0.25500000920E-02 0. -1.
       -2   -1    0    0    0  501  0.00000000000E+00  0.00000000000E+00 -0.73949890658E+03  0.73949890658E+03  0.25500000920E-02 0.  1.
    10030    2    1    2    0    0  0.00000000000E+00  0.00000000000E+00  0.59563192965E+03  0.20746297428E+04  0.19872873909E+04 0.  0.
        2    1    3    3  502    0  0.79441254299E+03 -0.56448926341E+03  0.50021419346E+03  0.10954239619E+04  0.25500000920E-02 0. -1.
       -2    1    3    3    0  502 -0.79441254299E+03  0.56448926341E+03  0.95417736188E+02  0.97920578090E+03  0.25500000920E-02 0.  1.
</event>
<event>
 5   0  0.1281789E-04  0.1994640E+04  0.7818609E-02  0.8609131E-01
        2   -1    0    0  501    0  0.00000000000E+00  0.00000000000E+00  0.13754456727E+04  0.13754456727E+04  0.25500000920E-02 0. -1.
       -2   -1    0    0    0  501  0.00000000000E+00  0.00000000000E+00 -0.72314574132E+03  0.72314574132E+03  0.25500000920E-02 0.  1.
    10030    2    1    2    0    0  0.00000000000E+00  0.00000000000E+00  0.65229993135E+03  0.20985914140E+04  0.19946404995E+04 0.  0.
        2    1    3    3  502    0  0.60497520253E+01  0.98943973378E+03  0.19465622358E+03  0.10084238353E+04  0.25500000920E-02 0.  1.
       -2    1    3    3    0  502 -0.60497520253E+01 -0.98943973378E+03  0.45764370777E+03  0.10901675787E+04  0.25500000920E-02 0. -1.
</event>
<event>
 5   0  0.1159914E-04  0.1946046E+04  0.7818609E-02  0.8632270E-01
        2   -1    0    0  501    0  0.00000000000E+00  0.00000000000E+00  0.10555370220E+04  0.10555370220E+04  0.25500000920E-02 0.  1.
       -2   -1    0    0    0  501  0.00000000000E+00  0.00000000000E+00 -0.89695927567E+03  0.89695927568E+03  0.25500000920E-02 0. -1.
    10030    2    1    2    0    0  0.00000000000E+00  0.00000000000E+00  0.15857774635E+03  0.19524962977E+04  0.19460459632E+04 0.  0.
        3    1    3    3  502    0  0.27187432783E+03  0.15829048754E+03  0.10031025572E+04  0.10512784023E+04  0.10100000352E+00 0.  1.
       -3    1    3    3    0  502 -0.27187432783E+03 -0.15829048754E+03 -0.84452481090E+03  0.90121789541E+03  0.10100000352E+00 0. -1.
</event>
<event>
 5   0  0.6028501E-05  0.2070124E+04  0.7818609E-02  0.8574519E-01
       -1   -1    0    0    0  501  0.00000000000E+00  0.00000000000E+00  0.40075125369E+03  0.40075125372E+03  0.50400001928E-02 0. -1.
        1   -1    0    0  501    0  0.00000000000E+00  0.00000000000E+00 -0.26733619165E+04  0.26733619165E+04  0.50400001928E-02 0.  1.
    10030    2    1    2    0    0  0.00000000000E+00  0.00000000000E+00 -0.22726106628E+04  0.30741131703E+04  0.20701238027E+04 0.  0.
        4    1    3    3  502    0  0.39007368724E+03  0.36842020817E+03 -0.24507191363E+04  0.25087679903E+04  0.12699999809E+01 0.  1.
       -4    1    3    3    0  502 -0.39007368724E+03 -0.36842020817E+03  0.17810847347E+03  0.56534517994E+03  0.12699999809E+01 0. -1.
</event>
<event>
 5   0  0.6256535E-05  0.1989409E+04  0.7818609E-02  0.8611588E-01
        1   -1    0    0  501    0  0.00000000000E+00  0.00000000000E+00  0.17564135310E+04  0.17564135310E+04  0.50400001928E-02 0.  1.
       -1   -1    0    0    0  501  0.00000000000E+00  0.00000000000E+00 -0.56332790072E+03  0.56332790074E+03  0.50400001928E-02 0. -1.
    10030    2    1    2    0    0  0.00000000000E+00  0.00000000000E+00  0.11930856303E+04  0.23197414317E+04  0.19894087033E+04 0.  0.
        1    1    3    3  502    0  0.72664607836E+03 -0.48320172900E+03  0.39838957610E+02  0.87354769571E+03  0.50400001928E-02 0. -1.
       -1    1    3    3    0  502 -0.72664607836E+03  0.48320172900E+03  0.11532466726E+04  0.14461937360E+04  0.50400001928E-02 0.  1.
</event>
<event>
 5   0  0.6214547E-05  0.2017303E+04  0.7818609E-02  0.8598574E-01
        1   -1    0    0  501    0  0.00000000000E+00  0.00000000000E+00  0.13738226031E+04  0.13738226031E+04  0.50400001928E-02 0.  1.
       -1   -1    0    0    0  501  0.00000000000E+00  0.00000000000E+00 -0.74054508865E+03  0.74054508867E+03  0.50400001928E-02 0. -1.
    10030    2    1    2    0    0  0.00000000000E+00  0.00000000000E+00  0.63327751447E+03  0.21143676918E+04  0.20173027353E+04 0.  0.
        3    1    3    3  502    0 -0.94565860814E+03  0.24070837610E+02  0.68352129645E+03  0.11670693987E+04  0.10100000352E+00 0.  1.
       -3    1    3    3    0  502  0.94565860814E+03 -0.24070837610E+02 -0.50243781980E+02  0.94729829315E+03  0.10100000352E+00 0. -1.
</event>
<event>
 5   0  0.6222733E-05  0.1996571E+04  0.7818609E-02  0.8608226E-01
        1   -1    0    0  501    0  0.00000000000E+00  0.00000000000E+00  0.16251686875E+04  0.16251686875E+04  0.50400001928E-02 0.  1.
       -1   -1    0    0    0  501  0.00000000000E+00  0.00000000000E+00 -0.61321239997E+03  0.61321239999E+03  0.50400001928E-02 0. -1.
    10030    2    1    2    0    0  0.00000000000E+00  0.00000000000E+00  0.10119562876E+04  0.22383810875E+04  0.19965706512E+04 0.  0.
        2    1    3    3  502    0  0.94065614148E+03 -0.22053976733E+03  0.78760256200E+03  0.12465109551E+04  0.25500000920E-02 0.  1.
       -2    1    3    3    0  502 -0.94065614148E+03  0.22053976733E+03  0.22435372558E+03  0.99187013246E+03  0.25500000920E-02 0. -1.
</event>
<event>
 5   0  0.6214547E-05  0.1927944E+04  0.7818609E-02  0.8641071E-01
       -1   -1    0    0    0  501  0.00000000000E+00  0.00000000000E+00  0.77396851105E+03  0.77396851107E+03  0.50400001928E-02 0. -1.
        1   -1    0    0  501    0  0.00000000000E+00  0.00000000000E+00 -0.12006195838E+04  0.12006195838E+04  0.50400001928E-02 0.  1.
    10030    2    1    2    0    0  0.00000000000E+00  0.00000000000E+00 -0.42665107272E+03  0.19745880948E+04  0.19279437249E+04 0.  0.
        3    1    3    3  502    0 -0.60886172911E+03 -0.73880921623E+03 -0.32870122634E+03  0.10122233793E+04  0.10100000352E+00 0.  1.
       -3    1    3    3    0  502  0.60886172911E+03  0.73880921623E+03 -0.97949846377E+02  0.96236471557E+03  0.10100000352E+00 0. -1.
</event>
<event>
 5   0  0.1242761E-04  0.2001382E+04  0.7818609E-02  0.8605975E-01
       -2   -1    0    0    0  501  0.00000000000E+00  0.00000000000E+00  0.13986328390E+04  0.13986328390E+04  0.25500000920E-02 0. -1.
        2   -1    0    0  501    0  0.00000000000E+00  0.00000000000E+00 -0.71597258378E+03  0.71597258378E+03  0.25500000920E-02 0.  1.
    10030    2    1    2    0    0  0.00000000000E+00  0.00000000000E+00  0.68266025520E+03  0.21146054228E+04  0.20013822898E+04 0.  0.
        4    1    3    3  502    0  0.29535081192E+03 -0.46303203408E+03  0.12251644508E+04  0.13426318599E+04  0.12699999809E+01 0. -1.
       -4    1    3    3    0  502 -0.29535081192E+03  0.46303203408E+03 -0.54250419560E+03  0.77197356291E+03  0.12699999809E+01 0.  1.
</event>
<event>
 5   0  0.1242761E-04  0.1957817E+04  0.7818609E-02  0.8626600E-01
       -2   -1    0    0    0  501  0.00000000000E+00  0.00000000000E+00  0.72359453435E+03  0.72359453436E+03  0.25500000920E-02 0. -1.
        2   -1    0    0  501    0  0.00000000000E+00  0.00000000000E+00 -0.13243079764E+04  0.13243079764E+04  0.25500000920E-02 0.  1.
    10030    2    1    2    0    0  0.00000000000E+00  0.00000000000E+00 -0.60071344204E+03  0.20479025107E+04  0.19578171656E+04 0.  0.
        4    1    3    3  502    0 -0.94768497477E+03 -0.22988384936E+03 -0.21094244807E+03  0.99772327070E+03  0.12699999809E+01 0. -1.
       -4    1    3    3    0  502  0.94768497477E+03  0.22988384936E+03 -0.38977099397E+03  0.10501792401E+04  0.12699999809E+01 0.  1.
</event>
<event>
 5   0  0.1281789E-04  0.1996126E+04  0.7818609E-02  0.8608434E-01
       -2   -1    0    0    0  501  0.00000000000E+00  0.00000000000E+00  0.85086900466E+03  0.85086900466E+03  0.25500000920E-02 0.  1.
        2   -1    0    0  501    0  0.00000000000E+00  0.00000000000E+00 -0.11707208970E+04  0.11707208970E+04  0.25500000920E-02 0. -1.
    10030    2    1    2    0    0  0.00000000000E+00  0.00000000000E+00 -0.31985189238E+03  0.20215899017E+04  0.19961263732E+04 0.  0.
        2    1    3    3  502    0 -0.57818944701E+02  0.99632291159E+03 -0.17137277735E+03  0.10126060455E+04  0.25500000920E-02 0. -1.
       -2    1    3    3    0  502  0.57818944701E+02 -0.99632291159E+03 -0.14847911503E+03  0.10089838562E+04  0.25500000920E-02 0.  1.
</event>
<event>
 5   0  0.4479000E-05  0.1994777E+04  0.7818609E-02  0.8609066E-01
        3   -1    0    0  501    0  0.00000000000E+00  0.00000000000E+00  0.73493297112E+03  0.73493297806E+03  0.10100000352E+00 0. -1.
       -3   -1    0    0    0  501  0.00000000000E+00  0.00000000000E+00 -0.13535711480E+04  0.13535711517E+04  0.10100000352E+00 0.  1.
    10030    2    1    2    0    0  0.00000000000E+00  0.00000000000E+00 -0.61863817686E+03  0.20885041298E+04  0.19947772573E+04 0.  0.
        1    1    3    3  502    0 -0.51495075383E+03  0.72332798511E+03 -0.78498555394E+03  0.11851497681E+04  0.50400001928E-02 0.  1.
       -1    1    3    3    0  502  0.51495075383E+03 -0.72332798511E+03  0.16634737708E+03  0.90335436170E+03  0.50400001928E-02 0. -1.
</event>
<event>
 5   0  0.6028501E-05  0.1899809E+04  0.7818609E-02  0.8654952E-01
       -1   -1    0    0    0  501  0.00000000000E+00  0.00000000000E+00  0.79720076624E+03  0.79720076626E+03  0.50400001928E-02 0.  1.
        1   -1    0    0  501    0  0.00000000000E+00  0.00000000000E+00 -0.11318581461E+04  0.11318581461E+04  0.50400001928E-02 0. -1.
    10030    2    1    2    0    0  0.00000000000E+00  0.00000000000E+00 -0.33465737981E+03  0.19290589123E+04  0.18998086023E+04 0.  0.
        4    1    3    3  502    0 -0.93241074005E+03 -0.20656759868E+02  0.15724729777E+02  0.93277294660E+03  0.12699999809E+01 0.  1.
       -4    1    3    3    0  502  0.93241074005E+03  0.20656759868E+02 -0.35038210958E+03  0.99628596572E+03  0.12699999809E+01 0. -1.
</event>
<event>
 5   0  0.6214547E-05  0.2052997E+04  0.7818609E-02  0.8582236E-01
       -1   -1    0    0    0  501  0.00000000000E+00  0.00000000000E+00  0.14231989577E+04  0.14231989577E+04  0.50400001928E-02 0.  1.
        1   -1    0    0  501    0  0.00000000000E+00  0.00000000000E+00 -0.74037342446E+03  0.74037342448E+03  0.50400001928E-02 0. -1.
    10030    2    1    2    0    0  0.00000000000E+00  0.00000000000E+00  0.68282553321E+03  0.21635723822E+04  0.20529965280E+04 0.  0.
        3    1    3    3  502    0 -0.60970408198E+03  0.35826072429E+03 -0.44271120473E+03  0.83431590848E+03  0.10100000352E+00 0. -1.
       -3    1    3    3    0  502  0.60970408198E+03 -0.35826072429E+03  0.11255367379E+04  0.13292564737E+04  0.10100000352E+00 0.  1.
</event>
<event>
 5   0  0.6028501E-05  0.2008592E+04  0.7818609E-02  0.8602614E-01
       -1   -1    0    0    0  501  0.00000000000E+00  0.00000000000E+00  0.80578634728E+03  0.80578634729E+03  0.50400001928E-02 0. -1.
        1   -1    0    0  501    0  0.00000000000E+00  0.00000000000E+00 -0.12517094812E+04  0.12517094812E+04  0.50400001928E-02 0.  1.
    10030    2    1    2    0    0  0.00000000000E+00  0.00000000000E+00 -0.44592313388E+03  0.20574958285E+04  0.20085919553E+04 0.  0.
        4    1    3    3  502    0  0.35057666744E+03 -0.92504414157E+03 -0.45544920355E+02  0.99029622653E+03  0.12699999809E+01 0. -1.
       -4    1    3    3    0  502 -0.35057666744E+03  0.92504414157E+03 -0.40037821353E+03  0.10671996019E+04  0.12699999809E+01 0.  1.
</event>
<event>
 5   0  0.6028501E-05  0.1847578E+04  0.7818609E-02  0.8681400E-01
        1   -1    0    0  501    0  0.00000000000E+00  0.00000000000E+00  0.10311820459E+04  0.10311820459E+04  0.50400001928E-02 0.  1.
       -1   -1    0    0    0  501  0.00000000000E+00  0.00000000000E+00 -0.82758012315E+03  0.82758012317E+03  0.50400001928E-02 0. -1.
    10030    2    1    2    0    0  0.00000000000E+00  0.00000000000E+00  0.20360192277E+03  0.18587621691E+04  0.18475776190E+04 0.  0.
        4    1    3    3  502    0 -0.20508321989E+03 -0.18945353506E+03  0.98771809065E+03  0.10264211653E+04  0.12699999809E+01 0.  1.
       -4    1    3    3    0  502  0.20508321989E+03  0.18945353506E+03 -0.78411616788E+03  0.83234100383E+03  0.12699999809E+01 0. -1.
</event>
<event>
 5   0  0.1274868E-04  0.2000696E+04  0.7818609E-02  0.8606296E-01
       -2   -1    0    0    0  501  0.00000000000E+00  0.00000000000E+00  0.13011738476E+04  0.13011738476E+04  0.25500000920E-02 0.  1.
        2   -1    0    0  501    0  0.00000000000E+00  0.00000000000E+00 -0.76907150319E+03  0.76907150319E+03  0.25500000920E-02 0. -1.
    10030    2    1    2    0    0  0.00000000000E+00  0.00000000000E+00  0.53210234438E+03  0.20702453508E+04  0.20006956059E+04 0.  0.
        1    1    3    3  502    0  0.57886401487E+03  0.65049748034E+03 -0.24347384655E+03  0.90416261459E+03  0.50400001928E-02 0. -1.
       -1    1    3    3    0  502 -0.57886401487E+03 -0.65049748034E+03  0.77557619093E+03  0.11660827362E+04  0.50400001928E-02 0.  1.
</event>
<event>
 5   0  0.1281789E-04  0.1858458E+04  0.7818609E-02  0.8675815E-01
       -2   -1    0    0    0  501  0.00000000000E+00  0.00000000000E+00  0.49572439359E+03  0.49572439359E+03  0.25500000920E-02 0. -1.
        2   -1    0    0  501    0  0.00000000000E+00  0.00000000000E+00 -0.17418275662E+04  0.17418275662E+04  0.25500000920E-02 0.  1.
    10030    2    1    2    0    0  0.00000000000E+00  0.00000000000E+00 -0.12461031726E+04  0.22375519598E+04  0.18584578704E+04 0.  0.
        2    1    3    3  502    0  0.24638958034E+03  0.38893148576E+03 -0.15948464105E+04  0.16599730718E+04  0.25500000920E-02 0.  1.
       -2    1    3    3    0  502 -0.24638958034E+03 -0.38893148576E+03  0.34874323789E+03  0.57757888802E+03  0.25500000920E-02 0. -1.
</event>
<event>
 5   0  0.1159914E-04  0.1984118E+04  0.7818609E-02  0.8614082E-01
       -2   -1    0    0    0  501  0.00000000000E+00  0.00000000000E+00  0.13417549406E+04  0.13417549406E+04  0.25500000920E-02 0.  1.
        2   -1    0    0  501    0  0.00000000000E+00  0.00000000000E+00 -0.73350251645E+03  0.73350251645E+03  0.25500000920E-02 0. -1.
    10030    2    1    2    0    0  0.00000000000E+00  0.00000000000E+00  0.60825242412E+03  0.20752574570E+04  0.19841175624E+04 0.  0.
        3    1    3    3  502    0  0.94384934276E+03  0.26129398552E+03  0.46968313072E+03  0.10861530197E+04  0.10100000352E+00 0. -1.
       -3    1    3    3    0  502 -0.94384934276E+03 -0.26129398552E+03  0.13856929340E+03  0.98910443734E+03  0.10100000352E+00 0.  1.
</event>
<event>
 5   0  0.1244229E-04  0.1991046E+04  0.7818609E-02  0.8610819E-01
        2   -1    0    0  501    0  0.00000000000E+00  0.00000000000E+00  0.14255799479E+04  0.14255799479E+04  0.25500000920E-02 0. -1.
       -2   -1    0    0    0  501  0.00000000000E+00  0.00000000000E+00 -0.69520169825E+03  0.69520169825E+03  0.25500000920E-02 0.  1.
    10030    2    1    2    0    0  0.00000000000E+00  0.00000000000E+00  0.73037824963E+03  0.21207816461E+04  0.19910455552E+04 0.  0.
        5    1    3    3  502    0  0.62278291311E+03 -0.54802538167E+03 -0.22099060472E+03  0.85851576176E+03  0.46999998093E+01 0.  1.
       -5    1    3    3    0  502 -0.62278291311E+03  0.54802538167E+03  0.95136885435E+03  0.12622658844E+04  0.46999998093E+01 0. -1.
</event>
<event>
 5   0  0.6168338E-05  0.1872114E+04  0.7818609E-02  0.8668863E-01
       -1   -1    0    0    0  501  0.00000000000E+00  0.00000000000E+00  0.10451028160E+04  0.10451028160E+04  0.50400001928E-02 0.  1.
        1   -1    0    0  501    0  0.00000000000E+00  0.00000000000E+00 -0.83838940082E+03  0.83838940084E+03  0.50400001928E-02 0. -1.
    10030    2    1    2    0    0  0.00000000000E+00  0.00000000000E+00  0.20671341513E+03  0.18834922168E+04  0.18721144449E+04 0.  0.
        5    1    3    3  502    0  0.36208432490E+03 -0.55876626822E+03  0.76527330855E+03  0.10143915061E+04  0.46999998093E+01 0.  1.
       -5    1    3    3    0  502 -0.36208432490E+03  0.55876626822E+03 -0.55855989342E+03  0.86910071072E+03  0.46999998093E+01 0. -1.
</event>
<event>
 5   0  0.6222733E-05  0.1992325E+04  0.7818609E-02  0.8610218E-01
        1   -1    0    0  501    0  0.00000000000E+00  0.00000000000E+00  0.15377159414E+04  0.15377159414E+04  0.50400001928E-02 0. -1.
       -1   -1    0    0    0  501  0.00000000000E+00  0.00000000000E+00 -0.64533341048E+03  0.64533341050E+03  0.50400001928E-02 0.  1.
    10030    2    1    2    0    0  0.00000000000E+00  0.00000000000E+00  0.89238253090E+03  0.21830493519E+04  0.19923247454E+04 0.  0.
        2    1    3    3  502    0 -0.37327838175E+03 -0.30376938596E+03  0.14018829486E+04  0.14821904033E+04  0.25500000920E-02 0. -1.
       -2    1    3    3    0  502  0.37327838175E+03  0.30376938596E+03 -0.50950041770E+03  0.70085894856E+03  0.25500000920E-02 0.  1.
</event>
<event>
 5   0  0.6168338E-05  0.1954441E+04  0.7818609E-02  0.8628222E-01
       -1   -1    0    0    0  501  0.00000000000E+00  0.00000000000E+00  0.75245561197E+03  0.75245561199E+03  0.50400001928E-02 0. -1.
        1   -1    0    0  501    0  0.00000000000E+00  0.00000000000E+00 -0.12691241220E+04  0.12691241220E+04  0.50400001928E-02 0.  1.
    10030    2    1    2    0    0  0.00000000000E+00  0.00000000000E+00 -0.51666851001E+03  0.20215797340E+04  0.19544406544E+04 0.  0.
        5    1    3    3  502    0 -0.83838600750E+03 -0.14486453456E+03 -0.75553455255E+03  0.11378626372E+04  0.46999998093E+01 0.  1.
       -5    1    3    3    0  502  0.83838600750E+03  0.14486453456E+03  0.23886604254E+03  0.88371709682E+03  0.46999998093E+01 0. -1.
</event>
<event>
 5   0  0.1281789E-04  0.1984257E+04  0.7818609E-02  0.8614017E-01
       -2   -1    0    0    0  501  0.00000000000E+00  0.00000000000E+00  0.14081332164E+04  0.14081332164E+04  0.25500000920E-02 0. -1.
        2   -1    0    0  501    0  0.00000000000E+00  0.00000000000E+00 -0.69902380868E+03  0.69902380868E+03  0.25500000920E-02 0.  1.
    10030    2    1    2    0    0  0.00000000000E+00  0.00000000000E+00  0.70910940768E+03  0.21071570250E+04  0.19842566810E+04 0.  0.
        2    1    3    3  502    0 -0.57588113921E+02  0.98621907260E+03  0.45173328590E+03  0.10862814606E+04  0.25500000920E-02 0.  1.
       -2    1    3    3    0  502  0.57588113921E+02 -0.98621907260E+03  0.25737612179E+03  0.10208755645E+04  0.25500000920E-02 0. -1.
</event>
<event>
 5   0  0.1274868E-04  0.2021691E+04  0.7818609E-02  0.8596546E-01
       -2   -1    0    0    0  501  0.00000000000E+00  0.00000000000E+00  0.93606697122E+03  0.93606697122E+03  0.25500000920E-02 0.  1.
        2   -1    0    0  501    0  0.00000000000E+00  0.00000000000E+00 -0.10915975537E+04  0.10915975537E+04  0.25500000920E-02 0. -1.
    10030    2    1    2    0    0  0.00000000000E+00  0.00000000000E+00 -0.15553058247E+03  0.20276645249E+04  0.20216907932E+04 0.  0.
        1    1    3    3  502    0  0.43747975717E+03 -0.84962199192E+03  0.25269629645E+03  0.98848443860E+03  0.50400001928E-02 0.  1.
       -1    1    3    3    0  502 -0.43747975717E+03  0.84962199192E+03 -0.40822687892E+03  0.10391800863E+04  0.50400001928E-02 0. -1.
</event>
<event>
 5   0  0.1274868E-04  0.1731409E+04  0.7818609E-02  0.8743650E-01
        2   -1    0    0  501    0  0.00000000000E+00  0.00000000000E+00  0.64474110091E+03  0.64474110092E+03  0.25500000920E-02 0. -1.
       -2   -1    0    0    0  501  0.00000000000E+00  0.00000000000E+00 -0.11623963351E+04  0.11623963352E+04  0.25500000920E-02 0.  1.
    10030    2    1    2    0    0  0.00000000000E+00  0.00000000000E+00 -0.51765523423E+03  0.18071374361E+04  0.17314094753E+04 0.  0.
        1    1    3    3  502    0  0.31297100689E+03 -0.76029692056E+03 -0.54168331022E+03  0.98459284334E+03  0.50400001928E-02 0.  1.
       -1    1    3    3    0  502 -0.31297100689E+03  0.76029692056E+03  0.24028075986E+02  0.82254459273E+03  0.50400001928E-02 0. -1.
</event>
<event>
 5   0  0.1159914E-04  0.2007054E+04  0.7818609E-02  0.8603330E-01
        2   -1    0    0  501    0  0.00000000000E+00  0.00000000000E+00  0.26390616637E+04  0.26390616637E+04  0.25500000920E-02 0. -1.
       -2   -1    0    0    0  501  0.00000000000E+00  0.00000000000E+00 -0.38160018595E+03  0.38160018596E+03  0.25500000920E-02 0.  1.
    10030    2    1    2    0    0  0.00000000000E+00  0.00000000000E+00  0.22574614777E+04  0.30206618496E+04  0.20070539819E+04 0.  0.
        3    1    3    3  502    0 -0.20852322278E+03 -0.74186734668E+03  0.20961891701E+04  0.22333513252E+04  0.10100000352E+00 0. -1.
       -3    1    3    3    0  502  0.20852322278E+03  0.74186734668E+03  0.16127230758E+03  0.78731052445E+03  0.10100000352E+00 0.  1.
</event>
<event>
 5   0  0.6028501E-05  0.1936297E+04  0.7818609E-02  0.8636997E-01
        1   -1    0    0  501    0  0.00000000000E+00  0.00000000000E+00  0.80843125852E+03  0.80843125854E+03  0.50400001928E-02 0.  1.
       -1   -1    0    0    0  501  0.00000000000E+00  0.00000000000E+00 -0.11594197822E+04  0.11594197822E+04  0.50400001928E-02 0. -1.
    10030    2    1    2    0    0  0.00000000000E+00  0.00000000000E+00 -0.35098852367E+03  0.19678510407E+04  0.19362966650E+04 0.  0.
        4    1    3    3  502    0  0.14981833601E+03 -0.95359242130E+03 -0.99948913526E+02  0.97045115177E+03  0.12699999809E+01 0.  1.
       -4    1    3    3    0  502 -0.14981833601E+03  0.95359242130E+03 -0.25103961015E+03  0.99739988897E+03  0.12699999809E+01 0. -1.
</event>
<event>
 5   0  0.1159914E-04  0.2044973E+04  0.7818609E-02  0.8585878E-01
        2   -1    0    0  501    0  0.00000000000E+00  0.00000000000E+00  0.21462296034E+04  0.21462296034E+04  0.25500000920E-02 0. -1.
       -2   -1    0    0    0  501  0.00000000000E+00  0.00000000000E+00 -0.48712345807E+03  0.48712345808E+03  0.25500000920E-02 0.  1.
    10030    2    1    2    0    0  0.00000000000E+00  0.00000000000E+00  0.16591061453E+04  0.26333530615E+04  0.20449731404E+04 0.  0.
        3    1    3    3  502    0  0.41427131677E+03  0.59797920311E+03  0.17548128445E+04  0.18996231154E+04  0.10100000352E+00 0. -1.
       -3    1    3    3    0  502 -0.41427131677E+03 -0.59797920311E+03 -0.95706699174E+02  0.73372994604E+03  0.10100000352E+00 0.  1.
</event>
<event>
 5   0  0.6222733E-05  0.1989497E+04  0.7818609E-02  0.8611547E-01
        1   -1    0    0  501    0  0.00000000000E+00  0.00000000000E+00  0.19467054503E+04  0.19467054503E+04  0.50400001928E-02 0.  1.
       -1   -1    0    0    0  501  0.00000000000E+00  0.00000000000E+00 -0.50830715610E+03  0.50830715612E+03  0.50400001928E-02 0. -1.
    10030    2    1    2    0    0  0.00000000000E+00  0.00000000000E+00  0.14383982942E+04  0.24550126065E+04  0.19894967316E+04 0.  0.
        2    1    3    3  502    0  0.51153205474E+03  0.72193832702E+03  0.12801738129E+04  0.15561828242E+04  0.25500000920E-02 0.  1.
       -2    1    3    3    0  502 -0.51153205474E+03 -0.72193832702E+03  0.15822448136E+03  0.89882978230E+03  0.25500000920E-02 0. -1.
</event>
<event>
 5   0  0.1244229E-04  0.2010926E+04  0.7818609E-02  0.8601529E-01
        2   -1    0    0  501    0  0.00000000000E+00  0.00000000000E+00  0.20750127422E+04  0.20750127422E+04  0.25500000920E-02 0.  1.
       -2   -1    0    0    0  501  0.00000000000E+00  0.00000000000E+00 -0.48720476104E+03  0.48720476104E+03  0.25500000920E-02 0. -1.
    10030    2    1    2    0    0  0.00000000000E+00  0.00000000000E+00  0.15878079812E+04  0.25622175033E+04  0.20109262416E+04 0.  0.
        5    1    3    3  502    0  0.35904088498E+03  0.50688592853E+03  0.18012791338E+04  0.19053798334E+04  0.46999998093E+01 0.  1.
       -5    1    3    3    0  502 -0.35904088498E+03 -0.50688592853E+03 -0.21347115258E+03  0.65683766991E+03  0.46999998093E+01 0. -1.
</event>
<event>
 5   0  0.1159914E-04  0.2003755E+04  0.7818609E-02  0.8604867E-01
        2   -1    0    0  501    0  0.00000000000E+00  0.00000000000E+00  0.12255477948E+04  0.12255477948E+04  0.25500000920E-02 0. -1.
       -2   -1    0    0    0  501  0.00000000000E+00  0.00000000000E+00 -0.81902827704E+03  0.81902827705E+03  0.25500000920E-02 0.  1.
    10030    2    1    2    0    0  0.00000000000E+00  0.00000000000E+00  0.40651951776E+03  0.20445760719E+04  0.20037547742E+04 0.  0.
        3    1    3    3  502    0  0.70933856699E+03  0.33267578572E+03  0.84041995279E+03  0.11489734933E+04  0.10100000352E+00 0. -1.
       -3    1    3    3    0  502 -0.70933856699E+03 -0.33267578572E+03 -0.43390043503E+03  0.89560257857E+03  0.10100000352E+00 0.  1.
</event>
<event>
 5   0  0.6222733E-05  0.1994835E+04  0.7818609E-02  0.8609039E-01
        1   -1    0    0  501    0  0.00000000000E+00  0.00000000000E+00  0.17249174139E+04  0.17249174139E+04  0.50400001928E-02 0.  1.
       -1   -1    0    0    0  501  0.00000000000E+00  0.00000000000E+00 -0.57674743805E+03  0.57674743807E+03  0.50400001928E-02 0. -1.
    10030    2    1    2    0    0  0.00000000000E+00  0.00000000000E+00  0.11481699758E+04  0.23016648520E+04  0.19948350301E+04 0.  0.
        2    1    3    3  502    0  0.87960689452E+02 -0.58111475231E+03 -0.35572599770E+03  0.68700249176E+03  0.25500000920E-02 0. -1.
       -2    1    3    3    0  502 -0.87960689452E+02  0.58111475231E+03  0.15038959735E+04  0.16146623602E+04  0.25500000920E-02 0.  1.
</event>
<event>
 5   0  0.6222733E-05  0.1986483E+04  0.7818609E-02  0.8612967E-01
       -1   -1    0    0    0  501  0.00000000000E+00  0.00000000000E+00  0.75457720954E+03  0.75457720956E+03  0.50400001928E-02 0.  1.
        1   -1    0    0  501    0  0.00000000000E+00  0.00000000000E+00 -0.13073921950E+04  0.13073921950E+04  0.50400001928E-02 0. -1.
    10030    2    1    2    0    0  0.00000000000E+00  0.00000000000E+00 -0.55281498543E+03  0.20619694045E+04  0.19864826748E+04 0.  0.
        2    1    3    3  502    0  0.52732804182E+03 -0.24943637334E+03  0.55802780774E+03  0.80727219836E+03  0.25500000920E-02 0.  1.
       -2    1    3    3    0  502 -0.52732804182E+03  0.24943637334E+03 -0.11108427932E+04  0.12546972062E+04  0.25500000920E-02 0. -1.
</event>
<event>
 5   0  0.4479000E-05  0.2037222E+04  0.7818609E-02  0.8589413E-01
        3   -1    0    0  501    0  0.00000000000E+00  0.00000000000E+00  0.95437402918E+03  0.95437403453E+03  0.10100000352E+00 0. -1.
       -3   -1    0    0    0  501  0.00000000000E+00  0.00000000000E+00 -0.10871713341E+04  0.10871713388E+04  0.10100000352E+00 0.  1.
    10030    2    1    2    0    0  0.00000000000E+00  0.00000000000E+00 -0.13279730488E+03  0.20415453733E+04  0.20372217324E+04 0.  0.
        2    1    3    3  502    0 -0.83313760944E+03 -0.90825025666E+02 -0.64659254461E+03  0.10585128154E+04  0.25500000920E-02 0.  1.
       -2    1    3    3    0  502  0.83313760944E+03  0.90825025666E+02  0.51379523972E+03  0.98303255792E+03  0.25500000920E-02 0. -1.
</event>
<event>
 5   0  0.1281789E-04  0.2006417E+04  0.7818609E-02  0.8603626E-01
       -2   -1    0    0    0  501  0.00000000000E+00  0.00000000000E+00  0.12245052846E+04  0.12245052846E+04  0.25500000920E-02 0. -1.
        2   -1    0    0  501    0  0.00000000000E+00  0.00000000000E+00 -0.82190502777E+03  0.82190502778E+03  0.25500000920E-02 0.  1.
    10030    2    1    2    0    0  0.00000000000E+00  0.00000000000E+00  0.40260025684E+03  0.20464103124E+04  0.20064167563E+04 0.  0.
        2    1    3    3  502    0 -0.59248490334E+03 -0.58533029760E+02  0.10248367232E+04  0.11852235171E+04  0.25500000920E-02 0. -1.
       -2    1    3    3    0  502  0.59248490334E+03  0.58533029760E+02 -0.62223646638E+03  0.86118679527E+03  0.25500000920E-02 0.  1.
</event>
<event>
 5   0  0.1281789E-04  0.2058889E+04  0.7818609E-02  0.8579572E-01
        2   -1    0    0  501    0  0.00000000000E+00  0.00000000000E+00  0.33453795330E+03  0.33453795331E+03  0.25500000920E-02 0.  1.
       -2   -1    0    0    0  501  0.00000000000E+00  0.00000000000E+00 -0.31678198917E+04  0.31678198917E+04  0.25500000920E-02 0. -1.
    10030    2    1    2    0    0  0.00000000000E+00  0.00000000000E+00 -0.28332819384E+04  0.35023578451E+04  0.20588890043E+04 0.  0.
        2    1    3    3  502    0  0.60190924780E+03  0.75301820162E+03 -0.80230248774E+03  0.12542011148E+04  0.25500000920E-02 0.  1.
       -2    1    3    3    0  502 -0.60190924780E+03 -0.75301820162E+03 -0.20309794507E+04  0.22481567302E+04  0.25500000920E-02 0. -1.
</event>
<event>
 5   0  0.6214547E-05  0.2001762E+04  0.7818609E-02  0.8605797E-01
        1   -1    0    0  501    0  0.00000000000E+00  0.00000000000E+00  0.20137746627E+04  0.20137746627E+04  0.50400001928E-02 0.  1.
       -1   -1    0    0    0  501  0.00000000000E+00  0.00000000000E+00 -0.49745515932E+03  0.49745515935E+03  0.50400001928E-02 0. -1.
    10030    2    1    2    0    0  0.00000000000E+00  0.00000000000E+00  0.15163195034E+04  0.25112298220E+04  0.20017618197E+04 0.  0.
        3    1    3    3  502    0 -0.14094418600E+03  0.34430484918E+03 -0.40748947732E+03  0.55177783307E+03  0.10100000352E+00 0. -1.
       -3    1    3    3    0  502  0.14094418600E+03 -0.34430484918E+03  0.19238089807E+04  0.19594519890E+04  0.10100000352E+00 0.  1.
</event>
<event>
 5   0  0.1242761E-04  0.1996303E+04  0.7818609E-02  0.8608351E-01
       -2   -1    0    0    0  501  0.00000000000E+00  0.00000000000E+00  0.80064799285E+03  0.80064799285E+03  0.25500000920E-02 0. -1.
        2   -1    0    0  501    0  0.00000000000E+00  0.00000000000E+00 -0.12443754912E+04  0.12443754912E+04  0.25500000920E-02 0.  1.
    10030    2    1    2    0    0  0.00000000000E+00  0.00000000000E+00 -0.44372749837E+03  0.20450234841E+04  0.19963033230E+04 0.  0.
        4    1    3    3  502    0  0.38326608356E+03 -0.83850601422E+03  0.16998951374E+03  0.93748774625E+03  0.12699999809E+01 0. -1.
       -4    1    3    3    0  502 -0.38326608356E+03  0.83850601422E+03 -0.61371701212E+03  0.11075357378E+04  0.12699999809E+01 0.  1.
</event>
<event>
 5   0  0.6256535E-05  0.2007180E+04  0.7818609E-02  0.8603271E-01
       -1   -1    0    0    0  501  0.00000000000E+00  0.00000000000E+00  0.87116286133E+03  0.87116286134E+03  0.50400001928E-02 0.  1.
        1   -1    0    0  501    0  0.00000000000E+00  0.00000000000E+00 -0.11561478202E+04  0.11561478202E+04  0.50400001928E-02 0. -1.
    10030    2    1    2    0    0  0.00000000000E+00  0.00000000000E+00 -0.28498495885E+03  0.20273106815E+04  0.20071801545E+04 0.  0.
        1    1    3    3  502    0 -0.67287668028E+03 -0.43052572197E+03  0.47111805841E+03  0.92739832280E+03  0.50400001928E-02 0.  1.
       -1    1    3    3    0  502  0.67287668028E+03  0.43052572197E+03 -0.75610301726E+03  0.10999123587E+04  0.50400001928E-02 0. -1.
</event>
<event>
 5   0  0.1281789E-04  0.2014987E+04  0.7818609E-02  0.8599646E-01
        2   -1    0    0  501    0  0.00000000000E+00  0.00000000000E+00  0.47858013610E+03  0.47858013611E+03  0.25500000920E-02 0.  1.
       -2   -1    0    0    0  501  0.00000000000E+00  0.00000000000E+00 -0.21209476135E+04  0.21209476135E+04  0.25500000920E-02 0. -1.
    10030    2    1    2    0    0  0.00000000000E+00  0.00000000000E+00 -0.16423674774E+04  0.25995277496E+04  0.20149872432E+04 0.  0.
        2    1    3    3  502    0 -0.60644331380E+03 -0.31169274042E+03 -0.17780470505E+04  0.19043049049E+04  0.25500000920E-02 0. -1.
       -2    1    3    3    0  502  0.60644331380E+03  0.31169274042E+03  0.13567957302E+03  0.69522284472E+03  0.25500000920E-02 0.  1.
</event>
<event>
 5   0  0.6168338E-05  0.1977782E+04  0.7818609E-02  0.8617079E-01
       -1   -1    0    0    0  501  0.00000000000E+00  0.00000000000E+00  0.10414692465E+04  0.10414692465E+04  0.50400001928E-02 0. -1.
        1   -1    0    0  501    0  0.00000000000E+00  0.00000000000E+00 -0.93896713043E+03  0.93896713044E+03  0.50400001928E-02 0.  1.
    10030    2    1    2    0    0  0.00000000000E+00  0.00000000000E+00  0.10250211604E+03  0.19804363769E+04  0.19777819797E+04 0.  0.
        5    1    3    3  502    0 -0.89358671862E+03 -0.35123905547E+03  0.28824824197E+03  0.10024845319E+04  0.46999998093E+01 0. -1.
       -5    1    3    3    0  502  0.89358671862E+03  0.35123905547E+03 -0.18574612594E+03  0.97795184497E+03  0.46999998093E+01 0.  1.
</event>
<event>
 5   0  0.1274868E-04  0.2017796E+04  0.7818609E-02  0.8598345E-01
        2   -1    0    0  501    0  0.00000000000E+00  0.00000000000E+00  0.21404071304E+04  0.21404071304E+04  0.25500000920E-02 0. -1.
       -2   -1    0    0    0  501  0.00000000000E+00  0.00000000000E+00 -0.47555207006E+03  0.47555207006E+03  0.25500000920E-02 0.  1.
    10030    2    1    2    0    0  0.00000000000E+00  0.00000000000E+00  0.16648550603E+04  0.26159592005E+04  0.20177958684E+04 0.  0.
        1    1    3    3  502    0 -0.31123351807E+03  0.50504845104E+03  0.18903883718E+04  0.19812895894E+04  0.50400001928E-02 0. -1.
       -1    1    3    3    0  502  0.31123351807E+03 -0.50504845104E+03 -0.22553331144E+03  0.63466961111E+03  0.50400001928E-02 0.  1.
</event>
<event>
 5   0  0.1244229E-04  0.2008954E+04  0.7818609E-02  0.8602446E-01
       -2   -1    0    0    0  501  0.00000000000E+00  0.00000000000E+00  0.99120857786E+03  0.99120857786E+03  0.25500000920E-02 0. -1.
        2   -1    0    0  501    0  0.00000000000E+00  0.00000000000E+00 -0.10179234764E+04  0.10179234764E+04  0.25500000920E-02 0.  1.
    10030    2    1    2    0    0  0.00000000000E+00  0.00000000000E+00 -0.26714898544E+02  0.20091320543E+04  0.20089544359E+04 0.  0.
        5    1    3    3  502    0  0.15931500748E+03  0.47351777945E+03  0.85812766934E+03  0.99297811957E+03  0.46999998093E+01 0. -1.
       -5    1    3    3    0  502 -0.15931500748E+03 -0.47351777945E+03 -0.88484256788E+03  0.10161539347E+04  0.46999998093E+01 0.  1.
</event>
<event>
 5   0  0.6256535E-05  0.1997678E+04  0.7818609E-02  0.8607707E-01
        1   -1    0    0  501    0  0.00000000000E+00  0.00000000000E+00  0.94600537078E+03  0.94600537080E+03  0.50400001928E-02 0.  1.
       -1   -1    0    0    0  501  0.00000000000E+00  0.00000000000E+00 -0.10546229643E+04  0.10546229644E+04  0.50400001928E-02 0. -1.
    10030    2    1    2    0    0  0.00000000000E+00  0.00000000000E+00 -0.10861759356E+03  0.20006283352E+04  0.19976776401E+04 0.  0.
        1    1    3    3  502    0 -0.13517911163E+03  0.43161803897E+03  0.83757468531E+03  0.95189226139E+03  0.50400001928E-02 0.  1.
       -1    1    3    3    0  502  0.13517911163E+03 -0.43161803897E+03 -0.94619227887E+03  0.10487360738E+04  0.50400001928E-02 0. -1.
</event>
<event>
 5   0  0.6028501E-05  0.2030035E+04  0.7818609E-02  0.8592706E-01
       -1   -1    0    0    0  501  0.00000000000E+00  0.00000000000E+00  0.65540403923E+03  0.65540403925E+03  0.50400001928E-02 0. -1.
        1   -1    0    0  501    0  0.00000000000E+00  0.00000000000E+00 -0.15719472150E+04  0.15719472150E+04  0.50400001928E-02 0.  1.
    10030    2    1    2    0    0  0.00000000000E+00  0.00000000000E+00 -0.91654317578E+03  0.22273512543E+04  0.20300350285E+04 0.  0.
        4    1    3    3  502    0  0.86355670348E+03  0.38503312634E+03 -0.53231081316E+02  0.94700361637E+03  0.12699999809E+01 0. -1.
       -4    1    3    3    0  502 -0.86355670348E+03 -0.38503312634E+03 -0.86331209446E+03  0.12803476379E+04  0.12699999809E+01 0.  1.
</event>
<event>
 5   0  0.6028501E-05  0.1958063E+04  0.7818609E-02  0.8626483E-01
       -1   -1    0    0    0  501  0.00000000000E+00  0.00000000000E+00  0.71275550411E+03  0.71275550413E+03  0.50400001928E-02 0.  1.
        1   -1    0    0  501    0  0.00000000000E+00  0.00000000000E+00 -0.13447844987E+04  0.13447844987E+04  0.50400001928E-02 0. -1.
    10030    2    1    2    0    0  0.00000000000E+00  0.00000000000E+00 -0.63202899454E+03  0.20575400028E+04  0.19580628726E+04 0.  0.
        4    1    3    3  502    0  0.38081193748E+03 -0.16394999922E+03  0.61595054293E+03  0.74249176306E+03  0.12699999809E+01 0.  1.
       -4    1    3    3    0  502 -0.38081193748E+03  0.16394999922E+03 -0.12479795375E+04  0.13150482397E+04  0.12699999809E+01 0. -1.
</event>
<event>
 5   0  0.1281789E-04  0.1993699E+04  0.7818609E-02  0.8609572E-01
       -2   -1    0    0    0  501  0.00000000000E+00  0.00000000000E+00  0.11266410604E+04  0.11266410604E+04  0.25500000920E-02 0. -1.
        2   -1    0    0  501    0  0.00000000000E+00  0.00000000000E+00 -0.88201035677E+03  0.88201035677E+03  0.25500000920E-02 0.  1.
    10030    2    1    2    0    0  0.00000000000E+00  0.00000000000E+00  0.24463070362E+03  0.20086514172E+04  0.19936991585E+04 0.  0.
        2    1    3    3  502    0  0.50987649693E+03 -0.70702039991E+03  0.60952997944E+03  0.10636628619E+04  0.25500000920E-02 0. -1.
       -2    1    3    3    0  502 -0.50987649693E+03  0.70702039991E+03 -0.36489927581E+03  0.94498855523E+03  0.25500000920E-02 0.  1.
</event>
<event>
 5   0  0.1281789E-04  0.1954190E+04  0.7818609E-02  0.8628343E-01
        2   -1    0    0  501    0  0.00000000000E+00  0.00000000000E+00  0.83180477066E+03  0.83180477067E+03  0.25500000920E-02 0.  1.
       -2   -1    0    0    0  501  0.00000000000E+00  0.00000000000E+00 -0.11477627966E+04  0.11477627966E+04  0.25500000920E-02 0. -1.
    10030    2    1    2    0    0  0.00000000000E+00  0.00000000000E+00 -0.31595802598E+03  0.19795675673E+04  0.19541899292E+04 0.  0.
        2    1    3    3  502    0 -0.20167048212E+03  0.49167307306E+03  0.67260868495E+03  0.85721399732E+03  0.25500000920E-02 0.  1.
       -2    1    3    3    0  502  0.20167048212E+03 -0.49167307306E+03 -0.98856671093E+03  0.11223535700E+04  0.25500000920E-02 0. -1.
</event>
<event>
 5   0  0.1242761E-04  0.1984797E+04  0.7818609E-02  0.8613762E-01
       -2   -1    0    0    0  501  0.00000000000E+00  0.00000000000E+00  0.84086134476E+03  0.84086134476E+03  0.25500000920E-02 0.  1.
        2   -1    0    0  501    0  0.00000000000E+00  0.00000000000E+00 -0.11712453170E+04  0.11712453170E+04  0.25500000920E-02 0. -1.
    10030    2    1    2    0    0  0.00000000000E+00  0.00000000000E+00 -0.33038397223E+03  0.20121066618E+04  0.19847971305E+04 0.  0.
        4    1    3    3  502    0  0.56578835337E+03 -0.58205637657E+03  0.41358134531E+03  0.91101988365E+03  0.12699999809E+01 0.  1.
       -4    1    3    3    0  502 -0.56578835337E+03  0.58205637657E+03 -0.74396531754E+03  0.11010867781E+04  0.12699999809E+01 0. -1.
</event>
<event>
 5   0  0.1244229E-04  0.1861691E+04  0.7818609E-02  0.8674164E-01
        2   -1    0    0  501    0  0.00000000000E+00  0.00000000000E+00  0.13025580518E+04  0.13025580518E+04  0.25500000920E-02 0. -1.
       -2   -1    0    0    0  501  0.00000000000E+00  0.00000000000E+00 -0.66520893375E+03  0.66520893376E+03  0.25500000920E-02 0.  1.
    10030    2    1    2    0    0  0.00000000000E+00  0.00000000000E+00  0.63734911808E+03  0.19677669856E+04  0.18616909011E+04 0.  0.
        5    1    3    3  502    0  0.52373515258E+03 -0.97689104454E+02 -0.48810497283E+03  0.72257195190E+03  0.46999998093E+01 0.  1.
       -5    1    3    3    0  502 -0.52373515258E+03  0.97689104454E+02  0.11254540909E+04  0.12451950337E+04  0.46999998093E+01 0. -1.
</event>
<event>
 5   0  0.1281789E-04  0.2028028E+04  0.7818609E-02  0.8593628E-01
        2   -1    0    0  501    0  0.00000000000E+00  0.00000000000E+00  0.20554841801E+04  0.20554841801E+04  0.25500000920E-02 0.  1.
       -2   -1    0    0    0  501  0.00000000000E+00  0.00000000000E+00 -0.50023455401E+03  0.50023455402E+03  0.25500000920E-02 0. -1.
    10030    2    1    2    0    0  0.00000000000E+00  0.00000000000E+00  0.15552496260E+04  0.25557187341E+04  0.20280278224E+04 0.  0.
        2    1    3    3  502    0  0.73956717857E+03 -0.43783109030E+03  0.99491883958E+02  0.86519033180E+03  0.25500000920E-02 0.  1.
       -2    1    3    3    0  502 -0.73956717857E+03  0.43783109030E+03  0.14557577421E+04  0.16905284023E+04  0.25500000920E-02 0. -1.
</event>
<event>
 5   0  0.1274868E-04  0.1791390E+04  0.7818609E-02  0.8710891E-01
       -2   -1    0    0    0  501  0.00000000000E+00  0.00000000000E+00  0.49521365173E+03  0.49521365173E+03  0.25500000920E-02 0.  1.
        2   -1    0    0  501    0  0.00000000000E+00  0.00000000000E+00 -0.16200480852E+04  0.16200480852E+04  0.25500000920E-02 0. -1.
    10030    2    1    2    0    0  0.00000000000E+00  0.00000000000E+00 -0.11248344335E+04  0.21152617369E+04  0.17913904412E+04 0.  0.
        1    1    3    3  502    0 -0.36051570742E+03 -0.23113204728E+03  0.36649740109E+03  0.56366119576E+03  0.50400001928E-02 0.  1.
       -1    1    3    3    0  502  0.36051570742E+03  0.23113204728E+03 -0.14913318345E+04  0.15516005412E+04  0.50400001928E-02 0. -1.
</event>
<event>
 5   0  0.1242761E-04  0.2039675E+04  0.7818609E-02  0.8588293E-01
        2   -1    0    0  501    0  0.00000000000E+00  0.00000000000E+00  0.10993928041E+04  0.10993928041E+04  0.25500000920E-02 0.  1.
       -2   -1    0    0    0  501  0.00000000000E+00  0.00000000000E+00 -0.94603935550E+03  0.94603935550E+03  0.25500000920E-02 0. -1.
    10030    2    1    2    0    0  0.00000000000E+00  0.00000000000E+00  0.15335344856E+03  0.20454321596E+04  0.20396753269E+04 0.  0.
        4    1    3    3  502    0  0.25022015063E+03  0.42450384517E+03 -0.81873398493E+03  0.95558389967E+03  0.12699999809E+01 0. -1.
       -4    1    3    3    0  502 -0.25022015063E+03 -0.42450384517E+03  0.97208743349E+03  0.10898482599E+04  0.12699999809E+01 0.  1.
</event>
<event>
 5   0  0.1242761E-04  0.1971646E+04  0.7818609E-02  0.8619993E-01
       -2   -1    0    0    0  501  0.00000000000E+00  0.00000000000E+00  0.44632309117E+03  0.44632309117E+03  0.25500000920E-02 0. -1.
        2   -1    0    0  501    0  0.00000000000E+00  0.00000000000E+00 -0.21774517081E+04  0.21774517081E+04  0.25500000920E-02 0.  1.
    10030    2    1    2    0    0  0.00000000000E+00  0.00000000000E+00 -0.17311286169E+04  0.26237747993E+04  0.19716459898E+04 0.  0.
        4    1    3    3  502    0  0.46772694645E+03  0.57853030898E+03 -0.17263258222E+04  0.18798053815E+04  0.12699999809E+01 0.  1.
       -4    1    3    3    0  502 -0.46772694645E+03 -0.57853030898E+03 -0.48027946790E+01  0.74396941777E+03  0.12699999809E+01 0. -1.
</event>
<event>
 5   0  0.1244229E-04  0.1990632E+04  0.7818609E-02  0.8611013E-01
       -2   -1    0    0    0  501  0.00000000000E+00  0.00000000000E+00  0.32547563074E+04  0.32547563074E+04  0.25500000920E-02 0. -1.
        2   -1    0    0  501    0  0.00000000000E+00  0.00000000000E+00 -0.30437126450E+03  0.30437126451E+03  0.25500000920E-02 0.  1.
    10030    2    1    2    0    0  0.00000000000E+00  0.00000000000E+00  0.29503850429E+04  0.35591275719E+04  0.19906323548E+04 0.  0.
        5    1    3    3  502    0 -0.19887292598E+02 -0.52766875627E+03 -0.33261978482E+02  0.52911082956E+03  0.46999998093E+01 0.  1.
       -5    1    3    3    0  502  0.19887292598E+02  0.52766875627E+03  0.29836470213E+04  0.30300167423E+04  0.46999998093E+01 0. -1.
</event>
<event>
 5   0  0.6028501E-05  0.1940940E+04  0.7818609E-02  0.8634742E-01
       -1   -1    0    0    0  501  0.00000000000E+00  0.00000000000E+00  0.15424621807E+04  0.15424621807E+04  0.50400001928E-02 0. -1.
        1   -1    0    0  501    0  0.00000000000E+00  0.00000000000E+00 -0.61059021992E+03  0.61059021994E+03  0.50400001928E-02 0.  1.
    10030    2    1    2    0    0  0.00000000000E+00  0.00000000000E+00  0.93187196078E+03  0.21530524007E+04  0.19409403104E+04 0.  0.
        4    1    3    3  502    0 -0.64607901713E+03 -0.67918228969E+03  0.18727833147E+03  0.95591917302E+03  0.12699999809E+01 0.  1.
       -4    1    3    3    0  502  0.64607901713E+03  0.67918228969E+03  0.74459362931E+03  0.11971332276E+04  0.12699999809E+01 0. -1.
</event>
<event>
 5   0  0.1244229E-04  0.2012584E+04  0.7818609E-02  0.8600760E-01
       -2   -1    0    0    0  501  0.00000000000E+00  0.00000000000E+00  0.88090430143E+03  0.88090430143E+03  0.25500000920E-02 0. -1.
        2   -1    0    0  501    0  0.00000000000E+00  0.00000000000E+00 -0.11495274817E+04  0.11495274817E+04  0.25500000920E-02 0.  1.
    10030    2    1    2    0    0  0.00000000000E+00  0.00000000000E+00 -0.26862318025E+03  0.20304317831E+04  0.20125841132E+04 0.  0.
        5    1    3    3  502    0 -0.52201217529E+03 -0.37071922493E+03  0.64889246465E+03  0.91159913096E+03  0.46999998093E+01 0. -1.
       -5    1    3    3    0  502  0.52201217529E+03  0.37071922493E+03 -0.91751564490E+03  0.11188326521E+04  0.46999998093E+01 0.  1.
</event>
<event>
 5   0  0.1159914E-04  0.1999017E+04  0.7818609E-02  0.8607080E-01
       -2   -1    0    0    0  501  0.00000000000E+00  0.00000000000E+00  0.13565392192E+04  0.13565392192E+04  0.25500000920E-02 0.  1.
        2   -1    0    0  501    0  0.00000000000E+00  0.00000000000E+00 -0.73644569722E+03  0.73644569723E+03  0.25500000920E-02 0. -1.
    10030    2    1    2    0    0  0.00000000000E+00  0.00000000000E+00  0.62009352202E+03  0.20929849165E+04  0.19990172297E+04 0.  0.
        3    1    3    3  502    0  0.75831337705E+03 -0.16569251904E+03 -0.34925532454E+03  0.85115949186E+03  0.10100000352E+00 0.  1.
       -3    1    3    3    0  502 -0.75831337705E+03  0.16569251904E+03  0.96934884656E+03  0.12418254246E+04  0.10100000352E+00 0. -1.
</event>
<event>
 5   0  0.1244229E-04  0.1996879E+04  0.7818609E-02  0.8608081E-01
       -2   -1    0    0    0  501  0.00000000000E+00  0.00000000000E+00  0.44965495709E+03  0.44965495710E+03  0.25500000920E-02 0.  1.
        2   -1    0    0  501    0  0.00000000000E+00  0.00000000000E+00 -0.22169918108E+04  0.22169918108E+04  0.25500000920E-02 0. -1.
    10030    2    1    2    0    0  0.00000000000E+00  0.00000000000E+00 -0.17673368537E+04  0.26666467679E+04  0.19968789223E+04 0.  0.
        5    1    3    3  502    0 -0.93646699793E+03  0.26205345970E+03 -0.58145062908E+03  0.11330266449E+04  0.46999998093E+01 0. -1.
       -5    1    3    3    0  502  0.93646699793E+03 -0.26205345970E+03 -0.11858862246E+04  0.15336201230E+04  0.46999998093E+01 0.  1.
</event>
<event>
 5   0  0.6256535E-05  0.2004416E+04  0.7818609E-02  0.8604559E-01
        1   -1    0    0  501    0  0.00000000000E+00  0.00000000000E+00  0.17237020710E+04  0.17237020710E+04  0.50400001928E-02 0. -1.
       -1   -1    0    0    0  501  0.00000000000E+00  0.00000000000E+00 -0.58271126733E+03  0.58271126735E+03  0.50400001928E-02 0.  1.
    10030    2    1    2    0    0  0.00000000000E+00  0.00000000000E+00  0.11409908037E+04  0.23064133384E+04  0.20044157436E+04 0.  0.
        1    1    3    3  502    0 -0.72522079423E+03 -0.19394633126E+03  0.13345067359E+04  0.15311657677E+04  0.50400001928E-02 0. -1.
       -1    1    3    3    0  502  0.72522079423E+03  0.19394633126E+03 -0.19351593227E+03  0.77524757069E+03  0.50400001928E-02 0.  1.
</event>
<event>
 5   0  0.6168338E-05  0.2001704E+04  0.7818609E-02  0.8605824E-01
        1   -1    0    0  501    0  0.00000000000E+00  0.00000000000E+00  0.12980599084E+04  0.12980599085E+04  0.50400001928E-02 0.  1.
       -1   -1    0    0    0  501  0.00000000000E+00  0.00000000000E+00 -0.77169406627E+03  0.77169406629E+03  0.50400001928E-02 0. -1.
    10030    2    1    2    0    0  0.00000000000E+00  0.00000000000E+00  0.52636584217E+03  0.20697539747E+04  0.20017044028E+04 0.  0.
        5    1    3    3  502    0  0.17045188498E+02 -0.22173941039E+02 -0.77127850924E+03  0.77179974795E+03  0.46999998093E+01 0. -1.
       -5    1    3    3    0  502 -0.17045188498E+02  0.22173941039E+02  0.12976443514E+04  0.12979542268E+04  0.46999998093E+01 0.  1.
</event>
<event>
 5   0  0.6168338E-05  0.2002234E+04  0.7818609E-02  0.8605577E-01
       -1   -1    0    0    0  501  0.00000000000E+00  0.00000000000E+00  0.68970688128E+03  0.68970688130E+03  0.50400001928E-02 0.  1.
        1   -1    0    0  501    0  0.00000000000E+00  0.00000000000E+00 -0.14531314486E+04  0.14531314487E+04  0.50400001928E-02 0. -1.
    10030    2    1    2    0    0  0.00000000000E+00  0.00000000000E+00 -0.76342456737E+03  0.21428383300E+04  0.20022335124E+04 0.  0.
        5    1    3    3  502    0 -0.32748549387E+03  0.48720306040E+03 -0.12495834998E+04  0.13806138431E+04  0.46999998093E+01 0. -1.
       -5    1    3    3    0  502  0.32748549387E+03 -0.48720306040E+03  0.48615893245E+03  0.76222448685E+03  0.46999998093E+01 0.  1.
</event>
<event>
 5   0  0.1274868E-04  0.2029952E+04  0.7818609E-02  0.8592744E-01
       -2   -1    0    0    0  501  0.00000000000E+00  0.00000000000E+00  0.10657514423E+04  0.10657514423E+04  0.25500000920E-02 0. -1.
        2   -1    0    0  501    0  0.00000000000E+00  0.00000000000E+00 -0.96661929252E+03  0.96661929252E+03  0.25500000920E-02 0.  1.
    10030    2    1    2    0    0  0.00000000000E+00  0.00000000000E+00  0.99132149826E+02  0.20323707349E+04  0.20299516302E+04 0.  0.
        1    1    3    3  502    0 -0.70933392596E+03  0.46827272503E+03  0.60497210142E+03  0.10432761892E+04  0.50400001928E-02 0. -1.
       -1    1    3    3    0  502  0.70933392596E+03 -0.46827272503E+03 -0.50583995160E+03  0.98909454563E+03  0.50400001928E-02 0.  1.
</event>
<event>
 5   0  0.1274868E-04  0.1983625E+04  0.7818609E-02  0.8614315E-01
        2   -1    0    0  501    0  0.00000000000E+00  0.00000000000E+00  0.24259022093E+04  0.24259022093E+04  0.25500000920E-02 0. -1.
       -2   -1    0    0    0  501  0.00000000000E+00  0.00000000000E+00 -0.40549544246E+03  0.40549544247E+03  0.25500000920E-02 0.  1.
    10030    2    1    2    0    0  0.00000000000E+00  0.00000000000E+00  0.20204067669E+04  0.28313976518E+04  0.19836252567E+04 0.  0.
        1    1    3    3  502    0 -0.24715451056E+02  0.97590680041E+03  0.12602499835E+04  0.15941251386E+04  0.50400001928E-02 0. -1.
       -1    1    3    3    0  502  0.24715451056E+02 -0.97590680041E+03  0.76015678339E+03  0.12372725132E+04  0.50400001928E-02 0.  1.
</event>
<event>
 5   0  0.6028501E-05  0.1941943E+04  0.7818609E-02  0.8634256E-01
       -1   -1    0    0    0  501  0.00000000000E+00  0.00000000000E+00  0.79760538632E+03  0.79760538633E+03  0.50400001928E-02 0.  1.
        1   -1    0    0  501    0  0.00000000000E+00  0.00000000000E+00 -0.11820200690E+04  0.11820200690E+04  0.50400001928E-02 0. -1.
    10030    2    1    2    0    0  0.00000000000E+00  0.00000000000E+00 -0.38441468268E+03  0.19796254553E+04  0.19419429176E+04 0.  0.
        4    1    3    3  502    0 -0.41267991692E+02  0.69296307321E+03 -0.88426448839E+03  0.11242002341E+04  0.12699999809E+01 0. -1.
       -4    1    3    3    0  502  0.41267991692E+02 -0.69296307321E+03  0.49984980572E+03  0.85542522125E+03  0.12699999809E+01 0.  1.
</event>
<event>
 5   0  0.1281789E-04  0.2000082E+04  0.7818609E-02  0.8606582E-01
        2   -1    0    0  501    0  0.00000000000E+00  0.00000000000E+00  0.17474393582E+04  0.17474393582E+04  0.25500000920E-02 0. -1.
       -2   -1    0    0    0  501  0.00000000000E+00  0.00000000000E+00 -0.57231299109E+03  0.57231299109E+03  0.25500000920E-02 0.  1.
    10030    2    1    2    0    0  0.00000000000E+00  0.00000000000E+00  0.11751263671E+04  0.23197523493E+04  0.20000822442E+04 0.  0.
        2    1    3    3  502    0  0.55649766165E+03 -0.74161070953E+03  0.15296606718E+03  0.93972054869E+03  0.25500000920E-02 0.  1.
       -2    1    3    3    0  502 -0.55649766165E+03  0.74161070953E+03  0.10221602999E+04  0.13800318006E+04  0.25500000920E-02 0. -1.
</event>
<event>
 5   0  0.1244229E-04  0.2001630E+04  0.7818609E-02  0.8605859E-01
        2   -1    0    0  501    0  0.00000000000E+00  0.00000000000E+00  0.26013468238E+04  0.26013468238E+04  0.25500000920E-02 0.  1.
       -2   -1    0    0    0  501  0.00000000000E+00  0.00000000000E+00 -0.38504313498E+03  0.38504313499E+03  0.25500000920E-02 0. -1.
    10030    2    1    2    0    0  0.00000000000E+00  0.00000000000E+00  0.22163036888E+04  0.29863899588E+04  0.20016300719E+04 0.  0.
        5    1    3    3  502    0 -0.11619424528E+03 -0.15474112763E+03  0.25731526676E+04  0.25804229615E+04  0.46999998093E+01 0.  1.
       -5    1    3    3    0  502  0.11619424528E+03  0.15474112763E+03 -0.35684897882E+03  0.40596699730E+03  0.46999998093E+01 0. -1.
</event>
<event>
 5   0  0.1244229E-04  0.1999708E+04  0.7818609E-02  0.8606757E-01
        2   -1    0    0  501    0  0.00000000000E+00  0.00000000000E+00  0.13162539960E+04  0.13162539960E+04  0.25500000920E-02 0.  1.
       -2   -1    0    0    0  501  0.00000000000E+00  0.00000000000E+00 -0.75950974606E+03  0.75950974607E+03  0.25500000920E-02 0. -1.
    10030    2    1    2    0    0  0.00000000000E+00  0.00000000000E+00  0.55674424997E+03  0.20757637421E+04  0.19997077169E+04 0.  0.
        5    1    3    3  502    0 -0.97639444609E+03  0.71721475009E+02  0.48905858466E+03  0.10943904575E+04  0.46999998093E+01 0.  1.
       -5    1    3    3    0  502  0.97639444609E+03 -0.71721475009E+02  0.67685665309E+02  0.98137328455E+03  0.46999998093E+01 0. -1.
</event>
<event>
 5   0  0.6256535E-05  0.1897133E+04  0.7818609E-02  0.8656285E-01
       -1   -1    0    0    0  501  0.00000000000E+00  0.00000000000E+00  0.92530295608E+03  0.92530295609E+03  0.50400001928E-02 0. -1.
        1   -1    0    0  501    0  0.00000000000E+00  0.00000000000E+00 -0.97241542228E+03  0.97241542229E+03  0.50400001928E-02 0.  1.
    10030    2    1    2    0    0  0.00000000000E+00  0.00000000000E+00 -0.47112466203E+02  0.18977183784E+04  0.18971334848E+04 0.  0.
        1    1    3    3  502    0 -0.39051920071E+03 -0.71589129875E+03  0.46112722272E+03  0.93682651185E+03  0.50400001928E-02 0. -1.
       -1    1    3    3    0  502  0.39051920071E+03  0.71589129875E+03 -0.50823968893E+03  0.96089186654E+03  0.50400001928E-02 0.  1.
</event>
<event>
 5   0  0.6028501E-05  0.1996846E+04  0.7818609E-02  0.8608097E-01
       -1   -1    0    0    0  501  0.00000000000E+00  0.00000000000E+00  0.10015594932E+04  0.10015594932E+04  0.50400001928E-02 0. -1.
        1   -1    0    0  501    0  0.00000000000E+00  0.00000000000E+00 -0.99529605858E+03  0.99529605859E+03  0.50400001928E-02 0.  1.
    10030    2    1    2    0    0  0.00000000000E+00  0.00000000000E+00  0.62634346006E+01  0.19968555518E+04  0.19968457287E+04 0.  0.
        4    1    3    3  502    0  0.52412537757E+03  0.37612834982E+03  0.76515033200E+03  0.10008179607E+04  0.12699999809E+01 0. -1.
       -4    1    3    3    0  502 -0.52412537757E+03 -0.37612834982E+03 -0.75888689740E+03  0.99603759111E+03  0.12699999809E+01 0.  1.
</event>
<event>
 5   0  0.1159914E-04  0.1885630E+04  0.7818609E-02  0.8662043E-01
       -2   -1    0    0    0  501  0.00000000000E+00  0.00000000000E+00  0.41880660140E+03  0.41880660141E+03  0.25500000920E-02 0.  1.
        2   -1    0    0  501    0  0.00000000000E+00  0.00000000000E+00 -0.21224595518E+04  0.21224595518E+04  0.25500000920E-02 0. -1.
    10030    2    1    2    0    0  0.00000000000E+00  0.00000000000E+00 -0.17036529504E+04  0.25412661532E+04  0.18856299441E+04 0.  0.
        3    1    3    3  502    0 -0.88178894714E+03 -0.30985129312E+03 -0.10187483693E+04  0.13825367342E+04  0.10100000352E+00 0. -1.
       -3    1    3    3    0  502  0.88178894714E+03  0.30985129312E+03 -0.68490458103E+03  0.11587294190E+04  0.10100000352E+00 0.  1.
</event>
<event>
 5   0  0.1274868E-04  0.2005563E+04  0.7818609E-02  0.8604024E-01
        2   -1    0    0  501    0  0.00000000000E+00  0.00000000000E+00  0.21895534359E+04  0.21895534359E+04  0.25500000920E-02 0.  1.
       -2   -1    0    0    0  501  0.00000000000E+00  0.00000000000E+00 -0.45925855462E+03  0.45925855463E+03  0.25500000920E-02 0. -1.
    10030    2    1    2    0    0  0.00000000000E+00  0.00000000000E+00  0.17302948813E+04  0.26488119905E+04  0.20055634084E+04 0.  0.
        1    1    3    3  502    0  0.47744359768E+03  0.57868773148E+02 -0.29699922906E+03  0.56525191371E+03  0.50400001928E-02 0. -1.
       -1    1    3    3    0  502 -0.47744359768E+03 -0.57868773148E+02  0.20272941104E+04  0.20835600768E+04  0.50400001928E-02 0.  1.
</event>
<event>
 5   0  0.1244229E-04  0.2012616E+04  0.7818609E-02  0.8600745E-01
       -2   -1    0    0    0  501  0.00000000000E+00  0.00000000000E+00  0.51757437285E+03  0.51757437286E+03  0.25500000920E-02 0. -1.
        2   -1    0    0  501    0  0.00000000000E+00  0.00000000000E+00 -0.19565419185E+04  0.19565419185E+04  0.25500000920E-02 0.  1.
    10030    2    1    2    0    0  0.00000000000E+00  0.00000000000E+00 -0.14389675457E+04  0.24741162914E+04  0.20126161646E+04 0.  0.
        5    1    3    3  502    0  0.67096617559E+03 -0.39067789367E+03 -0.15064388113E+04  0.16947580380E+04  0.46999998093E+01 0.  1.
       -5    1    3    3    0  502 -0.67096617559E+03  0.39067789367E+03  0.67471265597E+02  0.77935825335E+03  0.46999998093E+01 0. -1.
</event>
<event>
 5   0  0.4479000E-05  0.1991088E+04  0.7818609E-02  0.8610798E-01
       -4   -1    0    0    0  501  0.00000000000E+00  0.00000000000E+00  0.11196999965E+04  0.11197007167E+04  0.12699999809E+01 0.  1.
        4   -1    0    0  501    0  0.00000000000E+00  0.00000000000E+00 -0.88515377593E+03  0.88515468701E+03  0.12699999809E+01 0. -1.
    10030    2    1    2    0    0  0.00000000000E+00  0.00000000000E+00  0.23454622055E+03  0.20048554037E+04  0.19910884612E+04 0.  0.
        2    1    3    3  502    0 -0.66864844226E+03  0.60522529153E+02 -0.62289765228E+03  0.91583579374E+03  0.25500000920E-02 0. -1.
       -2    1    3    3    0  502  0.66864844226E+03 -0.60522529153E+02  0.85744387283E+03  0.10890196100E+04  0.25500000920E-02 0.  1.
</event>
<event>
 5   0  0.1159914E-04  0.2007751E+04  0.7818609E-02  0.8603005E-01
        2   -1    0    0  501    0  0.00000000000E+00  0.00000000000E+00  0.10841665347E+04  0.10841665347E+04  0.25500000920E-02 0.  1.
       -2   -1    0    0    0  501  0.00000000000E+00  0.00000000000E+00 -0.92953066269E+03  0.92953066270E+03  0.25500000920E-02 0. -1.
    10030    2    1    2    0    0  0.00000000000E+00  0.00000000000E+00  0.15463587198E+03  0.20136971974E+04  0.20077510179E+04 0.  0.
        3    1    3    3  502    0  0.22809627628E+01 -0.73120230220E+03  0.76718058061E+03  0.10598245435E+04  0.10100000352E+00 0.  1.
       -3    1    3    3    0  502 -0.22809627628E+01  0.73120230220E+03 -0.61254470863E+03  0.95387265387E+03  0.10100000352E+00 0. -1.
</event>
<event>
 5   0  0.1242761E-04  0.2003227E+04  0.7818609E-02  0.8605113E-01
       -2   -1    0    0    0  501  0.00000000000E+00  0.00000000000E+00  0.56258886659E+03  0.56258886660E+03  0.25500000920E-02 0.  1.
        2   -1    0    0  501    0  0.00000000000E+00  0.00000000000E+00 -0.17832379199E+04  0.17832379199E+04  0.25500000920E-02 0. -1.
    10030    2    1    2    0    0  0.00000000000E+00  0.00000000000E+00 -0.12206490533E+04  0.23458267865E+04  0.20032271965E+04 0.  0.
        4    1    3    3  502    0 -0.51957931094E+03  0.19627422943E+03  0.36573767801E+03  0.66502022188E+03  0.12699999809E+01 0.  1.
       -4    1    3    3    0  502  0.51957931094E+03 -0.19627422943E+03 -0.15863867313E+04  0.16808065646E+04  0.12699999809E+01 0. -1.
</event>
<event>
 5   0  0.4479000E-05  0.1976533E+04  0.7818609E-02  0.8617671E-01
       -3   -1    0    0    0  501  0.00000000000E+00  0.00000000000E+00  0.14830876102E+04  0.14830876136E+04  0.10100000352E+00 0. -1.
        3   -1    0    0  501    0  0.00000000000E+00  0.00000000000E+00 -0.65853882276E+03  0.65853883051E+03  0.10100000352E+00 0.  1.
    10030    2    1    2    0    0  0.00000000000E+00  0.00000000000E+00  0.82454878741E+03  0.21416264441E+04  0.19765331071E+04 0.  0.
        1    1    3    3  502    0 -0.73945810170E+03 -0.14656300613E+01 -0.29813447140E+03  0.79729831011E+03  0.50400001928E-02 0.  1.
       -1    1    3    3    0  502  0.73945810170E+03  0.14656300613E+01  0.11226832588E+04  0.13443281340E+04  0.50400001928E-02 0. -1.
</event>
<event>
 5   0  0.1159914E-04  0.1989638E+04  0.7818609E-02  0.8611481E-01
       -2   -1    0    0    0  501  0.00000000000E+00  0.00000000000E+00  0.10889266128E+04  0.10889266128E+04  0.25500000920E-02 0. -1.
        2   -1    0    0  501    0  0.00000000000E+00  0.00000000000E+00 -0.90884416500E+03  0.90884416501E+03  0.25500000920E-02 0.  1.
    10030    2    1    2    0    0  0.00000000000E+00  0.00000000000E+00  0.18008244778E+03  0.19977707778E+04  0.19896377541E+04 0.  0.
        3    1    3    3  502    0 -0.72570103267E+03 -0.12247078549E+03  0.76212288184E+03  0.10594679699E+04  0.10100000352E+00 0. -1.
       -3    1    3    3    0  502  0.72570103267E+03  0.12247078549E+03 -0.58204043406E+03  0.93830280784E+03  0.10100000352E+00 0.  1.
</event>
<event>
 5   0  0.1242761E-04  0.2003036E+04  0.7818609E-02  0.8605202E-01
        2   -1    0    0  501    0  0.00000000000E+00  0.00000000000E+00  0.95744945153E+03  0.95744945153E+03  0.25500000920E-02 0. -1.
       -2   -1    0    0    0  501  0.00000000000E+00  0.00000000000E+00 -0.10476150160E+04  0.10476150160E+04  0.25500000920E-02 0.  1.
    10030    2    1    2    0    0  0.00000000000E+00  0.00000000000E+00 -0.90165564443E+02  0.20050644675E+04  0.20030361180E+04 0.  0.
        4    1    3    3  502    0 -0.44012581771E+03 -0.39501642720E+03  0.76399808789E+03  0.96614874858E+03  0.12699999809E+01 0. -1.
       -4    1    3    3    0  502  0.44012581771E+03  0.39501642720E+03 -0.85416365234E+03  0.10389157189E+04  0.12699999809E+01 0.  1.
</event>
<event>
 5   0  0.1274868E-04  0.1999788E+04  0.7818609E-02  0.8606720E-01
        2   -1    0    0  501    0  0.00000000000E+00  0.00000000000E+00  0.14141100249E+04  0.14141100249E+04  0.25500000920E-02 0.  1.
       -2   -1    0    0    0  501  0.00000000000E+00  0.00000000000E+00 -0.70700893855E+03  0.70700893856E+03  0.25500000920E-02 0. -1.
    10030    2    1    2    0    0  0.00000000000E+00  0.00000000000E+00  0.70710108633E+03  0.21211189634E+04  0.19997884165E+04 0.  0.
        1    1    3    3  502    0 -0.32090892084E+03  0.43653452801E+03 -0.53781985946E+03  0.76341019831E+03  0.50400001928E-02 0. -1.
       -1    1    3    3    0  502  0.32090892084E+03 -0.43653452801E+03  0.12449209458E+04  0.13577087651E+04  0.50400001928E-02 0.  1.
</event>
<event>
 5   0  0.6028501E-05  0.1978183E+04  0.7818609E-02  0.8616889E-01
        1   -1    0    0  501    0  0.00000000000E+00  0.00000000000E+00  0.16219729826E+04  0.16219729826E+04  0.50400001928E-02 0.  1.
       -1   -1    0    0    0  501  0.00000000000E+00  0.00000000000E+00 -0.60315580625E+03  0.60315580627E+03  0.50400001928E-02 0. -1.
    10030    2    1    2    0    0  0.00000000000E+00  0.00000000000E+00  0.10188171763E+04  0.22251287889E+04  0.19781834314E+04 0.  0.
        4    1    3    3  502    0 -0.34958625221E+03  0.43534791465E+03  0.14277602505E+04  0.15330490208E+04  0.12699999809E+01 0.  1.
       -4    1    3    3    0  502  0.34958625221E+03 -0.43534791465E+03 -0.40894307415E+03  0.69207976803E+03  0.12699999809E+01 0. -1.
</event>
<event>
 5   0  0.1159914E-04  0.2013453E+04  0.7818609E-02  0.8600357E-01
       -2   -1    0    0    0  501  0.00000000000E+00  0.00000000000E+00  0.88421707189E+03  0.88421707189E+03  0.25500000920E-02 0.  1.
        2   -1    0    0  501    0  0.00000000000E+00  0.00000000000E+00 -0.11462094537E+04  0.11462094537E+04  0.25500000920E-02 0. -1.
    10030    2    1    2    0    0  0.00000000000E+00  0.00000000000E+00 -0.26199238178E+03  0.20304265256E+04  0.20134527230E+04 0.  0.
        3    1    3    3  502    0  0.91319013231E+03  0.30003700680E+03 -0.43278404241E+03  0.10541539075E+04  0.10100000352E+00 0.  1.
       -3    1    3    3    0  502 -0.91319013231E+03 -0.30003700680E+03  0.17079166063E+03  0.97627261804E+03  0.10100000352E+00 0. -1.
</event>
<event>
 5   0  0.1244229E-04  0.1860546E+04  0.7818609E-02  0.8674748E-01
       -2   -1    0    0    0  501  0.00000000000E+00  0.00000000000E+00  0.48511745975E+03  0.48511745975E+03  0.25500000920E-02 0.  1.
        2   -1    0    0  501    0  0.00000000000E+00  0.00000000000E+00 -0.17839143906E+04  0.17839143907E+04  0.25500000920E-02 0. -1.
    10030    2    1    2    0    0  0.00000000000E+00  0.00000000000E+00 -0.12987969309E+04  0.22690318504E+04  0.18605461753E+04 0.  0.
        5    1    3    3  502    0  0.48340752482E+03  0.49169179151E+03 -0.14109517572E+04  0.15704300697E+04  0.46999998093E+01 0. -1.
       -5    1    3    3    0  502 -0.48340752482E+03 -0.49169179151E+03  0.11215482627E+03  0.69860178066E+03  0.46999998093E+01 0.  1.
</event>
<event>
 5   0  0.6214547E-05  0.2000299E+04  0.7818609E-02  0.8606481E-01
        1   -1    0    0  501    0  0.00000000000E+00  0.00000000000E+00  0.86196092415E+03  0.86196092416E+03  0.50400001928E-02 0.  1.
       -1   -1    0    0    0  501  0.00000000000E+00  0.00000000000E+00 -0.11604922231E+04  0.11604922232E+04  0.50400001928E-02 0. -1.
    10030    2    1    2    0    0  0.00000000000E+00  0.00000000000E+00 -0.29853129900E+03  0.20224531473E+04  0.20002989268E+04 0.  0.
        3    1    3    3  502    0 -0.88580838169E+03  0.44052317956E+02 -0.61666456616E+03  0.10802186321E+04  0.10100000352E+00 0. -1.
       -3    1    3    3    0  502  0.88580838169E+03 -0.44052317956E+02  0.31813326716E+03  0.94223451522E+03  0.10100000352E+00 0.  1.
</event>
<event>
 5   0  0.6028501E-05  0.1993863E+04  0.7818609E-02  0.8609495E-01
       -1   -1    0    0    0  501  0.00000000000E+00  0.00000000000E+00  0.78165049097E+03  0.78165049099E+03  0.50400001928E-02 0. -1.
        1   -1    0    0  501    0  0.00000000000E+00  0.00000000000E+00 -0.12715052216E+04  0.12715052216E+04  0.50400001928E-02 0.  1.
    10030    2    1    2    0    0  0.00000000000E+00  0.00000000000E+00 -0.48985473063E+03  0.20531557126E+04  0.19938632659E+04 0.  0.
        4    1    3    3  502    0 -0.78244167858E+03  0.59243076631E+03 -0.64556054646E+02  0.98354374093E+03  0.12699999809E+01 0.  1.
       -4    1    3    3    0  502  0.78244167858E+03 -0.59243076631E+03 -0.42529867598E+03  0.10696119717E+04  0.12699999809E+01 0. -1.
</event>
<event>
 5   0  0.1242761E-04  0.2012458E+04  0.7818609E-02  0.8600818E-01
        2   -1    0    0  501    0  0.00000000000E+00  0.00000000000E+00  0.87119098730E+03  0.87119098730E+03  0.25500000920E-02 0.  1.
       -2   -1    0    0    0  501  0.00000000000E+00  0.00000000000E+00 -0.11621980452E+04  0.11621980452E+04  0.25500000920E-02 0. -1.
    10030    2    1    2    0    0  0.00000000000E+00  0.00000000000E+00 -0.29100705788E+03  0.20333890325E+04  0.20124576641E+04 0.  0.
        4    1    3    3  502    0 -0.13617863915E+03 -0.92704907564E+03  0.22509499130E+03  0.96365656664E+03  0.12699999809E+01 0.  1.
       -4    1    3    3    0  502  0.13617863915E+03  0.92704907564E+03 -0.51610204918E+03  0.10697324658E+04  0.12699999809E+01 0. -1.
</event>
<event>
 5   0  0.6214547E-05  0.2004126E+04  0.7818609E-02  0.8604694E-01
        1   -1    0    0  501    0  0.00000000000E+00  0.00000000000E+00  0.20044750166E+04  0.20044750166E+04  0.50400001928E-02 0. -1.
       -1   -1    0    0    0  501  0.00000000000E+00  0.00000000000E+00 -0.50094415665E+03  0.50094415668E+03  0.50400001928E-02 0.  1.
    10030    2    1    2    0    0  0.00000000000E+00  0.00000000000E+00  0.15035308599E+04  0.25054191732E+04  0.20041257912E+04 0.  0.
        3    1    3    3  502    0  0.80310354127E+03  0.46255997482E+03  0.27541312466E+03  0.96684508984E+03  0.10100000352E+00 0.  1.
       -3    1    3    3    0  502 -0.80310354127E+03 -0.46255997482E+03  0.12281177352E+04  0.15385740834E+04  0.10100000352E+00 0. -1.
</event>
<event>
 5   0  0.1244229E-04  0.1997432E+04  0.7818609E-02  0.8607822E-01
       -2   -1    0    0    0  501  0.00000000000E+00  0.00000000000E+00  0.48173939339E+03  0.48173939340E+03  0.25500000920E-02 0.  1.
        2   -1    0    0  501    0  0.00000000000E+00  0.00000000000E+00 -0.20704837284E+04  0.20704837284E+04  0.25500000920E-02 0. -1.
    10030    2    1    2    0    0  0.00000000000E+00  0.00000000000E+00 -0.15887443350E+04  0.25522231218E+04  0.19974319266E+04 0.  0.
        5    1    3    3  502    0  0.31779888865E+03 -0.46761822669E+03  0.25754356080E+03  0.62130002034E+03  0.46999998093E+01 0.  1.
       -5    1    3    3    0  502 -0.31779888865E+03  0.46761822669E+03 -0.18462878958E+04  0.19309231015E+04  0.46999998093E+01 0. -1.
</event>
<event>
 5   0  0.1281789E-04  0.2032186E+04  0.7818609E-02  0.8591719E-01
        2   -1    0    0  501    0  0.00000000000E+00  0.00000000000E+00  0.12755527669E+04  0.12755527669E+04  0.25500000920E-02 0.  1.
       -2   -1    0    0    0  501  0.00000000000E+00  0.00000000000E+00 -0.80940987924E+03  0.80940987924E+03  0.25500000920E-02 0. -1.
    10030    2    1    2    0    0  0.00000000000E+00  0.00000000000E+00  0.46614288764E+03  0.20849626461E+04  0.20321860259E+04 0.  0.
        2    1    3    3  502    0 -0.20063873586E+03 -0.35890769171E+03  0.11863819865E+04  0.12556165224E+04  0.25500000920E-02 0.  1.
       -2    1    3    3    0  502  0.20063873586E+03  0.35890769171E+03 -0.72023909881E+03  0.82934612374E+03  0.25500000920E-02 0. -1.
</event>
<event>
 5   0  0.1244229E-04  0.2006851E+04  0.7818609E-02  0.8603424E-01
        2   -1    0    0  501    0  0.00000000000E+00  0.00000000000E+00  0.13271210098E+04  0.13271210098E+04  0.25500000920E-02 0.  1.
       -2   -1    0    0    0  501  0.00000000000E+00  0.00000000000E+00 -0.75868177474E+03  0.75868177474E+03  0.25500000920E-02 0. -1.
    10030    2    1    2    0    0  0.00000000000E+00  0.00000000000E+00  0.56843923502E+03  0.20858027845E+04  0.20068507897E+04 0.  0.
        5    1    3    3  502    0 -0.31712094852E+03  0.89855487194E+03 -0.42593098154E+02  0.95383584326E+03  0.46999998093E+01 0.  1.
       -5    1    3    3    0  502  0.31712094852E+03 -0.89855487194E+03  0.61103233317E+03  0.11319669412E+04  0.46999998093E+01 0. -1.
</event>
<event>
 5   0  0.6168338E-05  0.1957814E+04  0.7818609E-02  0.8626602E-01
       -1   -1    0    0    0  501  0.00000000000E+00  0.00000000000E+00  0.54362407646E+03  0.54362407648E+03  0.50400001928E-02 0.  1.
        1   -1    0    0  501    0  0.00000000000E+00  0.00000000000E+00 -0.17627241830E+04  0.17627241830E+04  0.50400001928E-02 0. -1.
    10030    2    1    2    0    0  0.00000000000E+00  0.00000000000E+00 -0.12191001066E+04  0.23063482595E+04  0.19578143999E+04 0.  0.
        5    1    3    3  502    0 -0.29130033246E+03  0.22811485073E+03 -0.16771687309E+04  0.17175008910E+04  0.46999998093E+01 0. -1.
       -5    1    3    3    0  502  0.29130033246E+03 -0.22811485073E+03  0.45806862431E+03  0.58884736850E+03  0.46999998093E+01 0.  1.
</event>
<event>
 5   0  0.6028501E-05  0.1983347E+04  0.7818609E-02  0.8614446E-01
        1   -1    0    0  501    0  0.00000000000E+00  0.00000000000E+00  0.10327478853E+04  0.10327478853E+04  0.50400001928E-02 0. -1.
       -1   -1    0    0    0  501  0.00000000000E+00  0.00000000000E+00 -0.95223318485E+03  0.95223318486E+03  0.50400001928E-02 0.  1.
    10030    2    1    2    0    0  0.00000000000E+00  0.00000000000E+00  0.80514700420E+02  0.19849810701E+04  0.19833474814E+04 0.  0.
        4    1    3    3  502    0 -0.32499268783E+03 -0.39704695707E+03 -0.80905734682E+03  0.95804067586E+03  0.12699999809E+01 0.  1.
       -4    1    3    3    0  502  0.32499268783E+03  0.39704695707E+03  0.88957204724E+03  0.10269403943E+04  0.12699999809E+01 0. -1.
</event>
<event>
 5   0  0.1159914E-04  0.2011375E+04  0.7818609E-02  0.8601321E-01
       -2   -1    0    0    0  501  0.00000000000E+00  0.00000000000E+00  0.12240533295E+04  0.12240533295E+04  0.25500000920E-02 0.  1.
        2   -1    0    0  501    0  0.00000000000E+00  0.00000000000E+00 -0.82627716883E+03  0.82627716884E+03  0.25500000920E-02 0. -1.
    10030    2    1    2    0    0  0.00000000000E+00  0.00000000000E+00  0.39777616070E+03  0.20503304984E+04  0.20113749721E+04 0.  0.
        3    1    3    3  502    0 -0.72083311312E+03 -0.52211888808E+03  0.67614245209E+03  0.11177554008E+04  0.10100000352E+00 0.  1.
       -3    1    3    3    0  502  0.72083311312E+03  0.52211888808E+03 -0.27836629139E+03  0.93257509759E+03  0.10100000352E+00 0. -1.
</event>
<event>
 5   0  0.6222733E-05  0.1942767E+04  0.7818609E-02  0.8633857E-01
        1   -1    0    0  501    0  0.00000000000E+00  0.00000000000E+00  0.75999526621E+03  0.75999526623E+03  0.50400001928E-02 0. -1.
       -1   -1    0    0    0  501  0.00000000000E+00  0.00000000000E+00 -0.12415675585E+04  0.12415675585E+04  0.50400001928E-02 0.  1.
    10030    2    1    2    0    0  0.00000000000E+00  0.00000000000E+00 -0.48157229229E+03  0.20015628247E+04  0.19427665502E+04 0.  0.
        2    1    3    3  502    0 -0.24397063814E+03 -0.31882727647E+03  0.67052488515E+03  0.78152167348E+03  0.25500000920E-02 0. -1.
       -2    1    3    3    0  502  0.24397063814E+03  0.31882727647E+03 -0.11520971774E+04  0.12200411513E+04  0.25500000920E-02 0.  1.
</event>
<event>
 5   0  0.1242761E-04  0.1976167E+04  0.7818609E-02  0.8617845E-01
       -2   -1    0    0    0  501  0.00000000000E+00  0.00000000000E+00  0.84158939709E+03  0.84158939710E+03  0.25500000920E-02 0. -1.
        2   -1    0    0  501    0  0.00000000000E+00  0.00000000000E+00 -0.11600775125E+04  0.11600775125E+04  0.25500000920E-02 0.  1.
    10030    2    1    2    0    0  0.00000000000E+00  0.00000000000E+00 -0.31848811543E+03  0.20016669096E+04  0.19761669306E+04 0.  0.
        4    1    3    3  502    0 -0.38395369183E+03  0.64891234606E+03 -0.80607622165E+03  0.11037518554E+04  0.12699999809E+01 0.  1.
       -4    1    3    3    0  502  0.38395369183E+03 -0.64891234606E+03  0.48758810622E+03  0.89791505420E+03  0.12699999809E+01 0. -1.
</event>
<event>
 5   0  0.6028501E-05  0.1993007E+04  0.7818609E-02  0.8609897E-01
        1   -1    0    0  501    0  0.00000000000E+00  0.00000000000E+00  0.11871619210E+04  0.11871619210E+04  0.50400001928E-02 0.  1.
       -1   -1    0    0    0  501  0.00000000000E+00  0.00000000000E+00 -0.83646500835E+03  0.83646500836E+03  0.50400001928E-02 0. -1.
    10030    2    1    2    0    0  0.00000000000E+00  0.00000000000E+00  0.35069691265E+03  0.20236269294E+04  0.19930071813E+04 0.  0.
        4    1    3    3  502    0  0.48182435891E+03 -0.59989920070E+03  0.81831018715E+03  0.11232394843E+04  0.12699999809E+01 0.  1.
       -4    1    3    3    0  502 -0.48182435891E+03  0.59989920070E+03 -0.46761327450E+03  0.90038744506E+03  0.12699999809E+01 0. -1.
</event>
<event>
 5   0  0.6256535E-05  0.1974255E+04  0.7818609E-02  0.8618753E-01
       -1   -1    0    0    0  501  0.00000000000E+00  0.00000000000E+00  0.84437517773E+03  0.84437517774E+03  0.50400001928E-02 0.  1.
        1   -1    0    0  501    0  0.00000000000E+00  0.00000000000E+00 -0.11540139528E+04  0.11540139528E+04  0.50400001928E-02 0. -1.
    10030    2    1    2    0    0  0.00000000000E+00  0.00000000000E+00 -0.30963877505E+03  0.19983891305E+04  0.19742550357E+04 0.  0.
        1    1    3    3  502    0 -0.10386199581E+03 -0.27399772390E+02  0.83844185778E+03  0.84529451116E+03  0.50400001928E-02 0.  1.
       -1    1    3    3    0  502  0.10386199581E+03  0.27399772390E+02 -0.11480806328E+04  0.11530946194E+04  0.50400001928E-02 0. -1.
</event>
<event>
 5   0  0.6168338E-05  0.2011984E+04  0.7818609E-02  0.8601038E-01
       -1   -1    0    0    0  501  0.00000000000E+00  0.00000000000E+00  0.70507408937E+03  0.70507408939E+03  0.50400001928E-02 0. -1.
        1   -1    0    0  501    0  0.00000000000E+00  0.00000000000E+00 -0.14353383599E+04  0.14353383599E+04  0.50400001928E-02 0.  1.
    10030    2    1    2    0    0  0.00000000000E+00  0.00000000000E+00 -0.73026427055E+03  0.21404124493E+04  0.20119839831E+04 0.  0.
        5    1    3    3  502    0 -0.13526866706E+03  0.48751006877E+03 -0.12901362112E+04  0.13857984027E+04  0.46999998093E+01 0.  1.
       -5    1    3    3    0  502  0.13526866706E+03 -0.48751006877E+03  0.55987194065E+03  0.75461404663E+03  0.46999998093E+01 0. -1.
</event>
<event>
 5   0  0.6214547E-05  0.1978891E+04  0.7818609E-02  0.8616554E-01
        1   -1    0    0  501    0  0.00000000000E+00  0.00000000000E+00  0.20921722253E+04  0.20921722253E+04  0.50400001928E-02 0.  1.
       -1   -1    0    0    0  501  0.00000000000E+00  0.00000000000E+00 -0.46793601693E+03  0.46793601695E+03  0.50400001928E-02 0. -1.
    10030    2    1    2    0    0  0.00000000000E+00  0.00000000000E+00  0.16242362083E+04  0.25601082422E+04  0.19788913440E+04 0.  0.
        3    1    3    3  502    0 -0.54136804793E+03  0.42458656151E+03  0.17320617413E+04  0.18637035701E+04  0.10100000352E+00 0.  1.
       -3    1    3    3    0  502  0.54136804793E+03 -0.42458656151E+03 -0.10782553295E+03  0.69640467208E+03  0.10100000352E+00 0. -1.
</event>
<event>
 5   0  0.1281789E-04  0.1999533E+04  0.7818609E-02  0.8606839E-01
        2   -1    0    0  501    0  0.00000000000E+00  0.00000000000E+00  0.11481001953E+04  0.11481001953E+04  0.25500000920E-02 0.  1.
       -2   -1    0    0    0  501  0.00000000000E+00  0.00000000000E+00 -0.87059779825E+03  0.87059779826E+03  0.25500000920E-02 0. -1.
    10030    2    1    2    0    0  0.00000000000E+00  0.00000000000E+00  0.27750239703E+03  0.20186979935E+04  0.19995334478E+04 0.  0.
        2    1    3    3  502    0  0.85212317232E+03 -0.45597931738E+03  0.39713869552E+03  0.10448684999E+04  0.25500000920E-02 0.  1.
       -2    1    3    3    0  502 -0.85212317232E+03  0.45597931738E+03 -0.11963629849E+03  0.97382949360E+03  0.25500000920E-02 0. -1.
</event>
<event>
 5   0  0.6028501E-05  0.1920286E+04  0.7818609E-02  0.8644824E-01
       -1   -1    0    0    0  501  0.00000000000E+00  0.00000000000E+00  0.91104808199E+03  0.91104808200E+03  0.50400001928E-02 0. -1.
        1   -1    0    0  501    0  0.00000000000E+00  0.00000000000E+00 -0.10118840590E+04  0.10118840590E+04  0.50400001928E-02 0.  1.
    10030    2    1    2    0    0  0.00000000000E+00  0.00000000000E+00 -0.10083597701E+03  0.19229321410E+04  0.19202864694E+04 0.  0.
        4    1    3    3  502    0 -0.63288156777E+03 -0.43087341820E+03 -0.63059731078E+03  0.99188989439E+03  0.12699999809E+01 0.  1.
       -4    1    3    3    0  502  0.63288156777E+03  0.43087341820E+03  0.52976133377E+03  0.93104224662E+03  0.12699999809E+01 0. -1.
</event>
<event>
 5   0  0.1159914E-04  0.1967736E+04  0.7818609E-02  0.8621855E-01
        2   -1    0    0  501    0  0.00000000000E+00  0.00000000000E+00  0.17185977682E+04  0.17185977682E+04  0.25500000920E-02 0. -1.
       -2   -1    0    0    0  501  0.00000000000E+00  0.00000000000E+00 -0.56324768912E+03  0.56324768913E+03  0.25500000920E-02 0.  1.
    10030    2    1    2    0    0  0.00000000000E+00  0.00000000000E+00  0.11553500791E+04  0.22818454573E+04  0.19677359797E+04 0.  0.
        3    1    3    3  502    0 -0.17471689018E+03 -0.29444645042E+02 -0.54459463314E+03  0.57269215420E+03  0.10100000352E+00 0.  1.
       -3    1    3    3    0  502  0.17471689018E+03  0.29444645042E+02  0.16999447122E+04  0.17091533031E+04  0.10100000352E+00 0. -1.
</event>
<event>
 5   0  0.1242761E-04  0.1997077E+04  0.7818609E-02  0.8607988E-01
       -2   -1    0    0    0  501  0.00000000000E+00  0.00000000000E+00  0.11480740153E+04  0.11480740153E+04  0.25500000920E-02 0.  1.
        2   -1    0    0  501    0  0.00000000000E+00  0.00000000000E+00 -0.86848010244E+03  0.86848010244E+03  0.25500000920E-02 0. -1.
    10030    2    1    2    0    0  0.00000000000E+00  0.00000000000E+00  0.27959391286E+03  0.20165541177E+04  0.19970773029E+04 0.  0.
        4    1    3    3  502    0 -0.42613175438E+03 -0.88278597869E+03 -0.52264447590E+02  0.98164787050E+03  0.12699999809E+01 0. -1.
       -4    1    3    3    0  502  0.42613175438E+03  0.88278597869E+03  0.33185836045E+03  0.10349062472E+04  0.12699999809E+01 0.  1.
</event>
<event>
 5   0  0.6256535E-05  0.1920181E+04  0.7818609E-02  0.8644876E-01
        1   -1    0    0  501    0  0.00000000000E+00  0.00000000000E+00  0.45712949249E+03  0.45712949252E+03  0.50400001928E-02 0. -1.
       -1   -1    0    0    0  501  0.00000000000E+00  0.00000000000E+00 -0.20164381577E+04  0.20164381577E+04  0.50400001928E-02 0.  1.
    10030    2    1    2    0    0  0.00000000000E+00  0.00000000000E+00 -0.15593086652E+04  0.24735676502E+04  0.19201805662E+04 0.  0.
        1    1    3    3  502    0 -0.68156309450E+03 -0.16175462829E+03 -0.16254411886E+04  0.17699581547E+04  0.50400001928E-02 0.  1.
       -1    1    3    3    0  502  0.68156309450E+03  0.16175462829E+03  0.66132523427E+02  0.70360949555E+03  0.50400001928E-02 0. -1.
</event>
<event>
 5   0  0.1244229E-04  0.1929085E+04  0.7818609E-02  0.8640513E-01
        2   -1    0    0  501    0  0.00000000000E+00  0.00000000000E+00  0.11591449700E+04  0.11591449700E+04  0.25500000920E-02 0.  1.
       -2   -1    0    0    0  501  0.00000000000E+00  0.00000000000E+00 -0.80261073767E+03  0.80261073767E+03  0.25500000920E-02 0. -1.
    10030    2    1    2    0    0  0.00000000000E+00  0.00000000000E+00  0.35653423229E+03  0.19617557076E+04  0.19290849638E+04 0.  0.
        5    1    3    3  502    0 -0.75841301513E+03  0.59591561077E+03  0.18212514191E+03  0.98157902076E+03  0.46999998093E+01 0.  1.
       -5    1    3    3    0  502  0.75841301513E+03 -0.59591561077E+03  0.17440909038E+03  0.98017668687E+03  0.46999998093E+01 0. -1.
</event>
<event>
 5   0  0.1274868E-04  0.1961683E+04  0.7818609E-02  0.8624748E-01
       -2   -1    0    0    0  501  0.00000000000E+00  0.00000000000E+00  0.41895826626E+03  0.41895826627E+03  0.25500000920E-02 0.  1.
        2   -1    0    0  501    0  0.00000000000E+00  0.00000000000E+00 -0.22962909243E+04  0.22962909243E+04  0.25500000920E-02 0. -1.
    10030    2    1    2    0    0  0.00000000000E+00  0.00000000000E+00 -0.18773326581E+04  0.27152491906E+04  0.19616830167E+04 0.  0.
        1    1    3    3  502    0 -0.28606257371E+03 -0.74461219221E+03 -0.14864823361E+03  0.81140335854E+03  0.50400001928E-02 0.  1.
       -1    1    3    3    0  502  0.28606257371E+03  0.74461219221E+03 -0.17286844245E+04  0.19038458321E+04  0.50400001928E-02 0. -1.
</event>
<event>
 5   0  0.1159914E-04  0.1999013E+04  0.7818609E-02  0.8607082E-01
        2   -1    0    0  501    0  0.00000000000E+00  0.00000000000E+00  0.88566969405E+03  0.88566969405E+03  0.25500000920E-02 0.  1.
       -2   -1    0    0    0  501  0.00000000000E+00  0.00000000000E+00 -0.11279746759E+04  0.11279746759E+04  0.25500000920E-02 0. -1.
    10030    2    1    2    0    0  0.00000000000E+00  0.00000000000E+00 -0.24230498185E+03  0.20136443700E+04  0.19990127424E+04 0.  0.
        3    1    3    3  502    0 -0.24109376426E+03  0.72238630177E+03  0.53092234315E+03  0.92835699858E+03  0.10100000352E+00 0.  1.
       -3    1    3    3    0  502  0.24109376426E+03 -0.72238630177E+03 -0.77322732500E+03  0.10852873714E+04  0.10100000352E+00 0. -1.
</event>
<event>
 5   0  0.6256535E-05  0.1878720E+04  0.7818609E-02  0.8665522E-01
       -1   -1    0    0    0  501  0.00000000000E+00  0.00000000000E+00  0.67610705560E+03  0.67610705562E+03  0.50400001928E-02 0.  1.
        1   -1    0    0  501    0  0.00000000000E+00  0.00000000000E+00 -0.13051145483E+04  0.13051145483E+04  0.50400001928E-02 0. -1.
    10030    2    1    2    0    0  0.00000000000E+00  0.00000000000E+00 -0.62900749271E+03  0.19812216039E+04  0.18787199414E+04 0.  0.
        1    1    3    3  502    0  0.36274296613E+02  0.63295218303E+03  0.41646095157E+03  0.75854071401E+03  0.50400001928E-02 0.  1.
       -1    1    3    3    0  502 -0.36274296613E+02 -0.63295218303E+03 -0.10454684443E+04  0.12226808899E+04  0.50400001928E-02 0. -1.
</event>
<event>
 5   0  0.6222733E-05  0.1916723E+04  0.7818609E-02  0.8646577E-01
       -1   -1    0    0    0  501  0.00000000000E+00  0.00000000000E+00  0.94341867495E+03  0.94341867497E+03  0.50400001928E-02 0.  1.
        1   -1    0    0  501    0  0.00000000000E+00  0.00000000000E+00 -0.97354098642E+03  0.97354098643E+03  0.50400001928E-02 0. -1.
    10030    2    1    2    0    0  0.00000000000E+00  0.00000000000E+00 -0.30122311467E+02  0.19169596614E+04  0.19167229820E+04 0.  0.
        2    1    3    3  502    0  0.23917198492E+03  0.40770280636E+03 -0.84884985090E+03  0.97158164149E+03  0.25500000920E-02 0. -1.
       -2    1    3    3    0  502 -0.23917198492E+03 -0.40770280636E+03  0.81872753944E+03  0.94537801991E+03  0.25500000920E-02 0.  1.
</event>
<event>
 5   0  0.1274868E-04  0.2028172E+04  0.7818609E-02  0.8593562E-01
       -2   -1    0    0    0  501  0.00000000000E+00  0.00000000000E+00  0.14824069056E+04  0.14824069056E+04  0.25500000920E-02 0.  1.
        2   -1    0    0  501    0  0.00000000000E+00  0.00000000000E+00 -0.69371659827E+03  0.69371659828E+03  0.25500000920E-02 0. -1.
    10030    2    1    2    0    0  0.00000000000E+00  0.00000000000E+00  0.78869030736E+03  0.21761235039E+04  0.20281718624E+04 0.  0.
        1    1    3    3  502    0 -0.60014911232E+03  0.49057124201E+03 -0.30721139156E+03  0.83379730129E+03  0.50400001928E-02 0. -1.
       -1    1    3    3    0  502  0.60014911232E+03 -0.49057124201E+03  0.10959016989E+04  0.13423262026E+04  0.50400001928E-02 0.  1.
</event>
<event>
 5   0  0.1159914E-04  0.1709392E+04  0.7818609E-02  0.8756026E-01
        2   -1    0    0  501    0  0.00000000000E+00  0.00000000000E+00  0.76886706577E+03  0.76886706578E+03  0.25500000920E-02 0. -1.
       -2   -1    0    0    0  501  0.00000000000E+00  0.00000000000E+00 -0.95010550015E+03  0.95010550015E+03  0.25500000920E-02 0.  1.
    10030    2    1    2    0    0  0.00000000000E+00  0.00000000000E+00 -0.18123843438E+03  0.17189725659E+04  0.17093915035E+04 0.  0.
        3    1    3    3  502    0 -0.83896882434E+03 -0.16229323295E+03 -0.10795055551E+03  0.86131359812E+03  0.10100000352E+00 0.  1.
       -3    1    3    3    0  502  0.83896882434E+03  0.16229323295E+03 -0.73287878863E+02  0.85765896781E+03  0.10100000352E+00 0. -1.
</event>
<event>
 5   0  0.6168338E-05  0.2013360E+04  0.7818609E-02  0.8600400E-01
       -1   -1    0    0    0  501  0.00000000000E+00  0.00000000000E+00  0.44687782668E+03  0.44687782670E+03  0.50400001928E-02 0.  1.
        1   -1    0    0  501    0  0.00000000000E+00  0.00000000000E+00 -0.22677446271E+04  0.22677446271E+04  0.50400001928E-02 0. -1.
    10030    2    1    2    0    0  0.00000000000E+00  0.00000000000E+00 -0.18208668004E+04  0.27146224538E+04  0.20133601669E+04 0.  0.
        5    1    3    3  502    0 -0.58231050497E+03  0.35223842198E+03 -0.19105674913E+04  0.20281636174E+04  0.46999998093E+01 0. -1.
       -5    1    3    3    0  502  0.58231050497E+03 -0.35223842198E+03  0.89700690900E+02  0.68645883639E+03  0.46999998093E+01 0.  1.
</event>
<event>
 5   0  0.1159914E-04  0.2088367E+04  0.7818609E-02  0.8566385E-01
        2   -1    0    0  501    0  0.00000000000E+00  0.00000000000E+00  0.14483206118E+04  0.14483206118E+04  0.25500000920E-02 0. -1.
       -2   -1    0    0    0  501  0.00000000000E+00  0.00000000000E+00 -0.75281609033E+03  0.75281609033E+03  0.25500000920E-02 0.  1.
    10030    2    1    2    0    0  0.00000000000E+00  0.00000000000E+00  0.69550452146E+03  0.22011367021E+04  0.20883668840E+04 0.  0.
        3    1    3    3  502    0  0.20651760952E+02 -0.94124050442E+03 -0.12825273850E+03  0.95016259531E+03  0.10100000352E+00 0.  1.
       -3    1    3    3    0  502 -0.20651760952E+02  0.94124050442E+03  0.82375725996E+03  0.12509741068E+04  0.10100000352E+00 0. -1.
</event>
<event>
 5   0  0.6028501E-05  0.2025744E+04  0.7818609E-02  0.8594678E-01
       -1   -1    0    0    0  501  0.00000000000E+00  0.00000000000E+00  0.77401676182E+03  0.77401676183E+03  0.50400001928E-02 0. -1.
        1   -1    0    0  501    0  0.00000000000E+00  0.00000000000E+00 -0.13254356207E+04  0.13254356207E+04  0.50400001928E-02 0.  1.
    10030    2    1    2    0    0  0.00000000000E+00  0.00000000000E+00 -0.55141885891E+03  0.20994523826E+04  0.20257437026E+04 0.  0.
        4    1    3    3  502    0 -0.33504144010E+03  0.22540330127E+03  0.68698569038E+03  0.79687537701E+03  0.12699999809E+01 0. -1.
       -4    1    3    3    0  502  0.33504144010E+03 -0.22540330127E+03 -0.12384045493E+04  0.13025770056E+04  0.12699999809E+01 0.  1.
</event>
<event>
 5   0  0.6028501E-05  0.2008885E+04  0.7818609E-02  0.8602478E-01
       -1   -1    0    0    0  501  0.00000000000E+00  0.00000000000E+00  0.87219065613E+03  0.87219065615E+03  0.50400001928E-02 0. -1.
        1   -1    0    0  501    0  0.00000000000E+00  0.00000000000E+00 -0.11567482880E+04  0.11567482880E+04  0.50400001928E-02 0.  1.
    10030    2    1    2    0    0  0.00000000000E+00  0.00000000000E+00 -0.28455763186E+03  0.20289389442E+04  0.20088853111E+04 0.  0.
        4    1    3    3  502    0 -0.13422102086E+03 -0.84105177452E+03  0.39550253193E+03  0.93904591769E+03  0.12699999809E+01 0. -1.
       -4    1    3    3    0  502  0.13422102086E+03  0.84105177452E+03 -0.68006016379E+03  0.10898930265E+04  0.12699999809E+01 0.  1.
</event>
<event>
 5   0  0.1159914E-04  0.1975126E+04  0.7818609E-02  0.8618339E-01
       -2   -1    0    0    0  501  0.00000000000E+00  0.00000000000E+00  0.16209067461E+04  0.16209067461E+04  0.25500000920E-02 0.  1.
        2   -1    0    0  501    0  0.00000000000E+00  0.00000000000E+00 -0.60168832803E+03  0.60168832803E+03  0.25500000920E-02 0. -1.
    10030    2    1    2    0    0  0.00000000000E+00  0.00000000000E+00  0.10192184181E+04  0.22225950742E+04  0.19751259909E+04 0.  0.
        3    1    3    3  502    0 -0.77886544247E+03 -0.48610267631E+03  0.10022299846E+03  0.92356475085E+03  0.10100000352E+00 0. -1.
       -3    1    3    3    0  502  0.77886544247E+03  0.48610267631E+03  0.91899541965E+03  0.12990303233E+04  0.10100000352E+00 0.  1.
</event>
<event>
 5   0  0.6168338E-05  0.2003237E+04  0.7818609E-02  0.8605109E-01
        1   -1    0    0  501    0  0.00000000000E+00  0.00000000000E+00  0.92566106793E+03  0.92566106794E+03  0.50400001928E-02 0.  1.
       -1   -1    0    0    0  501  0.00000000000E+00  0.00000000000E+00 -0.10838092144E+04  0.10838092144E+04  0.50400001928E-02 0. -1.
    10030    2    1    2    0    0  0.00000000000E+00  0.00000000000E+00 -0.15814814644E+03  0.20094702823E+04  0.20032373747E+04 0.  0.
        5    1    3    3  502    0  0.26662614629E+03 -0.89556373086E+03  0.28273363795E+03  0.97626036381E+03  0.46999998093E+01 0.  1.
       -5    1    3    3    0  502 -0.26662614629E+03  0.89556373086E+03 -0.44088178439E+03  0.10332099185E+04  0.46999998093E+01 0. -1.
</event>
<event>
 5   0  0.6256535E-05  0.2003152E+04  0.7818609E-02  0.8605149E-01
        1   -1    0    0  501    0  0.00000000000E+00  0.00000000000E+00  0.20197211435E+04  0.20197211435E+04  0.50400001928E-02 0. -1.
       -1   -1    0    0    0  501  0.00000000000E+00  0.00000000000E+00 -0.49667955942E+03  0.49667955945E+03  0.50400001928E-02 0.  1.
    10030    2    1    2    0    0  0.00000000000E+00  0.00000000000E+00  0.15230415841E+04  0.25164007030E+04  0.20031517244E+04 0.  0.
        1    1    3    3  502    0 -0.80035908061E+03  0.20220706519E+03  0.14740226210E+04  0.16894392686E+04  0.50400001928E-02 0. -1.
       -1    1    3    3    0  502  0.80035908061E+03 -0.20220706519E+03  0.49018963087E+02  0.82696143434E+03  0.50400001928E-02 0.  1.
</event>
<event>
 5   0  0.6028501E-05  0.2023919E+04  0.7818609E-02  0.8595519E-01
       -1   -1    0    0    0  501  0.00000000000E+00  0.00000000000E+00  0.94251272415E+03  0.94251272417E+03  0.50400001928E-02 0.  1.
        1   -1    0    0  501    0  0.00000000000E+00  0.00000000000E+00 -0.10865229783E+04  0.10865229783E+04  0.50400001928E-02 0. -1.
    10030    2    1    2    0    0  0.00000000000E+00  0.00000000000E+00 -0.14401025415E+03  0.20290357025E+04  0.20239187060E+04 0.  0.
        4    1    3    3  502    0  0.65736218822E+03 -0.75035678951E+03  0.98423973267E+02  0.10024216924E+04  0.12699999809E+01 0. -1.
       -4    1    3    3    0  502 -0.65736218822E+03  0.75035678951E+03 -0.24243422742E+03  0.10266140100E+04  0.12699999809E+01 0.  1.
</event>
<event>
 5   0  0.1281789E-04  0.1913125E+04  0.7818609E-02  0.8648350E-01
        2   -1    0    0  501    0  0.00000000000E+00  0.00000000000E+00  0.96828277887E+03  0.96828277887E+03  0.25500000920E-02 0.  1.
       -2   -1    0    0    0  501  0.00000000000E+00  0.00000000000E+00 -0.94498457539E+03  0.94498457539E+03  0.25500000920E-02 0. -1.
    10030    2    1    2    0    0  0.00000000000E+00  0.00000000000E+00  0.23298203480E+02  0.19132673543E+04  0.19131254958E+04 0.  0.
        2    1    3    3  502    0  0.49680326147E+03  0.17691756494E+03 -0.78646958682E+03  0.94691484115E+03  0.25500000920E-02 0. -1.
       -2    1    3    3    0  502 -0.49680326147E+03 -0.17691756494E+03  0.80976779030E+03  0.96635251311E+03  0.25500000920E-02 0.  1.
</event>
<event>
 5   0  0.1281789E-04  0.1993206E+04  0.7818609E-02  0.8609804E-01
        2   -1    0    0  501    0  0.00000000000E+00  0.00000000000E+00  0.13237457281E+04  0.13237457281E+04  0.25500000920E-02 0. -1.
       -2   -1    0    0    0  501  0.00000000000E+00  0.00000000000E+00 -0.75030854741E+03  0.75030854742E+03  0.25500000920E-02 0.  1.
    10030    2    1    2    0    0  0.00000000000E+00  0.00000000000E+00  0.57343718066E+03  0.20740542755E+04  0.19932061954E+04 0.  0.
        2    1    3    3  502    0  0.32090974428E+03  0.17306698554E+03  0.12518544012E+04  0.13038691220E+04  0.25500000920E-02 0. -1.
       -2    1    3    3    0  502 -0.32090974428E+03 -0.17306698554E+03 -0.67841722057E+03  0.77018515347E+03  0.25500000920E-02 0.  1.
</event>
<event>
 5   0  0.1281789E-04  0.2007975E+04  0.7818609E-02  0.8602901E-01
       -2   -1    0    0    0  501  0.00000000000E+00  0.00000000000E+00  0.19564901797E+04  0.19564901797E+04  0.25500000920E-02 0.  1.
        2   -1    0    0  501    0  0.00000000000E+00  0.00000000000E+00 -0.51520362602E+03  0.51520362603E+03  0.25500000920E-02 0. -1.
    10030    2    1    2    0    0  0.00000000000E+00  0.00000000000E+00  0.14412865537E+04  0.24716938057E+04  0.20079749350E+04 0.  0.
        2    1    3    3  502    0  0.78611209327E+03  0.61468229772E+03  0.58476926518E+03  0.11566164636E+04  0.25500000920E-02 0.  1.
       -2    1    3    3    0  502 -0.78611209327E+03 -0.61468229772E+03  0.85651728848E+03  0.13150773421E+04  0.25500000920E-02 0. -1.
</event>
<event>
 5   0  0.6222733E-05  0.1991010E+04  0.7818609E-02  0.8610835E-01
        1   -1    0    0  501    0  0.00000000000E+00  0.00000000000E+00  0.86965596955E+03  0.86965596956E+03  0.50400001928E-02 0. -1.
       -1   -1    0    0    0  501  0.00000000000E+00  0.00000000000E+00 -0.11395655032E+04  0.11395655033E+04  0.50400001928E-02 0.  1.
    10030    2    1    2    0    0  0.00000000000E+00  0.00000000000E+00 -0.26990953370E+03  0.20092214728E+04  0.19910097364E+04 0.  0.
        2    1    3    3  502    0  0.24965820543E+03  0.93202660725E+03 -0.38220015754E+03  0.10378245404E+04  0.25500000920E-02 0.  1.
       -2    1    3    3    0  502 -0.24965820543E+03 -0.93202660725E+03  0.11229062385E+03  0.97139693245E+03  0.25500000920E-02 0. -1.
</event>
<event>
 5   0  0.6028501E-05  0.1989609E+04  0.7818609E-02  0.8611494E-01
       -1   -1    0    0    0  501  0.00000000000E+00  0.00000000000E+00  0.58109846060E+03  0.58109846062E+03  0.50400001928E-02 0.  1.
        1   -1    0    0  501    0  0.00000000000E+00  0.00000000000E+00 -0.17030432921E+04  0.17030432921E+04  0.50400001928E-02 0. -1.
    10030    2    1    2    0    0  0.00000000000E+00  0.00000000000E+00 -0.11219448315E+04  0.22841417527E+04  0.19896088414E+04 0.  0.
        4    1    3    3  502    0  0.82530627157E+03 -0.39269831649E+03 -0.10119207544E+04  0.13635716467E+04  0.12699999809E+01 0.  1.
       -4    1    3    3    0  502 -0.82530627157E+03  0.39269831649E+03 -0.11002407715E+03  0.92057010604E+03  0.12699999809E+01 0. -1.
</event>
<event>
 5   0  0.6214547E-05  0.2018908E+04  0.7818609E-02  0.8597831E-01
        1   -1    0    0  501    0  0.00000000000E+00  0.00000000000E+00  0.14244102261E+04  0.14244102261E+04  0.50400001928E-02 0.  1.
       -1   -1    0    0    0  501  0.00000000000E+00  0.00000000000E+00 -0.71538192926E+03  0.71538192928E+03  0.50400001928E-02 0. -1.
    10030    2    1    2    0    0  0.00000000000E+00  0.00000000000E+00  0.70902829687E+03  0.21397921554E+04  0.20189079579E+04 0.  0.
        3    1    3    3  502    0  0.57711198855E+02  0.62465185002E+03  0.11927392790E+04  0.13476451737E+04  0.10100000352E+00 0.  1.
       -3    1    3    3    0  502 -0.57711198855E+02 -0.62465185002E+03 -0.48371098216E+03  0.79214698173E+03  0.10100000352E+00 0. -1.
</event>
<event>
 5   0  0.1244229E-04  0.2047704E+04  0.7818609E-02  0.8584636E-01
       -2   -1    0    0    0  501  0.00000000000E+00  0.00000000000E+00  0.95737415212E+03  0.95737415212E+03  0.25500000920E-02 0.  1.
        2   -1    0    0  501    0  0.00000000000E+00  0.00000000000E+00 -0.10949463483E+04  0.10949463483E+04  0.25500000920E-02 0. -1.
    10030    2    1    2    0    0  0.00000000000E+00  0.00000000000E+00 -0.13757219618E+03  0.20523205004E+04  0.20477044043E+04 0.  0.
        5    1    3    3  502    0  0.86517816187E+03 -0.46162149152E+03 -0.36376843010E+03  0.10459336566E+04  0.46999998093E+01 0. -1.
       -5    1    3    3    0  502 -0.86517816187E+03  0.46162149152E+03  0.22619623393E+03  0.10063868438E+04  0.46999998093E+01 0.  1.
</event>
<event>
 5   0  0.6028501E-05  0.1993627E+04  0.7818609E-02  0.8609606E-01
       -1   -1    0    0    0  501  0.00000000000E+00  0.00000000000E+00  0.45791189485E+03  0.45791189488E+03  0.50400001928E-02 0. -1.
        1   -1    0    0  501    0  0.00000000000E+00  0.00000000000E+00 -0.21699312300E+04  0.21699312300E+04  0.50400001928E-02 0.  1.
    10030    2    1    2    0    0  0.00000000000E+00  0.00000000000E+00 -0.17120193352E+04  0.26278431249E+04  0.19936271680E+04 0.  0.
        4    1    3    3  502    0 -0.26580372938E+03  0.52002929161E+03  0.20877942649E+03  0.62021975823E+03  0.12699999809E+01 0. -1.
       -4    1    3    3    0  502  0.26580372938E+03 -0.52002929161E+03 -0.19207987617E+04  0.20076233667E+04  0.12699999809E+01 0.  1.
</event>
<event>
 5   0  0.1244229E-04  0.2009979E+04  0.7818609E-02  0.8601969E-01
        2   -1    0    0  501    0  0.00000000000E+00  0.00000000000E+00  0.16107840333E+04  0.16107840333E+04  0.25500000920E-02 0.  1.
       -2   -1    0    0    0  501  0.00000000000E+00  0.00000000000E+00 -0.62702637564E+03  0.62702637564E+03  0.25500000920E-02 0. -1.
    10030    2    1    2    0    0  0.00000000000E+00  0.00000000000E+00  0.98375765770E+03  0.22378104090E+04  0.20099791784E+04 0.  0.
        5    1    3    3  502    0 -0.54310337381E+03 -0.70959429893E+03 -0.20137094971E+02  0.89381929735E+03  0.46999998093E+01 0. -1.
       -5    1    3    3    0  502  0.54310337381E+03  0.70959429893E+03  0.10038947527E+04  0.13439911116E+04  0.46999998093E+01 0.  1.
</event>
<event>
 5   0  0.6028501E-05  0.1980933E+04  0.7818609E-02  0.8615587E-01
        1   -1    0    0  501    0  0.00000000000E+00  0.00000000000E+00  0.21572106354E+04  0.21572106354E+04  0.50400001928E-02 0. -1.
       -1   -1    0    0    0  501  0.00000000000E+00  0.00000000000E+00 -0.45476516433E+03  0.45476516436E+03  0.50400001928E-02 0.  1.
    10030    2    1    2    0    0  0.00000000000E+00  0.00000000000E+00  0.17024454710E+04  0.26119757997E+04  0.19809333650E+04 0.  0.
        4    1    3    3  502    0  0.88658813338E+03 -0.26932669263E+03  0.13126187098E+04  0.16067186673E+04  0.12699999809E+01 0.  1.
       -4    1    3    3    0  502 -0.88658813338E+03  0.26932669263E+03  0.38982676121E+03  0.10052571324E+04  0.12699999809E+01 0. -1.
</event>
<event>
 5   0  0.4479000E-05  0.2009520E+04  0.7818609E-02  0.8602183E-01
       -3   -1    0    0    0  501  0.00000000000E+00  0.00000000000E+00  0.57622675622E+03  0.57622676507E+03  0.10100000352E+00 0. -1.
        3   -1    0    0  501    0  0.00000000000E+00  0.00000000000E+00 -0.17519880898E+04  0.17519880927E+04  0.10100000352E+00 0.  1.
    10030    2    1    2    0    0  0.00000000000E+00  0.00000000000E+00 -0.11757613336E+04  0.23282148578E+04  0.20095197711E+04 0.  0.
        2    1    3    3  502    0 -0.96712273259E+03  0.65673443102E+02 -0.28155821809E+03  0.10094129042E+04  0.25500000920E-02 0. -1.
       -2    1    3    3    0  502  0.96712273259E+03 -0.65673443102E+02 -0.89420311550E+03  0.13188019536E+04  0.25500000920E-02 0.  1.
</event>
<event>
 5   0  0.6214547E-05  0.1970626E+04  0.7818609E-02  0.8620478E-01
       -1   -1    0    0    0  501  0.00000000000E+00  0.00000000000E+00  0.57115215923E+03  0.57115215925E+03  0.50400001928E-02 0. -1.
        1   -1    0    0  501    0  0.00000000000E+00  0.00000000000E+00 -0.16997953878E+04  0.16997953878E+04  0.50400001928E-02 0.  1.
    10030    2    1    2    0    0  0.00000000000E+00  0.00000000000E+00 -0.11286432285E+04  0.22709475470E+04  0.19706260995E+04 0.  0.
        3    1    3    3  502    0 -0.95798111925E+03  0.22951509324E+03 -0.58840628297E+03  0.11474436661E+04  0.10100000352E+00 0.  1.
       -3    1    3    3    0  502  0.95798111925E+03 -0.22951509324E+03 -0.54023694558E+03  0.11235038809E+04  0.10100000352E+00 0. -1.
</event>
<event>
 5   0  0.6214547E-05  0.1999976E+04  0.7818609E-02  0.8606632E-01
       -1   -1    0    0    0  501  0.00000000000E+00  0.00000000000E+00  0.14401853193E+04  0.14401853193E+04  0.50400001928E-02 0.  1.
        1   -1    0    0  501    0  0.00000000000E+00  0.00000000000E+00 -0.69433863250E+03  0.69433863252E+03  0.50400001928E-02 0. -1.
    10030    2    1    2    0    0  0.00000000000E+00  0.00000000000E+00  0.74584668681E+03  0.21345239518E+04  0.19999763051E+04 0.  0.
        3    1    3    3  502    0 -0.40330957965E+01 -0.95544904647E+03  0.68786367621E+03  0.11773086229E+04  0.10100000352E+00 0.  1.
       -3    1    3    3    0  502  0.40330957965E+01  0.95544904647E+03  0.57983010598E+02  0.95721532896E+03  0.10100000352E+00 0. -1.
</event>
<event>
 5   0  0.1242761E-04  0.2006210E+04  0.7818609E-02  0.8603723E-01
       -2   -1    0    0    0  501  0.00000000000E+00  0.00000000000E+00  0.64435307388E+03  0.64435307389E+03  0.25500000920E-02 0.  1.
        2   -1    0    0  501    0  0.00000000000E+00  0.00000000000E+00 -0.15615963586E+04  0.15615963586E+04  0.25500000920E-02 0. -1.
    10030    2    1    2    0    0  0.00000000000E+00  0.00000000000E+00 -0.91724328476E+03  0.22059494325E+04  0.20062097735E+04 0.  0.
        4    1    3    3  502    0  0.88635306596E+02 -0.17366470043E+03  0.62331600655E+03  0.65310037718E+03  0.12699999809E+01 0.  1.
       -4    1    3    3    0  502 -0.88635306596E+02  0.17366470043E+03 -0.15405592913E+04  0.15528490554E+04  0.12699999809E+01 0. -1.
</event>
<event>
 5   0  0.1281789E-04  0.1982618E+04  0.7818609E-02  0.8614790E-01
        2   -1    0    0  501    0  0.00000000000E+00  0.00000000000E+00  0.23492271661E+04  0.23492271661E+04  0.25500000920E-02 0.  1.
       -2   -1    0    0    0  501  0.00000000000E+00  0.00000000000E+00 -0.41830519639E+03  0.41830519640E+03  0.25500000920E-02 0. -1.
    10030    2    1    2    0    0  0.00000000000E+00  0.00000000000E+00  0.19309219697E+04  0.27675323625E+04  0.19826184011E+04 0.  0.
        2    1    3    3  502    0 -0.74678580078E+03  0.54142464963E+03  0.45856703693E+03  0.10301035923E+04  0.25500000920E-02 0.  1.
       -2    1    3    3    0  502  0.74678580078E+03 -0.54142464963E+03  0.14723549328E+04  0.17374287702E+04  0.25500000920E-02 0. -1.
</event>
<event>
 5   0  0.6214547E-05  0.1948759E+04  0.7818609E-02  0.8630960E-01
        1   -1    0    0  501    0  0.00000000000E+00  0.00000000000E+00  0.13161129662E+04  0.13161129662E+04  0.50400001928E-02 0. -1.
       -1   -1    0    0    0  501  0.00000000000E+00  0.00000000000E+00 -0.72137812248E+03  0.72137812250E+03  0.50400001928E-02 0.  1.
    10030    2    1    2    0    0  0.00000000000E+00  0.00000000000E+00  0.59473484370E+03  0.20374910887E+04  0.19487586824E+04 0.  0.
        3    1    3    3  502    0 -0.30432537980E+03 -0.82845665549E+03 -0.13430054179E+03  0.89274353122E+03  0.10100000352E+00 0.  1.
       -3    1    3    3    0  502  0.30432537980E+03  0.82845665549E+03  0.72903538549E+03  0.11447475575E+04  0.10100000352E+00 0. -1.
</event>
<event>
 5   0  0.1159914E-04  0.1982739E+04  0.7818609E-02  0.8614734E-01
       -2   -1    0    0    0  501  0.00000000000E+00  0.00000000000E+00  0.49955892857E+03  0.49955892857E+03  0.25500000920E-02 0.  1.
        2   -1    0    0  501    0  0.00000000000E+00  0.00000000000E+00 -0.19673620827E+04  0.19673620827E+04  0.25500000920E-02 0. -1.
    10030    2    1    2    0    0  0.00000000000E+00  0.00000000000E+00 -0.14678031542E+04  0.24669210113E+04  0.19827388070E+04 0.  0.
        3    1    3    3  502    0 -0.53943658742E+03 -0.61226011740E+03 -0.33428767829E+02  0.81668340006E+03  0.10100000352E+00 0.  1.
       -3    1    3    3    0  502  0.53943658742E+03  0.61226011740E+03 -0.14343743863E+04  0.16502376113E+04  0.10100000352E+00 0. -1.
</event>
<event>
 5   0  0.6256535E-05  0.1999335E+04  0.7818609E-02  0.8606932E-01
       -1   -1    0    0    0  501  0.00000000000E+00  0.00000000000E+00  0.76635450034E+03  0.76635450035E+03  0.50400001928E-02 0. -1.
        1   -1    0    0  501    0  0.00000000000E+00  0.00000000000E+00 -0.13040109090E+04  0.13040109090E+04  0.50400001928E-02 0.  1.
    10030    2    1    2    0    0  0.00000000000E+00  0.00000000000E+00 -0.53765640865E+03  0.20703654094E+04  0.19993345179E+04 0.  0.
        1    1    3    3  502    0  0.83503746798E+03  0.48369175873E+03 -0.53903800405E+03  0.11053539072E+04  0.50400001928E-02 0.  1.
       -1    1    3    3    0  502 -0.83503746798E+03 -0.48369175873E+03  0.13815953997E+01  0.96501150212E+03  0.50400001928E-02 0. -1.
</event>
<event>
 5   0  0.6028501E-05  0.2017130E+04  0.7818609E-02  0.8598653E-01
       -1   -1    0    0    0  501  0.00000000000E+00  0.00000000000E+00  0.92223796518E+03  0.92223796520E+03  0.50400001928E-02 0.  1.
        1   -1    0    0  501    0  0.00000000000E+00  0.00000000000E+00 -0.11029726882E+04  0.11029726882E+04  0.50400001928E-02 0. -1.
    10030    2    1    2    0    0  0.00000000000E+00  0.00000000000E+00 -0.18073472297E+03  0.20252106534E+04  0.20171299290E+04 0.  0.
        4    1    3    3  502    0  0.39371099167E+03  0.13962946934E+03  0.83129539572E+03  0.93035390122E+03  0.12699999809E+01 0.  1.
       -4    1    3    3    0  502 -0.39371099167E+03 -0.13962946934E+03 -0.10120301187E+04  0.10948567521E+04  0.12699999809E+01 0. -1.
</event>
<event>
 5   0  0.6168338E-05  0.1948511E+04  0.7818609E-02  0.8631079E-01
        1   -1    0    0  501    0  0.00000000000E+00  0.00000000000E+00  0.20238095698E+04  0.20238095698E+04  0.50400001928E-02 0.  1.
       -1   -1    0    0    0  501  0.00000000000E+00  0.00000000000E+00 -0.46900361006E+03  0.46900361009E+03  0.50400001928E-02 0. -1.
    10030    2    1    2    0    0  0.00000000000E+00  0.00000000000E+00  0.15548059597E+04  0.24928131799E+04  0.19485112207E+04 0.  0.
        5    1    3    3  502    0 -0.41197883953E+03  0.75766341127E+02 -0.34789840650E+03  0.54453879009E+03  0.46999998093E+01 0. -1.
       -5    1    3    3    0  502  0.41197883953E+03 -0.75766341127E+02  0.19027043662E+04  0.19482743898E+04  0.46999998093E+01 0.  1.
</event>
<event>
 5   0  0.1159914E-04  0.2076809E+04  0.7818609E-02  0.8571529E-01
       -2   -1    0    0    0  501  0.00000000000E+00  0.00000000000E+00  0.82026039728E+03  0.82026039729E+03  0.25500000920E-02 0. -1.
        2   -1    0    0  501    0  0.00000000000E+00  0.00000000000E+00 -0.13145624610E+04  0.13145624610E+04  0.25500000920E-02 0.  1.
    10030    2    1    2    0    0  0.00000000000E+00  0.00000000000E+00 -0.49430206375E+03  0.21348228583E+04  0.20768086349E+04 0.  0.
        3    1    3    3  502    0  0.78863978138E+03  0.42634080316E+03 -0.78577716654E+03  0.11921262311E+04  0.10100000352E+00 0.  1.
       -3    1    3    3    0  502 -0.78863978138E+03 -0.42634080316E+03  0.29147510280E+03  0.94269662722E+03  0.10100000352E+00 0. -1.
</event>
<event>
 5   0  0.6256535E-05  0.1996500E+04  0.7818609E-02  0.8608259E-01
       -1   -1    0    0    0  501  0.00000000000E+00  0.00000000000E+00  0.71256303938E+03  0.71256303939E+03  0.50400001928E-02 0.  1.
        1   -1    0    0  501    0  0.00000000000E+00  0.00000000000E+00 -0.13984771413E+04  0.13984771413E+04  0.50400001928E-02 0. -1.
    10030    2    1    2    0    0  0.00000000000E+00  0.00000000000E+00 -0.68591410189E+03  0.21110401807E+04  0.19965000599E+04 0.  0.
        1    1    3    3  502    0 -0.93916683049E+03  0.31872628320E+03 -0.22294507005E+03  0.10165260859E+04  0.50400001928E-02 0. -1.
       -1    1    3    3    0  502  0.93916683049E+03 -0.31872628320E+03 -0.46296903184E+03  0.10945140947E+04  0.50400001928E-02 0.  1.
</event>
<event>
 5   0  0.1274868E-04  0.2008646E+04  0.7818609E-02  0.8602589E-01
       -2   -1    0    0    0  501  0.00000000000E+00  0.00000000000E+00  0.69766853139E+03  0.69766853140E+03  0.25500000920E-02 0.  1.
        2   -1    0    0  501    0  0.00000000000E+00  0.00000000000E+00 -0.14457643626E+04  0.14457643626E+04  0.25500000920E-02 0. -1.
    10030    2    1    2    0    0  0.00000000000E+00  0.00000000000E+00 -0.74809583123E+03  0.21434328940E+04  0.20086456130E+04 0.  0.
        1    1    3    3  502    0 -0.22604568889E+03  0.65548682242E+03  0.40127804054E+03  0.80111403288E+03  0.50400001928E-02 0.  1.
       -1    1    3    3    0  502  0.22604568889E+03 -0.65548682242E+03 -0.11493738718E+04  0.13423188611E+04  0.50400001928E-02 0. -1.
</event>
<event>
 5   0  0.6028501E-05  0.2002873E+04  0.7818609E-02  0.8605278E-01
        1   -1    0    0  501    0  0.00000000000E+00  0.00000000000E+00  0.94066769262E+03  0.94066769263E+03  0.50400001928E-02 0.  1.
       -1   -1    0    0    0  501  0.00000000000E+00  0.00000000000E+00 -0.10661315544E+04  0.10661315544E+04  0.50400001928E-02 0. -1.
    10030    2    1    2    0    0  0.00000000000E+00  0.00000000000E+00 -0.12546386175E+03  0.20067992470E+04  0.20028734451E+04 0.  0.
        4    1    3    3  502    0  0.81124759634E+03  0.38215201095E+03 -0.50937588183E+03  0.10313235302E+04  0.12699999809E+01 0. -1.
       -4    1    3    3    0  502 -0.81124759634E+03 -0.38215201095E+03  0.38391202008E+03  0.97547571682E+03  0.12699999809E+01 0.  1.
</event>
<event>
 5   0  0.6168338E-05  0.2030267E+04  0.7818609E-02  0.8592599E-01
       -1   -1    0    0    0  501  0.00000000000E+00  0.00000000000E+00  0.14526031726E+04  0.14526031726E+04  0.50400001928E-02 0.  1.
        1   -1    0    0  501    0  0.00000000000E+00  0.00000000000E+00 -0.70941365199E+03  0.70941365201E+03  0.50400001928E-02 0. -1.
    10030    2    1    2    0    0  0.00000000000E+00  0.00000000000E+00  0.74318952059E+03  0.21620168246E+04  0.20302674913E+04 0.  0.
        5    1    3    3  502    0 -0.23103331972E+02 -0.10016477877E+04  0.19777774265E+03  0.10212591150E+04  0.46999998093E+01 0.  1.
       -5    1    3    3    0  502  0.23103331972E+02  0.10016477877E+04  0.54541177794E+03  0.11407577096E+04  0.46999998093E+01 0. -1.
</event>
<event>
 5   0  0.6222733E-05  0.2001453E+04  0.7818609E-02  0.8605942E-01
        1   -1    0    0  501    0  0.00000000000E+00  0.00000000000E+00  0.78299699370E+03  0.78299699372E+03  0.50400001928E-02 0. -1.
       -1   -1    0    0    0  501  0.00000000000E+00  0.00000000000E+00 -0.12790006124E+04  0.12790006124E+04  0.50400001928E-02 0.  1.
    10030    2    1    2    0    0  0.00000000000E+00  0.00000000000E+00 -0.49600361869E+03  0.20619976061E+04  0.20014531066E+04 0.  0.
        2    1    3    3  502    0  0.87489458879E+02 -0.96119346868E+03  0.24394384522E+02  0.96547520717E+03  0.25500000920E-02 0. -1.
       -2    1    3    3    0  502 -0.87489458879E+02  0.96119346868E+03 -0.52039800321E+03  0.10965223990E+04  0.25500000920E-02 0.  1.
</event>
<event>
 5   0  0.6222733E-05  0.1964178E+04  0.7818609E-02  0.8623554E-01
       -1   -1    0    0    0  501  0.00000000000E+00  0.00000000000E+00  0.16394008335E+04  0.16394008335E+04  0.50400001928E-02 0. -1.
        1   -1    0    0  501    0  0.00000000000E+00  0.00000000000E+00 -0.58832407708E+03  0.58832407711E+03  0.50400001928E-02 0.  1.
    10030    2    1    2    0    0  0.00000000000E+00  0.00000000000E+00  0.10510767564E+04  0.22277249106E+04  0.19641781817E+04 0.  0.
        2    1    3    3  502    0  0.56633743978E+02  0.62932287754E+03  0.13782433222E+04  0.15161824825E+04  0.25500000920E-02 0. -1.
       -2    1    3    3    0  502 -0.56633743978E+02 -0.62932287754E+03 -0.32716656579E+03  0.71154242807E+03  0.25500000920E-02 0.  1.
</event>
<event>
 5   0  0.6168338E-05  0.1974891E+04  0.7818609E-02  0.8618451E-01
       -1   -1    0    0    0  501  0.00000000000E+00  0.00000000000E+00  0.43507465129E+03  0.43507465132E+03  0.50400001928E-02 0. -1.
        1   -1    0    0  501    0  0.00000000000E+00  0.00000000000E+00 -0.22411054846E+04  0.22411054846E+04  0.50400001928E-02 0.  1.
    10030    2    1    2    0    0  0.00000000000E+00  0.00000000000E+00 -0.18060308333E+04  0.26761801359E+04  0.19748905664E+04 0.  0.
        5    1    3    3  502    0  0.42685774956E+03 -0.24933173041E+03 -0.20613330551E+04  0.21197853439E+04  0.46999998093E+01 0.  1.
       -5    1    3    3    0  502 -0.42685774956E+03  0.24933173041E+03  0.25530222179E+03  0.55639479203E+03  0.46999998093E+01 0. -1.
</event>
<event>
 5   0  0.1281789E-04  0.1929323E+04  0.7818609E-02  0.8640397E-01
        2   -1    0    0  501    0  0.00000000000E+00  0.00000000000E+00  0.13866141614E+04  0.13866141614E+04  0.25500000920E-02 0.  1.
       -2   -1    0    0    0  501  0.00000000000E+00  0.00000000000E+00 -0.67111067195E+03  0.67111067195E+03  0.25500000920E-02 0. -1.
    10030    2    1    2    0    0  0.00000000000E+00  0.00000000000E+00  0.71550348946E+03  0.20577248334E+04  0.19293227429E+04 0.  0.
        2    1    3    3  502    0 -0.82746787113E+03  0.35095085933E+03  0.73135288857E+03  0.11587694469E+04  0.25500000920E-02 0.  1.
       -2    1    3    3    0  502  0.82746787113E+03 -0.35095085933E+03 -0.15849399115E+02  0.89895538647E+03  0.25500000920E-02 0. -1.
</event>
<event>
 5   0  0.6256535E-05  0.1998389E+04  0.7818609E-02  0.8607374E-01
        1   -1    0    0  501    0  0.00000000000E+00  0.00000000000E+00  0.92792876837E+03  0.92792876838E+03  0.50400001928E-02 0. -1.
       -1   -1    0    0    0  501  0.00000000000E+00  0.00000000000E+00 -0.10759337633E+04  0.10759337633E+04  0.50400001928E-02 0.  1.
    10030    2    1    2    0    0  0.00000000000E+00  0.00000000000E+00 -0.14800499490E+03  0.20038625317E+04  0.19983892432E+04 0.  0.
        1    1    3    3  502    0  0.18601852002E+03  0.15940335950E+03  0.89734952985E+03  0.93018734648E+03  0.50400001928E-02 0. -1.
       -1    1    3    3    0  502 -0.18601852002E+03 -0.15940335950E+03 -0.10453545247E+04  0.10736751852E+04  0.50400001928E-02 0.  1.
</event>
<event>
 5   0  0.6256535E-05  0.2009867E+04  0.7818609E-02  0.8602021E-01
       -1   -1    0    0    0  501  0.00000000000E+00  0.00000000000E+00  0.73625807167E+03  0.73625807169E+03  0.50400001928E-02 0.  1.
        1   -1    0    0  501    0  0.00000000000E+00  0.00000000000E+00 -0.13716543107E+04  0.13716543107E+04  0.50400001928E-02 0. -1.
    10030    2    1    2    0    0  0.00000000000E+00  0.00000000000E+00 -0.63539623904E+03  0.21079123824E+04  0.20098672173E+04 0.  0.
        1    1    3    3  502    0  0.75715237120E+03  0.59330701043E+03 -0.12651041838E+02  0.96200466253E+03  0.50400001928E-02 0.  1.
       -1    1    3    3    0  502 -0.75715237120E+03 -0.59330701043E+03 -0.62274519720E+03  0.11459077199E+04  0.50400001928E-02 0. -1.
</event>
<event>
 5   0  0.6256535E-05  0.1979511E+04  0.7818609E-02  0.8616260E-01
        1   -1    0    0  501    0  0.00000000000E+00  0.00000000000E+00  0.17979081298E+04  0.17979081298E+04  0.50400001928E-02 0. -1.
       -1   -1    0    0    0  501  0.00000000000E+00  0.00000000000E+00 -0.54486414957E+03  0.54486414960E+03  0.50400001928E-02 0.  1.
    10030    2    1    2    0    0  0.00000000000E+00  0.00000000000E+00  0.12530439802E+04  0.23427722794E+04  0.19795107317E+04 0.  0.
        1    1    3    3  502    0  0.45608177690E+03  0.48436884454E+03 -0.24075153953E+03  0.70752036620E+03  0.50400001928E-02 0.  1.
       -1    1    3    3    0  502 -0.45608177690E+03 -0.48436884454E+03  0.14937955198E+04  0.16352519132E+04  0.50400001928E-02 0. -1.
</event>
<event>
 5   0  0.1242761E-04  0.1985623E+04  0.7818609E-02  0.8613372E-01
        2   -1    0    0  501    0  0.00000000000E+00  0.00000000000E+00  0.11976978129E+04  0.11976978129E+04  0.25500000920E-02 0. -1.
       -2   -1    0    0    0  501  0.00000000000E+00  0.00000000000E+00 -0.82297408651E+03  0.82297408651E+03  0.25500000920E-02 0.  1.
    10030    2    1    2    0    0  0.00000000000E+00  0.00000000000E+00  0.37472372640E+03  0.20206718994E+04  0.19856225860E+04 0.  0.
        4    1    3    3  502    0  0.51521108261E+02  0.28222591494E+03  0.11545949642E+04  0.11897046003E+04  0.12699999809E+01 0. -1.
       -4    1    3    3    0  502 -0.51521108261E+02 -0.28222591494E+03 -0.77987123785E+03  0.83096729910E+03  0.12699999809E+01 0.  1.
</event>
<event>
 5   0  0.6214547E-05  0.2042978E+04  0.7818609E-02  0.8586787E-01
       -1   -1    0    0    0  501  0.00000000000E+00  0.00000000000E+00  0.11973847047E+04  0.11973847047E+04  0.50400001928E-02 0.  1.
        1   -1    0    0  501    0  0.00000000000E+00  0.00000000000E+00 -0.87143199785E+03  0.87143199787E+03  0.50400001928E-02 0. -1.
    10030    2    1    2    0    0  0.00000000000E+00  0.00000000000E+00  0.32595270684E+03  0.20688167026E+04  0.20429775774E+04 0.  0.
        3    1    3    3  502    0 -0.80861599543E+03  0.28946623640E+03 -0.39699937676E+03  0.94618129628E+03  0.10100000352E+00 0. -1.
       -3    1    3    3    0  502  0.80861599543E+03 -0.28946623640E+03  0.72295208360E+03  0.11226354063E+04  0.10100000352E+00 0.  1.
</event>
<event>
 5   0  0.1242761E-04  0.2036234E+04  0.7818609E-02  0.8589865E-01
        2   -1    0    0  501    0  0.00000000000E+00  0.00000000000E+00  0.13571001988E+04  0.13571001988E+04  0.25500000920E-02 0. -1.
       -2   -1    0    0    0  501  0.00000000000E+00  0.00000000000E+00 -0.76380646179E+03  0.76380646179E+03  0.25500000920E-02 0.  1.
    10030    2    1    2    0    0  0.00000000000E+00  0.00000000000E+00  0.59329373702E+03  0.21209066606E+04  0.20362336812E+04 0.  0.
        4    1    3    3  502    0 -0.75752334034E+03  0.45271773283E+03 -0.23217108617E+03  0.91252396294E+03  0.12699999809E+01 0.  1.
       -4    1    3    3    0  502  0.75752334034E+03 -0.45271773283E+03  0.82546482319E+03  0.12083826977E+04  0.12699999809E+01 0. -1.
</event>
<event>
 5   0  0.1159914E-04  0.1990120E+04  0.7818609E-02  0.8611254E-01
        2   -1    0    0  501    0  0.00000000000E+00  0.00000000000E+00  0.76796929859E+03  0.76796929859E+03  0.25500000920E-02 0.  1.
       -2   -1    0    0    0  501  0.00000000000E+00  0.00000000000E+00 -0.12893026579E+04  0.12893026579E+04  0.25500000920E-02 0. -1.
    10030    2    1    2    0    0  0.00000000000E+00  0.00000000000E+00 -0.52133335935E+03  0.20572719565E+04  0.19901204565E+04 0.  0.
        3    1    3    3  502    0 -0.14429754790E+03 -0.90750809307E+03 -0.65532366301E+03  0.11286460184E+04  0.10100000352E+00 0. -1.
       -3    1    3    3    0  502  0.14429754790E+03  0.90750809307E+03  0.13399030365E+03  0.92862593815E+03  0.10100000352E+00 0.  1.
</event>
<event>
 5   0  0.1274868E-04  0.2009745E+04  0.7818609E-02  0.8602078E-01
        2   -1    0    0  501    0  0.00000000000E+00  0.00000000000E+00  0.83911516833E+03  0.83911516833E+03  0.25500000920E-02 0. -1.
       -2   -1    0    0    0  501  0.00000000000E+00  0.00000000000E+00 -0.12033737238E+04  0.12033737238E+04  0.25500000920E-02 0.  1.
    10030    2    1    2    0    0  0.00000000000E+00  0.00000000000E+00 -0.36425855543E+03  0.20424888921E+04  0.20097454016E+04 0.  0.
        1    1    3    3  502    0 -0.48371590105E+03  0.39309306982E+03 -0.98317521415E+03  0.11641034044E+04  0.50400001928E-02 0.  1.
       -1    1    3    3    0  502  0.48371590105E+03 -0.39309306982E+03  0.61891665872E+03  0.87838548766E+03  0.50400001928E-02 0. -1.
</event>
<event>
 5   0  0.1242761E-04  0.2036723E+04  0.7818609E-02  0.8589641E-01
        2   -1    0    0  501    0  0.00000000000E+00  0.00000000000E+00  0.20769281631E+04  0.20769281631E+04  0.25500000920E-02 0.  1.
       -2   -1    0    0    0  501  0.00000000000E+00  0.00000000000E+00 -0.49932415078E+03  0.49932415079E+03  0.25500000920E-02 0. -1.
    10030    2    1    2    0    0  0.00000000000E+00  0.00000000000E+00  0.15776040123E+04  0.25762523139E+04  0.20367232422E+04 0.  0.
        4    1    3    3  502    0  0.50093994681E+03  0.23717500657E+03 -0.29183026131E+03  0.62638592606E+03  0.12699999809E+01 0. -1.
       -4    1    3    3    0  502 -0.50093994681E+03 -0.23717500657E+03  0.18694342736E+04  0.19498663878E+04  0.12699999809E+01 0.  1.
</event>
<event>
 5   0  0.6214547E-05  0.2017924E+04  0.7818609E-02  0.8598286E-01
        1   -1    0    0  501    0  0.00000000000E+00  0.00000000000E+00  0.17149194792E+04  0.17149194793E+04  0.50400001928E-02 0. -1.
       -1   -1    0    0    0  501  0.00000000000E+00  0.00000000000E+00 -0.59361652906E+03  0.59361652908E+03  0.50400001928E-02 0.  1.
    10030    2    1    2    0    0  0.00000000000E+00  0.00000000000E+00  0.11213029502E+04  0.23085360083E+04  0.20179242294E+04 0.  0.
        3    1    3    3  502    0 -0.56394016446E+03 -0.80902713555E+03  0.80454715614E+03  0.12727331031E+04  0.10100000352E+00 0. -1.
       -3    1    3    3    0  502  0.56394016446E+03  0.80902713555E+03  0.31675579405E+03  0.10358029052E+04  0.10100000352E+00 0.  1.
</event>
<event>
 5   0  0.1159914E-04  0.1998407E+04  0.7818609E-02  0.8607366E-01
       -2   -1    0    0    0  501  0.00000000000E+00  0.00000000000E+00  0.13168525039E+04  0.13168525039E+04  0.25500000920E-02 0. -1.
        2   -1    0    0  501    0  0.00000000000E+00  0.00000000000E+00 -0.75817727190E+03  0.75817727190E+03  0.25500000920E-02 0.  1.
    10030    2    1    2    0    0  0.00000000000E+00  0.00000000000E+00  0.55867523204E+03  0.20750297758E+04  0.19984070045E+04 0.  0.
        3    1    3    3  502    0  0.41952990998E+03 -0.90635122151E+03  0.24767675676E+03  0.10289906064E+04  0.10100000352E+00 0.  1.
       -3    1    3    3    0  502 -0.41952990998E+03  0.90635122151E+03  0.31099847528E+03  0.10460391694E+04  0.10100000352E+00 0. -1.
</event>
<event>
 5   0  0.6214547E-05  0.2003833E+04  0.7818609E-02  0.8604831E-01
        1   -1    0    0  501    0  0.00000000000E+00  0.00000000000E+00  0.93017972586E+03  0.93017972588E+03  0.50400001928E-02 0. -1.
       -1   -1    0    0    0  501  0.00000000000E+00  0.00000000000E+00 -0.10791860518E+04  0.10791860518E+04  0.50400001928E-02 0.  1.
    10030    2    1    2    0    0  0.00000000000E+00  0.00000000000E+00 -0.14900632592E+03  0.20093657777E+04  0.20038333123E+04 0.  0.
        3    1    3    3  502    0 -0.50498392228E+03  0.76838427136E+03  0.32460806887E+03  0.97508643659E+03  0.10100000352E+00 0. -1.
       -3    1    3    3    0  502  0.50498392228E+03 -0.76838427136E+03 -0.47361439479E+03  0.10342793411E+04  0.10100000352E+00 0.  1.
</event>
<event>
 5   0  0.1242761E-04  0.1998784E+04  0.7818609E-02  0.8607189E-01
        2   -1    0    0  501    0  0.00000000000E+00  0.00000000000E+00  0.94714068678E+03  0.94714068679E+03  0.25500000920E-02 0. -1.
       -2   -1    0    0    0  501  0.00000000000E+00  0.00000000000E+00 -0.10545260395E+04  0.10545260395E+04  0.25500000920E-02 0.  1.
    10030    2    1    2    0    0  0.00000000000E+00  0.00000000000E+00 -0.10738535269E+03  0.20016667263E+04  0.19987841477E+04 0.  0.
        4    1    3    3  502    0 -0.48040022903E+03 -0.17471426364E+03 -0.91369389874E+03  0.10469706813E+04  0.12699999809E+01 0.  1.
       -4    1    3    3    0  502  0.48040022903E+03  0.17471426364E+03  0.80630854605E+03  0.95469604498E+03  0.12699999809E+01 0. -1.
</event>
<event>
 5   0  0.1281789E-04  0.2001852E+04  0.7818609E-02  0.8605755E-01
        2   -1    0    0  501    0  0.00000000000E+00  0.00000000000E+00  0.11123289570E+04  0.11123289570E+04  0.25500000920E-02 0. -1.
       -2   -1    0    0    0  501  0.00000000000E+00  0.00000000000E+00 -0.90068031134E+03  0.90068031134E+03  0.25500000920E-02 0.  1.
    10030    2    1    2    0    0  0.00000000000E+00  0.00000000000E+00  0.21164864563E+03  0.20130092683E+04  0.20018519339E+04 0.  0.
        2    1    3    3  502    0  0.10296196065E+02  0.20268162161E+02  0.11120693186E+04  0.11123016585E+04  0.25500000920E-02 0. -1.
       -2    1    3    3    0  502 -0.10296196065E+02 -0.20268162161E+02 -0.90042067299E+03  0.90070760983E+03  0.25500000920E-02 0.  1.
</event>
<event>
 5   0  0.1274868E-04  0.2037879E+04  0.7818609E-02  0.8589113E-01
        2   -1    0    0  501    0  0.00000000000E+00  0.00000000000E+00  0.13418567037E+04  0.13418567037E+04  0.25500000920E-02 0.  1.
       -2   -1    0    0    0  501  0.00000000000E+00  0.00000000000E+00 -0.77373179617E+03  0.77373179617E+03  0.25500000920E-02 0. -1.
    10030    2    1    2    0    0  0.00000000000E+00  0.00000000000E+00  0.56812490751E+03  0.21155884999E+04  0.20378785023E+04 0.  0.
        1    1    3    3  502    0 -0.62470894921E+03  0.52201722793E+03  0.92018796015E+03  0.12286208282E+04  0.50400001928E-02 0.  1.
       -1    1    3    3    0  502  0.62470894921E+03 -0.52201722793E+03 -0.35206305264E+03  0.88696767164E+03  0.50400001928E-02 0. -1.
</event>
<event>
 5   0  0.1159914E-04  0.2008149E+04  0.7818609E-02  0.8602820E-01
        2   -1    0    0  501    0  0.00000000000E+00  0.00000000000E+00  0.20997684339E+04  0.20997684339E+04  0.25500000920E-02 0.  1.
       -2   -1    0    0    0  501  0.00000000000E+00  0.00000000000E+00 -0.48013199688E+03  0.48013199689E+03  0.25500000920E-02 0. -1.
    10030    2    1    2    0    0  0.00000000000E+00  0.00000000000E+00  0.16196364370E+04  0.25799004307E+04  0.20081494079E+04 0.  0.
        3    1    3    3  502    0  0.35124071156E+03  0.94058814440E+03  0.79763669812E+03  0.12823027752E+04  0.10100000352E+00 0. -1.
       -3    1    3    3    0  502 -0.35124071156E+03 -0.94058814440E+03  0.82199973885E+03  0.12975976556E+04  0.10100000352E+00 0.  1.
</event>
<event>
 5   0  0.1281789E-04  0.1957223E+04  0.7818609E-02  0.8626886E-01
       -2   -1    0    0    0  501  0.00000000000E+00  0.00000000000E+00  0.54707543393E+03  0.54707543394E+03  0.25500000920E-02 0. -1.
        2   -1    0    0  501    0  0.00000000000E+00  0.00000000000E+00 -0.17505455763E+04  0.17505455763E+04  0.25500000920E-02 0.  1.
    10030    2    1    2    0    0  0.00000000000E+00  0.00000000000E+00 -0.12034701424E+04  0.22976210103E+04  0.19572230131E+04 0.  0.
        2    1    3    3  502    0  0.28463984262E+03 -0.84732814261E+02 -0.16963670364E+04  0.17221674170E+04  0.25500000920E-02 0.  1.
       -2    1    3    3    0  502 -0.28463984262E+03  0.84732814261E+02  0.49289689406E+03  0.57545359326E+03  0.25500000920E-02 0. -1.
</event>
<event>
 5   0  0.6222733E-05  0.1998367E+04  0.7818609E-02  0.8607385E-01
        1   -1    0    0  501    0  0.00000000000E+00  0.00000000000E+00  0.99144241884E+03  0.99144241885E+03  0.50400001928E-02 0. -1.
       -1   -1    0    0    0  501  0.00000000000E+00  0.00000000000E+00 -0.10069845599E+04  0.10069845599E+04  0.50400001928E-02 0.  1.
    10030    2    1    2    0    0  0.00000000000E+00  0.00000000000E+00 -0.15542141055E+02  0.19984269788E+04  0.19983665408E+04 0.  0.
        2    1    3    3  502    0 -0.50139086758E+03  0.15809671380E+02  0.85638726456E+03  0.99249276809E+03  0.25500000920E-02 0. -1.
       -2    1    3    3    0  502  0.50139086758E+03 -0.15809671380E+02 -0.87192940561E+03  0.10059342107E+04  0.25500000920E-02 0.  1.
</event>
<event>
 5   0  0.6222733E-05  0.2001825E+04  0.7818609E-02  0.8605768E-01
        1   -1    0    0  501    0  0.00000000000E+00  0.00000000000E+00  0.11376230230E+04  0.11376230231E+04  0.50400001928E-02 0.  1.
       -1   -1    0    0    0  501  0.00000000000E+00  0.00000000000E+00 -0.88063114631E+03  0.88063114632E+03  0.50400001928E-02 0. -1.
    10030    2    1    2    0    0  0.00000000000E+00  0.00000000000E+00  0.25699187673E+03  0.20182541694E+04  0.20018254338E+04 0.  0.
        2    1    3    3  502    0  0.92663632821E+03  0.31018179608E+03  0.34697377661E+03  0.10369466877E+04  0.25500000920E-02 0.  1.
       -2    1    3    3    0  502 -0.92663632821E+03 -0.31018179608E+03 -0.89981899878E+02  0.98130748172E+03  0.25500000920E-02 0. -1.
</event>
<event>
 5   0  0.6028501E-05  0.2011934E+04  0.7818609E-02  0.8601061E-01
       -1   -1    0    0    0  501  0.00000000000E+00  0.00000000000E+00  0.71906829337E+03  0.71906829338E+03  0.50400001928E-02 0. -1.
        1   -1    0    0  501    0  0.00000000000E+00  0.00000000000E+00 -0.14073343762E+04  0.14073343762E+04  0.50400001928E-02 0.  1.
    10030    2    1    2    0    0  0.00000000000E+00  0.00000000000E+00 -0.68826608283E+03  0.21264026696E+04  0.20119339235E+04 0.  0.
        4    1    3    3  502    0  0.59244150062E+03 -0.10521853525E+03 -0.11961699729E+04  0.13389854700E+04  0.12699999809E+01 0.  1.
       -4    1    3    3    0  502 -0.59244150062E+03  0.10521853525E+03  0.50790389007E+03  0.78741719962E+03  0.12699999809E+01 0. -1.
</event>
<event>
 5   0  0.6168338E-05  0.2012483E+04  0.7818609E-02  0.8600807E-01
       -1   -1    0    0    0  501  0.00000000000E+00  0.00000000000E+00  0.53637127899E+03  0.53637127902E+03  0.50400001928E-02 0.  1.
        1   -1    0    0  501    0  0.00000000000E+00  0.00000000000E+00 -0.18877262602E+04  0.18877262602E+04  0.50400001928E-02 0. -1.
    10030    2    1    2    0    0  0.00000000000E+00  0.00000000000E+00 -0.13513549812E+04  0.24240975392E+04  0.20124831911E+04 0.  0.
        5    1    3    3  502    0  0.12510020077E+03  0.12974640682E+00 -0.18783094244E+04  0.18824766827E+04  0.46999998093E+01 0. -1.
       -5    1    3    3    0  502 -0.12510020077E+03 -0.12974640682E+00  0.52695444318E+03  0.54162085655E+03  0.46999998093E+01 0.  1.
</event>
<event>
 5   0  0.6168338E-05  0.2007163E+04  0.7818609E-02  0.8603279E-01
       -1   -1    0    0    0  501  0.00000000000E+00  0.00000000000E+00  0.13047695887E+04  0.13047695887E+04  0.50400001928E-02 0. -1.
        1   -1    0    0  501    0  0.00000000000E+00  0.00000000000E+00 -0.77191890536E+03  0.77191890537E+03  0.50400001928E-02 0.  1.
    10030    2    1    2    0    0  0.00000000000E+00  0.00000000000E+00  0.53285068331E+03  0.20766884940E+04  0.20071634838E+04 0.  0.
        5    1    3    3  502    0  0.93849778682E+03  0.34638824901E+03  0.34914018923E+03  0.10595677782E+04  0.46999998093E+01 0.  1.
       -5    1    3    3    0  502 -0.93849778682E+03 -0.34638824901E+03  0.18371049408E+03  0.10171207158E+04  0.46999998093E+01 0. -1.
</event>
<event>
 5   0  0.1159914E-04  0.2005185E+04  0.7818609E-02  0.8604200E-01
        2   -1    0    0  501    0  0.00000000000E+00  0.00000000000E+00  0.10422614530E+04  0.10422614530E+04  0.25500000920E-02 0. -1.
       -2   -1    0    0    0  501  0.00000000000E+00  0.00000000000E+00 -0.96443321922E+03  0.96443321922E+03  0.25500000920E-02 0.  1.
    10030    2    1    2    0    0  0.00000000000E+00  0.00000000000E+00  0.77828233739E+02  0.20066946722E+04  0.20051848477E+04 0.  0.
        3    1    3    3  502    0  0.18770089756E+03 -0.28131446376E+03 -0.90563027913E+03  0.96671384967E+03  0.10100000352E+00 0.  1.
       -3    1    3    3    0  502 -0.18770089756E+03  0.28131446376E+03  0.98345851287E+03  0.10399808225E+04  0.10100000352E+00 0. -1.
</event>
<event>
 5   0  0.1159914E-04  0.2031328E+04  0.7818609E-02  0.8592112E-01
        2   -1    0    0  501    0  0.00000000000E+00  0.00000000000E+00  0.98760123505E+03  0.98760123505E+03  0.25500000920E-02 0. -1.
       -2   -1    0    0    0  501  0.00000000000E+00  0.00000000000E+00 -0.10445245895E+04  0.10445245895E+04  0.25500000920E-02 0.  1.
    10030    2    1    2    0    0  0.00000000000E+00  0.00000000000E+00 -0.56923354481E+02  0.20321258246E+04  0.20313284074E+04 0.  0.
        3    1    3    3  502    0 -0.78223087859E+03 -0.45502322369E+03 -0.48977444029E+03  0.10289850796E+04  0.10100000352E+00 0.  1.
       -3    1    3    3    0  502  0.78223087859E+03  0.45502322369E+03  0.43285108581E+03  0.10031407450E+04  0.10100000352E+00 0. -1.
</event>
<event>
 5   0  0.4479000E-05  0.1979561E+04  0.7818609E-02  0.8616237E-01
       -3   -1    0    0    0  501  0.00000000000E+00  0.00000000000E+00  0.74238549235E+03  0.74238549922E+03  0.10100000352E+00 0.  1.
        3   -1    0    0  501    0  0.00000000000E+00  0.00000000000E+00 -0.13196182960E+04  0.13196182998E+04  0.10100000352E+00 0. -1.
    10030    2    1    2    0    0  0.00000000000E+00  0.00000000000E+00 -0.57723280362E+03  0.20620037991E+04  0.19795610518E+04 0.  0.
        2    1    3    3  502    0  0.48990632992E+03 -0.15271155555E+03  0.59299883685E+03  0.78420447066E+03  0.25500000920E-02 0.  1.
       -2    1    3    3    0  502 -0.48990632992E+03  0.15271155555E+03 -0.11702316405E+04  0.12777993284E+04  0.25500000920E-02 0. -1.
</event>
<event>
 5   0  0.1274868E-04  0.2001172E+04  0.7818609E-02  0.8606073E-01
       -2   -1    0    0    0  501  0.00000000000E+00  0.00000000000E+00  0.52899908589E+03  0.52899908590E+03  0.25500000920E-02 0. -1.
        2   -1    0    0  501    0  0.00000000000E+00  0.00000000000E+00 -0.18925789776E+04  0.18925789776E+04  0.25500000920E-02 0.  1.
    10030    2    1    2    0    0  0.00000000000E+00  0.00000000000E+00 -0.13635798917E+04  0.24215780635E+04  0.20011722056E+04 0.  0.
        1    1    3    3  502    0  0.65773731312E+03  0.38527452914E+03  0.10254128434E+03  0.76913558681E+03  0.50400001928E-02 0. -1.
       -1    1    3    3    0  502 -0.65773731312E+03 -0.38527452914E+03 -0.14661211760E+04  0.16524424767E+04  0.50400001928E-02 0.  1.
</event>
<event>
 5   0  0.6222733E-05  0.1996643E+04  0.7818609E-02  0.8608192E-01
       -1   -1    0    0    0  501  0.00000000000E+00  0.00000000000E+00  0.54839134339E+03  0.54839134342E+03  0.50400001928E-02 0.  1.
        1   -1    0    0  501    0  0.00000000000E+00  0.00000000000E+00 -0.18173994474E+04  0.18173994474E+04  0.50400001928E-02 0. -1.
    10030    2    1    2    0    0  0.00000000000E+00  0.00000000000E+00 -0.12690081040E+04  0.23657907908E+04  0.19966433076E+04 0.  0.
        2    1    3    3  502    0  0.64104133020E+02 -0.83236088870E+02  0.54182298373E+03  0.55191460578E+03  0.25500000920E-02 0.  1.
       -2    1    3    3    0  502 -0.64104133020E+02  0.83236088870E+02 -0.18108310877E+04  0.18138761850E+04  0.25500000920E-02 0. -1.
</event>
<event>
 5   0  0.1159914E-04  0.1996861E+04  0.7818609E-02  0.8608090E-01
        2   -1    0    0  501    0  0.00000000000E+00  0.00000000000E+00  0.12621159079E+04  0.12621159079E+04  0.25500000920E-02 0.  1.
       -2   -1    0    0    0  501  0.00000000000E+00  0.00000000000E+00 -0.78983485995E+03  0.78983485995E+03  0.25500000920E-02 0. -1.
    10030    2    1    2    0    0  0.00000000000E+00  0.00000000000E+00  0.47228104791E+03  0.20519507678E+04  0.19968606775E+04 0.  0.
        3    1    3    3  502    0  0.75583285205E+02  0.71878086733E+03 -0.47170628198E+03  0.86305596278E+03  0.10100000352E+00 0. -1.
       -3    1    3    3    0  502 -0.75583285205E+02 -0.71878086733E+03  0.94398732988E+03  0.11888948050E+04  0.10100000352E+00 0.  1.
</event>
<event>
 5   0  0.1242761E-04  0.1909164E+04  0.7818609E-02  0.8650308E-01
        2   -1    0    0  501    0  0.00000000000E+00  0.00000000000E+00  0.11193081455E+04  0.11193081455E+04  0.25500000920E-02 0. -1.
       -2   -1    0    0    0  501  0.00000000000E+00  0.00000000000E+00 -0.81409830260E+03  0.81409830260E+03  0.25500000920E-02 0.  1.
    10030    2    1    2    0    0  0.00000000000E+00  0.00000000000E+00  0.30520984291E+03  0.19334064481E+04  0.19091640698E+04 0.  0.
        4    1    3    3  502    0  0.43917490709E+03 -0.27189381904E+03 -0.66034894026E+03  0.83836935992E+03  0.12699999809E+01 0.  1.
       -4    1    3    3    0  502 -0.43917490709E+03  0.27189381904E+03  0.96555878317E+03  0.10950370882E+04  0.12699999809E+01 0. -1.
</event>
<event>
 5   0  0.1244229E-04  0.2065173E+04  0.7818609E-02  0.8576742E-01
        2   -1    0    0  501    0  0.00000000000E+00  0.00000000000E+00  0.72065529545E+03  0.72065529546E+03  0.25500000920E-02 0. -1.
       -2   -1    0    0    0  501  0.00000000000E+00  0.00000000000E+00 -0.14795348028E+04  0.14795348028E+04  0.25500000920E-02 0.  1.
    10030    2    1    2    0    0  0.00000000000E+00  0.00000000000E+00 -0.75887950731E+03  0.22001900982E+04  0.20651727196E+04 0.  0.
        5    1    3    3  502    0 -0.80134309452E+03  0.26861392360E+03  0.25256243852E+03  0.88210774310E+03  0.46999998093E+01 0. -1.
       -5    1    3    3    0  502  0.80134309452E+03 -0.26861392360E+03 -0.10114419458E+04  0.13180823551E+04  0.46999998093E+01 0.  1.
</event>
<event>
 5   0  0.6256535E-05  0.1997178E+04  0.7818609E-02  0.8607941E-01
        1   -1    0    0  501    0  0.00000000000E+00  0.00000000000E+00  0.15469826264E+04  0.15469826264E+04  0.50400001928E-02 0. -1.
       -1   -1    0    0    0  501  0.00000000000E+00  0.00000000000E+00 -0.64459700710E+03  0.64459700712E+03  0.50400001928E-02 0.  1.
    10030    2    1    2    0    0  0.00000000000E+00  0.00000000000E+00  0.90238561929E+03  0.21915796335E+04  0.19971783807E+04 0.  0.
        1    1    3    3  502    0  0.31053833347E+03  0.88766738987E+03  0.81972999825E+03  0.12475354591E+04  0.50400001928E-02 0.  1.
       -1    1    3    3    0  502 -0.31053833347E+03 -0.88766738987E+03  0.82655621039E+02  0.94404417444E+03  0.50400001928E-02 0. -1.
</event>
<event>
 5   0  0.6214547E-05  0.1989853E+04  0.7818609E-02  0.8611380E-01
        1   -1    0    0  501    0  0.00000000000E+00  0.00000000000E+00  0.11097883817E+04  0.11097883818E+04  0.50400001928E-02 0.  1.
       -1   -1    0    0    0  501  0.00000000000E+00  0.00000000000E+00 -0.89195250611E+03  0.89195250612E+03  0.50400001928E-02 0. -1.
    10030    2    1    2    0    0  0.00000000000E+00  0.00000000000E+00  0.21783587564E+03  0.20017408879E+04  0.19898527869E+04 0.  0.
        3    1    3    3  502    0 -0.81085864877E+03 -0.56462813997E+03  0.22615532007E+03  0.10136285926E+04  0.10100000352E+00 0.  1.
       -3    1    3    3    0  502  0.81085864877E+03  0.56462813997E+03 -0.83194444311E+01  0.98811229528E+03  0.10100000352E+00 0. -1.
</event>
<event>
 5   0  0.6028501E-05  0.1965085E+04  0.7818609E-02  0.8623121E-01
       -1   -1    0    0    0  501  0.00000000000E+00  0.00000000000E+00  0.80073443648E+03  0.80073443649E+03  0.50400001928E-02 0.  1.
        1   -1    0    0  501    0  0.00000000000E+00  0.00000000000E+00 -0.12056303643E+04  0.12056303643E+04  0.50400001928E-02 0. -1.
    10030    2    1    2    0    0  0.00000000000E+00  0.00000000000E+00 -0.40489592778E+03  0.20063648008E+04  0.19650849858E+04 0.  0.
        4    1    3    3  502    0 -0.82570065768E+03 -0.14077528237E+03 -0.72684086709E+03  0.11090078968E+04  0.12699999809E+01 0. -1.
       -4    1    3    3    0  502  0.82570065768E+03  0.14077528237E+03  0.32194493931E+03  0.89735690395E+03  0.12699999809E+01 0.  1.
</event>
<event>
 5   0  0.6168338E-05  0.2021627E+04  0.7818609E-02  0.8596576E-01
       -1   -1    0    0    0  501  0.00000000000E+00  0.00000000000E+00  0.41980155570E+03  0.41980155573E+03  0.50400001928E-02 0. -1.
        1   -1    0    0  501    0  0.00000000000E+00  0.00000000000E+00 -0.24338734812E+04  0.24338734813E+04  0.50400001928E-02 0.  1.
    10030    2    1    2    0    0  0.00000000000E+00  0.00000000000E+00 -0.20140719255E+04  0.28536750370E+04  0.20216269427E+04 0.  0.
        5    1    3    3  502    0  0.22276666323E+03 -0.94715855048E+03 -0.13935790159E+04  0.16996525732E+04  0.46999998093E+01 0.  1.
       -5    1    3    3    0  502 -0.22276666323E+03  0.94715855048E+03 -0.62049290961E+03  0.11540224638E+04  0.46999998093E+01 0. -1.
</event>
<event>
 5   0  0.1159914E-04  0.2007343E+04  0.7818609E-02  0.8603195E-01
        2   -1    0    0  501    0  0.00000000000E+00  0.00000000000E+00  0.10449466219E+04  0.10449466219E+04  0.25500000920E-02 0.  1.
       -2   -1    0    0    0  501  0.00000000000E+00  0.00000000000E+00 -0.96402646165E+03  0.96402646165E+03  0.25500000920E-02 0. -1.
    10030    2    1    2    0    0  0.00000000000E+00  0.00000000000E+00  0.80920160284E+02  0.20089730836E+04  0.20073427157E+04 0.  0.
        3    1    3    3  502    0 -0.84290273527E+03 -0.47610541948E+03  0.30561826649E+03  0.10151669452E+04  0.10100000352E+00 0.  1.
       -3    1    3    3    0  502  0.84290273527E+03  0.47610541948E+03 -0.22469810620E+03  0.99380613840E+03  0.10100000352E+00 0. -1.
</event>
<event>
 5   0  0.6222733E-05  0.1976046E+04  0.7818609E-02  0.8617903E-01
       -1   -1    0    0    0  501  0.00000000000E+00  0.00000000000E+00  0.76424392409E+03  0.76424392411E+03  0.50400001928E-02 0.  1.
        1   -1    0    0  501    0  0.00000000000E+00  0.00000000000E+00 -0.12773269772E+04  0.12773269772E+04  0.50400001928E-02 0. -1.
    10030    2    1    2    0    0  0.00000000000E+00  0.00000000000E+00 -0.51308305310E+03  0.20415709013E+04  0.19760459321E+04 0.  0.
        2    1    3    3  502    0 -0.92313608178E+03 -0.18106282687E+03  0.55509302325E+02  0.94236153116E+03  0.25500000920E-02 0.  1.
       -2    1    3    3    0  502  0.92313608178E+03  0.18106282687E+03 -0.56859235543E+03  0.10992093701E+04  0.25500000920E-02 0. -1.
</event>
<event>
 5   0  0.6028501E-05  0.1967414E+04  0.7818609E-02  0.8622009E-01
       -1   -1    0    0    0  501  0.00000000000E+00  0.00000000000E+00  0.13648753457E+04  0.13648753457E+04  0.50400001928E-02 0.  1.
        1   -1    0    0  501    0  0.00000000000E+00  0.00000000000E+00 -0.70898761625E+03  0.70898761626E+03  0.50400001928E-02 0. -1.
    10030    2    1    2    0    0  0.00000000000E+00  0.00000000000E+00  0.65588772948E+03  0.20738629620E+04  0.19674142603E+04 0.  0.
        4    1    3    3  502    0  0.79429767283E+03 -0.38691182763E+03 -0.12797192138E+03  0.89274183334E+03  0.12699999809E+01 0. -1.
       -4    1    3    3    0  502 -0.79429767283E+03  0.38691182763E+03  0.78385965086E+03  0.11811211287E+04  0.12699999809E+01 0.  1.
</event>
<event>
 5   0  0.6214547E-05  0.2010341E+04  0.7818609E-02  0.8601801E-01
        1   -1    0    0  501    0  0.00000000000E+00  0.00000000000E+00  0.11020549996E+04  0.11020549996E+04  0.50400001928E-02 0.  1.
       -1   -1    0    0    0  501  0.00000000000E+00  0.00000000000E+00 -0.91680358599E+03  0.91680358601E+03  0.50400001928E-02 0. -1.
    10030    2    1    2    0    0  0.00000000000E+00  0.00000000000E+00  0.18525141359E+03  0.20188585856E+04  0.20103412403E+04 0.  0.
        3    1    3    3  502    0  0.20724559086E+03  0.72104389707E+03 -0.57917260891E+03  0.94778476330E+03  0.10100000352E+00 0. -1.
       -3    1    3    3    0  502 -0.20724559086E+03 -0.72104389707E+03  0.76442402250E+03  0.10710738223E+04  0.10100000352E+00 0.  1.
</event>
<event>
 5   0  0.6028501E-05  0.1997430E+04  0.7818609E-02  0.8607823E-01
       -1   -1    0    0    0  501  0.00000000000E+00  0.00000000000E+00  0.47144742214E+03  0.47144742217E+03  0.50400001928E-02 0.  1.
        1   -1    0    0  501    0  0.00000000000E+00  0.00000000000E+00 -0.21156786361E+04  0.21156786361E+04  0.50400001928E-02 0. -1.
    10030    2    1    2    0    0  0.00000000000E+00  0.00000000000E+00 -0.16442312139E+04  0.25871260583E+04  0.19974295874E+04 0.  0.
        4    1    3    3  502    0 -0.84811818459E+03 -0.45584775167E+03 -0.11656025560E+04  0.15118639354E+04  0.12699999809E+01 0. -1.
       -4    1    3    3    0  502  0.84811818459E+03  0.45584775167E+03 -0.47862865794E+03  0.10752621229E+04  0.12699999809E+01 0.  1.
</event>
<event>
 5   0  0.1281789E-04  0.1966718E+04  0.7818609E-02  0.8622341E-01
        2   -1    0    0  501    0  0.00000000000E+00  0.00000000000E+00  0.82339007991E+03  0.82339007992E+03  0.25500000920E-02 0. -1.
       -2   -1    0    0    0  501  0.00000000000E+00  0.00000000000E+00 -0.11744068335E+04  0.11744068335E+04  0.25500000920E-02 0.  1.
    10030    2    1    2    0    0  0.00000000000E+00  0.00000000000E+00 -0.35101675356E+03  0.19977969134E+04  0.19667180138E+04 0.  0.
        2    1    3    3  502    0  0.50734979463E+03  0.42562304115E+03 -0.91393186360E+03  0.11286408811E+04  0.25500000920E-02 0.  1.
       -2    1    3    3    0  502 -0.50734979463E+03 -0.42562304115E+03  0.56291511005E+03  0.86915603225E+03  0.25500000920E-02 0. -1.
</event>
<event>
 5   0  0.1244229E-04  0.1998430E+04  0.7818609E-02  0.8607355E-01
       -2   -1    0    0    0  501  0.00000000000E+00  0.00000000000E+00  0.89343309525E+03  0.89343309525E+03  0.25500000920E-02 0. -1.
        2   -1    0    0  501    0  0.00000000000E+00  0.00000000000E+00 -0.11175215188E+04  0.11175215188E+04  0.25500000920E-02 0.  1.
    10030    2    1    2    0    0  0.00000000000E+00  0.00000000000E+00 -0.22408842357E+03  0.20109546141E+04  0.19984300934E+04 0.  0.
        5    1    3    3  502    0  0.64965306196E+03  0.67503326970E+03  0.23753712459E+03  0.96652211132E+03  0.46999998093E+01 0.  1.
       -5    1    3    3    0  502 -0.64965306196E+03 -0.67503326970E+03 -0.46162554815E+03  0.10444325028E+04  0.46999998093E+01 0. -1.
</event>
<event>
 5   0  0.1159914E-04  0.1967177E+04  0.7818609E-02  0.8622122E-01
        2   -1    0    0  501    0  0.00000000000E+00  0.00000000000E+00  0.12678338833E+04  0.12678338833E+04  0.25500000920E-02 0.  1.
       -2   -1    0    0    0  501  0.00000000000E+00  0.00000000000E+00 -0.76307024161E+03  0.76307024161E+03  0.25500000920E-02 0. -1.
    10030    2    1    2    0    0  0.00000000000E+00  0.00000000000E+00  0.50476364172E+03  0.20309041249E+04  0.19671769698E+04 0.  0.
        3    1    3    3  502    0 -0.65765096634E+03 -0.61880026611E+03 -0.15015665911E+03  0.91540460745E+03  0.10100000352E+00 0. -1.
       -3    1    3    3    0  502  0.65765096634E+03  0.61880026611E+03  0.65492030083E+03  0.11154995175E+04  0.10100000352E+00 0.  1.
</event>
<event>
 5   0  0.1244229E-04  0.1994986E+04  0.7818609E-02  0.8608968E-01
       -2   -1    0    0    0  501  0.00000000000E+00  0.00000000000E+00  0.74798744602E+03  0.74798744603E+03  0.25500000920E-02 0. -1.
        2   -1    0    0  501    0  0.00000000000E+00  0.00000000000E+00 -0.13302262838E+04  0.13302262838E+04  0.25500000920E-02 0.  1.
    10030    2    1    2    0    0  0.00000000000E+00  0.00000000000E+00 -0.58223883778E+03  0.20782137298E+04  0.19949862763E+04 0.  0.
        5    1    3    3  502    0 -0.82427924232E+03 -0.40559683318E+03  0.11371302408E+03  0.92568774555E+03  0.46999998093E+01 0. -1.
       -5    1    3    3    0  502  0.82427924232E+03  0.40559683318E+03 -0.69595186187E+03  0.11525259843E+04  0.46999998093E+01 0.  1.
</event>
<event>
 5   0  0.6028501E-05  0.2087661E+04  0.7818609E-02  0.8566698E-01
       -1   -1    0    0    0  501  0.00000000000E+00  0.00000000000E+00  0.98702098353E+03  0.98702098354E+03  0.50400001928E-02 0. -1.
        1   -1    0    0  501    0  0.00000000000E+00  0.00000000000E+00 -0.11039095007E+04  0.11039095007E+04  0.50400001928E-02 0.  1.
    10030    2    1    2    0    0  0.00000000000E+00  0.00000000000E+00 -0.11688851713E+03  0.20909304842E+04  0.20876607398E+04 0.  0.
        4    1    3    3  502    0 -0.11848043831E+03 -0.94659571565E+02 -0.10928164397E+04  0.11032893694E+04  0.12699999809E+01 0.  1.
       -4    1    3    3    0  502  0.11848043831E+03  0.94659571565E+02  0.97592792258E+03  0.98764111484E+03  0.12699999809E+01 0. -1.
</event>
<event>
 5   0  0.6168338E-05  0.1995411E+04  0.7818609E-02  0.8608769E-01
        1   -1    0    0  501    0  0.00000000000E+00  0.00000000000E+00  0.12703006812E+04  0.12703006812E+04  0.50400001928E-02 0.  1.
       -1   -1    0    0    0  501  0.00000000000E+00  0.00000000000E+00 -0.78360644854E+03  0.78360644856E+03  0.50400001928E-02 0. -1.
    10030    2    1    2    0    0  0.00000000000E+00  0.00000000000E+00  0.48669423261E+03  0.20539071297E+04  0.19954105396E+04 0.  0.
        5    1    3    3  502    0 -0.69172783020E+03  0.71551381248E+03  0.17095535581E+03  0.10097995992E+04  0.46999998093E+01 0. -1.
       -5    1    3    3    0  502  0.69172783020E+03 -0.71551381248E+03  0.31573887681E+03  0.10441075305E+04  0.46999998093E+01 0.  1.
</event>
<event>
 5   0  0.6214547E-05  0.2017568E+04  0.7818609E-02  0.8598451E-01
       -1   -1    0    0    0  501  0.00000000000E+00  0.00000000000E+00  0.60854056500E+03  0.60854056503E+03  0.50400001928E-02 0.  1.
        1   -1    0    0  501    0  0.00000000000E+00  0.00000000000E+00 -0.16722724794E+04  0.16722724794E+04  0.50400001928E-02 0. -1.
    10030    2    1    2    0    0  0.00000000000E+00  0.00000000000E+00 -0.10637319144E+04  0.22808130445E+04  0.20175684767E+04 0.  0.
        3    1    3    3  502    0 -0.81986293221E+03 -0.25250804383E+03  0.68149730321E+02  0.86056954150E+03  0.10100000352E+00 0.  1.
       -3    1    3    3    0  502  0.81986293221E+03  0.25250804383E+03 -0.11318816448E+04  0.14202435030E+04  0.10100000352E+00 0. -1.
</event>
<event>
 5   0  0.6168338E-05  0.1993510E+04  0.7818609E-02  0.8609661E-01
        1   -1    0    0  501    0  0.00000000000E+00  0.00000000000E+00  0.10910113164E+04  0.10910113164E+04  0.50400001928E-02 0. -1.
       -1   -1    0    0    0  501  0.00000000000E+00  0.00000000000E+00 -0.91064199212E+03  0.91064199214E+03  0.50400001928E-02 0.  1.
    10030    2    1    2    0    0  0.00000000000E+00  0.00000000000E+00  0.18036932431E+03  0.20016533086E+04  0.19935101892E+04 0.  0.
        5    1    3    3  502    0 -0.51603487463E+02  0.76541591427E+03 -0.54879063710E+03  0.94324848005E+03  0.46999998093E+01 0. -1.
       -5    1    3    3    0  502  0.51603487463E+02 -0.76541591427E+03  0.72915996141E+03  0.10584048285E+04  0.46999998093E+01 0.  1.
</event>
<event>
 5   0  0.1281789E-04  0.2007030E+04  0.7818609E-02  0.8603341E-01
       -2   -1    0    0    0  501  0.00000000000E+00  0.00000000000E+00  0.63313704644E+03  0.63313704645E+03  0.25500000920E-02 0. -1.
        2   -1    0    0  501    0  0.00000000000E+00  0.00000000000E+00 -0.15905592666E+04  0.15905592666E+04  0.25500000920E-02 0.  1.
    10030    2    1    2    0    0  0.00000000000E+00  0.00000000000E+00 -0.95742222016E+03  0.22236963131E+04  0.20070296423E+04 0.  0.
        2    1    3    3  502    0  0.24889674047E+03 -0.64116565817E+03  0.33092881168E+03  0.76325413005E+03  0.25500000920E-02 0. -1.
       -2    1    3    3    0  502 -0.24889674047E+03  0.64116565817E+03 -0.12883510318E+04  0.14604421830E+04  0.25500000920E-02 0.  1.
</event>
<event>
 5   0  0.1159914E-04  0.2006578E+04  0.7818609E-02  0.8603551E-01
       -2   -1    0    0    0  501  0.00000000000E+00  0.00000000000E+00  0.63072203681E+03  0.63072203681E+03  0.25500000920E-02 0. -1.
        2   -1    0    0  501    0  0.00000000000E+00  0.00000000000E+00 -0.15959313727E+04  0.15959313727E+04  0.25500000920E-02 0.  1.
    10030    2    1    2    0    0  0.00000000000E+00  0.00000000000E+00 -0.96520933592E+03  0.22266534095E+04  0.20065782676E+04 0.  0.
        3    1    3    3  502    0 -0.45773918333E+03 -0.89260220132E+03 -0.46259272780E+03  0.11046519324E+04  0.10100000352E+00 0.  1.
       -3    1    3    3    0  502  0.45773918333E+03  0.89260220132E+03 -0.50261660812E+03  0.11220014771E+04  0.10100000352E+00 0. -1.
</event>
<event>
 5   0  0.1159914E-04  0.1985387E+04  0.7818609E-02  0.8613484E-01
       -2   -1    0    0    0  501  0.00000000000E+00  0.00000000000E+00  0.86436911259E+03  0.86436911259E+03  0.25500000920E-02 0.  1.
        2   -1    0    0  501    0  0.00000000000E+00  0.00000000000E+00 -0.11400684833E+04  0.11400684833E+04  0.25500000920E-02 0. -1.
    10030    2    1    2    0    0  0.00000000000E+00  0.00000000000E+00 -0.27569937073E+03  0.20044375959E+04  0.19853865953E+04 0.  0.
        3    1    3    3  502    0 -0.20295101373E+03 -0.17967402747E+03 -0.11019834200E+04  0.11348300923E+04  0.10100000352E+00 0. -1.
       -3    1    3    3    0  502  0.20295101373E+03  0.17967402747E+03  0.82628404928E+03  0.86960750365E+03  0.10100000352E+00 0.  1.
</event>
<event>
 5   0  0.6222733E-05  0.1998835E+04  0.7818609E-02  0.8607166E-01
       -1   -1    0    0    0  501  0.00000000000E+00  0.00000000000E+00  0.82085493497E+03  0.82085493499E+03  0.50400001928E-02 0. -1.
        1   -1    0    0  501    0  0.00000000000E+00  0.00000000000E+00 -0.12168228043E+04  0.12168228043E+04  0.50400001928E-02 0.  1.
    10030    2    1    2    0    0  0.00000000000E+00  0.00000000000E+00 -0.39596786929E+03  0.20376777393E+04  0.19988346644E+04 0.  0.
        2    1    3    3  502    0  0.43877341366E+03 -0.38405632465E+03 -0.10254304244E+04  0.11796308424E+04  0.25500000920E-02 0.  1.
       -2    1    3    3    0  502 -0.43877341366E+03  0.38405632465E+03  0.62946255507E+03  0.85804689690E+03  0.25500000920E-02 0. -1.
</event>
<event>
 5   0  0.1242761E-04  0.1997720E+04  0.7818609E-02  0.8607687E-01
        2   -1    0    0  501    0  0.00000000000E+00  0.00000000000E+00  0.15944090034E+04  0.15944090034E+04  0.25500000920E-02 0. -1.
       -2   -1    0    0    0  501  0.00000000000E+00  0.00000000000E+00 -0.62576247554E+03  0.62576247555E+03  0.25500000920E-02 0.  1.
    10030    2    1    2    0    0  0.00000000000E+00  0.00000000000E+00  0.96864652783E+03  0.22201714789E+04  0.19977200254E+04 0.  0.
        4    1    3    3  502    0 -0.54589969508E+02  0.98227500218E+03  0.29223127620E+03  0.10262772415E+04  0.12699999809E+01 0. -1.
       -4    1    3    3    0  502  0.54589969508E+02 -0.98227500218E+03  0.67641525163E+03  0.11938942374E+04  0.12699999809E+01 0.  1.
</event>
<event>
 5   0  0.1159914E-04  0.2004676E+04  0.7818609E-02  0.8604438E-01
        2   -1    0    0  501    0  0.00000000000E+00  0.00000000000E+00  0.24678699338E+04  0.24678699338E+04  0.25500000920E-02 0.  1.
       -2   -1    0    0    0  501  0.00000000000E+00  0.00000000000E+00 -0.40710473584E+03  0.40710473585E+03  0.25500000920E-02 0. -1.
    10030    2    1    2    0    0  0.00000000000E+00  0.00000000000E+00  0.20607651980E+04  0.28749746697E+04  0.20046760711E+04 0.  0.
        3    1    3    3  502    0 -0.92499990781E+03  0.66304576222E+02  0.48492041307E+03  0.10465031980E+04  0.10100000352E+00 0. -1.
       -3    1    3    3    0  502  0.92499990781E+03 -0.66304576222E+02  0.15758447849E+04  0.18284714716E+04  0.10100000352E+00 0.  1.
</event>
<event>
 5   0  0.1159914E-04  0.1985392E+04  0.7818609E-02  0.8613481E-01
       -2   -1    0    0    0  501  0.00000000000E+00  0.00000000000E+00  0.72938492015E+03  0.72938492015E+03  0.25500000920E-02 0.  1.
        2   -1    0    0  501    0  0.00000000000E+00  0.00000000000E+00 -0.13510633346E+04  0.13510633346E+04  0.25500000920E-02 0. -1.
    10030    2    1    2    0    0  0.00000000000E+00  0.00000000000E+00 -0.62167841443E+03  0.20804482547E+04  0.19853918731E+04 0.  0.
        3    1    3    3  502    0  0.79731765746E+03  0.77323421560E+01  0.30880137108E+03  0.85506346723E+03  0.10100000352E+00 0.  1.
       -3    1    3    3    0  502 -0.79731765746E+03 -0.77323421560E+01 -0.93047978550E+03  0.12253847875E+04  0.10100000352E+00 0. -1.
</event>
<event>
 5   0  0.1159914E-04  0.2021131E+04  0.7818609E-02  0.8596805E-01
        2   -1    0    0  501    0  0.00000000000E+00  0.00000000000E+00  0.88393934684E+03  0.88393934684E+03  0.25500000920E-02 0. -1.
       -2   -1    0    0    0  501  0.00000000000E+00  0.00000000000E+00 -0.11553307897E+04  0.11553307897E+04  0.25500000920E-02 0.  1.
    10030    2    1    2    0    0  0.00000000000E+00  0.00000000000E+00 -0.27139144282E+03  0.20392701365E+04  0.20211307168E+04 0.  0.
        3    1    3    3  502    0  0.47341177606E+03 -0.14325668514E+01  0.76513385762E+03  0.89975029438E+03  0.10100000352E+00 0. -1.
       -3    1    3    3    0  502 -0.47341177606E+03  0.14325668514E+01 -0.10365253004E+04  0.11395198421E+04  0.10100000352E+00 0.  1.
</event>
<event>
 5   0  0.1244229E-04  0.2004836E+04  0.7818609E-02  0.8604363E-01
        2   -1    0    0  501    0  0.00000000000E+00  0.00000000000E+00  0.15178031109E+04  0.15178031109E+04  0.25500000920E-02 0. -1.
       -2   -1    0    0    0  501  0.00000000000E+00  0.00000000000E+00 -0.66203724669E+03  0.66203724669E+03  0.25500000920E-02 0.  1.
    10030    2    1    2    0    0  0.00000000000E+00  0.00000000000E+00  0.85576586423E+03  0.21798403576E+04  0.20048363450E+04 0.  0.
        5    1    3    3  502    0  0.11326303224E+03  0.52715966951E+03  0.13466883266E+04  0.14506265442E+04  0.46999998093E+01 0. -1.
       -5    1    3    3    0  502 -0.11326303224E+03 -0.52715966951E+03 -0.49092246239E+03  0.72921381343E+03  0.46999998093E+01 0.  1.
</event>
<event>
 5   0  0.6214547E-05  0.2005296E+04  0.7818609E-02  0.8604149E-01
       -1   -1    0    0    0  501  0.00000000000E+00  0.00000000000E+00  0.84583058693E+03  0.84583058695E+03  0.50400001928E-02 0.  1.
        1   -1    0    0  501    0  0.00000000000E+00  0.00000000000E+00 -0.11885390841E+04  0.11885390841E+04  0.50400001928E-02 0. -1.
    10030    2    1    2    0    0  0.00000000000E+00  0.00000000000E+00 -0.34270849716E+03  0.20343696710E+04  0.20052957000E+04 0.  0.
        3    1    3    3  502    0 -0.37303593245E+03 -0.17782505392E+03 -0.10981225335E+04  0.11733075750E+04  0.10100000352E+00 0. -1.
       -3    1    3    3    0  502  0.37303593245E+03  0.17782505392E+03  0.75541403637E+03  0.86106209605E+03  0.10100000352E+00 0.  1.
</event>
<event>
 5   0  0.6222733E-05  0.1934603E+04  0.7818609E-02  0.8637821E-01
        1   -1    0    0  501    0  0.00000000000E+00  0.00000000000E+00  0.19751330271E+04  0.19751330271E+04  0.50400001928E-02 0.  1.
       -1   -1    0    0    0  501  0.00000000000E+00  0.00000000000E+00 -0.47372612266E+03  0.47372612269E+03  0.50400001928E-02 0. -1.
    10030    2    1    2    0    0  0.00000000000E+00  0.00000000000E+00  0.15014069044E+04  0.24488591498E+04  0.19346029161E+04 0.  0.
        2    1    3    3  502    0  0.33478156712E+03  0.27544190657E+03 -0.34386510520E+03  0.55334451489E+03  0.25500000920E-02 0. -1.
       -2    1    3    3    0  502 -0.33478156712E+03 -0.27544190657E+03  0.18452720096E+04  0.18955146349E+04  0.25500000920E-02 0.  1.
</event>
<event>
 5   0  0.6028501E-05  0.1999383E+04  0.7818609E-02  0.8606909E-01
        1   -1    0    0  501    0  0.00000000000E+00  0.00000000000E+00  0.11128828313E+04  0.11128828313E+04  0.50400001928E-02 0.  1.
       -1   -1    0    0    0  501  0.00000000000E+00  0.00000000000E+00 -0.89801288391E+03  0.89801288393E+03  0.50400001928E-02 0. -1.
    10030    2    1    2    0    0  0.00000000000E+00  0.00000000000E+00  0.21486994738E+03  0.20108957152E+04  0.19993830256E+04 0.  0.
        4    1    3    3  502    0  0.46571139480E+03  0.58153081337E+01  0.99709644623E+03  0.11005107255E+04  0.12699999809E+01 0.  1.
       -4    1    3    3    0  502 -0.46571139480E+03 -0.58153081337E+01 -0.78222649885E+03  0.91038498969E+03  0.12699999809E+01 0. -1.
</event>
<event>
 5   0  0.1159914E-04  0.2016620E+04  0.7818609E-02  0.8598889E-01
       -2   -1    0    0    0  501  0.00000000000E+00  0.00000000000E+00  0.95907919943E+03  0.95907919944E+03  0.25500000920E-02 0. -1.
        2   -1    0    0  501    0  0.00000000000E+00  0.00000000000E+00 -0.10600680164E+04  0.10600680165E+04  0.25500000920E-02 0.  1.
    10030    2    1    2    0    0  0.00000000000E+00  0.00000000000E+00 -0.10098881702E+03  0.20191472159E+04  0.20166201274E+04 0.  0.
        3    1    3    3  502    0  0.16884842213E+03 -0.54882169087E+02  0.94330535302E+03  0.95986813750E+03  0.10100000352E+00 0. -1.
       -3    1    3    3    0  502 -0.16884842213E+03  0.54882169087E+02 -0.10442941700E+04  0.10592790784E+04  0.10100000352E+00 0.  1.
</event>
<event>
 5   0  0.1159914E-04  0.2010598E+04  0.7818609E-02  0.8601682E-01
        2   -1    0    0  501    0  0.00000000000E+00  0.00000000000E+00  0.82570377425E+03  0.82570377426E+03  0.25500000920E-02 0.  1.
       -2   -1    0    0    0  501  0.00000000000E+00  0.00000000000E+00 -0.12239576443E+04  0.12239576443E+04  0.25500000920E-02 0. -1.
    10030    2    1    2    0    0  0.00000000000E+00  0.00000000000E+00 -0.39825387005E+03  0.20496614186E+04  0.20105983651E+04 0.  0.
        3    1    3    3  502    0  0.57010896235E+03  0.72790484187E+03  0.20320104563E+03  0.94665746863E+03  0.10100000352E+00 0.  1.
       -3    1    3    3    0  502 -0.57010896235E+03 -0.72790484187E+03 -0.60145491568E+03  0.11030039499E+04  0.10100000352E+00 0. -1.
</event>
<event>
 5   0  0.1274868E-04  0.2032908E+04  0.7818609E-02  0.8591388E-01
       -2   -1    0    0    0  501  0.00000000000E+00  0.00000000000E+00  0.46202801397E+03  0.46202801397E+03  0.25500000920E-02 0. -1.
        2   -1    0    0  501    0  0.00000000000E+00  0.00000000000E+00 -0.22361809768E+04  0.22361809768E+04  0.25500000920E-02 0.  1.
    10030    2    1    2    0    0  0.00000000000E+00  0.00000000000E+00 -0.17741529629E+04  0.26982089908E+04  0.20329075292E+04 0.  0.
        1    1    3    3  502    0 -0.43324832395E+03  0.68361005515E+03 -0.70887290863E+02  0.81243573637E+03  0.50400001928E-02 0. -1.
       -1    1    3    3    0  502  0.43324832395E+03 -0.68361005515E+03 -0.17032656720E+04  0.18857732544E+04  0.50400001928E-02 0.  1.
</event>
<event>
 5   0  0.6256535E-05  0.2013704E+04  0.7818609E-02  0.8600240E-01
        1   -1    0    0  501    0  0.00000000000E+00  0.00000000000E+00  0.12607517175E+04  0.12607517176E+04  0.50400001928E-02 0. -1.
       -1   -1    0    0    0  501  0.00000000000E+00  0.00000000000E+00 -0.80408449183E+03  0.80408449185E+03  0.50400001928E-02 0.  1.
    10030    2    1    2    0    0  0.00000000000E+00  0.00000000000E+00  0.45666722571E+03  0.20648362094E+04  0.20137039546E+04 0.  0.
        1    1    3    3  502    0 -0.28595073002E+02  0.10044344122E+04  0.29354675981E+03  0.10468408985E+04  0.50400001928E-02 0. -1.
       -1    1    3    3    0  502  0.28595073002E+02 -0.10044344122E+04  0.16312046590E+03  0.10179953109E+04  0.50400001928E-02 0.  1.
</event>
<event>
 5   0  0.1281789E-04  0.1995428E+04  0.7818609E-02  0.8608761E-01
       -2   -1    0    0    0  501  0.00000000000E+00  0.00000000000E+00  0.40015915943E+03  0.40015915944E+03  0.25500000920E-02 0. -1.
        2   -1    0    0  501    0  0.00000000000E+00  0.00000000000E+00 -0.24875937876E+04  0.24875937876E+04  0.25500000920E-02 0.  1.
    10030    2    1    2    0    0  0.00000000000E+00  0.00000000000E+00 -0.20874346281E+04  0.28877529470E+04  0.19954282137E+04 0.  0.
        2    1    3    3  502    0  0.72836110259E+03  0.18756815136E+03 -0.19924146742E+04  0.21296497226E+04  0.25500000920E-02 0.  1.
       -2    1    3    3    0  502 -0.72836110259E+03 -0.18756815136E+03 -0.95019953959E+02  0.75810322439E+03  0.25500000920E-02 0. -1.
</event>
<event>
 5   0  0.1159914E-04  0.1863823E+04  0.7818609E-02  0.8673077E-01
        2   -1    0    0  501    0  0.00000000000E+00  0.00000000000E+00  0.15315091619E+04  0.15315091619E+04  0.25500000920E-02 0.  1.
       -2   -1    0    0    0  501  0.00000000000E+00  0.00000000000E+00 -0.56706092666E+03  0.56706092667E+03  0.25500000920E-02 0. -1.
    10030    2    1    2    0    0  0.00000000000E+00  0.00000000000E+00  0.96444823528E+03  0.20985700886E+04  0.18638229579E+04 0.  0.
        3    1    3    3  502    0  0.92757283267E+03 -0.25883777218E+02  0.38538158497E+03  0.10047787349E+04  0.10100000352E+00 0.  1.
       -3    1    3    3    0  502 -0.92757283267E+03  0.25883777218E+02  0.57906665031E+03  0.10937913537E+04  0.10100000352E+00 0. -1.
</event>
<event>
 5   0  0.6256535E-05  0.1949798E+04  0.7818609E-02  0.8630458E-01
       -1   -1    0    0    0  501  0.00000000000E+00  0.00000000000E+00  0.15979123271E+04  0.15979123271E+04  0.50400001928E-02 0.  1.
        1   -1    0    0  501    0  0.00000000000E+00  0.00000000000E+00 -0.59479350770E+03  0.59479350773E+03  0.50400001928E-02 0. -1.
    10030    2    1    2    0    0  0.00000000000E+00  0.00000000000E+00  0.10031188194E+04  0.21927058348E+04  0.19497978132E+04 0.  0.
        1    1    3    3  502    0 -0.65490323642E+02 -0.86479096809E+03  0.80440894355E+00  0.86726757583E+03  0.50400001928E-02 0. -1.
       -1    1    3    3    0  502  0.65490323642E+02  0.86479096809E+03  0.10023144104E+04  0.13254382590E+04  0.50400001928E-02 0.  1.
</event>
<event>
 5   0  0.1242761E-04  0.1988290E+04  0.7818609E-02  0.8612115E-01
        2   -1    0    0  501    0  0.00000000000E+00  0.00000000000E+00  0.23796903676E+04  0.23796903676E+04  0.25500000920E-02 0. -1.
       -2   -1    0    0    0  501  0.00000000000E+00  0.00000000000E+00 -0.41531650568E+03  0.41531650568E+03  0.25500000920E-02 0.  1.
    10030    2    1    2    0    0  0.00000000000E+00  0.00000000000E+00  0.19643738619E+04  0.27950068732E+04  0.19882904094E+04 0.  0.
        4    1    3    3  502    0 -0.73466979801E+03 -0.54572532724E+03  0.15280158488E+04  0.17811204036E+04  0.12699999809E+01 0. -1.
       -4    1    3    3    0  502  0.73466979801E+03  0.54572532724E+03  0.43635801306E+03  0.10138864697E+04  0.12699999809E+01 0.  1.
</event>
<event>
 5   0  0.4479000E-05  0.2273175E+04  0.7818609E-02  0.8488573E-01
       -3   -1    0    0    0  501  0.00000000000E+00  0.00000000000E+00  0.91811219801E+03  0.91811220356E+03  0.10100000352E+00 0.  1.
        3   -1    0    0  501    0  0.00000000000E+00  0.00000000000E+00 -0.14070520379E+04  0.14070520415E+04  0.10100000352E+00 0. -1.
    10030    2    1    2    0    0  0.00000000000E+00  0.00000000000E+00 -0.48893983985E+03  0.23251642450E+04  0.22731754441E+04 0.  0.
        4    1    3    3  502    0 -0.39669980585E+03 -0.10320100008E+04 -0.51396216868E+03  0.12192514512E+04  0.12699999809E+01 0. -1.
       -4    1    3    3    0  502  0.39669980585E+03  0.10320100008E+04  0.25022328831E+02  0.11059127938E+04  0.12699999809E+01 0.  1.
</event>
<event>
 5   0  0.1244229E-04  0.1891224E+04  0.7818609E-02  0.8659237E-01
        2   -1    0    0  501    0  0.00000000000E+00  0.00000000000E+00  0.16844729285E+04  0.16844729285E+04  0.25500000920E-02 0.  1.
       -2   -1    0    0    0  501  0.00000000000E+00  0.00000000000E+00 -0.53083765182E+03  0.53083765183E+03  0.25500000920E-02 0. -1.
    10030    2    1    2    0    0  0.00000000000E+00  0.00000000000E+00  0.11536352766E+04  0.22153105803E+04  0.18912235763E+04 0.  0.
        5    1    3    3  502    0  0.74979888712E+03  0.57615509665E+03  0.57980344013E+03  0.11092101630E+04  0.46999998093E+01 0. -1.
       -5    1    3    3    0  502 -0.74979888712E+03 -0.57615509665E+03  0.57383183651E+03  0.11061004173E+04  0.46999998093E+01 0.  1.
</event>
<event>
 5   0  0.1242761E-04  0.1838465E+04  0.7818609E-02  0.8686108E-01
       -2   -1    0    0    0  501  0.00000000000E+00  0.00000000000E+00  0.62562282413E+03  0.62562282413E+03  0.25500000920E-02 0.  1.
        2   -1    0    0  501    0  0.00000000000E+00  0.00000000000E+00 -0.13506351873E+04  0.13506351873E+04  0.25500000920E-02 0. -1.
    10030    2    1    2    0    0  0.00000000000E+00  0.00000000000E+00 -0.72501236314E+03  0.19762580114E+04  0.18384647946E+04 0.  0.
        4    1    3    3  502    0  0.40919235465E+03  0.10383540621E+03  0.51525259998E+03  0.66611337576E+03  0.12699999809E+01 0.  1.
       -4    1    3    3    0  502 -0.40919235465E+03 -0.10383540621E+03 -0.12402649631E+04  0.13101446356E+04  0.12699999809E+01 0. -1.
</event>
<event>
 5   0  0.1159914E-04  0.2012953E+04  0.7818609E-02  0.8600589E-01
       -2   -1    0    0    0  501  0.00000000000E+00  0.00000000000E+00  0.10677227667E+04  0.10677227667E+04  0.25500000920E-02 0.  1.
        2   -1    0    0  501    0  0.00000000000E+00  0.00000000000E+00 -0.94874299511E+03  0.94874299512E+03  0.25500000920E-02 0. -1.
    10030    2    1    2    0    0  0.00000000000E+00  0.00000000000E+00  0.11897977159E+03  0.20164657618E+04  0.20129525535E+04 0.  0.
        3    1    3    3  502    0  0.61300390637E+03 -0.61070070414E+03 -0.45547476965E+03  0.97784784872E+03  0.10100000352E+00 0. -1.
       -3    1    3    3    0  502 -0.61300390637E+03  0.61070070414E+03  0.57445454124E+03  0.10386179131E+04  0.10100000352E+00 0.  1.
</event>
<event>
 5   0  0.1159914E-04  0.1985716E+04  0.7818609E-02  0.8613328E-01
       -2   -1    0    0    0  501  0.00000000000E+00  0.00000000000E+00  0.13379212810E+04  0.13379212810E+04  0.25500000920E-02 0. -1.
        2   -1    0    0  501    0  0.00000000000E+00  0.00000000000E+00 -0.73678995935E+03  0.73678995935E+03  0.25500000920E-02 0.  1.
    10030    2    1    2    0    0  0.00000000000E+00  0.00000000000E+00  0.60113132162E+03  0.20747112403E+04  0.19857159578E+04 0.  0.
        3    1    3    3  502    0 -0.78241726556E+03  0.53411701171E+03  0.61105271740E+03  0.11273168114E+04  0.10100000352E+00 0.  1.
       -3    1    3    3    0  502  0.78241726556E+03 -0.53411701171E+03 -0.99213957818E+01  0.94739442891E+03  0.10100000352E+00 0. -1.
</event>
<event>
 5   0  0.1242761E-04  0.2002184E+04  0.7818609E-02  0.8605600E-01
        2   -1    0    0  501    0  0.00000000000E+00  0.00000000000E+00  0.11326374249E+04  0.11326374249E+04  0.25500000920E-02 0.  1.
       -2   -1    0    0    0  501  0.00000000000E+00  0.00000000000E+00 -0.88482419665E+03  0.88482419666E+03  0.25500000920E-02 0. -1.
    10030    2    1    2    0    0  0.00000000000E+00  0.00000000000E+00  0.24781322825E+03  0.20174616216E+04  0.20021838073E+04 0.  0.
        4    1    3    3  502    0  0.52552761586E+03  0.40603931066E+03  0.87871284505E+03  0.11014468093E+04  0.12699999809E+01 0.  1.
       -4    1    3    3    0  502 -0.52552761586E+03 -0.40603931066E+03 -0.63089961680E+03  0.91601481223E+03  0.12699999809E+01 0. -1.
</event>
<event>
 5   0  0.1159914E-04  0.2003223E+04  0.7818609E-02  0.8605115E-01
        2   -1    0    0  501    0  0.00000000000E+00  0.00000000000E+00  0.98030053211E+03  0.98030053211E+03  0.25500000920E-02 0.  1.
       -2   -1    0    0    0  501  0.00000000000E+00  0.00000000000E+00 -0.10233856065E+04  0.10233856065E+04  0.25500000920E-02 0. -1.
    10030    2    1    2    0    0  0.00000000000E+00  0.00000000000E+00 -0.43085074421E+02  0.20036861386E+04  0.20032228579E+04 0.  0.
        3    1    3    3  502    0  0.18198272991E+03 -0.55549755298E+03 -0.83507570530E+03  0.10193363965E+04  0.10100000352E+00 0. -1.
       -3    1    3    3    0  502 -0.18198272991E+03  0.55549755298E+03  0.79199063087E+03  0.98434974219E+03  0.10100000352E+00 0.  1.
</event>
<event>
 5   0  0.6168338E-05  0.2010039E+04  0.7818609E-02  0.8601942E-01
        1   -1    0    0  501    0  0.00000000000E+00  0.00000000000E+00  0.11219990917E+04  0.11219990917E+04  0.50400001928E-02 0. -1.
       -1   -1    0    0    0  501  0.00000000000E+00  0.00000000000E+00 -0.90023597715E+03  0.90023597716E+03  0.50400001928E-02 0.  1.
    10030    2    1    2    0    0  0.00000000000E+00  0.00000000000E+00  0.22176311454E+03  0.20222350689E+04  0.20100387545E+04 0.  0.
        5    1    3    3  502    0  0.77370384103E+03  0.99349683902E+02  0.74840933474E+03  0.10810303491E+04  0.46999998093E+01 0. -1.
       -5    1    3    3    0  502 -0.77370384103E+03 -0.99349683902E+02 -0.52664622019E+03  0.94120471979E+03  0.46999998093E+01 0.  1.
</event>
<event>
 5   0  0.1274868E-04  0.2022647E+04  0.7818609E-02  0.8596105E-01
        2   -1    0    0  501    0  0.00000000000E+00  0.00000000000E+00  0.13190330247E+04  0.13190330247E+04  0.25500000920E-02 0.  1.
       -2   -1    0    0    0  501  0.00000000000E+00  0.00000000000E+00 -0.77539787778E+03  0.77539787779E+03  0.25500000920E-02 0. -1.
    10030    2    1    2    0    0  0.00000000000E+00  0.00000000000E+00  0.54363514691E+03  0.20944309025E+04  0.20226471843E+04 0.  0.
        1    1    3    3  502    0 -0.67392551894E+02 -0.77409144549E+03 -0.39847012770E+03  0.87323408358E+03  0.50400001928E-02 0. -1.
       -1    1    3    3    0  502  0.67392551894E+02  0.77409144549E+03  0.94210527461E+03  0.12211968189E+04  0.50400001928E-02 0.  1.
</event>
<event>
 5   0  0.6214547E-05  0.1993903E+04  0.7818609E-02  0.8609477E-01
        1   -1    0    0  501    0  0.00000000000E+00  0.00000000000E+00  0.10167345150E+04  0.10167345150E+04  0.50400001928E-02 0. -1.
       -1   -1    0    0    0  501  0.00000000000E+00  0.00000000000E+00 -0.97755302908E+03  0.97755302910E+03  0.50400001928E-02 0.  1.
    10030    2    1    2    0    0  0.00000000000E+00  0.00000000000E+00  0.39181485933E+02  0.19942875441E+04  0.19939026104E+04 0.  0.
        3    1    3    3  502    0  0.26315431933E+03  0.95784914359E+03  0.10438161649E+03  0.99880964639E+03  0.10100000352E+00 0.  1.
       -3    1    3    3    0  502 -0.26315431933E+03 -0.95784914359E+03 -0.65200130555E+02  0.99547789774E+03  0.10100000352E+00 0. -1.
</event>
<event>
 5   0  0.1242761E-04  0.1992058E+04  0.7818609E-02  0.8610343E-01
       -2   -1    0    0    0  501  0.00000000000E+00  0.00000000000E+00  0.13641072385E+04  0.13641072385E+04  0.25500000920E-02 0. -1.
        2   -1    0    0  501    0  0.00000000000E+00  0.00000000000E+00 -0.72726935811E+03  0.72726935812E+03  0.25500000920E-02 0.  1.
    10030    2    1    2    0    0  0.00000000000E+00  0.00000000000E+00  0.63683788042E+03  0.20913765967E+04  0.19920576254E+04 0.  0.
        4    1    3    3  502    0  0.72399997245E+03 -0.61070193876E+03  0.64190278199E+03  0.11441912482E+04  0.12699999809E+01 0. -1.
       -4    1    3    3    0  502 -0.72399997245E+03  0.61070193876E+03 -0.50649015692E+01  0.94718534842E+03  0.12699999809E+01 0.  1.
</event>
<event>
 5   0  0.1242761E-04  0.1999750E+04  0.7818609E-02  0.8606737E-01
        2   -1    0    0  501    0  0.00000000000E+00  0.00000000000E+00  0.58406432374E+03  0.58406432375E+03  0.25500000920E-02 0.  1.
       -2   -1    0    0    0  501  0.00000000000E+00  0.00000000000E+00 -0.17117124386E+04  0.17117124386E+04  0.25500000920E-02 0. -1.
    10030    2    1    2    0    0  0.00000000000E+00  0.00000000000E+00 -0.11276481149E+04  0.22957767624E+04  0.19997501523E+04 0.  0.
        4    1    3    3  502    0  0.96121236155E+03  0.16130436728E+03 -0.30762962480E+03  0.10220498529E+04  0.12699999809E+01 0.  1.
       -4    1    3    3    0  502 -0.96121236155E+03 -0.16130436728E+03 -0.82001849008E+03  0.12737269095E+04  0.12699999809E+01 0. -1.
</event>
<event>
 5   0  0.1242761E-04  0.1998173E+04  0.7818609E-02  0.8607475E-01
        2   -1    0    0  501    0  0.00000000000E+00  0.00000000000E+00  0.13042635398E+04  0.13042635398E+04  0.25500000920E-02 0. -1.
       -2   -1    0    0    0  501  0.00000000000E+00  0.00000000000E+00 -0.76531596376E+03  0.76531596377E+03  0.25500000920E-02 0.  1.
    10030    2    1    2    0    0  0.00000000000E+00  0.00000000000E+00  0.53894757602E+03  0.20695795036E+04  0.19981728734E+04 0.  0.
        4    1    3    3  502    0 -0.71615478006E+02 -0.28861150796E+03  0.12573654139E+04  0.12920506090E+04  0.12699999809E+01 0. -1.
       -4    1    3    3    0  502  0.71615478006E+02  0.28861150796E+03 -0.71841783787E+03  0.77752889457E+03  0.12699999809E+01 0.  1.
</event>
<event>
 5   0  0.1274868E-04  0.1708121E+04  0.7818609E-02  0.8756746E-01
        2   -1    0    0  501    0  0.00000000000E+00  0.00000000000E+00  0.67694378256E+03  0.67694378256E+03  0.25500000920E-02 0. -1.
       -2   -1    0    0    0  501  0.00000000000E+00  0.00000000000E+00 -0.10775187995E+04  0.10775187995E+04  0.25500000920E-02 0.  1.
    10030    2    1    2    0    0  0.00000000000E+00  0.00000000000E+00 -0.40057501692E+03  0.17544625820E+04  0.17081213679E+04 0.  0.
        1    1    3    3  502    0 -0.79193113670E+03  0.31955182273E+03 -0.21292409513E+03  0.88011644854E+03  0.50400001928E-02 0.  1.
       -1    1    3    3    0  502  0.79193113670E+03 -0.31955182273E+03 -0.18765092179E+03  0.87434613350E+03  0.50400001928E-02 0. -1.
</event>
<event>
 5   0  0.6028501E-05  0.1989907E+04  0.7818609E-02  0.8611354E-01
       -1   -1    0    0    0  501  0.00000000000E+00  0.00000000000E+00  0.87393450678E+03  0.87393450680E+03  0.50400001928E-02 0.  1.
        1   -1    0    0  501    0  0.00000000000E+00  0.00000000000E+00 -0.11327309414E+04  0.11327309414E+04  0.50400001928E-02 0. -1.
    10030    2    1    2    0    0  0.00000000000E+00  0.00000000000E+00 -0.25879643458E+03  0.20066654482E+04  0.19899071904E+04 0.  0.
        4    1    3    3  502    0 -0.21248972083E+03  0.64533843611E+03 -0.86237401603E+03  0.10978634410E+04  0.12699999809E+01 0. -1.
       -4    1    3    3    0  502  0.21248972083E+03 -0.64533843611E+03  0.60357758145E+03  0.90880200721E+03  0.12699999809E+01 0.  1.
</event>
<event>
 5   0  0.6168338E-05  0.2057156E+04  0.7818609E-02  0.8580355E-01
       -1   -1    0    0    0  501  0.00000000000E+00  0.00000000000E+00  0.81806025613E+03  0.81806025614E+03  0.50400001928E-02 0.  1.
        1   -1    0    0  501    0  0.00000000000E+00  0.00000000000E+00 -0.12932694326E+04  0.12932694327E+04  0.50400001928E-02 0. -1.
    10030    2    1    2    0    0  0.00000000000E+00  0.00000000000E+00 -0.47520917652E+03  0.21113296888E+04  0.20571556318E+04 0.  0.
        5    1    3    3  502    0 -0.62353422308E+03 -0.62839013226E+02 -0.10746849798E+04  0.12440713664E+04  0.46999998093E+01 0. -1.
       -5    1    3    3    0  502  0.62353422308E+03  0.62839013226E+02  0.59947580332E+03  0.86725832235E+03  0.46999998093E+01 0.  1.
</event>
<event>
 5   0  0.1242761E-04  0.2025085E+04  0.7818609E-02  0.8594982E-01
        2   -1    0    0  501    0  0.00000000000E+00  0.00000000000E+00  0.23357236526E+04  0.23357236526E+04  0.25500000920E-02 0. -1.
       -2   -1    0    0    0  501  0.00000000000E+00  0.00000000000E+00 -0.43893970805E+03  0.43893970805E+03  0.25500000920E-02 0.  1.
    10030    2    1    2    0    0  0.00000000000E+00  0.00000000000E+00  0.18967839445E+04  0.27746633606E+04  0.20250845495E+04 0.  0.
        4    1    3    3  502    0  0.99873263635E+03  0.14982220888E+03  0.10483908484E+04  0.14556917796E+04  0.12699999809E+01 0.  1.
       -4    1    3    3    0  502 -0.99873263635E+03 -0.14982220888E+03  0.84839309609E+03  0.13189715810E+04  0.12699999809E+01 0. -1.
</event>
<event>
 5   0  0.1274868E-04  0.1973979E+04  0.7818609E-02  0.8618884E-01
       -2   -1    0    0    0  501  0.00000000000E+00  0.00000000000E+00  0.95954948559E+03  0.95954948559E+03  0.25500000920E-02 0. -1.
        2   -1    0    0  501    0  0.00000000000E+00  0.00000000000E+00 -0.10152141826E+04  0.10152141826E+04  0.25500000920E-02 0.  1.
    10030    2    1    2    0    0  0.00000000000E+00  0.00000000000E+00 -0.55664697049E+02  0.19747636682E+04  0.19739789733E+04 0.  0.
        1    1    3    3  502    0 -0.19106486330E+03 -0.94282432617E+03 -0.24865694058E+03  0.99360644429E+03  0.50400001928E-02 0.  1.
       -1    1    3    3    0  502  0.19106486330E+03  0.94282432617E+03  0.19299224353E+03  0.98115722395E+03  0.50400001928E-02 0. -1.
</event>
<event>
 5   0  0.1281789E-04  0.1982362E+04  0.7818609E-02  0.8614911E-01
        2   -1    0    0  501    0  0.00000000000E+00  0.00000000000E+00  0.17603017769E+04  0.17603017769E+04  0.25500000920E-02 0. -1.
       -2   -1    0    0    0  501  0.00000000000E+00  0.00000000000E+00 -0.55810898525E+03  0.55810898526E+03  0.25500000920E-02 0.  1.
    10030    2    1    2    0    0  0.00000000000E+00  0.00000000000E+00  0.12021927917E+04  0.23184107622E+04  0.19823624678E+04 0.  0.
        2    1    3    3  502    0  0.95398297660E+03 -0.26896067764E+03  0.59629243155E+03  0.11567143250E+04  0.25500000920E-02 0. -1.
       -2    1    3    3    0  502 -0.95398297660E+03  0.26896067764E+03  0.60590036012E+03  0.11616964372E+04  0.25500000920E-02 0.  1.
</event>
<event>
 5   0  0.1244229E-04  0.1719608E+04  0.7818609E-02  0.8750260E-01
       -2   -1    0    0    0  501  0.00000000000E+00  0.00000000000E+00  0.60166364967E+03  0.60166364968E+03  0.25500000920E-02 0.  1.
        2   -1    0    0  501    0  0.00000000000E+00  0.00000000000E+00 -0.12286975069E+04  0.12286975069E+04  0.25500000920E-02 0. -1.
    10030    2    1    2    0    0  0.00000000000E+00  0.00000000000E+00 -0.62703385719E+03  0.18303611565E+04  0.17196076603E+04 0.  0.
        5    1    3    3  502    0 -0.61919325347E+03  0.10094677869E+03  0.31226886494E+03  0.70080273350E+03  0.46999998093E+01 0.  1.
       -5    1    3    3    0  502  0.61919325347E+03 -0.10094677869E+03 -0.93930272213E+03  0.11295584230E+04  0.46999998093E+01 0. -1.
</event>
<event>
 5   0  0.1281789E-04  0.2005068E+04  0.7818609E-02  0.8604255E-01
        2   -1    0    0  501    0  0.00000000000E+00  0.00000000000E+00  0.25299437851E+04  0.25299437851E+04  0.25500000920E-02 0.  1.
       -2   -1    0    0    0  501  0.00000000000E+00  0.00000000000E+00 -0.39727163859E+03  0.39727163859E+03  0.25500000920E-02 0. -1.
    10030    2    1    2    0    0  0.00000000000E+00  0.00000000000E+00  0.21326721465E+04  0.29272154237E+04  0.20050684906E+04 0.  0.
        2    1    3    3  502    0 -0.71224395193E+03  0.51804631264E+03  0.36708514799E+03  0.95415666165E+03  0.25500000920E-02 0. -1.
       -2    1    3    3    0  502  0.71224395193E+03 -0.51804631264E+03  0.17655869985E+04  0.19730587620E+04  0.25500000920E-02 0.  1.
</event>
<event>
 5   0  0.6214547E-05  0.1988657E+04  0.7818609E-02  0.8611942E-01
        1   -1    0    0  501    0  0.00000000000E+00  0.00000000000E+00  0.11312075893E+04  0.11312075893E+04  0.50400001928E-02 0.  1.
       -1   -1    0    0    0  501  0.00000000000E+00  0.00000000000E+00 -0.87401241454E+03  0.87401241455E+03  0.50400001928E-02 0. -1.
    10030    2    1    2    0    0  0.00000000000E+00  0.00000000000E+00  0.25719517478E+03  0.20052200039E+04  0.19886573124E+04 0.  0.
        3    1    3    3  502    0  0.55529216702E+03  0.38169022502E+03  0.86588689877E+03  0.10971768090E+04  0.10100000352E+00 0.  1.
       -3    1    3    3    0  502 -0.55529216702E+03 -0.38169022502E+03 -0.60869172400E+03  0.90804319484E+03  0.10100000352E+00 0. -1.
</event>
<event>
 5   0  0.1274868E-04  0.2017566E+04  0.7818609E-02  0.8598452E-01
       -2   -1    0    0    0  501  0.00000000000E+00  0.00000000000E+00  0.70245557570E+03  0.70245557571E+03  0.25500000920E-02 0.  1.
        2   -1    0    0  501    0  0.00000000000E+00  0.00000000000E+00 -0.14486945152E+04  0.14486945152E+04  0.25500000920E-02 0. -1.
    10030    2    1    2    0    0  0.00000000000E+00  0.00000000000E+00 -0.74623893950E+03  0.21511500909E+04  0.20175663951E+04 0.  0.
        1    1    3    3  502    0  0.26621305114E+03 -0.49706085607E+03  0.51874786861E+03  0.76618420399E+03  0.50400001928E-02 0.  1.
       -1    1    3    3    0  502 -0.26621305114E+03  0.49706085607E+03 -0.12649868081E+04  0.13849658869E+04  0.50400001928E-02 0. -1.
</event>
<event>
 5   0  0.6222733E-05  0.2007673E+04  0.7818609E-02  0.8603041E-01
       -1   -1    0    0    0  501  0.00000000000E+00  0.00000000000E+00  0.71555386112E+03  0.71555386113E+03  0.50400001928E-02 0. -1.
        1   -1    0    0  501    0  0.00000000000E+00  0.00000000000E+00 -0.14082632447E+04  0.14082632448E+04  0.50400001928E-02 0.  1.
    10030    2    1    2    0    0  0.00000000000E+00  0.00000000000E+00 -0.69270938363E+03  0.21238171059E+04  0.20076734817E+04 0.  0.
        2    1    3    3  502    0 -0.83742828679E+02  0.98599080904E+03 -0.16777702304E+03  0.10036632236E+04  0.25500000920E-02 0. -1.
       -2    1    3    3    0  502  0.83742828679E+02 -0.98599080904E+03 -0.52493236059E+03  0.11201538823E+04  0.25500000920E-02 0.  1.
</event>
<event>
 5   0  0.6028501E-05  0.2020230E+04  0.7818609E-02  0.8597221E-01
        1   -1    0    0  501    0  0.00000000000E+00  0.00000000000E+00  0.23320937904E+04  0.23320937904E+04  0.50400001928E-02 0.  1.
       -1   -1    0    0    0  501  0.00000000000E+00  0.00000000000E+00 -0.43751751437E+03  0.43751751440E+03  0.50400001928E-02 0. -1.
    10030    2    1    2    0    0  0.00000000000E+00  0.00000000000E+00  0.18945762760E+04  0.27696113048E+04  0.20202295696E+04 0.  0.
        4    1    3    3  502    0  0.27517692761E+03  0.10244921054E+03 -0.37771709877E+03  0.47842449961E+03  0.12699999809E+01 0. -1.
       -4    1    3    3    0  502 -0.27517692761E+03 -0.10244921054E+03  0.22722933748E+04  0.22911868052E+04  0.12699999809E+01 0.  1.
</event>
<event>
 5   0  0.1159914E-04  0.1999251E+04  0.7818609E-02  0.8606971E-01
       -2   -1    0    0    0  501  0.00000000000E+00  0.00000000000E+00  0.10403369675E+04  0.10403369675E+04  0.25500000920E-02 0.  1.
        2   -1    0    0  501    0  0.00000000000E+00  0.00000000000E+00 -0.96050699571E+03  0.96050699572E+03  0.25500000920E-02 0. -1.
    10030    2    1    2    0    0  0.00000000000E+00  0.00000000000E+00  0.79829971741E+02  0.20008439632E+04  0.19992507948E+04 0.  0.
        3    1    3    3  502    0  0.30239787468E+03  0.91999364903E+03 -0.20810932985E+03  0.99052627034E+03  0.10100000352E+00 0. -1.
       -3    1    3    3    0  502 -0.30239787468E+03 -0.91999364903E+03  0.28793930159E+03  0.10103176928E+04  0.10100000352E+00 0.  1.
</event>
<event>
 5   0  0.1244229E-04  0.1996200E+04  0.7818609E-02  0.8608399E-01
       -2   -1    0    0    0  501  0.00000000000E+00  0.00000000000E+00  0.15023171804E+04  0.15023171804E+04  0.25500000920E-02 0. -1.
        2   -1    0    0  501    0  0.00000000000E+00  0.00000000000E+00 -0.66311129342E+03  0.66311129343E+03  0.25500000920E-02 0.  1.
    10030    2    1    2    0    0  0.00000000000E+00  0.00000000000E+00  0.83920588695E+03  0.21654284738E+04  0.19961998784E+04 0.  0.
        5    1    3    3  502    0 -0.36169054713E+03 -0.82572447109E+03  0.88433829321E+03  0.12628211516E+04  0.46999998093E+01 0. -1.
       -5    1    3    3    0  502  0.36169054713E+03  0.82572447109E+03 -0.45132406262E+02  0.90260732222E+03  0.46999998093E+01 0.  1.
</event>
<event>
 5   0  0.1244229E-04  0.2016849E+04  0.7818609E-02  0.8598783E-01
        2   -1    0    0  501    0  0.00000000000E+00  0.00000000000E+00  0.77325685832E+03  0.77325685833E+03  0.25500000920E-02 0.  1.
       -2   -1    0    0    0  501  0.00000000000E+00  0.00000000000E+00 -0.13151127691E+04  0.13151127691E+04  0.25500000920E-02 0. -1.
    10030    2    1    2    0    0  0.00000000000E+00  0.00000000000E+00 -0.54185591082E+03  0.20883696275E+04  0.20168489960E+04 0.  0.
        5    1    3    3  502    0 -0.48784939072E+03 -0.85305166333E+03 -0.36621259854E+02  0.98339075398E+03  0.46999998093E+01 0.  1.
       -5    1    3    3    0  502  0.48784939072E+03  0.85305166333E+03 -0.50523465097E+03  0.11049788735E+04  0.46999998093E+01 0. -1.
</event>
<event>
 5   0  0.1274868E-04  0.1957563E+04  0.7818609E-02  0.8626722E-01
       -2   -1    0    0    0  501  0.00000000000E+00  0.00000000000E+00  0.63053467940E+03  0.63053467940E+03  0.25500000920E-02 0. -1.
        2   -1    0    0  501    0  0.00000000000E+00  0.00000000000E+00 -0.15193665688E+04  0.15193665688E+04  0.25500000920E-02 0.  1.
    10030    2    1    2    0    0  0.00000000000E+00  0.00000000000E+00 -0.88883188939E+03  0.21499012482E+04  0.19575630895E+04 0.  0.
        1    1    3    3  502    0  0.19412960957E+03  0.93821829576E+03 -0.66426825699E+03  0.11658439832E+04  0.50400001928E-02 0.  1.
       -1    1    3    3    0  502 -0.19412960957E+03 -0.93821829576E+03 -0.22456363240E+03  0.98405726502E+03  0.50400001928E-02 0. -1.
</event>
<event>
 5   0  0.6028501E-05  0.1997513E+04  0.7818609E-02  0.8607784E-01
       -1   -1    0    0    0  501  0.00000000000E+00  0.00000000000E+00  0.84025910446E+03  0.84025910447E+03  0.50400001928E-02 0. -1.
        1   -1    0    0  501    0  0.00000000000E+00  0.00000000000E+00 -0.11871515431E+04  0.11871515431E+04  0.50400001928E-02 0.  1.
    10030    2    1    2    0    0  0.00000000000E+00  0.00000000000E+00 -0.34689243868E+03  0.20274106476E+04  0.19975133467E+04 0.  0.
        4    1    3    3  502    0 -0.98130979307E+02 -0.88606948719E+03  0.28358718636E+03  0.93550634974E+03  0.12699999809E+01 0. -1.
       -4    1    3    3    0  502  0.98130979307E+02  0.88606948719E+03 -0.63047962504E+03  0.10919042979E+04  0.12699999809E+01 0.  1.
</event>
<event>
 5   0  0.4479000E-05  0.1992474E+04  0.7818609E-02  0.8610148E-01
       -3   -1    0    0    0  501  0.00000000000E+00  0.00000000000E+00  0.54780375728E+03  0.54780376659E+03  0.10100000352E+00 0.  1.
        3   -1    0    0  501    0  0.00000000000E+00  0.00000000000E+00 -0.18117578542E+04  0.18117578570E+04  0.10100000352E+00 0. -1.
    10030    2    1    2    0    0  0.00000000000E+00  0.00000000000E+00 -0.12639540969E+04  0.23595616236E+04  0.19924736125E+04 0.  0.
        4    1    3    3  502    0 -0.83937307675E+03  0.16296785662E+03 -0.12374229151E+04  0.15041019806E+04  0.12699999809E+01 0. -1.
       -4    1    3    3    0  502  0.83937307675E+03 -0.16296785662E+03 -0.26531181768E+02  0.85545964298E+03  0.12699999809E+01 0.  1.
</event>
<event>
 5   0  0.1244229E-04  0.1972686E+04  0.7818609E-02  0.8619498E-01
       -2   -1    0    0    0  501  0.00000000000E+00  0.00000000000E+00  0.75859510934E+03  0.75859510935E+03  0.25500000920E-02 0.  1.
        2   -1    0    0  501    0  0.00000000000E+00  0.00000000000E+00 -0.12824665031E+04  0.12824665031E+04  0.25500000920E-02 0. -1.
    10030    2    1    2    0    0  0.00000000000E+00  0.00000000000E+00 -0.52387139374E+03  0.20410616124E+04  0.19726863077E+04 0.  0.
        5    1    3    3  502    0  0.93731038067E+02 -0.13532609203E+03  0.74426991336E+03  0.76227190202E+03  0.46999998093E+01 0.  1.
       -5    1    3    3    0  502 -0.93731038067E+02  0.13532609203E+03 -0.12681413071E+04  0.12787897104E+04  0.46999998093E+01 0. -1.
</event>
<event>
 5   0  0.1281789E-04  0.2013405E+04  0.7818609E-02  0.8600379E-01
        2   -1    0    0  501    0  0.00000000000E+00  0.00000000000E+00  0.27011120233E+04  0.27011120233E+04  0.25500000920E-02 0.  1.
       -2   -1    0    0    0  501  0.00000000000E+00  0.00000000000E+00 -0.37519746618E+03  0.37519746618E+03  0.25500000920E-02 0. -1.
    10030    2    1    2    0    0  0.00000000000E+00  0.00000000000E+00  0.23259145571E+04  0.30763094895E+04  0.20134054604E+04 0.  0.
        2    1    3    3  502    0 -0.11469041565E+03 -0.27964681217E+03 -0.30423292263E+03  0.42885184180E+03  0.25500000920E-02 0. -1.
       -2    1    3    3    0  502  0.11469041565E+03  0.27964681217E+03  0.26301474797E+04  0.26474576477E+04  0.25500000920E-02 0.  1.
</event>
<event>
 5   0  0.1159914E-04  0.1993165E+04  0.7818609E-02  0.8609823E-01
        2   -1    0    0  501    0  0.00000000000E+00  0.00000000000E+00  0.91477434538E+03  0.91477434538E+03  0.25500000920E-02 0. -1.
       -2   -1    0    0    0  501  0.00000000000E+00  0.00000000000E+00 -0.10857069021E+04  0.10857069021E+04  0.25500000920E-02 0.  1.
    10030    2    1    2    0    0  0.00000000000E+00  0.00000000000E+00 -0.17093255675E+03  0.20004812475E+04  0.19931651419E+04 0.  0.
        3    1    3    3  502    0  0.80538269372E+03  0.31263349169E+03 -0.58407527160E+03  0.10428446272E+04  0.10100000352E+00 0.  1.
       -3    1    3    3    0  502 -0.80538269372E+03 -0.31263349169E+03  0.41314271485E+03  0.95763662028E+03  0.10100000352E+00 0. -1.
</event>
<event>
 5   0  0.6256535E-05  0.1997602E+04  0.7818609E-02  0.8607743E-01
       -1   -1    0    0    0  501  0.00000000000E+00  0.00000000000E+00  0.84947734827E+03  0.84947734828E+03  0.50400001928E-02 0. -1.
        1   -1    0    0  501    0  0.00000000000E+00  0.00000000000E+00 -0.11743728983E+04  0.11743728983E+04  0.50400001928E-02 0.  1.
    10030    2    1    2    0    0  0.00000000000E+00  0.00000000000E+00 -0.32489554999E+03  0.20238502465E+04  0.19976017376E+04 0.  0.
        1    1    3    3  502    0 -0.31273934903E+03  0.44961916179E+01  0.79858218072E+03  0.85764772229E+03  0.50400001928E-02 0. -1.
       -1    1    3    3    0  502  0.31273934903E+03 -0.44961916179E+01 -0.11234777307E+04  0.11662025243E+04  0.50400001928E-02 0.  1.
</event>
<event>
 5   0  0.1159914E-04  0.1998546E+04  0.7818609E-02  0.8607301E-01
       -2   -1    0    0    0  501  0.00000000000E+00  0.00000000000E+00  0.77785548452E+03  0.77785548452E+03  0.25500000920E-02 0. -1.
        2   -1    0    0  501    0  0.00000000000E+00  0.00000000000E+00 -0.12837177090E+04  0.12837177090E+04  0.25500000920E-02 0.  1.
    10030    2    1    2    0    0  0.00000000000E+00  0.00000000000E+00 -0.50586222448E+03  0.20615731935E+04  0.19985463322E+04 0.  0.
        3    1    3    3  502    0  0.81362915069E+03 -0.40411192182E+03  0.17642600371E+03  0.92543232340E+03  0.10100000352E+00 0. -1.
       -3    1    3    3    0  502 -0.81362915069E+03  0.40411192182E+03 -0.68228822819E+03  0.11361408701E+04  0.10100000352E+00 0.  1.
</event>
<event>
 5   0  0.1244229E-04  0.2003915E+04  0.7818609E-02  0.8604793E-01
        2   -1    0    0  501    0  0.00000000000E+00  0.00000000000E+00  0.25499461446E+04  0.25499461446E+04  0.25500000920E-02 0. -1.
       -2   -1    0    0    0  501  0.00000000000E+00  0.00000000000E+00 -0.39370178816E+03  0.39370178817E+03  0.25500000920E-02 0.  1.
    10030    2    1    2    0    0  0.00000000000E+00  0.00000000000E+00  0.21562443564E+04  0.29436479327E+04  0.20039145260E+04 0.  0.
        5    1    3    3  502    0  0.92576452736E+03 -0.58832932540E+02  0.52186751350E+03  0.10643632208E+04  0.46999998093E+01 0.  1.
       -5    1    3    3    0  502 -0.92576452736E+03  0.58832932540E+02  0.16343768429E+04  0.18792847120E+04  0.46999998093E+01 0. -1.
</event>
<event>
 5   0  0.6256535E-05  0.2106837E+04  0.7818609E-02  0.8558238E-01
        1   -1    0    0  501    0  0.00000000000E+00  0.00000000000E+00  0.23154004572E+04  0.23154004572E+04  0.50400001928E-02 0.  1.
       -1   -1    0    0    0  501  0.00000000000E+00  0.00000000000E+00 -0.47926492747E+03  0.47926492750E+03  0.50400001928E-02 0. -1.
    10030    2    1    2    0    0  0.00000000000E+00  0.00000000000E+00  0.18361355297E+04  0.27946653847E+04  0.21068367115E+04 0.  0.
        1    1    3    3  502    0  0.63854314857E+03  0.33536599660E+03 -0.10036979351E+03  0.72820450406E+03  0.50400001928E-02 0. -1.
       -1    1    3    3    0  502 -0.63854314857E+03 -0.33536599660E+03  0.19365053232E+04  0.20664608806E+04  0.50400001928E-02 0.  1.
</event>
<event>
 5   0  0.6222733E-05  0.1998943E+04  0.7818609E-02  0.8607115E-01
        1   -1    0    0  501    0  0.00000000000E+00  0.00000000000E+00  0.14371571646E+04  0.14371571646E+04  0.50400001928E-02 0.  1.
       -1   -1    0    0    0  501  0.00000000000E+00  0.00000000000E+00 -0.69508294299E+03  0.69508294300E+03  0.50400001928E-02 0. -1.
    10030    2    1    2    0    0  0.00000000000E+00  0.00000000000E+00  0.74207422159E+03  0.21322401076E+04  0.19989431523E+04 0.  0.
        2    1    3    3  502    0 -0.65966283617E+03  0.71804777615E+03  0.60521188219E+03  0.11476188778E+04  0.25500000920E-02 0.  1.
       -2    1    3    3    0  502  0.65966283617E+03 -0.71804777615E+03  0.13686233940E+03  0.98462122982E+03  0.25500000920E-02 0. -1.
</event>
<event>
 5   0  0.1242761E-04  0.2004729E+04  0.7818609E-02  0.8604413E-01
       -2   -1    0    0    0  501  0.00000000000E+00  0.00000000000E+00  0.10332801900E+04  0.10332801900E+04  0.25500000920E-02 0.  1.
        2   -1    0    0  501    0  0.00000000000E+00  0.00000000000E+00 -0.97237339527E+03  0.97237339528E+03  0.25500000920E-02 0. -1.
    10030    2    1    2    0    0  0.00000000000E+00  0.00000000000E+00  0.60906794714E+02  0.20056535853E+04  0.20047285768E+04 0.  0.
        4    1    3    3  502    0  0.28031074177E+03  0.21072416494E+02 -0.93213107481E+03  0.97359545614E+03  0.12699999809E+01 0. -1.
       -4    1    3    3    0  502 -0.28031074177E+03 -0.21072416494E+02  0.99303786952E+03  0.10320581291E+04  0.12699999809E+01 0.  1.
</event>
<event>
 5   0  0.1242761E-04  0.2022097E+04  0.7818609E-02  0.8596359E-01
       -2   -1    0    0    0  501  0.00000000000E+00  0.00000000000E+00  0.66412103379E+03  0.66412103380E+03  0.25500000920E-02 0.  1.
        2   -1    0    0  501    0  0.00000000000E+00  0.00000000000E+00 -0.15392066458E+04  0.15392066458E+04  0.25500000920E-02 0. -1.
    10030    2    1    2    0    0  0.00000000000E+00  0.00000000000E+00 -0.87508561203E+03  0.22033276796E+04  0.20220974347E+04 0.  0.
        4    1    3    3  502    0  0.75864066411E+03  0.15978868795E+03 -0.11446663845E+04  0.13825088885E+04  0.12699999809E+01 0. -1.
       -4    1    3    3    0  502 -0.75864066411E+03 -0.15978868795E+03  0.26958077250E+03  0.82081879111E+03  0.12699999809E+01 0.  1.
</event>
<event>
 5   0  0.1281789E-04  0.1972778E+04  0.7818609E-02  0.8619455E-01
       -2   -1    0    0    0  501  0.00000000000E+00  0.00000000000E+00  0.58032467257E+03  0.58032467257E+03  0.25500000920E-02 0. -1.
        2   -1    0    0  501    0  0.00000000000E+00  0.00000000000E+00 -0.16765840801E+04  0.16765840801E+04  0.25500000920E-02 0.  1.
    10030    2    1    2    0    0  0.00000000000E+00  0.00000000000E+00 -0.10962594076E+04  0.22569087527E+04  0.19727778459E+04 0.  0.
        2    1    3    3  502    0 -0.57031579738E+03 -0.72881720534E+03 -0.15760198998E+03  0.93876142591E+03  0.25500000920E-02 0.  1.
       -2    1    3    3    0  502  0.57031579738E+03  0.72881720534E+03 -0.93865741759E+03  0.13181473268E+04  0.25500000920E-02 0. -1.
</event>
<event>
 5   0  0.1274868E-04  0.2016774E+04  0.7818609E-02  0.8598818E-01
        2   -1    0    0  501    0  0.00000000000E+00  0.00000000000E+00  0.20821780761E+04  0.20821780761E+04  0.25500000920E-02 0.  1.
       -2   -1    0    0    0  501  0.00000000000E+00  0.00000000000E+00 -0.48835624972E+03  0.48835624973E+03  0.25500000920E-02 0. -1.
    10030    2    1    2    0    0  0.00000000000E+00  0.00000000000E+00  0.15938218264E+04  0.25705343258E+04  0.20167743319E+04 0.  0.
        1    1    3    3  502    0 -0.43519611425E+03 -0.30246106577E+03 -0.29652937879E+03  0.60729566660E+03  0.50400001928E-02 0. -1.
       -1    1    3    3    0  502  0.43519611425E+03  0.30246106577E+03  0.18903512051E+04  0.19632386592E+04  0.50400001928E-02 0.  1.
</event>
<event>
 5   0  0.1242761E-04  0.1902799E+04  0.7818609E-02  0.8653465E-01
        2   -1    0    0  501    0  0.00000000000E+00  0.00000000000E+00  0.96638760606E+03  0.96638760606E+03  0.25500000920E-02 0. -1.
       -2   -1    0    0    0  501  0.00000000000E+00  0.00000000000E+00 -0.93664342709E+03  0.93664342709E+03  0.25500000920E-02 0.  1.
    10030    2    1    2    0    0  0.00000000000E+00  0.00000000000E+00  0.29744178968E+02  0.19030310332E+04  0.19027985697E+04 0.  0.
        4    1    3    3  502    0 -0.36899589421E+03 -0.72365243808E+03 -0.48049455456E+03  0.94377298697E+03  0.12699999809E+01 0.  1.
       -4    1    3    3    0  502  0.36899589421E+03  0.72365243808E+03  0.51023873353E+03  0.95925804618E+03  0.12699999809E+01 0. -1.
</event>
<event>
 5   0  0.1159914E-04  0.1997611E+04  0.7818609E-02  0.8607738E-01
        2   -1    0    0  501    0  0.00000000000E+00  0.00000000000E+00  0.13352846156E+04  0.13352846156E+04  0.25500000920E-02 0. -1.
       -2   -1    0    0    0  501  0.00000000000E+00  0.00000000000E+00 -0.74711618581E+03  0.74711618582E+03  0.25500000920E-02 0.  1.
    10030    2    1    2    0    0  0.00000000000E+00  0.00000000000E+00  0.58816842974E+03  0.20824008014E+04  0.19976113225E+04 0.  0.
        3    1    3    3  502    0 -0.82015927768E+03 -0.39160434469E+03 -0.13774185135E+03  0.91923230544E+03  0.10100000352E+00 0.  1.
       -3    1    3    3    0  502  0.82015927768E+03  0.39160434469E+03  0.72591028109E+03  0.11631684959E+04  0.10100000352E+00 0. -1.
</event>
<event>
 5   0  0.6214547E-05  0.2029767E+04  0.7818609E-02  0.8592829E-01
        1   -1    0    0  501    0  0.00000000000E+00  0.00000000000E+00  0.14689937726E+04  0.14689937726E+04  0.50400001928E-02 0.  1.
       -1   -1    0    0    0  501  0.00000000000E+00  0.00000000000E+00 -0.70115259250E+03  0.70115259252E+03  0.50400001928E-02 0. -1.
    10030    2    1    2    0    0  0.00000000000E+00  0.00000000000E+00  0.76784118010E+03  0.21701463651E+04  0.20297672695E+04 0.  0.
        3    1    3    3  502    0  0.34771948720E+03  0.73547067938E+03 -0.26480756141E+03  0.85554019005E+03  0.10100000352E+00 0. -1.
       -3    1    3    3    0  502 -0.34771948720E+03 -0.73547067938E+03  0.10326487415E+04  0.13146061751E+04  0.10100000352E+00 0.  1.
</event>
<event>
 5   0  0.6214547E-05  0.1721636E+04  0.7818609E-02  0.8749120E-01
       -1   -1    0    0    0  501  0.00000000000E+00  0.00000000000E+00  0.88910869969E+03  0.88910869970E+03  0.50400001928E-02 0.  1.
        1   -1    0    0  501    0  0.00000000000E+00  0.00000000000E+00 -0.83342716016E+03  0.83342716018E+03  0.50400001928E-02 0. -1.
    10030    2    1    2    0    0  0.00000000000E+00  0.00000000000E+00  0.55681539525E+02  0.17225358599E+04  0.17216356626E+04 0.  0.
        3    1    3    3  502    0 -0.49136703845E+03 -0.55509880518E+03  0.46559791616E+03  0.87541857401E+03  0.10100000352E+00 0.  1.
       -3    1    3    3    0  502  0.49136703845E+03  0.55509880518E+03 -0.40991637664E+03  0.84711728587E+03  0.10100000352E+00 0. -1.
</event>
<event>
 5   0  0.6028501E-05  0.2025904E+04  0.7818609E-02  0.8594605E-01
       -1   -1    0    0    0  501  0.00000000000E+00  0.00000000000E+00  0.21677342699E+04  0.21677342699E+04  0.50400001928E-02 0.  1.
        1   -1    0    0  501    0  0.00000000000E+00  0.00000000000E+00 -0.47333824636E+03  0.47333824639E+03  0.50400001928E-02 0. -1.
    10030    2    1    2    0    0  0.00000000000E+00  0.00000000000E+00  0.16943960235E+04  0.26410725163E+04  0.20259037864E+04 0.  0.
        4    1    3    3  502    0 -0.28856405984E+03 -0.27750206349E+03  0.20602198604E+04  0.20987577512E+04  0.12699999809E+01 0.  1.
       -4    1    3    3    0  502  0.28856405984E+03  0.27750206349E+03 -0.36582383693E+03  0.54231476510E+03  0.12699999809E+01 0. -1.
</event>
<event>
 5   0  0.6256535E-05  0.1934062E+04  0.7818609E-02  0.8638085E-01
        1   -1    0    0  501    0  0.00000000000E+00  0.00000000000E+00  0.74319253811E+03  0.74319253813E+03  0.50400001928E-02 0. -1.
       -1   -1    0    0    0  501  0.00000000000E+00  0.00000000000E+00 -0.12582860974E+04  0.12582860975E+04  0.50400001928E-02 0.  1.
    10030    2    1    2    0    0  0.00000000000E+00  0.00000000000E+00 -0.51509355934E+03  0.20014786356E+04  0.19340618795E+04 0.  0.
        1    1    3    3  502    0  0.32395307643E+03 -0.26509526759E+03  0.64457827197E+03  0.76857156164E+03  0.50400001928E-02 0. -1.
       -1    1    3    3    0  502 -0.32395307643E+03  0.26509526759E+03 -0.11596718313E+04  0.12329070739E+04  0.50400001928E-02 0.  1.
</event>
<event>
 5   0  0.1274868E-04  0.2015955E+04  0.7818609E-02  0.8599197E-01
       -2   -1    0    0    0  501  0.00000000000E+00  0.00000000000E+00  0.12136565807E+04  0.12136565807E+04  0.25500000920E-02 0.  1.
        2   -1    0    0  501    0  0.00000000000E+00  0.00000000000E+00 -0.83715494469E+03  0.83715494470E+03  0.25500000920E-02 0. -1.
    10030    2    1    2    0    0  0.00000000000E+00  0.00000000000E+00  0.37650163596E+03  0.20508115254E+04  0.20159549674E+04 0.  0.
        1    1    3    3  502    0  0.57270754912E+03 -0.27827674219E+03  0.98316199232E+03  0.11713408493E+04  0.50400001928E-02 0.  1.
       -1    1    3    3    0  502 -0.57270754912E+03  0.27827674219E+03 -0.60666035635E+03  0.87947067606E+03  0.50400001928E-02 0. -1.
</event>
<event>
 5   0  0.1242761E-04  0.2004014E+04  0.7818609E-02  0.8604746E-01
       -2   -1    0    0    0  501  0.00000000000E+00  0.00000000000E+00  0.46892443328E+03  0.46892443329E+03  0.25500000920E-02 0.  1.
        2   -1    0    0  501    0  0.00000000000E+00  0.00000000000E+00 -0.21411093090E+04  0.21411093090E+04  0.25500000920E-02 0. -1.
    10030    2    1    2    0    0  0.00000000000E+00  0.00000000000E+00 -0.16721848757E+04  0.26100337423E+04  0.20040144404E+04 0.  0.
        4    1    3    3  502    0  0.74304733954E+03 -0.63330076424E+03 -0.11297189654E+04  0.14931362163E+04  0.12699999809E+01 0. -1.
       -4    1    3    3    0  502 -0.74304733954E+03  0.63330076424E+03 -0.54246591031E+03  0.11168975260E+04  0.12699999809E+01 0.  1.
</event>
<event>
 5   0  0.1281789E-04  0.1905869E+04  0.7818609E-02  0.8651940E-01
       -2   -1    0    0    0  501  0.00000000000E+00  0.00000000000E+00  0.56503733095E+03  0.56503733096E+03  0.25500000920E-02 0. -1.
        2   -1    0    0  501    0  0.00000000000E+00  0.00000000000E+00 -0.16071226001E+04  0.16071226001E+04  0.25500000920E-02 0.  1.
    10030    2    1    2    0    0  0.00000000000E+00  0.00000000000E+00 -0.10420852691E+04  0.21721599311E+04  0.19058691083E+04 0.  0.
        2    1    3    3  502    0 -0.23520367815E+03 -0.87518204420E+03 -0.85686400338E+03  0.12471889596E+04  0.25500000920E-02 0.  1.
       -2    1    3    3    0  502  0.23520367815E+03  0.87518204420E+03 -0.18522126577E+03  0.92497097144E+03  0.25500000920E-02 0. -1.
</event>
<event>
 5   0  0.6168338E-05  0.2009194E+04  0.7818609E-02  0.8602334E-01
        1   -1    0    0  501    0  0.00000000000E+00  0.00000000000E+00  0.12297403354E+04  0.12297403354E+04  0.50400001928E-02 0.  1.
       -1   -1    0    0    0  501  0.00000000000E+00  0.00000000000E+00 -0.82067301517E+03  0.82067301518E+03  0.50400001928E-02 0. -1.
    10030    2    1    2    0    0  0.00000000000E+00  0.00000000000E+00  0.40906732022E+03  0.20504133506E+04  0.20091935785E+04 0.  0.
        5    1    3    3  502    0 -0.62380389874E+03 -0.26027238796E+02  0.10076890808E+04  0.11854400427E+04  0.46999998093E+01 0.  1.
       -5    1    3    3    0  502  0.62380389874E+03  0.26027238796E+02 -0.59862176053E+03  0.86497330793E+03  0.46999998093E+01 0. -1.
</event>
<event>
 5   0  0.6214547E-05  0.1956559E+04  0.7818609E-02  0.8627205E-01
        1   -1    0    0  501    0  0.00000000000E+00  0.00000000000E+00  0.67853712182E+03  0.67853712184E+03  0.50400001928E-02 0. -1.
       -1   -1    0    0    0  501  0.00000000000E+00  0.00000000000E+00 -0.14104319724E+04  0.14104319724E+04  0.50400001928E-02 0.  1.
    10030    2    1    2    0    0  0.00000000000E+00  0.00000000000E+00 -0.73189485060E+03  0.20889690943E+04  0.19565586637E+04 0.  0.
        3    1    3    3  502    0 -0.34507994816E+02 -0.40939387771E+03  0.58196311897E+03  0.71237295769E+03  0.10100000352E+00 0. -1.
       -3    1    3    3    0  502  0.34507994816E+02  0.40939387771E+03 -0.13138579696E+04  0.13765961366E+04  0.10100000352E+00 0.  1.
</event>
<event>
 5   0  0.1274868E-04  0.1992324E+04  0.7818609E-02  0.8610218E-01
       -2   -1    0    0    0  501  0.00000000000E+00  0.00000000000E+00  0.18943812440E+04  0.18943812440E+04  0.25500000920E-02 0. -1.
        2   -1    0    0  501    0  0.00000000000E+00  0.00000000000E+00 -0.52383262390E+03  0.52383262391E+03  0.25500000920E-02 0.  1.
    10030    2    1    2    0    0  0.00000000000E+00  0.00000000000E+00  0.13705486201E+04  0.24182138679E+04  0.19923239673E+04 0.  0.
        1    1    3    3  502    0 -0.95497490790E+03 -0.36808427620E+02  0.34410741643E+03  0.10157469415E+04  0.50400001928E-02 0.  1.
       -1    1    3    3    0  502  0.95497490790E+03  0.36808427620E+02  0.10264412036E+04  0.14024669264E+04  0.50400001928E-02 0. -1.
</event>
<event>
 5   0  0.6028501E-05  0.2032710E+04  0.7818609E-02  0.8591479E-01
        1   -1    0    0  501    0  0.00000000000E+00  0.00000000000E+00  0.19403246312E+04  0.19403246312E+04  0.50400001928E-02 0.  1.
       -1   -1    0    0    0  501  0.00000000000E+00  0.00000000000E+00 -0.53237361299E+03  0.53237361302E+03  0.50400001928E-02 0. -1.
    10030    2    1    2    0    0  0.00000000000E+00  0.00000000000E+00  0.14079510182E+04  0.24726982442E+04  0.20327101459E+04 0.  0.
        4    1    3    3  502    0  0.19919780483E+03 -0.81096307593E+03 -0.76523562412E+00  0.83507070028E+03  0.12699999809E+01 0. -1.
       -4    1    3    3    0  502 -0.19919780483E+03  0.81096307593E+03  0.14087162538E+04  0.16376275439E+04  0.12699999809E+01 0.  1.
</event>
<event>
 5   0  0.6214547E-05  0.2004000E+04  0.7818609E-02  0.8604753E-01
       -1   -1    0    0    0  501  0.00000000000E+00  0.00000000000E+00  0.60342528023E+03  0.60342528025E+03  0.50400001928E-02 0.  1.
        1   -1    0    0  501    0  0.00000000000E+00  0.00000000000E+00 -0.16638416591E+04  0.16638416591E+04  0.50400001928E-02 0. -1.
    10030    2    1    2    0    0  0.00000000000E+00  0.00000000000E+00 -0.10604163789E+04  0.22672669394E+04  0.20040001192E+04 0.  0.
        3    1    3    3  502    0  0.42376942555E+03  0.24438605900E+03 -0.15195587041E+04  0.15963595263E+04  0.10100000352E+00 0. -1.
       -3    1    3    3    0  502 -0.42376942555E+03 -0.24438605900E+03  0.45914232523E+03  0.67090741305E+03  0.10100000352E+00 0.  1.
</event>
<event>
 5   0  0.6256535E-05  0.2017346E+04  0.7818609E-02  0.8598553E-01
       -1   -1    0    0    0  501  0.00000000000E+00  0.00000000000E+00  0.77409390564E+03  0.77409390566E+03  0.50400001928E-02 0. -1.
        1   -1    0    0  501    0  0.00000000000E+00  0.00000000000E+00 -0.13143387258E+04  0.13143387258E+04  0.50400001928E-02 0.  1.
    10030    2    1    2    0    0  0.00000000000E+00  0.00000000000E+00 -0.54024482014E+03  0.20884326315E+04  0.20173463734E+04 0.  0.
        1    1    3    3  502    0  0.45653002112E+03  0.88467156868E+03 -0.10204959066E+03  0.10007385091E+04  0.50400001928E-02 0. -1.
       -1    1    3    3    0  502 -0.45653002112E+03 -0.88467156868E+03 -0.43819522948E+03  0.10876941223E+04  0.50400001928E-02 0.  1.
</event>
<event>
 5   0  0.6168338E-05  0.1990429E+04  0.7818609E-02  0.8611109E-01
       -1   -1    0    0    0  501  0.00000000000E+00  0.00000000000E+00  0.75070647092E+03  0.75070647093E+03  0.50400001928E-02 0.  1.
        1   -1    0    0  501    0  0.00000000000E+00  0.00000000000E+00 -0.13193595527E+04  0.13193595527E+04  0.50400001928E-02 0. -1.
    10030    2    1    2    0    0  0.00000000000E+00  0.00000000000E+00 -0.56865308176E+03  0.20700660236E+04  0.19904288520E+04 0.  0.
        5    1    3    3  502    0  0.31211964394E+03  0.26257792208E+03  0.65977338645E+03  0.77568605039E+03  0.46999998093E+01 0.  1.
       -5    1    3    3    0  502 -0.31211964394E+03 -0.26257792208E+03 -0.12284264682E+04  0.12943799732E+04  0.46999998093E+01 0. -1.
</event>
<event>
 5   0  0.6214547E-05  0.1989796E+04  0.7818609E-02  0.8611406E-01
       -1   -1    0    0    0  501  0.00000000000E+00  0.00000000000E+00  0.87573516551E+03  0.87573516553E+03  0.50400001928E-02 0.  1.
        1   -1    0    0  501    0  0.00000000000E+00  0.00000000000E+00 -0.11302759384E+04  0.11302759385E+04  0.50400001928E-02 0. -1.
    10030    2    1    2    0    0  0.00000000000E+00  0.00000000000E+00 -0.25454077293E+03  0.20060111040E+04  0.19897963575E+04 0.  0.
        3    1    3    3  502    0 -0.42774446651E+03 -0.75859169352E+03  0.35768560992E+03  0.94146996333E+03  0.10100000352E+00 0.  1.
       -3    1    3    3    0  502  0.42774446651E+03  0.75859169352E+03 -0.61222638285E+03  0.10645411407E+04  0.10100000352E+00 0. -1.
</event>
<event>
 5   0  0.1242761E-04  0.1999473E+04  0.7818609E-02  0.8606867E-01
        2   -1    0    0  501    0  0.00000000000E+00  0.00000000000E+00  0.15424523634E+04  0.15424523634E+04  0.25500000920E-02 0.  1.
       -2   -1    0    0    0  501  0.00000000000E+00  0.00000000000E+00 -0.64797630895E+03  0.64797630896E+03  0.25500000920E-02 0. -1.
    10030    2    1    2    0    0  0.00000000000E+00  0.00000000000E+00  0.89447605444E+03  0.21904286724E+04  0.19994725196E+04 0.  0.
        4    1    3    3  502    0 -0.49571034908E+03  0.84593613962E+03  0.23330816272E+03  0.10078546593E+04  0.12699999809E+01 0.  1.
       -4    1    3    3    0  502  0.49571034908E+03 -0.84593613962E+03  0.66116789172E+03  0.11825740131E+04  0.12699999809E+01 0. -1.
</event>
<event>
 5   0  0.1274868E-04  0.1982912E+04  0.7818609E-02  0.8614652E-01
        2   -1    0    0  501    0  0.00000000000E+00  0.00000000000E+00  0.20234683211E+04  0.20234683211E+04  0.25500000920E-02 0.  1.
       -2   -1    0    0    0  501  0.00000000000E+00  0.00000000000E+00 -0.48579219891E+03  0.48579219892E+03  0.25500000920E-02 0. -1.
    10030    2    1    2    0    0  0.00000000000E+00  0.00000000000E+00  0.15376761222E+04  0.25092605200E+04  0.19829121263E+04 0.  0.
        1    1    3    3  502    0  0.26892398108E+03  0.19958141019E+03 -0.41205220839E+03  0.53098010260E+03  0.50400001928E-02 0. -1.
       -1    1    3    3    0  502 -0.26892398108E+03 -0.19958141019E+03  0.19497283306E+04  0.19782804174E+04  0.50400001928E-02 0.  1.
</event>
<event>
 5   0  0.6028501E-05  0.2025798E+04  0.7818609E-02  0.8594653E-01
        1   -1    0    0  501    0  0.00000000000E+00  0.00000000000E+00  0.18814546694E+04  0.18814546694E+04  0.50400001928E-02 0. -1.
       -1   -1    0    0    0  501  0.00000000000E+00  0.00000000000E+00 -0.54530400572E+03  0.54530400575E+03  0.50400001928E-02 0.  1.
    10030    2    1    2    0    0  0.00000000000E+00  0.00000000000E+00  0.13361506637E+04  0.24267586752E+04  0.20257983788E+04 0.  0.
        4    1    3    3  502    0 -0.57062322672E+03  0.19784871922E+03 -0.30601554969E+03  0.67705399499E+03  0.12699999809E+01 0.  1.
       -4    1    3    3    0  502  0.57062322672E+03 -0.19784871922E+03  0.16421662134E+04  0.17497046802E+04  0.12699999809E+01 0. -1.
</event>
<event>
 5   0  0.1244229E-04  0.2124069E+04  0.7818609E-02  0.8550714E-01
        2   -1    0    0  501    0  0.00000000000E+00  0.00000000000E+00  0.12059663787E+04  0.12059663787E+04  0.25500000920E-02 0. -1.
       -2   -1    0    0    0  501  0.00000000000E+00  0.00000000000E+00 -0.93528101784E+03  0.93528101785E+03  0.25500000920E-02 0.  1.
    10030    2    1    2    0    0  0.00000000000E+00  0.00000000000E+00  0.27068536086E+03  0.21412473965E+04  0.21240691723E+04 0.  0.
        5    1    3    3  502    0  0.10175692592E+04 -0.29799605667E+03  0.74467844887E+02  0.10629282181E+04  0.46999998093E+01 0.  1.
       -5    1    3    3    0  502 -0.10175692592E+04  0.29799605667E+03  0.19621751597E+03  0.10783191784E+04  0.46999998093E+01 0. -1.
</event>
<event>
 5   0  0.6028501E-05  0.1995280E+04  0.7818609E-02  0.8608830E-01
        1   -1    0    0  501    0  0.00000000000E+00  0.00000000000E+00  0.86313620799E+03  0.86313620801E+03  0.50400001928E-02 0.  1.
       -1   -1    0    0    0  501  0.00000000000E+00  0.00000000000E+00 -0.11531040142E+04  0.11531040142E+04  0.50400001928E-02 0. -1.
    10030    2    1    2    0    0  0.00000000000E+00  0.00000000000E+00 -0.28996780621E+03  0.20162402222E+04  0.19952802573E+04 0.  0.
        4    1    3    3  502    0 -0.57485251696E+03 -0.44623382703E+03  0.54461002949E+03  0.90894540087E+03  0.12699999809E+01 0.  1.
       -4    1    3    3    0  502  0.57485251696E+03  0.44623382703E+03 -0.83457783570E+03  0.11072948214E+04  0.12699999809E+01 0. -1.
</event>
<event>
 5   0  0.6256535E-05  0.2014331E+04  0.7818609E-02  0.8599950E-01
        1   -1    0    0  501    0  0.00000000000E+00  0.00000000000E+00  0.13260810004E+04  0.13260810004E+04  0.50400001928E-02 0. -1.
       -1   -1    0    0    0  501  0.00000000000E+00  0.00000000000E+00 -0.76494762273E+03  0.76494762274E+03  0.50400001928E-02 0.  1.
    10030    2    1    2    0    0  0.00000000000E+00  0.00000000000E+00  0.56113337770E+03  0.20910286232E+04  0.20143311633E+04 0.  0.
        1    1    3    3  502    0 -0.97759472519E+03  0.24052465646E+03  0.25049916969E+03  0.10374456088E+04  0.50400001928E-02 0.  1.
       -1    1    3    3    0  502  0.97759472519E+03 -0.24052465646E+03  0.31063420801E+03  0.10535830144E+04  0.50400001928E-02 0. -1.
</event>
<event>
 5   0  0.6256535E-05  0.2022663E+04  0.7818609E-02  0.8596098E-01
        1   -1    0    0  501    0  0.00000000000E+00  0.00000000000E+00  0.12829212565E+04  0.12829212566E+04  0.50400001928E-02 0. -1.
       -1   -1    0    0    0  501  0.00000000000E+00  0.00000000000E+00 -0.79723617021E+03  0.79723617023E+03  0.50400001928E-02 0.  1.
    10030    2    1    2    0    0  0.00000000000E+00  0.00000000000E+00  0.48568508634E+03  0.20801574268E+04  0.20226628283E+04 0.  0.
        1    1    3    3  502    0 -0.79081702096E+03 -0.59544349124E+03  0.29964196904E+02  0.99037486086E+03  0.50400001928E-02 0. -1.
       -1    1    3    3    0  502  0.79081702096E+03  0.59544349124E+03  0.45572088944E+03  0.10897825659E+04  0.50400001928E-02 0.  1.
</event>
<event>
 5   0  0.6214547E-05  0.1997493E+04  0.7818609E-02  0.8607794E-01
       -1   -1    0    0    0  501  0.00000000000E+00  0.00000000000E+00  0.38261326150E+03  0.38261326154E+03  0.50400001928E-02 0.  1.
        1   -1    0    0  501    0  0.00000000000E+00  0.00000000000E+00 -0.26070572772E+04  0.26070572773E+04  0.50400001928E-02 0. -1.
    10030    2    1    2    0    0  0.00000000000E+00  0.00000000000E+00 -0.22244440157E+04  0.29896705388E+04  0.19974931167E+04 0.  0.
        3    1    3    3  502    0 -0.69684186236E+03 -0.14530616913E+02 -0.41581652654E+02  0.69823260021E+03  0.10100000352E+00 0.  1.
       -3    1    3    3    0  502  0.69684186236E+03  0.14530616913E+02 -0.21828623631E+04  0.22914379386E+04  0.10100000352E+00 0. -1.
</event>
<event>
 5   0  0.1244229E-04  0.2009461E+04  0.7818609E-02  0.8602210E-01
       -2   -1    0    0    0  501  0.00000000000E+00  0.00000000000E+00  0.15119444975E+04  0.15119444975E+04  0.25500000920E-02 0.  1.
        2   -1    0    0  501    0  0.00000000000E+00  0.00000000000E+00 -0.66767230865E+03  0.66767230865E+03  0.25500000920E-02 0. -1.
    10030    2    1    2    0    0  0.00000000000E+00  0.00000000000E+00  0.84427218887E+03  0.21796168062E+04  0.20094610951E+04 0.  0.
        5    1    3    3  502    0 -0.35391869427E+03 -0.70436090971E+03  0.10978462108E+04  0.13515439785E+04  0.46999998093E+01 0.  1.
       -5    1    3    3    0  502  0.35391869427E+03  0.70436090971E+03 -0.25357402194E+03  0.82807282765E+03  0.46999998093E+01 0. -1.
</event>
<event>
 5   0  0.1274868E-04  0.1989067E+04  0.7818609E-02  0.8611749E-01
        2   -1    0    0  501    0  0.00000000000E+00  0.00000000000E+00  0.14748187951E+04  0.14748187951E+04  0.25500000920E-02 0. -1.
       -2   -1    0    0    0  501  0.00000000000E+00  0.00000000000E+00 -0.67065681496E+03  0.67065681497E+03  0.25500000920E-02 0.  1.
    10030    2    1    2    0    0  0.00000000000E+00  0.00000000000E+00  0.80416198014E+03  0.21454756101E+04  0.19890673953E+04 0.  0.
        1    1    3    3  502    0  0.50101892059E+03  0.25426028134E+03  0.12872373600E+04  0.14045099752E+04  0.50400001928E-02 0. -1.
       -1    1    3    3    0  502 -0.50101892059E+03 -0.25426028134E+03 -0.48307537984E+03  0.74096563489E+03  0.50400001928E-02 0.  1.
</event>
<event>
 5   0  0.6028501E-05  0.1980947E+04  0.7818609E-02  0.8615581E-01
        1   -1    0    0  501    0  0.00000000000E+00  0.00000000000E+00  0.97398055910E+03  0.97398055911E+03  0.50400001928E-02 0.  1.
       -1   -1    0    0    0  501  0.00000000000E+00  0.00000000000E+00 -0.10072460270E+04  0.10072460270E+04  0.50400001928E-02 0. -1.
    10030    2    1    2    0    0  0.00000000000E+00  0.00000000000E+00 -0.33265467937E+02  0.19812265862E+04  0.19809472972E+04 0.  0.
        4    1    3    3  502    0  0.13232663687E+03  0.56171033475E+03  0.78846994992E+03  0.97709534531E+03  0.12699999809E+01 0.  1.
       -4    1    3    3    0  502 -0.13232663687E+03 -0.56171033475E+03 -0.82173541786E+03  0.10041312409E+04  0.12699999809E+01 0. -1.
</event>
<event>
 5   0  0.6214547E-05  0.1935011E+04  0.7818609E-02  0.8637623E-01
       -1   -1    0    0    0  501  0.00000000000E+00  0.00000000000E+00  0.32702602163E+04  0.32702602163E+04  0.50400001928E-02 0.  1.
        1   -1    0    0  501    0  0.00000000000E+00  0.00000000000E+00 -0.28623618334E+03  0.28623618339E+03  0.50400001928E-02 0. -1.
    10030    2    1    2    0    0  0.00000000000E+00  0.00000000000E+00  0.29840240329E+04  0.35564963996E+04  0.19350109074E+04 0.  0.
        3    1    3    3  502    0  0.16140995310E+02  0.78544501697E+03  0.25299089328E+04  0.26490797695E+04  0.10100000352E+00 0.  1.
       -3    1    3    3    0  502 -0.16140995310E+02 -0.78544501697E+03  0.45411510010E+03  0.90741663019E+03  0.10100000352E+00 0. -1.
</event>
<event>
 5   0  0.1244229E-04  0.2027851E+04  0.7818609E-02  0.8593709E-01
       -2   -1    0    0    0  501  0.00000000000E+00  0.00000000000E+00  0.66916568234E+03  0.66916568234E+03  0.25500000920E-02 0. -1.
        2   -1    0    0  501    0  0.00000000000E+00  0.00000000000E+00 -0.15363082122E+04  0.15363082122E+04  0.25500000920E-02 0.  1.
    10030    2    1    2    0    0  0.00000000000E+00  0.00000000000E+00 -0.86714252988E+03  0.22054738946E+04  0.20278508161E+04 0.  0.
        5    1    3    3  502    0 -0.18697242759E+03 -0.69279603704E+02 -0.15147623879E+04  0.15278368806E+04  0.46999998093E+01 0.  1.
       -5    1    3    3    0  502  0.18697242759E+03  0.69279603704E+02  0.64761985799E+03  0.67763701391E+03  0.46999998093E+01 0. -1.
</event>
<event>
 5   0  0.6214547E-05  0.1623919E+04  0.7818609E-02  0.8805987E-01
       -1   -1    0    0    0  501  0.00000000000E+00  0.00000000000E+00  0.34100706289E+03  0.34100706293E+03  0.50400001928E-02 0.  1.
        1   -1    0    0  501    0  0.00000000000E+00  0.00000000000E+00 -0.19333268041E+04  0.19333268041E+04  0.50400001928E-02 0. -1.
    10030    2    1    2    0    0  0.00000000000E+00  0.00000000000E+00 -0.15923197412E+04  0.22743338670E+04  0.16239188343E+04 0.  0.
        3    1    3    3  502    0  0.17285378505E+03  0.64160140860E+03 -0.14262874663E+03  0.67961295462E+03  0.10100000352E+00 0.  1.
       -3    1    3    3    0  502 -0.17285378505E+03 -0.64160140860E+03 -0.14496909946E+04  0.15947209124E+04  0.10100000352E+00 0. -1.
</event>
<event>
 5   0  0.6214547E-05  0.1998017E+04  0.7818609E-02  0.8607548E-01
       -1   -1    0    0    0  501  0.00000000000E+00  0.00000000000E+00  0.69238753115E+03  0.69238753117E+03  0.50400001928E-02 0. -1.
        1   -1    0    0  501    0  0.00000000000E+00  0.00000000000E+00 -0.14414148378E+04  0.14414148378E+04  0.50400001928E-02 0.  1.
    10030    2    1    2    0    0  0.00000000000E+00  0.00000000000E+00 -0.74902730666E+03  0.21338023690E+04  0.19980166775E+04 0.  0.
        3    1    3    3  502    0  0.16507856952E+02  0.54814919849E+03 -0.12662940885E+04  0.13799423111E+04  0.10100000352E+00 0.  1.
       -3    1    3    3    0  502 -0.16507856952E+02 -0.54814919849E+03  0.51726678182E+03  0.75386005792E+03  0.10100000352E+00 0. -1.
</event>
<event>
 5   0  0.1242761E-04  0.2001920E+04  0.7818609E-02  0.8605724E-01
        2   -1    0    0  501    0  0.00000000000E+00  0.00000000000E+00  0.95647930064E+03  0.95647930065E+03  0.25500000920E-02 0. -1.
       -2   -1    0    0    0  501  0.00000000000E+00  0.00000000000E+00 -0.10475088666E+04  0.10475088666E+04  0.25500000920E-02 0.  1.
    10030    2    1    2    0    0  0.00000000000E+00  0.00000000000E+00 -0.91029565949E+02  0.20039881672E+04  0.20019196269E+04 0.  0.
        4    1    3    3  502    0  0.34127673094E+03  0.12934987645E+03  0.88749857154E+03  0.95961269531E+03  0.12699999809E+01 0. -1.
       -4    1    3    3    0  502 -0.34127673094E+03 -0.12934987645E+03 -0.97852813749E+03  0.10443754719E+04  0.12699999809E+01 0.  1.
</event>
<event>
 5   0  0.1281789E-04  0.2010103E+04  0.7818609E-02  0.8601912E-01
       -2   -1    0    0    0  501  0.00000000000E+00  0.00000000000E+00  0.74574768325E+03  0.74574768326E+03  0.25500000920E-02 0. -1.
        2   -1    0    0  501    0  0.00000000000E+00  0.00000000000E+00 -0.13545177323E+04  0.13545177323E+04  0.25500000920E-02 0.  1.
    10030    2    1    2    0    0  0.00000000000E+00  0.00000000000E+00 -0.60877004908E+03  0.21002654156E+04  0.20101029435E+04 0.  0.
        2    1    3    3  502    0  0.25587301618E+03  0.30595035445E+03  0.65951921244E+03  0.77074133883E+03  0.25500000920E-02 0. -1.
       -2    1    3    3    0  502 -0.25587301618E+03 -0.30595035445E+03 -0.12682892615E+04  0.13295240768E+04  0.25500000920E-02 0.  1.
</event>
<event>
 5   0  0.6222733E-05  0.1879472E+04  0.7818609E-02  0.8665142E-01
       -1   -1    0    0    0  501  0.00000000000E+00  0.00000000000E+00  0.14304822735E+04  0.14304822735E+04  0.50400001928E-02 0.  1.
        1   -1    0    0  501    0  0.00000000000E+00  0.00000000000E+00 -0.61734684087E+03  0.61734684089E+03  0.50400001928E-02 0. -1.
    10030    2    1    2    0    0  0.00000000000E+00  0.00000000000E+00  0.81313543266E+03  0.20478291144E+04  0.18794719604E+04 0.  0.
        2    1    3    3  502    0  0.73932171736E+03 -0.30231380058E+03 -0.13287018530E+03  0.80971891538E+03  0.25500000920E-02 0. -1.
       -2    1    3    3    0  502 -0.73932171736E+03  0.30231380058E+03  0.94600561796E+03  0.12381101991E+04  0.25500000920E-02 0.  1.
</event>
<event>
 5   0  0.1281789E-04  0.1990909E+04  0.7818609E-02  0.8610883E-01
       -2   -1    0    0    0  501  0.00000000000E+00  0.00000000000E+00  0.45093318267E+03  0.45093318268E+03  0.25500000920E-02 0. -1.
        2   -1    0    0  501    0  0.00000000000E+00  0.00000000000E+00 -0.21975084906E+04  0.21975084906E+04  0.25500000920E-02 0.  1.
    10030    2    1    2    0    0  0.00000000000E+00  0.00000000000E+00 -0.17465753079E+04  0.26484416733E+04  0.19909088353E+04 0.  0.
        2    1    3    3  502    0  0.14254087384E+03  0.37809982008E+03  0.33692852803E+03  0.52611615415E+03  0.25500000920E-02 0. -1.
       -2    1    3    3    0  502 -0.14254087384E+03 -0.37809982008E+03 -0.20835038359E+04  0.21223255191E+04  0.25500000920E-02 0.  1.
</event>
<event>
 5   0  0.6222733E-05  0.1979469E+04  0.7818609E-02  0.8616280E-01
        1   -1    0    0  501    0  0.00000000000E+00  0.00000000000E+00  0.12854210377E+04  0.12854210377E+04  0.50400001928E-02 0.  1.
       -1   -1    0    0    0  501  0.00000000000E+00  0.00000000000E+00 -0.76206525089E+03  0.76206525090E+03  0.50400001928E-02 0. -1.
    10030    2    1    2    0    0  0.00000000000E+00  0.00000000000E+00  0.52335578678E+03  0.20474862886E+04  0.19794693285E+04 0.  0.
        2    1    3    3  502    0 -0.43888540942E+03 -0.51278696259E+03 -0.48707662741E+03  0.83235479970E+03  0.25500000920E-02 0. -1.
       -2    1    3    3    0  502  0.43888540942E+03  0.51278696259E+03  0.10104324142E+04  0.12151314889E+04  0.25500000920E-02 0.  1.
</event>
<event>
 5   0  0.6256535E-05  0.2074506E+04  0.7818609E-02  0.8572558E-01
       -1   -1    0    0    0  501  0.00000000000E+00  0.00000000000E+00  0.13991117369E+04  0.13991117369E+04  0.50400001928E-02 0. -1.
        1   -1    0    0  501    0  0.00000000000E+00  0.00000000000E+00 -0.76898356895E+03  0.76898356896E+03  0.50400001928E-02 0.  1.
    10030    2    1    2    0    0  0.00000000000E+00  0.00000000000E+00  0.63012816794E+03  0.21680953059E+04  0.20745061454E+04 0.  0.
        1    1    3    3  502    0 -0.72079502305E+03 -0.79774639258E+01 -0.46442897525E+03  0.85749832551E+03  0.50400001928E-02 0.  1.
       -1    1    3    3    0  502  0.72079502305E+03  0.79774639258E+01  0.10945571432E+04  0.13105969804E+04  0.50400001928E-02 0. -1.
</event>
<event>
 5   0  0.1281789E-04  0.2010143E+04  0.7818609E-02  0.8601893E-01
        2   -1    0    0  501    0  0.00000000000E+00  0.00000000000E+00  0.29421300338E+04  0.29421300338E+04  0.25500000920E-02 0. -1.
       -2   -1    0    0    0  501  0.00000000000E+00  0.00000000000E+00 -0.34334615240E+03  0.34334615241E+03  0.25500000920E-02 0.  1.
    10030    2    1    2    0    0  0.00000000000E+00  0.00000000000E+00  0.25987838814E+04  0.32854761862E+04  0.20101433053E+04 0.  0.
        2    1    3    3  502    0 -0.52655983059E+03  0.44096651234E+03  0.10004474294E+03  0.69406460132E+03  0.25500000920E-02 0.  1.
       -2    1    3    3    0  502  0.52655983059E+03 -0.44096651234E+03  0.24987391385E+04  0.25914115849E+04  0.25500000920E-02 0. -1.
</event>
<event>
 5   0  0.1242761E-04  0.1853616E+04  0.7818609E-02  0.8678296E-01
        2   -1    0    0  501    0  0.00000000000E+00  0.00000000000E+00  0.18983795171E+04  0.18983795171E+04  0.25500000920E-02 0. -1.
       -2   -1    0    0    0  501  0.00000000000E+00  0.00000000000E+00 -0.45247680901E+03  0.45247680901E+03  0.25500000920E-02 0.  1.
    10030    2    1    2    0    0  0.00000000000E+00  0.00000000000E+00  0.14459027081E+04  0.23508563261E+04  0.18536156087E+04 0.  0.
        4    1    3    3  502    0  0.72643700807E+02 -0.63519248605E+03  0.15739345183E+04  0.16988284441E+04  0.12699999809E+01 0. -1.
       -4    1    3    3    0  502 -0.72643700807E+02  0.63519248605E+03 -0.12803181023E+03  0.65202788202E+03  0.12699999809E+01 0.  1.
</event>
<event>
 5   0  0.1274868E-04  0.2006683E+04  0.7818609E-02  0.8603503E-01
        2   -1    0    0  501    0  0.00000000000E+00  0.00000000000E+00  0.13267271355E+04  0.13267271355E+04  0.25500000920E-02 0. -1.
       -2   -1    0    0    0  501  0.00000000000E+00  0.00000000000E+00 -0.75877978545E+03  0.75877978546E+03  0.25500000920E-02 0.  1.
    10030    2    1    2    0    0  0.00000000000E+00  0.00000000000E+00  0.56794735000E+03  0.20855069209E+04  0.20066825670E+04 0.  0.
        1    1    3    3  502    0  0.35613113662E+03 -0.47102107590E+03 -0.55906414161E+03  0.81316846647E+03  0.50400001928E-02 0.  1.
       -1    1    3    3    0  502 -0.35613113662E+03  0.47102107590E+03  0.11270114916E+04  0.12723384544E+04  0.50400001928E-02 0. -1.
</event>
<event>
 5   0  0.1274868E-04  0.2065182E+04  0.7818609E-02  0.8576738E-01
        2   -1    0    0  501    0  0.00000000000E+00  0.00000000000E+00  0.22667999912E+04  0.22667999912E+04  0.25500000920E-02 0. -1.
       -2   -1    0    0    0  501  0.00000000000E+00  0.00000000000E+00 -0.47037404003E+03  0.47037404004E+03  0.25500000920E-02 0.  1.
    10030    2    1    2    0    0  0.00000000000E+00  0.00000000000E+00  0.17964259512E+04  0.27371740312E+04  0.20651817061E+04 0.  0.
        1    1    3    3  502    0  0.51820493586E+02  0.58899416390E+03  0.20202210745E+04  0.21049685695E+04  0.50400001928E-02 0. -1.
       -1    1    3    3    0  502 -0.51820493586E+02 -0.58899416390E+03 -0.22379512331E+03  0.63220546178E+03  0.50400001928E-02 0.  1.
</event>
<event>
 5   0  0.6222733E-05  0.1999935E+04  0.7818609E-02  0.8606651E-01
       -1   -1    0    0    0  501  0.00000000000E+00  0.00000000000E+00  0.15547407551E+04  0.15547407551E+04  0.50400001928E-02 0.  1.
        1   -1    0    0  501    0  0.00000000000E+00  0.00000000000E+00 -0.64315224681E+03  0.64315224683E+03  0.50400001928E-02 0. -1.
    10030    2    1    2    0    0  0.00000000000E+00  0.00000000000E+00  0.91158850828E+03  0.21978930019E+04  0.19999350088E+04 0.  0.
        2    1    3    3  502    0 -0.16285905549E+03  0.98160839106E+03  0.56490334531E+03  0.11442001114E+04  0.25500000920E-02 0.  1.
       -2    1    3    3    0  502  0.16285905549E+03 -0.98160839106E+03  0.34668516297E+03  0.10536928905E+04  0.25500000920E-02 0. -1.
</event>
<event>
 5   0  0.4479000E-05  0.2015789E+04  0.7818609E-02  0.8599274E-01
       -4   -1    0    0    0  501  0.00000000000E+00  0.00000000000E+00  0.12746317072E+04  0.12746323399E+04  0.12699999809E+01 0. -1.
        4   -1    0    0  501    0  0.00000000000E+00  0.00000000000E+00 -0.79697500088E+03  0.79697601277E+03  0.12699999809E+01 0.  1.
    10030    2    1    2    0    0  0.00000000000E+00  0.00000000000E+00  0.47765670633E+03  0.20716083527E+04  0.20157889864E+04 0.  0.
        4    1    3    3  502    0 -0.32151815732E+03 -0.35990754920E+03  0.11481708162E+04  0.12454738879E+04  0.12699999809E+01 0. -1.
       -4    1    3    3    0  502  0.32151815732E+03  0.35990754920E+03 -0.67051410985E+03  0.82613446476E+03  0.12699999809E+01 0.  1.
</event>
<event>
 5   0  0.1274868E-04  0.1965109E+04  0.7818609E-02  0.8623109E-01
       -2   -1    0    0    0  501  0.00000000000E+00  0.00000000000E+00  0.13631175797E+04  0.13631175797E+04  0.25500000920E-02 0.  1.
        2   -1    0    0  501    0  0.00000000000E+00  0.00000000000E+00 -0.70823905571E+03  0.70823905571E+03  0.25500000920E-02 0. -1.
    10030    2    1    2    0    0  0.00000000000E+00  0.00000000000E+00  0.65487852400E+03  0.20713566354E+04  0.19651087578E+04 0.  0.
        1    1    3    3  502    0  0.37527934223E+03  0.87123552636E+03  0.57616223228E+02  0.95037127287E+03  0.50400001928E-02 0. -1.
       -1    1    3    3    0  502 -0.37527934223E+03 -0.87123552636E+03  0.59726230077E+03  0.11209853625E+04  0.50400001928E-02 0.  1.
</event>
<event>
 5   0  0.1244229E-04  0.1991697E+04  0.7818609E-02  0.8610513E-01
        2   -1    0    0  501    0  0.00000000000E+00  0.00000000000E+00  0.22692336585E+04  0.22692336585E+04  0.25500000920E-02 0. -1.
       -2   -1    0    0    0  501  0.00000000000E+00  0.00000000000E+00 -0.43702594173E+03  0.43702594174E+03  0.25500000920E-02 0.  1.
    10030    2    1    2    0    0  0.00000000000E+00  0.00000000000E+00  0.18322077167E+04  0.27062596002E+04  0.19916967406E+04 0.  0.
        5    1    3    3  502    0  0.38134509586E+03 -0.74374081935E+01 -0.33382690514E+03  0.50689435760E+03  0.46999998093E+01 0.  1.
       -5    1    3    3    0  502 -0.38134509586E+03  0.74374081935E+01  0.21660346219E+04  0.21993652426E+04  0.46999998093E+01 0. -1.
</event>
<event>
 5   0  0.1242761E-04  0.2006317E+04  0.7818609E-02  0.8603673E-01
       -2   -1    0    0    0  501  0.00000000000E+00  0.00000000000E+00  0.14320668115E+04  0.14320668115E+04  0.25500000920E-02 0. -1.
        2   -1    0    0  501    0  0.00000000000E+00  0.00000000000E+00 -0.70270934791E+03  0.70270934792E+03  0.25500000920E-02 0.  1.
    10030    2    1    2    0    0  0.00000000000E+00  0.00000000000E+00  0.72935746358E+03  0.21347761594E+04  0.20063167599E+04 0.  0.
        4    1    3    3  502    0 -0.97564765297E+02 -0.76048171983E+03  0.10529933223E+04  0.13025543671E+04  0.12699999809E+01 0. -1.
       -4    1    3    3    0  502  0.97564765297E+02  0.76048171983E+03 -0.32363585870E+03  0.83222179229E+03  0.12699999809E+01 0.  1.
</event>
<event>
 5   0  0.6256535E-05  0.1979609E+04  0.7818609E-02  0.8616214E-01
       -1   -1    0    0    0  501  0.00000000000E+00  0.00000000000E+00  0.14261355859E+04  0.14261355859E+04  0.50400001928E-02 0. -1.
        1   -1    0    0  501    0  0.00000000000E+00  0.00000000000E+00 -0.68697031522E+03  0.68697031524E+03  0.50400001928E-02 0.  1.
    10030    2    1    2    0    0  0.00000000000E+00  0.00000000000E+00  0.73916527065E+03  0.21131059011E+04  0.19796088634E+04 0.  0.
        1    1    3    3  502    0 -0.61854893258E+03  0.67009986846E+03 -0.41173916680E+02  0.91287014802E+03  0.50400001928E-02 0.  1.
       -1    1    3    3    0  502  0.61854893258E+03 -0.67009986846E+03  0.78033918733E+03  0.12002357531E+04  0.50400001928E-02 0. -1.
</event>
<event>
 5   0  0.1159914E-04  0.1975033E+04  0.7818609E-02  0.8618383E-01
        2   -1    0    0  501    0  0.00000000000E+00  0.00000000000E+00  0.15399917940E+04  0.15399917940E+04  0.25500000920E-02 0. -1.
       -2   -1    0    0    0  501  0.00000000000E+00  0.00000000000E+00 -0.63324265057E+03  0.63324265057E+03  0.25500000920E-02 0.  1.
    10030    2    1    2    0    0  0.00000000000E+00  0.00000000000E+00  0.90674914344E+03  0.21732344446E+04  0.19750326433E+04 0.  0.
        3    1    3    3  502    0  0.64209729211E+03  0.74704686097E+03  0.52977217052E+03  0.11184929628E+04  0.10100000352E+00 0. -1.
       -3    1    3    3    0  502 -0.64209729211E+03 -0.74704686097E+03  0.37697697293E+03  0.10547414818E+04  0.10100000352E+00 0.  1.
</event>
<event>
 5   0  0.1274868E-04  0.1970419E+04  0.7818609E-02  0.8620577E-01
       -2   -1    0    0    0  501  0.00000000000E+00  0.00000000000E+00  0.89366016138E+03  0.89366016138E+03  0.25500000920E-02 0. -1.
        2   -1    0    0  501    0  0.00000000000E+00  0.00000000000E+00 -0.10861370739E+04  0.10861370739E+04  0.25500000920E-02 0.  1.
    10030    2    1    2    0    0  0.00000000000E+00  0.00000000000E+00 -0.19247691255E+03  0.19797972353E+04  0.19704186690E+04 0.  0.
        1    1    3    3  502    0  0.56520485221E+03  0.43856371538E+03 -0.77684191032E+03  0.10560672379E+04  0.50400001928E-02 0.  1.
       -1    1    3    3    0  502 -0.56520485221E+03 -0.43856371538E+03  0.58436499777E+03  0.92372999737E+03  0.50400001928E-02 0. -1.
</event>
<event>
 5   0  0.6028501E-05  0.1988182E+04  0.7818609E-02  0.8612166E-01
        1   -1    0    0  501    0  0.00000000000E+00  0.00000000000E+00  0.91573777517E+03  0.91573777518E+03  0.50400001928E-02 0.  1.
       -1   -1    0    0    0  501  0.00000000000E+00  0.00000000000E+00 -0.10791480473E+04  0.10791480473E+04  0.50400001928E-02 0. -1.
    10030    2    1    2    0    0  0.00000000000E+00  0.00000000000E+00 -0.16341027210E+03  0.19948858225E+04  0.19881817139E+04 0.  0.
        4    1    3    3  502    0 -0.35368831967E+03 -0.37552472930E+03  0.77092538069E+03  0.92760002440E+03  0.12699999809E+01 0.  1.
       -4    1    3    3    0  502  0.35368831967E+03  0.37552472930E+03 -0.93433565279E+03  0.10672857981E+04  0.12699999809E+01 0. -1.
</event>
<event>
 5   0  0.1159914E-04  0.2001987E+04  0.7818609E-02  0.8605692E-01
        2   -1    0    0  501    0  0.00000000000E+00  0.00000000000E+00  0.19313113952E+04  0.19313113952E+04  0.25500000920E-02 0.  1.
       -2   -1    0    0    0  501  0.00000000000E+00  0.00000000000E+00 -0.51881243759E+03  0.51881243760E+03  0.25500000920E-02 0. -1.
    10030    2    1    2    0    0  0.00000000000E+00  0.00000000000E+00  0.14124989576E+04  0.24501238328E+04  0.20019873853E+04 0.  0.
        3    1    3    3  502    0  0.98163307919E+03 -0.63272407916E+02  0.93317789013E+03  0.13558863834E+04  0.10100000352E+00 0.  1.
       -3    1    3    3    0  502 -0.98163307919E+03  0.63272407916E+02  0.47932106744E+03  0.10942374494E+04  0.10100000352E+00 0. -1.
</event>
<event>
 5   0  0.1274868E-04  0.1995986E+04  0.7818609E-02  0.8608499E-01
       -2   -1    0    0    0  501  0.00000000000E+00  0.00000000000E+00  0.69100419511E+03  0.69100419511E+03  0.25500000920E-02 0.  1.
        2   -1    0    0  501    0  0.00000000000E+00  0.00000000000E+00 -0.14413666919E+04  0.14413666919E+04  0.25500000920E-02 0. -1.
    10030    2    1    2    0    0  0.00000000000E+00  0.00000000000E+00 -0.75036249676E+03  0.21323708870E+04  0.19959864035E+04 0.  0.
        1    1    3    3  502    0 -0.86440029091E+03 -0.42647460320E+02  0.15575132003E+03  0.87935495820E+03  0.50400001928E-02 0.  1.
       -1    1    3    3    0  502  0.86440029091E+03  0.42647460320E+02 -0.90611381679E+03  0.12530159288E+04  0.50400001928E-02 0. -1.
</event>
<event>
 5   0  0.6222733E-05  0.1995605E+04  0.7818609E-02  0.8608678E-01
       -1   -1    0    0    0  501  0.00000000000E+00  0.00000000000E+00  0.11871093295E+04  0.11871093296E+04  0.50400001928E-02 0.  1.
        1   -1    0    0  501    0  0.00000000000E+00  0.00000000000E+00 -0.83868398056E+03  0.83868398057E+03  0.50400001928E-02 0. -1.
    10030    2    1    2    0    0  0.00000000000E+00  0.00000000000E+00  0.34842534898E+03  0.20257933101E+04  0.19956047483E+04 0.  0.
        2    1    3    3  502    0 -0.96613669992E+03 -0.22417870635E+03  0.28510513552E+03  0.10319695507E+04  0.25500000920E-02 0. -1.
       -2    1    3    3    0  502  0.96613669992E+03  0.22417870635E+03  0.63320213464E+02  0.99382375940E+03  0.25500000920E-02 0.  1.
</event>
<event>
 5   0  0.1244229E-04  0.2002191E+04  0.7818609E-02  0.8605597E-01
        2   -1    0    0  501    0  0.00000000000E+00  0.00000000000E+00  0.27904858753E+04  0.27904858753E+04  0.25500000920E-02 0.  1.
       -2   -1    0    0    0  501  0.00000000000E+00  0.00000000000E+00 -0.35914608198E+03  0.35914608199E+03  0.25500000920E-02 0. -1.
    10030    2    1    2    0    0  0.00000000000E+00  0.00000000000E+00  0.24313397933E+04  0.31496319573E+04  0.20021908690E+04 0.  0.
        5    1    3    3  502    0 -0.78111088160E+03  0.38065905791E+02  0.23253505229E+03  0.81589084018E+03  0.46999998093E+01 0.  1.
       -5    1    3    3    0  502  0.78111088160E+03 -0.38065905791E+02  0.21988047410E+04  0.23337411171E+04  0.46999998093E+01 0. -1.
</event>
<event>
 5   0  0.6256535E-05  0.2013697E+04  0.7818609E-02  0.8600243E-01
        1   -1    0    0  501    0  0.00000000000E+00  0.00000000000E+00  0.90494412786E+03  0.90494412788E+03  0.50400001928E-02 0.  1.
       -1   -1    0    0    0  501  0.00000000000E+00  0.00000000000E+00 -0.11202285802E+04  0.11202285802E+04  0.50400001928E-02 0. -1.
    10030    2    1    2    0    0  0.00000000000E+00  0.00000000000E+00 -0.21528445232E+03  0.20251727081E+04  0.20136973710E+04 0.  0.
        1    1    3    3  502    0 -0.35769679433E+03 -0.32444120855E+03  0.78087142428E+03  0.91813358275E+03  0.50400001928E-02 0.  1.
       -1    1    3    3    0  502  0.35769679433E+03  0.32444120855E+03 -0.99615587660E+03  0.11070391253E+04  0.50400001928E-02 0. -1.
</event>
<event>
 5   0  0.1274868E-04  0.2004972E+04  0.7818609E-02  0.8604300E-01
       -2   -1    0    0    0  501  0.00000000000E+00  0.00000000000E+00  0.14016728436E+04  0.14016728436E+04  0.25500000920E-02 0.  1.
        2   -1    0    0  501    0  0.00000000000E+00  0.00000000000E+00 -0.71698456578E+03  0.71698456578E+03  0.25500000920E-02 0. -1.
    10030    2    1    2    0    0  0.00000000000E+00  0.00000000000E+00  0.68468827782E+03  0.21186574094E+04  0.20049716159E+04 0.  0.
        1    1    3    3  502    0 -0.72377374647E+03  0.68869199867E+03  0.25499706399E+03  0.10311006778E+04  0.50400001928E-02 0.  1.
       -1    1    3    3    0  502  0.72377374647E+03 -0.68869199867E+03  0.42969121383E+03  0.10875567316E+04  0.50400001928E-02 0. -1.
</event>
<event>
 5   0  0.1281789E-04  0.2004436E+04  0.7818609E-02  0.8604550E-01
        2   -1    0    0  501    0  0.00000000000E+00  0.00000000000E+00  0.10707534888E+04  0.10707534888E+04  0.25500000920E-02 0.  1.
       -2   -1    0    0    0  501  0.00000000000E+00  0.00000000000E+00 -0.93806888489E+03  0.93806888489E+03  0.25500000920E-02 0. -1.
    10030    2    1    2    0    0  0.00000000000E+00  0.00000000000E+00  0.13268460393E+03  0.20088223737E+04  0.20044356126E+04 0.  0.
        2    1    3    3  502    0 -0.11660794415E+03  0.88157471985E+02 -0.92732718206E+03  0.93877838445E+03  0.25500000920E-02 0. -1.
       -2    1    3    3    0  502  0.11660794415E+03 -0.88157471985E+02  0.10600117860E+04  0.10700439893E+04  0.25500000920E-02 0.  1.
</event>
<event>
 5   0  0.4479000E-05  0.2012940E+04  0.7818609E-02  0.8600594E-01
       -3   -1    0    0    0  501  0.00000000000E+00  0.00000000000E+00  0.89050063528E+03  0.89050064100E+03  0.10100000352E+00 0. -1.
        3   -1    0    0  501    0  0.00000000000E+00  0.00000000000E+00 -0.11375423229E+04  0.11375423274E+04  0.10100000352E+00 0.  1.
    10030    2    1    2    0    0  0.00000000000E+00  0.00000000000E+00 -0.24704168762E+03  0.20280429684E+04  0.20129403087E+04 0.  0.
        2    1    3    3  502    0 -0.32350277282E+03 -0.55107087573E+03  0.65990506730E+03  0.91859014362E+03  0.25500000920E-02 0. -1.
       -2    1    3    3    0  502  0.32350277282E+03  0.55107087573E+03 -0.90694675492E+03  0.11094528248E+04  0.25500000920E-02 0.  1.
</event>
<event>
 5   0  0.6214547E-05  0.1902955E+04  0.7818609E-02  0.8653387E-01
        1   -1    0    0  501    0  0.00000000000E+00  0.00000000000E+00  0.14506315466E+04  0.14506315466E+04  0.50400001928E-02 0. -1.
       -1   -1    0    0    0  501  0.00000000000E+00  0.00000000000E+00 -0.62407961649E+03  0.62407961651E+03  0.50400001928E-02 0.  1.
    10030    2    1    2    0    0  0.00000000000E+00  0.00000000000E+00  0.82655193009E+03  0.20747111631E+04  0.19029551537E+04 0.  0.
        3    1    3    3  502    0 -0.12204527541E+03 -0.59840425955E+03  0.12087358464E+04  0.13542618150E+04  0.10100000352E+00 0. -1.
       -3    1    3    3    0  502  0.12204527541E+03  0.59840425955E+03 -0.38218391627E+03  0.72044934809E+03  0.10100000352E+00 0.  1.
</event>
<event>
 5   0  0.1159914E-04  0.1975018E+04  0.7818609E-02  0.8618390E-01
       -2   -1    0    0    0  501  0.00000000000E+00  0.00000000000E+00  0.65869173327E+03  0.65869173327E+03  0.25500000920E-02 0.  1.
        2   -1    0    0  501    0  0.00000000000E+00  0.00000000000E+00 -0.14804707933E+04  0.14804707933E+04  0.25500000920E-02 0. -1.
    10030    2    1    2    0    0  0.00000000000E+00  0.00000000000E+00 -0.82177906001E+03  0.21391625266E+04  0.19750178459E+04 0.  0.
        3    1    3    3  502    0  0.82426470679E+03  0.46880772483E+03 -0.11233415289E+03  0.95488845517E+03  0.10100000352E+00 0.  1.
       -3    1    3    3    0  502 -0.82426470679E+03 -0.46880772483E+03 -0.70944490712E+03  0.11842740714E+04  0.10100000352E+00 0. -1.
</event>
<event>
 5   0  0.1244229E-04  0.2010363E+04  0.7818609E-02  0.8601791E-01
       -2   -1    0    0    0  501  0.00000000000E+00  0.00000000000E+00  0.46796225394E+03  0.46796225395E+03  0.25500000920E-02 0. -1.
        2   -1    0    0  501    0  0.00000000000E+00  0.00000000000E+00 -0.21591269075E+04  0.21591269075E+04  0.25500000920E-02 0.  1.
    10030    2    1    2    0    0  0.00000000000E+00  0.00000000000E+00 -0.16911646535E+04  0.26270891614E+04  0.20103630460E+04 0.  0.
        5    1    3    3  502    0 -0.19255515608E+03  0.44178524213E+03  0.30713421445E+03  0.57149383547E+03  0.46999998093E+01 0. -1.
       -5    1    3    3    0  502  0.19255515608E+03 -0.44178524213E+03 -0.19982988680E+04  0.20555953260E+04  0.46999998093E+01 0.  1.
</event>
<event>
 5   0  0.6168338E-05  0.2060726E+04  0.7818609E-02  0.8578744E-01
       -1   -1    0    0    0  501  0.00000000000E+00  0.00000000000E+00  0.80643408302E+03  0.80643408304E+03  0.50400001928E-02 0.  1.
        1   -1    0    0  501    0  0.00000000000E+00  0.00000000000E+00 -0.13164726352E+04  0.13164726352E+04  0.50400001928E-02 0. -1.
    10030    2    1    2    0    0  0.00000000000E+00  0.00000000000E+00 -0.51003855213E+03  0.21229067182E+04  0.20607264762E+04 0.  0.
        5    1    3    3  502    0  0.23372850124E+03 -0.53112876253E+03 -0.11321200049E+04  0.12721810288E+04  0.46999998093E+01 0. -1.
       -5    1    3    3    0  502 -0.23372850124E+03  0.53112876253E+03  0.62208145276E+03  0.85072568936E+03  0.46999998093E+01 0.  1.
</event>
<event>
 5   0  0.1274868E-04  0.2082760E+04  0.7818609E-02  0.8568876E-01
        2   -1    0    0  501    0  0.00000000000E+00  0.00000000000E+00  0.13551746526E+04  0.13551746526E+04  0.25500000920E-02 0.  1.
       -2   -1    0    0    0  501  0.00000000000E+00  0.00000000000E+00 -0.80024519820E+03  0.80024519821E+03  0.25500000920E-02 0. -1.
    10030    2    1    2    0    0  0.00000000000E+00  0.00000000000E+00  0.55492945437E+03  0.21554198508E+04  0.20827597158E+04 0.  0.
        1    1    3    3  502    0 -0.81253285165E+02  0.50261147936E+02 -0.79569993274E+03  0.80141541184E+03  0.50400001928E-02 0. -1.
       -1    1    3    3    0  502  0.81253285165E+02 -0.50261147936E+02  0.13506293871E+04  0.13540044389E+04  0.50400001928E-02 0.  1.
</event>
<event>
 5   0  0.6256535E-05  0.1999150E+04  0.7818609E-02  0.8607018E-01
        1   -1    0    0  501    0  0.00000000000E+00  0.00000000000E+00  0.15184735905E+04  0.15184735905E+04  0.50400001928E-02 0. -1.
       -1   -1    0    0    0  501  0.00000000000E+00  0.00000000000E+00 -0.65799624840E+03  0.65799624842E+03  0.50400001928E-02 0.  1.
    10030    2    1    2    0    0  0.00000000000E+00  0.00000000000E+00  0.86047734211E+03  0.21764698389E+04  0.19991497451E+04 0.  0.
        1    1    3    3  502    0 -0.85078107850E+03 -0.46843781470E+03  0.68761265992E+03  0.11899889075E+04  0.50400001928E-02 0. -1.
       -1    1    3    3    0  502  0.85078107850E+03  0.46843781470E+03  0.17286468219E+03  0.98648093147E+03  0.50400001928E-02 0.  1.
</event>
<event>
 5   0  0.1159914E-04  0.1989479E+04  0.7818609E-02  0.8611556E-01
       -2   -1    0    0    0  501  0.00000000000E+00  0.00000000000E+00  0.67106427485E+03  0.67106427485E+03  0.25500000920E-02 0. -1.
        2   -1    0    0  501    0  0.00000000000E+00  0.00000000000E+00 -0.14745327776E+04  0.14745327776E+04  0.25500000920E-02 0.  1.
    10030    2    1    2    0    0  0.00000000000E+00  0.00000000000E+00 -0.80346850279E+03  0.21455970525E+04  0.19894785942E+04 0.  0.
        3    1    3    3  502    0  0.26144805687E+03 -0.64859411306E+03 -0.11646927053E+04  0.13585059875E+04  0.10100000352E+00 0.  1.
       -3    1    3    3    0  502 -0.26144805687E+03  0.64859411306E+03  0.36122420253E+03  0.78709106502E+03  0.10100000352E+00 0. -1.
</event>
<event>
 5   0  0.1242761E-04  0.1953567E+04  0.7818609E-02  0.8628643E-01
       -2   -1    0    0    0  501  0.00000000000E+00  0.00000000000E+00  0.69506126985E+03  0.69506126985E+03  0.25500000920E-02 0.  1.
        2   -1    0    0  501    0  0.00000000000E+00  0.00000000000E+00 -0.13726935365E+04  0.13726935365E+04  0.25500000920E-02 0. -1.
    10030    2    1    2    0    0  0.00000000000E+00  0.00000000000E+00 -0.67763226663E+03  0.20677548063E+04  0.19535671092E+04 0.  0.
        4    1    3    3  502    0 -0.27979541130E+03  0.82986335787E+03 -0.79670574119E+03  0.11839342532E+04  0.12699999809E+01 0. -1.
       -4    1    3    3    0  502  0.27979541130E+03 -0.82986335787E+03  0.11907347456E+03  0.88382055315E+03  0.12699999809E+01 0.  1.
</event>
<event>
 5   0  0.1281789E-04  0.2008949E+04  0.7818609E-02  0.8602448E-01
        2   -1    0    0  501    0  0.00000000000E+00  0.00000000000E+00  0.18385870344E+04  0.18385870344E+04  0.25500000920E-02 0.  1.
       -2   -1    0    0    0  501  0.00000000000E+00  0.00000000000E+00 -0.54877390416E+03  0.54877390417E+03  0.25500000920E-02 0. -1.
    10030    2    1    2    0    0  0.00000000000E+00  0.00000000000E+00  0.12898131302E+04  0.23873609385E+04  0.20089485658E+04 0.  0.
        2    1    3    3  502    0  0.40404166777E+03 -0.86686845763E+03  0.28006159798E+03  0.99656665146E+03  0.25500000920E-02 0. -1.
       -2    1    3    3    0  502 -0.40404166777E+03  0.86686845763E+03  0.10097515322E+04  0.13907942871E+04  0.25500000920E-02 0.  1.
</event>
<event>
 5   0  0.1242761E-04  0.2040790E+04  0.7818609E-02  0.8587784E-01
        2   -1    0    0  501    0  0.00000000000E+00  0.00000000000E+00  0.14641701439E+04  0.14641701439E+04  0.25500000920E-02 0. -1.
       -2   -1    0    0    0  501  0.00000000000E+00  0.00000000000E+00 -0.71112386815E+03  0.71112386816E+03  0.25500000920E-02 0.  1.
    10030    2    1    2    0    0  0.00000000000E+00  0.00000000000E+00  0.75304627572E+03  0.21752940120E+04  0.20407903727E+04 0.  0.
        4    1    3    3  502    0 -0.94271852254E+03  0.10505950130E+03  0.77740787944E+03  0.12264258377E+04  0.12699999809E+01 0.  1.
       -4    1    3    3    0  502  0.94271852254E+03 -0.10505950130E+03 -0.24361603719E+02  0.94886817429E+03  0.12699999809E+01 0. -1.
</event>
<event>
 5   0  0.1274868E-04  0.2006123E+04  0.7818609E-02  0.8603763E-01
       -2   -1    0    0    0  501  0.00000000000E+00  0.00000000000E+00  0.79185245538E+03  0.79185245538E+03  0.25500000920E-02 0. -1.
        2   -1    0    0  501    0  0.00000000000E+00  0.00000000000E+00 -0.12706064453E+04  0.12706064453E+04  0.25500000920E-02 0.  1.
    10030    2    1    2    0    0  0.00000000000E+00  0.00000000000E+00 -0.47875398995E+03  0.20624589007E+04  0.20061234594E+04 0.  0.
        1    1    3    3  502    0  0.40315283562E+03 -0.79844069183E+03  0.22734617115E+03  0.92289004155E+03  0.50400001928E-02 0. -1.
       -1    1    3    3    0  502 -0.40315283562E+03  0.79844069183E+03 -0.70610016110E+03  0.11395688592E+04  0.50400001928E-02 0.  1.
</event>
<event>
 5   0  0.4479000E-05  0.2062941E+04  0.7818609E-02  0.8577746E-01
       -3   -1    0    0    0  501  0.00000000000E+00  0.00000000000E+00  0.87957919303E+03  0.87957919883E+03  0.10100000352E+00 0. -1.
        3   -1    0    0  501    0  0.00000000000E+00  0.00000000000E+00 -0.12095912877E+04  0.12095912919E+04  0.10100000352E+00 0.  1.
    10030    2    1    2    0    0  0.00000000000E+00  0.00000000000E+00 -0.33001209468E+03  0.20891704908E+04  0.20629409485E+04 0.  0.
        2    1    3    3  502    0 -0.26169091309E+03  0.38810535243E+03  0.76582329294E+03  0.89754844693E+03  0.25500000920E-02 0. -1.
       -2    1    3    3    0  502  0.26169091309E+03 -0.38810535243E+03 -0.10958353876E+04  0.11916220438E+04  0.25500000920E-02 0.  1.
</event>
<event>
 5   0  0.6256535E-05  0.1990187E+04  0.7818609E-02  0.8611222E-01
       -1   -1    0    0    0  501  0.00000000000E+00  0.00000000000E+00  0.10234456513E+04  0.10234456513E+04  0.50400001928E-02 0.  1.
        1   -1    0    0  501    0  0.00000000000E+00  0.00000000000E+00 -0.96752665040E+03  0.96752665041E+03  0.50400001928E-02 0. -1.
    10030    2    1    2    0    0  0.00000000000E+00  0.00000000000E+00  0.55919000886E+02  0.19909723017E+04  0.19901868685E+04 0.  0.
        1    1    3    3  502    0 -0.49782001530E+03 -0.67585179219E+03 -0.50667683279E+03  0.98047020635E+03  0.50400001928E-02 0. -1.
       -1    1    3    3    0  502  0.49782001530E+03  0.67585179219E+03  0.56259583367E+03  0.10105020954E+04  0.50400001928E-02 0.  1.
</event>
<event>
 5   0  0.1274868E-04  0.2030092E+04  0.7818609E-02  0.8592679E-01
       -2   -1    0    0    0  501  0.00000000000E+00  0.00000000000E+00  0.16854570941E+04  0.16854570941E+04  0.25500000920E-02 0.  1.
        2   -1    0    0  501    0  0.00000000000E+00  0.00000000000E+00 -0.61129911171E+03  0.61129911171E+03  0.25500000920E-02 0. -1.
    10030    2    1    2    0    0  0.00000000000E+00  0.00000000000E+00  0.10741579824E+04  0.22967562058E+04  0.20300920417E+04 0.  0.
        1    1    3    3  502    0 -0.50694959689E+03 -0.45962740910E+03 -0.31110825159E+03  0.75169381613E+03  0.50400001928E-02 0. -1.
       -1    1    3    3    0  502  0.50694959689E+03  0.45962740910E+03  0.13852662340E+04  0.15450623897E+04  0.50400001928E-02 0.  1.
</event>
<event>
 5   0  0.6222733E-05  0.2002393E+04  0.7818609E-02  0.8605503E-01
        1   -1    0    0  501    0  0.00000000000E+00  0.00000000000E+00  0.13773655486E+04  0.13773655486E+04  0.50400001928E-02 0. -1.
       -1   -1    0    0    0  501  0.00000000000E+00  0.00000000000E+00 -0.72776178980E+03  0.72776178982E+03  0.50400001928E-02 0.  1.
    10030    2    1    2    0    0  0.00000000000E+00  0.00000000000E+00  0.64960375880E+03  0.21051273384E+04  0.20023925858E+04 0.  0.
        2    1    3    3  502    0 -0.30900887329E+03 -0.95279682052E+02  0.13209548480E+04  0.13599582391E+04  0.25500000920E-02 0. -1.
       -2    1    3    3    0  502  0.30900887329E+03  0.95279682052E+02 -0.67135108922E+03  0.74516909933E+03  0.25500000920E-02 0.  1.
</event>
<event>
 5   0  0.6214547E-05  0.1979728E+04  0.7818609E-02  0.8616157E-01
        1   -1    0    0  501    0  0.00000000000E+00  0.00000000000E+00  0.72789632318E+03  0.72789632320E+03  0.50400001928E-02 0.  1.
       -1   -1    0    0    0  501  0.00000000000E+00  0.00000000000E+00 -0.13461135440E+04  0.13461135440E+04  0.50400001928E-02 0. -1.
    10030    2    1    2    0    0  0.00000000000E+00  0.00000000000E+00 -0.61821722083E+03  0.20740098672E+04  0.19797283645E+04 0.  0.
        3    1    3    3  502    0 -0.23998556462E+03 -0.49321723303E+03  0.55413233946E+03  0.77969158647E+03  0.10100000352E+00 0.  1.
       -3    1    3    3    0  502  0.23998556462E+03  0.49321723303E+03 -0.11723495603E+04  0.12943182807E+04  0.10100000352E+00 0. -1.
</event>
<event>
 5   0  0.6028501E-05  0.1999390E+04  0.7818609E-02  0.8606906E-01
        1   -1    0    0  501    0  0.00000000000E+00  0.00000000000E+00  0.64636324847E+03  0.64636324849E+03  0.50400001928E-02 0.  1.
       -1   -1    0    0    0  501  0.00000000000E+00  0.00000000000E+00 -0.15461740712E+04  0.15461740712E+04  0.50400001928E-02 0. -1.
    10030    2    1    2    0    0  0.00000000000E+00  0.00000000000E+00 -0.89981082274E+03  0.21925373197E+04  0.19993900024E+04 0.  0.
        4    1    3    3  502    0 -0.25262294178E+03  0.61733195083E+03 -0.12664671959E+04  0.14313831979E+04  0.12699999809E+01 0. -1.
       -4    1    3    3    0  502  0.25262294178E+03 -0.61733195083E+03  0.36665637313E+03  0.76115412177E+03  0.12699999809E+01 0.  1.
</event>
<event>
 5   0  0.1274868E-04  0.1843993E+04  0.7818609E-02  0.8683248E-01
       -2   -1    0    0    0  501  0.00000000000E+00  0.00000000000E+00  0.62025242479E+03  0.62025242480E+03  0.25500000920E-02 0. -1.
        2   -1    0    0  501    0  0.00000000000E+00  0.00000000000E+00 -0.13705345100E+04  0.13705345100E+04  0.25500000920E-02 0.  1.
    10030    2    1    2    0    0  0.00000000000E+00  0.00000000000E+00 -0.75028208522E+03  0.19907869348E+04  0.18439927908E+04 0.  0.
        1    1    3    3  502    0 -0.38392866017E+03  0.24634140579E+03 -0.12401694855E+04  0.13214029125E+04  0.50400001928E-02 0.  1.
       -1    1    3    3    0  502  0.38392866017E+03 -0.24634140579E+03  0.48988740031E+03  0.66938402231E+03  0.50400001928E-02 0. -1.
</event>
<event>
 5   0  0.6222733E-05  0.1996899E+04  0.7818609E-02  0.8608072E-01
        1   -1    0    0  501    0  0.00000000000E+00  0.00000000000E+00  0.16706380636E+04  0.16706380636E+04  0.50400001928E-02 0.  1.
       -1   -1    0    0    0  501  0.00000000000E+00  0.00000000000E+00 -0.59671901953E+03  0.59671901955E+03  0.50400001928E-02 0. -1.
    10030    2    1    2    0    0  0.00000000000E+00  0.00000000000E+00  0.10739190441E+04  0.22673570832E+04  0.19968991034E+04 0.  0.
        2    1    3    3  502    0  0.26531798220E+03 -0.91549881061E+03  0.87449213735E+03  0.12935486857E+04  0.25500000920E-02 0.  1.
       -2    1    3    3    0  502 -0.26531798220E+03  0.91549881061E+03  0.19942690674E+03  0.97380839750E+03  0.25500000920E-02 0. -1.
</event>
<event>
 5   0  0.6168338E-05  0.2054112E+04  0.7818609E-02  0.8581731E-01
        1   -1    0    0  501    0  0.00000000000E+00  0.00000000000E+00  0.18609502998E+04  0.18609502998E+04  0.50400001928E-02 0. -1.
       -1   -1    0    0    0  501  0.00000000000E+00  0.00000000000E+00 -0.56683065474E+03  0.56683065476E+03  0.50400001928E-02 0.  1.
    10030    2    1    2    0    0  0.00000000000E+00  0.00000000000E+00  0.12941196450E+04  0.24277809545E+04  0.20541116590E+04 0.  0.
        5    1    3    3  502    0  0.15864521887E+03  0.94095588749E+03  0.19815802908E+03  0.97460503906E+03  0.46999998093E+01 0.  1.
       -5    1    3    3    0  502 -0.15864521887E+03 -0.94095588749E+03  0.10959616160E+04  0.14531759155E+04  0.46999998093E+01 0. -1.
</event>
<event>
 5   0  0.6168338E-05  0.1901398E+04  0.7818609E-02  0.8654161E-01
       -1   -1    0    0    0  501  0.00000000000E+00  0.00000000000E+00  0.55038302103E+03  0.55038302105E+03  0.50400001928E-02 0. -1.
        1   -1    0    0  501    0  0.00000000000E+00  0.00000000000E+00 -0.16421817562E+04  0.16421817562E+04  0.50400001928E-02 0.  1.
    10030    2    1    2    0    0  0.00000000000E+00  0.00000000000E+00 -0.10917987352E+04  0.21925647773E+04  0.19013983866E+04 0.  0.
        5    1    3    3  502    0  0.62498313237E+03 -0.13595616498E+03  0.26517102966E+03  0.69240577663E+03  0.46999998093E+01 0. -1.
       -5    1    3    3    0  502 -0.62498313237E+03  0.13595616498E+03 -0.13569697649E+04  0.15001590007E+04  0.46999998093E+01 0.  1.
</event>
<event>
 5   0  0.1274868E-04  0.1991204E+04  0.7818609E-02  0.8610744E-01
       -2   -1    0    0    0  501  0.00000000000E+00  0.00000000000E+00  0.90043083430E+03  0.90043083431E+03  0.25500000920E-02 0.  1.
        2   -1    0    0  501    0  0.00000000000E+00  0.00000000000E+00 -0.11008322781E+04  0.11008322781E+04  0.25500000920E-02 0. -1.
    10030    2    1    2    0    0  0.00000000000E+00  0.00000000000E+00 -0.20040144379E+03  0.20012631124E+04  0.19912039841E+04 0.  0.
        1    1    3    3  502    0  0.59319629829E+03  0.40874589570E+03  0.59048872797E+03  0.93146765561E+03  0.50400001928E-02 0.  1.
       -1    1    3    3    0  502 -0.59319629829E+03 -0.40874589570E+03 -0.79089017176E+03  0.10697954568E+04  0.50400001928E-02 0. -1.
</event>
<event>
 5   0  0.6168338E-05  0.1992469E+04  0.7818609E-02  0.8610150E-01
        1   -1    0    0  501    0  0.00000000000E+00  0.00000000000E+00  0.12614820402E+04  0.12614820403E+04  0.50400001928E-02 0.  1.
       -1   -1    0    0    0  501  0.00000000000E+00  0.00000000000E+00 -0.78675997675E+03  0.78675997677E+03  0.50400001928E-02 0. -1.
    10030    2    1    2    0    0  0.00000000000E+00  0.00000000000E+00  0.47472206349E+03  0.20482420170E+04  0.19924694032E+04 0.  0.
        5    1    3    3  502    0  0.88844586981E+03 -0.27201569983E+02  0.69982649860E+03  0.11313068581E+04  0.46999998093E+01 0.  1.
       -5    1    3    3    0  502 -0.88844586981E+03  0.27201569983E+02 -0.22510443512E+03  0.91693515894E+03  0.46999998093E+01 0. -1.
</event>
<event>
 5   0  0.1281789E-04  0.1969990E+04  0.7818609E-02  0.8620781E-01
        2   -1    0    0  501    0  0.00000000000E+00  0.00000000000E+00  0.10815073091E+04  0.10815073091E+04  0.25500000920E-02 0.  1.
       -2   -1    0    0    0  501  0.00000000000E+00  0.00000000000E+00 -0.89709576664E+03  0.89709576665E+03  0.25500000920E-02 0. -1.
    10030    2    1    2    0    0  0.00000000000E+00  0.00000000000E+00  0.18441154249E+03  0.19786030758E+04  0.19699904859E+04 0.  0.
        2    1    3    3  502    0 -0.39188924462E+03 -0.67088483966E+03  0.70028803498E+03  0.10459765677E+04  0.25500000920E-02 0.  1.
       -2    1    3    3    0  502  0.39188924462E+03  0.67088483966E+03 -0.51587649250E+03  0.93262650812E+03  0.25500000920E-02 0. -1.
</event>
<event>
 5   0  0.6222733E-05  0.2000014E+04  0.7818609E-02  0.8606614E-01
       -1   -1    0    0    0  501  0.00000000000E+00  0.00000000000E+00  0.94889177317E+03  0.94889177318E+03  0.50400001928E-02 0.  1.
        1   -1    0    0  501    0  0.00000000000E+00  0.00000000000E+00 -0.10538760569E+04  0.10538760569E+04  0.50400001928E-02 0. -1.
    10030    2    1    2    0    0  0.00000000000E+00  0.00000000000E+00 -0.10498428375E+03  0.20027678301E+04  0.20000143203E+04 0.  0.
        2    1    3    3  502    0 -0.50195584546E+03  0.23009701100E+03  0.78238827541E+03  0.95761981954E+03  0.25500000920E-02 0.  1.
       -2    1    3    3    0  502  0.50195584546E+03 -0.23009701100E+03 -0.88737255916E+03  0.10451480106E+04  0.25500000920E-02 0. -1.
</event>
<event>
 5   0  0.1244229E-04  0.1993026E+04  0.7818609E-02  0.8609888E-01
        2   -1    0    0  501    0  0.00000000000E+00  0.00000000000E+00  0.14734791427E+04  0.14734791427E+04  0.25500000920E-02 0.  1.
       -2   -1    0    0    0  501  0.00000000000E+00  0.00000000000E+00 -0.67394112185E+03  0.67394112185E+03  0.25500000920E-02 0. -1.
    10030    2    1    2    0    0  0.00000000000E+00  0.00000000000E+00  0.79953802081E+03  0.21474202645E+04  0.19930260274E+04 0.  0.
        5    1    3    3  502    0  0.69419025441E+03 -0.28102264470E+03  0.11080693441E+04  0.13374279784E+04  0.46999998093E+01 0.  1.
       -5    1    3    3    0  502 -0.69419025441E+03  0.28102264470E+03 -0.30853132325E+03  0.80999228612E+03  0.46999998093E+01 0. -1.
</event>
<event>
 5   0  0.1242761E-04  0.2000592E+04  0.7818609E-02  0.8606344E-01
        2   -1    0    0  501    0  0.00000000000E+00  0.00000000000E+00  0.11022484577E+04  0.11022484577E+04  0.25500000920E-02 0. -1.
       -2   -1    0    0    0  501  0.00000000000E+00  0.00000000000E+00 -0.90777355137E+03  0.90777355137E+03  0.25500000920E-02 0.  1.
    10030    2    1    2    0    0  0.00000000000E+00  0.00000000000E+00  0.19447490631E+03  0.20100220091E+04  0.20005919093E+04 0.  0.
        4    1    3    3  502    0 -0.51660444234E+03  0.96849396474E+02 -0.75785026714E+03  0.92227902272E+03  0.12699999809E+01 0.  1.
       -4    1    3    3    0  502  0.51660444234E+03 -0.96849396474E+02  0.95232517346E+03  0.10877429863E+04  0.12699999809E+01 0. -1.
</event>
<event>
 5   0  0.1242761E-04  0.1977682E+04  0.7818609E-02  0.8617127E-01
       -2   -1    0    0    0  501  0.00000000000E+00  0.00000000000E+00  0.71755638631E+03  0.71755638631E+03  0.25500000920E-02 0.  1.
        2   -1    0    0  501    0  0.00000000000E+00  0.00000000000E+00 -0.13626888673E+04  0.13626888673E+04  0.25500000920E-02 0. -1.
    10030    2    1    2    0    0  0.00000000000E+00  0.00000000000E+00 -0.64513248101E+03  0.20802452536E+04  0.19776815712E+04 0.  0.
        4    1    3    3  502    0  0.34765209892E+03  0.41884986262E+03 -0.11909134806E+04  0.13094173210E+04  0.12699999809E+01 0. -1.
       -4    1    3    3    0  502 -0.34765209892E+03 -0.41884986262E+03  0.54578099961E+03  0.77082793264E+03  0.12699999809E+01 0.  1.
</event>
<event>
 5   0  0.4479000E-05  0.2010739E+04  0.7818609E-02  0.8601616E-01
        3   -1    0    0  501    0  0.00000000000E+00  0.00000000000E+00  0.22945949489E+04  0.22945949512E+04  0.10100000352E+00 0.  1.
       -3   -1    0    0    0  501  0.00000000000E+00  0.00000000000E+00 -0.44049946429E+03  0.44049947587E+03  0.10100000352E+00 0. -1.
    10030    2    1    2    0    0  0.00000000000E+00  0.00000000000E+00  0.18540954847E+04  0.27350944270E+04  0.20107390329E+04 0.  0.
        2    1    3    3  502    0  0.96861038048E+03 -0.26378815820E+03  0.85282277488E+03  0.13172307873E+04  0.25500000920E-02 0. -1.
       -2    1    3    3    0  502 -0.96861038048E+03  0.26378815820E+03  0.10012727098E+04  0.14178636398E+04  0.25500000920E-02 0.  1.
</event>
<event>
 5   0  0.4479000E-05  0.1959231E+04  0.7818609E-02  0.8625922E-01
        3   -1    0    0  501    0  0.00000000000E+00  0.00000000000E+00  0.13091763556E+04  0.13091763595E+04  0.10100000352E+00 0.  1.
       -3   -1    0    0    0  501  0.00000000000E+00  0.00000000000E+00 -0.73301542976E+03  0.73301543672E+03  0.10100000352E+00 0. -1.
    10030    2    1    2    0    0  0.00000000000E+00  0.00000000000E+00  0.57616092581E+03  0.20421917962E+04  0.19592309512E+04 0.  0.
        1    1    3    3  502    0  0.27298895595E+03 -0.58010074739E+03 -0.48396241552E+03  0.80328044098E+03  0.50400001928E-02 0. -1.
       -1    1    3    3    0  502 -0.27298895595E+03  0.58010074739E+03  0.10601233413E+04  0.12389113552E+04  0.50400001928E-02 0.  1.
</event>
<event>
 5   0  0.6168338E-05  0.2008246E+04  0.7818609E-02  0.8602775E-01
       -1   -1    0    0    0  501  0.00000000000E+00  0.00000000000E+00  0.97829795269E+03  0.97829795270E+03  0.50400001928E-02 0.  1.
        1   -1    0    0  501    0  0.00000000000E+00  0.00000000000E+00 -0.10306296446E+04  0.10306296447E+04  0.50400001928E-02 0. -1.
    10030    2    1    2    0    0  0.00000000000E+00  0.00000000000E+00 -0.52331691961E+02  0.20089275974E+04  0.20082458728E+04 0.  0.
        5    1    3    3  502    0 -0.75071761448E+03 -0.65544569595E+03 -0.14890543681E+03  0.10076611117E+04  0.46999998093E+01 0. -1.
       -5    1    3    3    0  502  0.75071761448E+03  0.65544569595E+03  0.96573744845E+02  0.10012664856E+04  0.46999998093E+01 0.  1.
</event>
<event>
 5   0  0.1274868E-04  0.2011016E+04  0.7818609E-02  0.8601488E-01
        2   -1    0    0  501    0  0.00000000000E+00  0.00000000000E+00  0.19803727849E+04  0.19803727849E+04  0.25500000920E-02 0. -1.
       -2   -1    0    0    0  501  0.00000000000E+00  0.00000000000E+00 -0.51053331589E+03  0.51053331590E+03  0.25500000920E-02 0.  1.
    10030    2    1    2    0    0  0.00000000000E+00  0.00000000000E+00  0.14698394690E+04  0.24909061008E+04  0.20110159468E+04 0.  0.
        1    1    3    3  502    0 -0.35489122796E+03 -0.90827958926E+03  0.43119827013E+03  0.10662324062E+04  0.50400001928E-02 0. -1.
       -1    1    3    3    0  502  0.35489122796E+03  0.90827958926E+03  0.10386411989E+04  0.14246736946E+04  0.50400001928E-02 0.  1.
</event>
<event>
 5   0  0.1244229E-04  0.1969311E+04  0.7818609E-02  0.8621105E-01
        2   -1    0    0  501    0  0.00000000000E+00  0.00000000000E+00  0.16958360703E+04  0.16958360703E+04  0.25500000920E-02 0. -1.
       -2   -1    0    0    0  501  0.00000000000E+00  0.00000000000E+00 -0.57172166010E+03  0.57172166010E+03  0.25500000920E-02 0.  1.
    10030    2    1    2    0    0  0.00000000000E+00  0.00000000000E+00  0.11241144102E+04  0.22675577304E+04  0.19693107560E+04 0.  0.
        5    1    3    3  502    0 -0.54744868008E+03 -0.27592086620E+03 -0.32514906762E+03  0.69395705047E+03  0.46999998093E+01 0.  1.
       -5    1    3    3    0  502  0.54744868008E+03  0.27592086620E+03  0.14492634778E+04  0.15736006800E+04  0.46999998093E+01 0. -1.
</event>
<event>
 5   0  0.6214547E-05  0.1989086E+04  0.7818609E-02  0.8611741E-01
        1   -1    0    0  501    0  0.00000000000E+00  0.00000000000E+00  0.10592673335E+04  0.10592673335E+04  0.50400001928E-02 0. -1.
       -1   -1    0    0    0  501  0.00000000000E+00  0.00000000000E+00 -0.93377308117E+03  0.93377308118E+03  0.50400001928E-02 0.  1.
    10030    2    1    2    0    0  0.00000000000E+00  0.00000000000E+00  0.12549425230E+03  0.19930404147E+04  0.19890855404E+04 0.  0.
        3    1    3    3  502    0 -0.27599752593E+03 -0.95298284222E+03  0.13190885293E+03  0.10008750609E+04  0.10100000352E+00 0. -1.
       -3    1    3    3    0  502  0.27599752593E+03  0.95298284222E+03 -0.64146006327E+01  0.99216535375E+03  0.10100000352E+00 0.  1.
</event>
<event>
 5   0  0.1242761E-04  0.2098547E+04  0.7818609E-02  0.8561884E-01
       -2   -1    0    0    0  501  0.00000000000E+00  0.00000000000E+00  0.61366617349E+03  0.61366617349E+03  0.25500000920E-02 0.  1.
        2   -1    0    0  501    0  0.00000000000E+00  0.00000000000E+00 -0.17940945727E+04  0.17940945727E+04  0.25500000920E-02 0. -1.
    10030    2    1    2    0    0  0.00000000000E+00  0.00000000000E+00 -0.11804283992E+04  0.24077607462E+04  0.20985472607E+04 0.  0.
        4    1    3    3  502    0  0.33748496831E+03  0.26822520123E+02 -0.17297077160E+04  0.17625282826E+04  0.12699999809E+01 0. -1.
       -4    1    3    3    0  502 -0.33748496831E+03 -0.26822520123E+02  0.54927931673E+03  0.64523246362E+03  0.12699999809E+01 0.  1.
</event>
<event>
 5   0  0.1274868E-04  0.1994126E+04  0.7818609E-02  0.8609372E-01
        2   -1    0    0  501    0  0.00000000000E+00  0.00000000000E+00  0.15086986250E+04  0.15086986250E+04  0.25500000920E-02 0.  1.
       -2   -1    0    0    0  501  0.00000000000E+00  0.00000000000E+00 -0.65893548512E+03  0.65893548512E+03  0.25500000920E-02 0. -1.
    10030    2    1    2    0    0  0.00000000000E+00  0.00000000000E+00  0.84976313990E+03  0.21676341101E+04  0.19941264357E+04 0.  0.
        1    1    3    3  502    0 -0.29510346958E+03  0.71230555485E+03 -0.26231969736E+03  0.81441812657E+03  0.50400001928E-02 0. -1.
       -1    1    3    3    0  502  0.29510346958E+03 -0.71230555485E+03  0.11120828373E+04  0.13532159836E+04  0.50400001928E-02 0.  1.
</event>
<event>
 5   0  0.6214547E-05  0.2067948E+04  0.7818609E-02  0.8575495E-01
        1   -1    0    0  501    0  0.00000000000E+00  0.00000000000E+00  0.11707196513E+04  0.11707196513E+04  0.50400001928E-02 0. -1.
       -1   -1    0    0    0  501  0.00000000000E+00  0.00000000000E+00 -0.91320125567E+03  0.91320125568E+03  0.50400001928E-02 0.  1.
    10030    2    1    2    0    0  0.00000000000E+00  0.00000000000E+00  0.25751839563E+03  0.20839209070E+04  0.20679484091E+04 0.  0.
        3    1    3    3  502    0 -0.15651926387E+03  0.52724036855E+03  0.10110914602E+04  0.11509937608E+04  0.10100000352E+00 0. -1.
       -3    1    3    3    0  502  0.15651926387E+03 -0.52724036855E+03 -0.75357306462E+03  0.93292714620E+03  0.10100000352E+00 0.  1.
</event>
<event>
 5   0  0.1159914E-04  0.2002141E+04  0.7818609E-02  0.8605620E-01
       -2   -1    0    0    0  501  0.00000000000E+00  0.00000000000E+00  0.67159856134E+03  0.67159856134E+03  0.25500000920E-02 0.  1.
        2   -1    0    0  501    0  0.00000000000E+00  0.00000000000E+00 -0.14921749357E+04  0.14921749357E+04  0.25500000920E-02 0. -1.
    10030    2    1    2    0    0  0.00000000000E+00  0.00000000000E+00 -0.82057637439E+03  0.21637734971E+04  0.20021413937E+04 0.  0.
        3    1    3    3  502    0  0.41892338225E+03  0.46400305791E+03  0.43471998037E+03  0.76143096173E+03  0.10100000352E+00 0.  1.
       -3    1    3    3    0  502 -0.41892338225E+03 -0.46400305791E+03 -0.12552963548E+04  0.14023425353E+04  0.10100000352E+00 0. -1.
</event>
<event>
 5   0  0.6214547E-05  0.1993159E+04  0.7818609E-02  0.8609826E-01
        1   -1    0    0  501    0  0.00000000000E+00  0.00000000000E+00  0.11799745608E+04  0.11799745609E+04  0.50400001928E-02 0. -1.
       -1   -1    0    0    0  501  0.00000000000E+00  0.00000000000E+00 -0.84168794363E+03  0.84168794365E+03  0.50400001928E-02 0.  1.
    10030    2    1    2    0    0  0.00000000000E+00  0.00000000000E+00  0.33828661721E+03  0.20216625045E+04  0.19931586607E+04 0.  0.
        3    1    3    3  502    0 -0.35991458476E+03 -0.88278128467E+03 -0.12540421817E+03  0.96154434793E+03  0.10100000352E+00 0.  1.
       -3    1    3    3    0  502  0.35991458476E+03  0.88278128467E+03  0.46369083538E+03  0.10601181566E+04  0.10100000352E+00 0. -1.
</event>
<event>
 5   0  0.6168338E-05  0.2008936E+04  0.7818609E-02  0.8602454E-01
       -1   -1    0    0    0  501  0.00000000000E+00  0.00000000000E+00  0.59765766340E+03  0.59765766342E+03  0.50400001928E-02 0.  1.
        1   -1    0    0  501    0  0.00000000000E+00  0.00000000000E+00 -0.16881838532E+04  0.16881838532E+04  0.50400001928E-02 0. -1.
    10030    2    1    2    0    0  0.00000000000E+00  0.00000000000E+00 -0.10905261898E+04  0.22858415166E+04  0.20089360539E+04 0.  0.
        5    1    3    3  502    0  0.80679534443E+03  0.33008964122E+03 -0.11131064293E+04  0.14138266909E+04  0.46999998093E+01 0. -1.
       -5    1    3    3    0  502 -0.80679534443E+03 -0.33008964122E+03  0.22580239489E+02  0.87201482571E+03  0.46999998093E+01 0.  1.
</event>
<event>
 5   0  0.6256535E-05  0.1992454E+04  0.7818609E-02  0.8610157E-01
        1   -1    0    0  501    0  0.00000000000E+00  0.00000000000E+00  0.12480293652E+04  0.12480293652E+04  0.50400001928E-02 0.  1.
       -1   -1    0    0    0  501  0.00000000000E+00  0.00000000000E+00 -0.79522850132E+03  0.79522850134E+03  0.50400001928E-02 0. -1.
    10030    2    1    2    0    0  0.00000000000E+00  0.00000000000E+00  0.45280086384E+03  0.20432578665E+04  0.19924542872E+04 0.  0.
        1    1    3    3  502    0  0.68558192377E+03  0.33774637370E+03 -0.42893477675E+03  0.87640186551E+03  0.50400001928E-02 0. -1.
       -1    1    3    3    0  502 -0.68558192377E+03 -0.33774637370E+03  0.88173564059E+03  0.11668560010E+04  0.50400001928E-02 0.  1.
</event>
<event>
 5   0  0.6256535E-05  0.2005337E+04  0.7818609E-02  0.8604130E-01
        1   -1    0    0  501    0  0.00000000000E+00  0.00000000000E+00  0.10743896041E+04  0.10743896041E+04  0.50400001928E-02 0.  1.
       -1   -1    0    0    0  501  0.00000000000E+00  0.00000000000E+00 -0.93573487424E+03  0.93573487425E+03  0.50400001928E-02 0. -1.
    10030    2    1    2    0    0  0.00000000000E+00  0.00000000000E+00  0.13865472985E+03  0.20101244784E+04  0.20053367010E+04 0.  0.
        1    1    3    3  502    0  0.45004432420E+02  0.47616680532E+02  0.10722415362E+04  0.10742414343E+04  0.50400001928E-02 0.  1.
       -1    1    3    3    0  502 -0.45004432420E+02 -0.47616680532E+02 -0.93358680633E+03  0.93588304407E+03  0.50400001928E-02 0. -1.
</event>
<event>
 5   0  0.1159914E-04  0.1950859E+04  0.7818609E-02  0.8629947E-01
       -2   -1    0    0    0  501  0.00000000000E+00  0.00000000000E+00  0.16468312137E+04  0.16468312137E+04  0.25500000920E-02 0.  1.
        2   -1    0    0  501    0  0.00000000000E+00  0.00000000000E+00 -0.57775362354E+03  0.57775362354E+03  0.25500000920E-02 0. -1.
    10030    2    1    2    0    0  0.00000000000E+00  0.00000000000E+00  0.10690775902E+04  0.22245848373E+04  0.19508589914E+04 0.  0.
        3    1    3    3  502    0 -0.35448120182E+03 -0.11923416333E+03 -0.49274672013E+03  0.61860572948E+03  0.10100000352E+00 0. -1.
       -3    1    3    3    0  502  0.35448120182E+03  0.11923416333E+03  0.15618243103E+04  0.16059791078E+04  0.10100000352E+00 0.  1.
</event>
<event>
 5   0  0.6256535E-05  0.1997661E+04  0.7818609E-02  0.8607715E-01
        1   -1    0    0  501    0  0.00000000000E+00  0.00000000000E+00  0.17096899509E+04  0.17096899509E+04  0.50400001928E-02 0.  1.
       -1   -1    0    0    0  501  0.00000000000E+00  0.00000000000E+00 -0.58353413186E+03  0.58353413188E+03  0.50400001928E-02 0. -1.
    10030    2    1    2    0    0  0.00000000000E+00  0.00000000000E+00  0.11261558191E+04  0.22932240828E+04  0.19976610736E+04 0.  0.
        1    1    3    3  502    0 -0.92821657135E+03 -0.10879632123E+03  0.15845072608E+03  0.94790784123E+03  0.50400001928E-02 0.  1.
       -1    1    3    3    0  502  0.92821657135E+03  0.10879632123E+03  0.96770509299E+03  0.13453162416E+04  0.50400001928E-02 0. -1.
</event>
<event>
 5   0  0.6222733E-05  0.1979931E+04  0.7818609E-02  0.8616061E-01
       -1   -1    0    0    0  501  0.00000000000E+00  0.00000000000E+00  0.59246239275E+03  0.59246239277E+03  0.50400001928E-02 0.  1.
        1   -1    0    0  501    0  0.00000000000E+00  0.00000000000E+00 -0.16541674008E+04  0.16541674008E+04  0.50400001928E-02 0. -1.
    10030    2    1    2    0    0  0.00000000000E+00  0.00000000000E+00 -0.10617050081E+04  0.22466297936E+04  0.19799312880E+04 0.  0.
        2    1    3    3  502    0  0.85935208002E+03 -0.22178470482E+03 -0.33188781287E+02  0.88813059171E+03  0.25500000920E-02 0.  1.
       -2    1    3    3    0  502 -0.85935208002E+03  0.22178470482E+03 -0.10285162268E+04  0.13584992019E+04  0.25500000920E-02 0. -1.
</event>
<event>
 5   0  0.6168338E-05  0.1979330E+04  0.7818609E-02  0.8616346E-01
       -1   -1    0    0    0  501  0.00000000000E+00  0.00000000000E+00  0.12823557647E+04  0.12823557647E+04  0.50400001928E-02 0. -1.
        1   -1    0    0  501    0  0.00000000000E+00  0.00000000000E+00 -0.76377918129E+03  0.76377918131E+03  0.50400001928E-02 0.  1.
    10030    2    1    2    0    0  0.00000000000E+00  0.00000000000E+00  0.51857658339E+03  0.20461349460E+04  0.19793298220E+04 0.  0.
        5    1    3    3  502    0 -0.46424466164E+02  0.43484795244E+03 -0.65846322467E+03  0.79047067058E+03  0.46999998093E+01 0.  1.
       -5    1    3    3    0  502  0.46424466164E+02 -0.43484795244E+03  0.11770398081E+04  0.12556642754E+04  0.46999998093E+01 0. -1.
</event>
<event>
 5   0  0.1274868E-04  0.1902056E+04  0.7818609E-02  0.8653834E-01
        2   -1    0    0  501    0  0.00000000000E+00  0.00000000000E+00  0.21845392361E+04  0.21845392361E+04  0.25500000920E-02 0.  1.
       -2   -1    0    0    0  501  0.00000000000E+00  0.00000000000E+00 -0.41402513783E+03  0.41402513784E+03  0.25500000920E-02 0. -1.
    10030    2    1    2    0    0  0.00000000000E+00  0.00000000000E+00  0.17705140983E+04  0.25985643739E+04  0.19020558965E+04 0.  0.
        1    1    3    3  502    0 -0.61332467779E+03 -0.65451520861E+03  0.13170604703E+04  0.15934885005E+04  0.50400001928E-02 0.  1.
       -1    1    3    3    0  502  0.61332467779E+03  0.65451520861E+03  0.45345362800E+03  0.10050758735E+04  0.50400001928E-02 0. -1.
</event>
<event>
 5   0  0.1159914E-04  0.2000956E+04  0.7818609E-02  0.8606174E-01
        2   -1    0    0  501    0  0.00000000000E+00  0.00000000000E+00  0.10242305992E+04  0.10242305992E+04  0.25500000920E-02 0. -1.
       -2   -1    0    0    0  501  0.00000000000E+00  0.00000000000E+00 -0.97727593325E+03  0.97727593325E+03  0.25500000920E-02 0.  1.
    10030    2    1    2    0    0  0.00000000000E+00  0.00000000000E+00  0.46954665924E+02  0.20015065324E+04  0.20009556863E+04 0.  0.
        3    1    3    3  502    0 -0.38952661370E+03 -0.78735858112E+03 -0.45549829036E+03  0.98951666018E+03  0.10100000352E+00 0. -1.
       -3    1    3    3    0  502  0.38952661370E+03  0.78735858112E+03  0.50245295629E+03  0.10119898722E+04  0.10100000352E+00 0.  1.
</event>
<event>
 5   0  0.6028501E-05  0.2006037E+04  0.7818609E-02  0.8603804E-01
       -1   -1    0    0    0  501  0.00000000000E+00  0.00000000000E+00  0.24523625015E+04  0.24523625015E+04  0.50400001928E-02 0. -1.
        1   -1    0    0  501    0  0.00000000000E+00  0.00000000000E+00 -0.41023532576E+03  0.41023532579E+03  0.50400001928E-02 0.  1.
    10030    2    1    2    0    0  0.00000000000E+00  0.00000000000E+00  0.20421271757E+04  0.28625978273E+04  0.20060366195E+04 0.  0.
        4    1    3    3  502    0  0.57330404813E+03 -0.65538930072E+03  0.31066892604E+03  0.92451579847E+03  0.12699999809E+01 0.  1.
       -4    1    3    3    0  502 -0.57330404813E+03  0.65538930072E+03  0.17314582496E+04  0.19380820288E+04  0.12699999809E+01 0. -1.
</event>
<event>
 5   0  0.6222733E-05  0.1993867E+04  0.7818609E-02  0.8609493E-01
        1   -1    0    0  501    0  0.00000000000E+00  0.00000000000E+00  0.30385688137E+04  0.30385688137E+04  0.50400001928E-02 0.  1.
       -1   -1    0    0    0  501  0.00000000000E+00  0.00000000000E+00 -0.32708703492E+03  0.32708703496E+03  0.50400001928E-02 0. -1.
    10030    2    1    2    0    0  0.00000000000E+00  0.00000000000E+00  0.27114817787E+04  0.33656558486E+04  0.19938670605E+04 0.  0.
        2    1    3    3  502    0  0.94855745852E+03 -0.28635205106E+03  0.11699245652E+04  0.15331282522E+04  0.25500000920E-02 0.  1.
       -2    1    3    3    0  502 -0.94855745852E+03  0.28635205106E+03  0.15415572135E+04  0.18325275965E+04  0.25500000920E-02 0. -1.
</event>
<event>
 5   0  0.6028501E-05  0.1938865E+04  0.7818609E-02  0.8635749E-01
       -1   -1    0    0    0  501  0.00000000000E+00  0.00000000000E+00  0.44774400044E+03  0.44774400047E+03  0.50400001928E-02 0. -1.
        1   -1    0    0  501    0  0.00000000000E+00  0.00000000000E+00 -0.20989650842E+04  0.20989650842E+04  0.50400001928E-02 0.  1.
    10030    2    1    2    0    0  0.00000000000E+00  0.00000000000E+00 -0.16512210838E+04  0.25467090847E+04  0.19388646406E+04 0.  0.
        4    1    3    3  502    0 -0.35524932678E+03 -0.89587640060E+03 -0.96337716380E+03  0.13626788991E+04  0.12699999809E+01 0.  1.
       -4    1    3    3    0  502  0.35524932678E+03  0.89587640060E+03 -0.68784391998E+03  0.11840301856E+04  0.12699999809E+01 0. -1.
</event>
<event>
 5   0  0.6256535E-05  0.2002574E+04  0.7818609E-02  0.8605418E-01
       -1   -1    0    0    0  501  0.00000000000E+00  0.00000000000E+00  0.65811613540E+03  0.65811613542E+03  0.50400001928E-02 0.  1.
        1   -1    0    0  501    0  0.00000000000E+00  0.00000000000E+00 -0.15234024800E+04  0.15234024800E+04  0.50400001928E-02 0. -1.
    10030    2    1    2    0    0  0.00000000000E+00  0.00000000000E+00 -0.86528634459E+03  0.21815186154E+04  0.20025740963E+04 0.  0.
        1    1    3    3  502    0  0.58207422329E+03  0.40786086424E+03 -0.12009411849E+04  0.13955001310E+04  0.50400001928E-02 0. -1.
       -1    1    3    3    0  502 -0.58207422329E+03 -0.40786086424E+03  0.33565484032E+03  0.78601848442E+03  0.50400001928E-02 0.  1.
</event>
<event>
 5   0  0.6256535E-05  0.2018293E+04  0.7818609E-02  0.8598116E-01
        1   -1    0    0  501    0  0.00000000000E+00  0.00000000000E+00  0.12605789344E+04  0.12605789344E+04  0.50400001928E-02 0. -1.
       -1   -1    0    0    0  501  0.00000000000E+00  0.00000000000E+00 -0.80786427787E+03  0.80786427788E+03  0.50400001928E-02 0.  1.
    10030    2    1    2    0    0  0.00000000000E+00  0.00000000000E+00  0.45271465655E+03  0.20684432123E+04  0.20182930318E+04 0.  0.
        1    1    3    3  502    0 -0.18229111626E+03 -0.26068924507E+03  0.12078532645E+04  0.12490390075E+04  0.50400001928E-02 0. -1.
       -1    1    3    3    0  502  0.18229111626E+03  0.26068924507E+03 -0.75513860799E+03  0.81940420482E+03  0.50400001928E-02 0.  1.
</event>
<event>
 5   0  0.1242761E-04  0.2000468E+04  0.7818609E-02  0.8606402E-01
       -2   -1    0    0    0  501  0.00000000000E+00  0.00000000000E+00  0.59098592046E+03  0.59098592046E+03  0.25500000920E-02 0. -1.
        2   -1    0    0  501    0  0.00000000000E+00  0.00000000000E+00 -0.16928792233E+04  0.16928792233E+04  0.25500000920E-02 0.  1.
    10030    2    1    2    0    0  0.00000000000E+00  0.00000000000E+00 -0.11018933028E+04  0.22838651438E+04  0.20004677313E+04 0.  0.
        4    1    3    3  502    0 -0.87542131491E+03  0.36258430315E+03 -0.18519235442E+03  0.96546759475E+03  0.12699999809E+01 0. -1.
       -4    1    3    3    0  502  0.87542131491E+03 -0.36258430315E+03 -0.91670094842E+03  0.13183975490E+04  0.12699999809E+01 0.  1.
</event>
<event>
 5   0  0.1242761E-04  0.2060117E+04  0.7818609E-02  0.8579019E-01
       -2   -1    0    0    0  501  0.00000000000E+00  0.00000000000E+00  0.16673939794E+04  0.16673939794E+04  0.25500000920E-02 0.  1.
        2   -1    0    0  501    0  0.00000000000E+00  0.00000000000E+00 -0.63633436042E+03  0.63633436042E+03  0.25500000920E-02 0. -1.
    10030    2    1    2    0    0  0.00000000000E+00  0.00000000000E+00  0.10310596189E+04  0.23037283398E+04  0.20601165806E+04 0.  0.
        4    1    3    3  502    0  0.62978221153E+03 -0.81299789813E+03  0.58099531107E+03  0.11811639940E+04  0.12699999809E+01 0. -1.
       -4    1    3    3    0  502 -0.62978221153E+03  0.81299789813E+03  0.45006430787E+03  0.11225643458E+04  0.12699999809E+01 0.  1.
</event>
<event>
 5   0  0.6256535E-05  0.2077724E+04  0.7818609E-02  0.8571120E-01
       -1   -1    0    0    0  501  0.00000000000E+00  0.00000000000E+00  0.17044973986E+04  0.17044973987E+04  0.50400001928E-02 0.  1.
        1   -1    0    0  501    0  0.00000000000E+00  0.00000000000E+00 -0.63316871682E+03  0.63316871684E+03  0.50400001928E-02 0. -1.
    10030    2    1    2    0    0  0.00000000000E+00  0.00000000000E+00  0.10713286818E+04  0.23376661155E+04  0.20777241691E+04 0.  0.
        1    1    3    3  502    0 -0.70452098028E+02  0.78620505232E+03  0.12955524397E+04  0.15170820698E+04  0.50400001928E-02 0.  1.
       -1    1    3    3    0  502  0.70452098028E+02 -0.78620505232E+03 -0.22422375789E+03  0.82058404569E+03  0.50400001928E-02 0. -1.
</event>
<event>
 5   0  0.6028501E-05  0.2009690E+04  0.7818609E-02  0.8602104E-01
       -1   -1    0    0    0  501  0.00000000000E+00  0.00000000000E+00  0.13161874214E+04  0.13161874215E+04  0.50400001928E-02 0. -1.
        1   -1    0    0  501    0  0.00000000000E+00  0.00000000000E+00 -0.76715007643E+03  0.76715007645E+03  0.50400001928E-02 0.  1.
    10030    2    1    2    0    0  0.00000000000E+00  0.00000000000E+00  0.54903734501E+03  0.20833374979E+04  0.20096898079E+04 0.  0.
        4    1    3    3  502    0 -0.27422986758E+03  0.79173239860E+03  0.84952522427E+03  0.11932044799E+04  0.12699999809E+01 0. -1.
       -4    1    3    3    0  502  0.27422986758E+03 -0.79173239860E+03 -0.30048787926E+03  0.89013301800E+03  0.12699999809E+01 0.  1.
</event>
<event>
 5   0  0.1242761E-04  0.1929433E+04  0.7818609E-02  0.8640343E-01
        2   -1    0    0  501    0  0.00000000000E+00  0.00000000000E+00  0.13183848155E+04  0.13183848155E+04  0.25500000920E-02 0.  1.
       -2   -1    0    0    0  501  0.00000000000E+00  0.00000000000E+00 -0.70592282898E+03  0.70592282898E+03  0.25500000920E-02 0. -1.
    10030    2    1    2    0    0  0.00000000000E+00  0.00000000000E+00  0.61246198655E+03  0.20243076445E+04  0.19294330138E+04 0.  0.
        4    1    3    3  502    0 -0.91635384328E+03 -0.21210694592E+03  0.53121082459E+03  0.10802223270E+04  0.12699999809E+01 0.  1.
       -4    1    3    3    0  502  0.91635384328E+03  0.21210694592E+03  0.81251161967E+02  0.94408531756E+03  0.12699999809E+01 0. -1.
</event>
<event>
 5   0  0.1242761E-04  0.2007014E+04  0.7818609E-02  0.8603348E-01
        2   -1    0    0  501    0  0.00000000000E+00  0.00000000000E+00  0.15431606754E+04  0.15431606754E+04  0.25500000920E-02 0. -1.
       -2   -1    0    0    0  501  0.00000000000E+00  0.00000000000E+00 -0.65257389706E+03  0.65257389707E+03  0.25500000920E-02 0.  1.
    10030    2    1    2    0    0  0.00000000000E+00  0.00000000000E+00  0.89058677829E+03  0.21957345724E+04  0.20070140764E+04 0.  0.
        4    1    3    3  502    0  0.50157298704E+03  0.43964060343E+03  0.12655722009E+04  0.14305711901E+04  0.12699999809E+01 0. -1.
       -4    1    3    3    0  502 -0.50157298704E+03 -0.43964060343E+03 -0.37498542260E+03  0.76516338227E+03  0.12699999809E+01 0.  1.
</event>
<event>
 5   0  0.1244229E-04  0.1817446E+04  0.7818609E-02  0.8697077E-01
        2   -1    0    0  501    0  0.00000000000E+00  0.00000000000E+00  0.12478725239E+04  0.12478725239E+04  0.25500000920E-02 0.  1.
       -2   -1    0    0    0  501  0.00000000000E+00  0.00000000000E+00 -0.66174827424E+03  0.66174827425E+03  0.25500000920E-02 0. -1.
    10030    2    1    2    0    0  0.00000000000E+00  0.00000000000E+00  0.58612424963E+03  0.19096207981E+04  0.18174459983E+04 0.  0.
        5    1    3    3  502    0  0.16156364470E+03  0.78247344930E+03  0.74789974637E+03  0.10944147435E+04  0.46999998093E+01 0.  1.
       -5    1    3    3    0  502 -0.16156364470E+03 -0.78247344930E+03 -0.16177549674E+03  0.81520605463E+03  0.46999998093E+01 0. -1.
</event>
<event>
 5   0  0.1274868E-04  0.2002248E+04  0.7818609E-02  0.8605570E-01
        2   -1    0    0  501    0  0.00000000000E+00  0.00000000000E+00  0.18748868589E+04  0.18748868589E+04  0.25500000920E-02 0. -1.
       -2   -1    0    0    0  501  0.00000000000E+00  0.00000000000E+00 -0.53456520286E+03  0.53456520287E+03  0.25500000920E-02 0.  1.
    10030    2    1    2    0    0  0.00000000000E+00  0.00000000000E+00  0.13403216561E+04  0.24094520618E+04  0.20022480107E+04 0.  0.
        1    1    3    3  502    0 -0.36034167666E+03  0.39719902141E+03 -0.34712475766E+03  0.63883392517E+03  0.50400001928E-02 0.  1.
       -1    1    3    3    0  502  0.36034167666E+03 -0.39719902141E+03  0.16874464137E+04  0.17706181366E+04  0.50400001928E-02 0. -1.
</event>
<event>
 5   0  0.4479000E-05  0.1993312E+04  0.7818609E-02  0.8609754E-01
       -3   -1    0    0    0  501  0.00000000000E+00  0.00000000000E+00  0.56231139029E+03  0.56231139936E+03  0.10100000352E+00 0.  1.
        3   -1    0    0  501    0  0.00000000000E+00  0.00000000000E+00 -0.17665005670E+04  0.17665005698E+04  0.10100000352E+00 0. -1.
    10030    2    1    2    0    0  0.00000000000E+00  0.00000000000E+00 -0.12041891767E+04  0.23288119692E+04  0.19933122221E+04 0.  0.
        2    1    3    3  502    0  0.64925611313E+03 -0.75447859892E+03 -0.54307517060E+03  0.11338880446E+04  0.25500000920E-02 0.  1.
       -2    1    3    3    0  502 -0.64925611313E+03  0.75447859892E+03 -0.66111400606E+03  0.11949239246E+04  0.25500000920E-02 0. -1.
</event>
<event>
 5   0  0.1244229E-04  0.1994401E+04  0.7818609E-02  0.8609243E-01
        2   -1    0    0  501    0  0.00000000000E+00  0.00000000000E+00  0.10509092263E+04  0.10509092263E+04  0.25500000920E-02 0. -1.
       -2   -1    0    0    0  501  0.00000000000E+00  0.00000000000E+00 -0.94623644897E+03  0.94623644897E+03  0.25500000920E-02 0.  1.
    10030    2    1    2    0    0  0.00000000000E+00  0.00000000000E+00  0.10467277729E+03  0.19971456752E+04  0.19944007766E+04 0.  0.
        5    1    3    3  502    0  0.61031902308E+03  0.47012574240E+03 -0.58168507919E+03  0.96534301932E+03  0.46999998093E+01 0.  1.
       -5    1    3    3    0  502 -0.61031902308E+03 -0.47012574240E+03  0.68635785648E+03  0.10318026559E+04  0.46999998093E+01 0. -1.
</event>
<event>
 5   0  0.6222733E-05  0.1922749E+04  0.7818609E-02  0.8643615E-01
       -1   -1    0    0    0  501  0.00000000000E+00  0.00000000000E+00  0.84917278946E+03  0.84917278947E+03  0.50400001928E-02 0. -1.
        1   -1    0    0  501    0  0.00000000000E+00  0.00000000000E+00 -0.10884019682E+04  0.10884019683E+04  0.50400001928E-02 0.  1.
    10030    2    1    2    0    0  0.00000000000E+00  0.00000000000E+00 -0.23922917879E+03  0.19375747577E+04  0.19227494225E+04 0.  0.
        2    1    3    3  502    0 -0.61864121749E+03  0.51747294328E+03  0.40762713819E+03  0.90368970714E+03  0.25500000920E-02 0. -1.
       -2    1    3    3    0  502  0.61864121749E+03 -0.51747294328E+03 -0.64685631697E+03  0.10338850506E+04  0.25500000920E-02 0.  1.
</event>
<event>
 5   0  0.1244229E-04  0.2009379E+04  0.7818609E-02  0.8602248E-01
       -2   -1    0    0    0  501  0.00000000000E+00  0.00000000000E+00  0.59069872863E+03  0.59069872864E+03  0.25500000920E-02 0.  1.
        2   -1    0    0  501    0  0.00000000000E+00  0.00000000000E+00 -0.17088254997E+04  0.17088254997E+04  0.25500000920E-02 0. -1.
    10030    2    1    2    0    0  0.00000000000E+00  0.00000000000E+00 -0.11181267710E+04  0.22995242283E+04  0.20093790584E+04 0.  0.
        5    1    3    3  502    0 -0.46154861012E+03  0.79220390356E+03 -0.10291924194E+04  0.13783589048E+04  0.46999998093E+01 0. -1.
       -5    1    3    3    0  502  0.46154861012E+03 -0.79220390356E+03 -0.88934351653E+02  0.92116532350E+03  0.46999998093E+01 0.  1.
</event>
<event>
 5   0  0.6214547E-05  0.1992004E+04  0.7818609E-02  0.8610368E-01
        1   -1    0    0  501    0  0.00000000000E+00  0.00000000000E+00  0.61743103302E+03  0.61743103304E+03  0.50400001928E-02 0. -1.
       -1   -1    0    0    0  501  0.00000000000E+00  0.00000000000E+00 -0.16066900319E+04  0.16066900319E+04  0.50400001928E-02 0.  1.
    10030    2    1    2    0    0  0.00000000000E+00  0.00000000000E+00 -0.98925899889E+03  0.22241210650E+04  0.19920043034E+04 0.  0.
        3    1    3    3  502    0  0.69355708399E+03  0.70869515532E+03 -0.59907092103E+03  0.11585146657E+04  0.10100000352E+00 0.  1.
       -3    1    3    3    0  502 -0.69355708399E+03 -0.70869515532E+03 -0.39018807786E+03  0.10656063993E+04  0.10100000352E+00 0. -1.
</event>
<event>
 5   0  0.6028501E-05  0.2004568E+04  0.7818609E-02  0.8604488E-01
        1   -1    0    0  501    0  0.00000000000E+00  0.00000000000E+00  0.16107579191E+04  0.16107579191E+04  0.50400001928E-02 0. -1.
       -1   -1    0    0    0  501  0.00000000000E+00  0.00000000000E+00 -0.62366486612E+03  0.62366486614E+03  0.50400001928E-02 0.  1.
    10030    2    1    2    0    0  0.00000000000E+00  0.00000000000E+00  0.98709305300E+03  0.22344227853E+04  0.20045679056E+04 0.  0.
        4    1    3    3  502    0  0.40701532259E+03 -0.67484056323E+03  0.11838298869E+04  0.14221554319E+04  0.12699999809E+01 0. -1.
       -4    1    3    3    0  502 -0.40701532259E+03  0.67484056323E+03 -0.19673683387E+03  0.81226735334E+03  0.12699999809E+01 0.  1.
</event>
<event>
 5   0  0.6214547E-05  0.1973093E+04  0.7818609E-02  0.8619305E-01
       -1   -1    0    0    0  501  0.00000000000E+00  0.00000000000E+00  0.10588671441E+04  0.10588671441E+04  0.50400001928E-02 0. -1.
        1   -1    0    0  501    0  0.00000000000E+00  0.00000000000E+00 -0.91916555036E+03  0.91916555037E+03  0.50400001928E-02 0.  1.
    10030    2    1    2    0    0  0.00000000000E+00  0.00000000000E+00  0.13970159369E+03  0.19780326944E+04  0.19730932074E+04 0.  0.
        3    1    3    3  502    0  0.43182505439E+03 -0.17910327775E+03  0.94077378017E+03  0.10505266191E+04  0.10100000352E+00 0. -1.
       -3    1    3    3    0  502 -0.43182505439E+03  0.17910327775E+03 -0.80107218648E+03  0.92750607537E+03  0.10100000352E+00 0.  1.
</event>
<event>
 5   0  0.6214547E-05  0.2013795E+04  0.7818609E-02  0.8600198E-01
        1   -1    0    0  501    0  0.00000000000E+00  0.00000000000E+00  0.10680413524E+04  0.10680413524E+04  0.50400001928E-02 0.  1.
       -1   -1    0    0    0  501  0.00000000000E+00  0.00000000000E+00 -0.94925422509E+03  0.94925422510E+03  0.50400001928E-02 0. -1.
    10030    2    1    2    0    0  0.00000000000E+00  0.00000000000E+00  0.11878712732E+03  0.20172955775E+04  0.20137951896E+04 0.  0.
        3    1    3    3  502    0  0.62221164994E+02  0.33330490351E+03 -0.89034677532E+03  0.95272295165E+03  0.10100000352E+00 0. -1.
       -3    1    3    3    0  502 -0.62221164994E+02 -0.33330490351E+03  0.10091339026E+04  0.10645726259E+04  0.10100000352E+00 0.  1.
</event>
<event>
 5   0  0.1281789E-04  0.2028439E+04  0.7818609E-02  0.8593439E-01
       -2   -1    0    0    0  501  0.00000000000E+00  0.00000000000E+00  0.12595132639E+04  0.12595132639E+04  0.25500000920E-02 0.  1.
        2   -1    0    0  501    0  0.00000000000E+00  0.00000000000E+00 -0.81669719287E+03  0.81669719287E+03  0.25500000920E-02 0. -1.
    10030    2    1    2    0    0  0.00000000000E+00  0.00000000000E+00  0.44281607105E+03  0.20762104568E+04  0.20284387563E+04 0.  0.
        2    1    3    3  502    0 -0.58620243148E+03 -0.63674559112E+03 -0.31978113054E+03  0.92267990654E+03  0.25500000920E-02 0. -1.
       -2    1    3    3    0  502  0.58620243148E+03  0.63674559112E+03  0.76259720159E+03  0.11535305503E+04  0.25500000920E-02 0.  1.
</event>
<event>
 5   0  0.6168338E-05  0.1991763E+04  0.7818609E-02  0.8610481E-01
       -1   -1    0    0    0  501  0.00000000000E+00  0.00000000000E+00  0.12312319785E+04  0.12312319785E+04  0.50400001928E-02 0.  1.
        1   -1    0    0  501    0  0.00000000000E+00  0.00000000000E+00 -0.80551846927E+03  0.80551846928E+03  0.50400001928E-02 0. -1.
    10030    2    1    2    0    0  0.00000000000E+00  0.00000000000E+00  0.42571350924E+03  0.20367504478E+04  0.19917631372E+04 0.  0.
        5    1    3    3  502    0 -0.59416038962E+03  0.42603165662E+03 -0.47860276683E+03  0.87384909421E+03  0.46999998093E+01 0. -1.
       -5    1    3    3    0  502  0.59416038962E+03 -0.42603165662E+03  0.90431627607E+03  0.11629013536E+04  0.46999998093E+01 0.  1.
</event>
<event>
 5   0  0.6222733E-05  0.2003601E+04  0.7818609E-02  0.8604939E-01
       -1   -1    0    0    0  501  0.00000000000E+00  0.00000000000E+00  0.48526942755E+03  0.48526942757E+03  0.50400001928E-02 0.  1.
        1   -1    0    0  501    0  0.00000000000E+00  0.00000000000E+00 -0.20681388238E+04  0.20681388238E+04  0.50400001928E-02 0. -1.
    10030    2    1    2    0    0  0.00000000000E+00  0.00000000000E+00 -0.15828693962E+04  0.25534082514E+04  0.20036013008E+04 0.  0.
        2    1    3    3  502    0  0.45530738870E+03 -0.83409287981E+03 -0.11956230099E+04  0.15272622997E+04  0.25500000920E-02 0. -1.
       -2    1    3    3    0  502 -0.45530738870E+03  0.83409287981E+03 -0.38724638637E+03  0.10261459517E+04  0.25500000920E-02 0.  1.
</event>
<event>
 5   0  0.6214547E-05  0.1983011E+04  0.7818609E-02  0.8614605E-01
       -1   -1    0    0    0  501  0.00000000000E+00  0.00000000000E+00  0.99148215182E+03  0.99148215183E+03  0.50400001928E-02 0.  1.
        1   -1    0    0  501    0  0.00000000000E+00  0.00000000000E+00 -0.99152893279E+03  0.99152893281E+03  0.50400001928E-02 0. -1.
    10030    2    1    2    0    0  0.00000000000E+00  0.00000000000E+00 -0.46780975095E-01  0.19830110846E+04  0.19830110841E+04 0.  0.
        3    1    3    3  502    0 -0.45413258604E+03  0.41755338345E+03  0.77618276532E+03  0.99148723093E+03  0.10100000352E+00 0.  1.
       -3    1    3    3    0  502  0.45413258604E+03 -0.41755338345E+03 -0.77622954629E+03  0.99152385371E+03  0.10100000352E+00 0. -1.
</event>
<event>
 5   0  0.1274868E-04  0.1998889E+04  0.7818609E-02  0.8607140E-01
        2   -1    0    0  501    0  0.00000000000E+00  0.00000000000E+00  0.16957530777E+04  0.16957530777E+04  0.25500000920E-02 0. -1.
       -2   -1    0    0    0  501  0.00000000000E+00  0.00000000000E+00 -0.58905323397E+03  0.58905323398E+03  0.25500000920E-02 0.  1.
    10030    2    1    2    0    0  0.00000000000E+00  0.00000000000E+00  0.11066998437E+04  0.22848063117E+04  0.19988885256E+04 0.  0.
        1    1    3    3  502    0  0.33548264643E+03  0.30979619872E+03  0.15695403245E+04  0.16346189529E+04  0.50400001928E-02 0. -1.
       -1    1    3    3    0  502 -0.33548264643E+03 -0.30979619872E+03 -0.46284048082E+03  0.65018735877E+03  0.50400001928E-02 0.  1.
</event>
<event>
 5   0  0.1281789E-04  0.2017549E+04  0.7818609E-02  0.8598460E-01
        2   -1    0    0  501    0  0.00000000000E+00  0.00000000000E+00  0.50652063445E+03  0.50652063446E+03  0.25500000920E-02 0.  1.
       -2   -1    0    0    0  501  0.00000000000E+00  0.00000000000E+00 -0.20090509458E+04  0.20090509458E+04  0.25500000920E-02 0. -1.
    10030    2    1    2    0    0  0.00000000000E+00  0.00000000000E+00 -0.15025303114E+04  0.25155715803E+04  0.20175487699E+04 0.  0.
        2    1    3    3  502    0  0.90044222968E+03 -0.93963472059E+02 -0.13060769567E+04  0.15891703369E+04  0.25500000920E-02 0. -1.
       -2    1    3    3    0  502 -0.90044222968E+03  0.93963472059E+02 -0.19645335469E+03  0.92640124333E+03  0.25500000920E-02 0.  1.
</event>
<event>
 5   0  0.6214547E-05  0.1971314E+04  0.7818609E-02  0.8620151E-01
       -1   -1    0    0    0  501  0.00000000000E+00  0.00000000000E+00  0.63254640347E+03  0.63254640349E+03  0.50400001928E-02 0. -1.
        1   -1    0    0  501    0  0.00000000000E+00  0.00000000000E+00 -0.15358872481E+04  0.15358872481E+04  0.50400001928E-02 0.  1.
    10030    2    1    2    0    0  0.00000000000E+00  0.00000000000E+00 -0.90334084458E+03  0.21684336516E+04  0.19713142367E+04 0.  0.
        3    1    3    3  502    0 -0.43444583227E+03  0.34421490340E+03 -0.13482112537E+04  0.14577039054E+04  0.10100000352E+00 0.  1.
       -3    1    3    3    0  502  0.43444583227E+03 -0.34421490340E+03  0.44487040917E+03  0.71072974615E+03  0.10100000352E+00 0. -1.
</event>
<event>
 5   0  0.1274868E-04  0.2008574E+04  0.7818609E-02  0.8602623E-01
       -2   -1    0    0    0  501  0.00000000000E+00  0.00000000000E+00  0.46047438771E+03  0.46047438772E+03  0.25500000920E-02 0.  1.
        2   -1    0    0  501    0  0.00000000000E+00  0.00000000000E+00 -0.21903324395E+04  0.21903324395E+04  0.25500000920E-02 0. -1.
    10030    2    1    2    0    0  0.00000000000E+00  0.00000000000E+00 -0.17298580517E+04  0.26508068272E+04  0.20085736123E+04 0.  0.
        1    1    3    3  502    0  0.27359432327E+03 -0.48053308855E+03  0.24147631564E+03  0.60338769789E+03  0.50400001928E-02 0.  1.
       -1    1    3    3    0  502 -0.27359432327E+03  0.48053308855E+03 -0.19713343674E+04  0.20474191293E+04  0.50400001928E-02 0. -1.
</event>
<event>
 5   0  0.6256535E-05  0.1986252E+04  0.7818609E-02  0.8613075E-01
        1   -1    0    0  501    0  0.00000000000E+00  0.00000000000E+00  0.14962989959E+04  0.14962989959E+04  0.50400001928E-02 0.  1.
       -1   -1    0    0    0  501  0.00000000000E+00  0.00000000000E+00 -0.65915952254E+03  0.65915952256E+03  0.50400001928E-02 0. -1.
    10030    2    1    2    0    0  0.00000000000E+00  0.00000000000E+00  0.83713947337E+03  0.21554585185E+04  0.19862524832E+04 0.  0.
        1    1    3    3  502    0  0.25910208402E+03  0.95602506821E+02 -0.61664898386E+03  0.67566981476E+03  0.50400001928E-02 0. -1.
       -1    1    3    3    0  502 -0.25910208402E+03 -0.95602506821E+02  0.14537884572E+04  0.14797887037E+04  0.50400001928E-02 0.  1.
</event>
<event>
 5   0  0.6214547E-05  0.1978036E+04  0.7818609E-02  0.8616959E-01
        1   -1    0    0  501    0  0.00000000000E+00  0.00000000000E+00  0.81553004243E+03  0.81553004245E+03  0.50400001928E-02 0.  1.
       -1   -1    0    0    0  501  0.00000000000E+00  0.00000000000E+00 -0.11994116647E+04  0.11994116647E+04  0.50400001928E-02 0. -1.
    10030    2    1    2    0    0  0.00000000000E+00  0.00000000000E+00 -0.38388162223E+03  0.20149417071E+04  0.19780356375E+04 0.  0.
        3    1    3    3  502    0  0.61602603949E+02  0.93298608707E+03  0.13640586862E+03  0.94491507062E+03  0.10100000352E+00 0.  1.
       -3    1    3    3    0  502 -0.61602603949E+02 -0.93298608707E+03 -0.52028749085E+03  0.10700266365E+04  0.10100000352E+00 0. -1.
</event>
<event>
 5   0  0.1242761E-04  0.1994770E+04  0.7818609E-02  0.8609070E-01
        2   -1    0    0  501    0  0.00000000000E+00  0.00000000000E+00  0.20503730486E+04  0.20503730486E+04  0.25500000920E-02 0. -1.
       -2   -1    0    0    0  501  0.00000000000E+00  0.00000000000E+00 -0.48516877829E+03  0.48516877830E+03  0.25500000920E-02 0.  1.
    10030    2    1    2    0    0  0.00000000000E+00  0.00000000000E+00  0.15652042703E+04  0.25355418269E+04  0.19947701492E+04 0.  0.
        4    1    3    3  502    0 -0.54050696435E+03  0.30354837541E+03  0.17757542362E+04  0.18808493068E+04  0.12699999809E+01 0. -1.
       -4    1    3    3    0  502  0.54050696435E+03 -0.30354837541E+03 -0.21054996593E+03  0.65469252002E+03  0.12699999809E+01 0.  1.
</event>
<event>
 5   0  0.1244229E-04  0.2239117E+04  0.7818609E-02  0.8502321E-01
       -2   -1    0    0    0  501  0.00000000000E+00  0.00000000000E+00  0.85957207724E+03  0.85957207724E+03  0.25500000920E-02 0.  1.
        2   -1    0    0  501    0  0.00000000000E+00  0.00000000000E+00 -0.14581804908E+04  0.14581804908E+04  0.25500000920E-02 0. -1.
    10030    2    1    2    0    0  0.00000000000E+00  0.00000000000E+00 -0.59860841356E+03  0.23177525680E+04  0.22391169987E+04 0.  0.
        5    1    3    3  502    0 -0.65373638739E+03 -0.72043616384E+03  0.27422049098E+03  0.10107514522E+04  0.46999998093E+01 0.  1.
       -5    1    3    3    0  502  0.65373638739E+03  0.72043616384E+03 -0.87282890454E+03  0.13070011159E+04  0.46999998093E+01 0. -1.
</event>
<event>
 5   0  0.1274868E-04  0.1817213E+04  0.7818609E-02  0.8697199E-01
       -2   -1    0    0    0  501  0.00000000000E+00  0.00000000000E+00  0.11203531189E+04  0.11203531190E+04  0.25500000920E-02 0. -1.
        2   -1    0    0  501    0  0.00000000000E+00  0.00000000000E+00 -0.73688015379E+03  0.73688015379E+03  0.25500000920E-02 0.  1.
    10030    2    1    2    0    0  0.00000000000E+00  0.00000000000E+00  0.38347296516E+03  0.18572332727E+04  0.18172132275E+04 0.  0.
        1    1    3    3  502    0  0.50788168980E+03 -0.46718695699E+03 -0.41234598677E+03  0.80388847264E+03  0.50400001928E-02 0.  1.
       -1    1    3    3    0  502 -0.50788168980E+03  0.46718695699E+03  0.79581895193E+03  0.10533448001E+04  0.50400001928E-02 0. -1.
</event>
<event>
 5   0  0.1244229E-04  0.2014558E+04  0.7818609E-02  0.8599844E-01
        2   -1    0    0  501    0  0.00000000000E+00  0.00000000000E+00  0.18088039576E+04  0.18088039576E+04  0.25500000920E-02 0.  1.
       -2   -1    0    0    0  501  0.00000000000E+00  0.00000000000E+00 -0.56092932344E+03  0.56092932345E+03  0.25500000920E-02 0. -1.
    10030    2    1    2    0    0  0.00000000000E+00  0.00000000000E+00  0.12478746342E+04  0.23697332811E+04  0.20145581950E+04 0.  0.
        5    1    3    3  502    0  0.56560278622E+03  0.83164187397E+03  0.68894738316E+03  0.12191002031E+04  0.46999998093E+01 0. -1.
       -5    1    3    3    0  502 -0.56560278622E+03 -0.83164187397E+03  0.55892725104E+03  0.11506330780E+04  0.46999998093E+01 0.  1.
</event>
<event>
 5   0  0.1242761E-04  0.1890913E+04  0.7818609E-02  0.8659393E-01
       -2   -1    0    0    0  501  0.00000000000E+00  0.00000000000E+00  0.47245267668E+03  0.47245267669E+03  0.25500000920E-02 0. -1.
        2   -1    0    0  501    0  0.00000000000E+00  0.00000000000E+00 -0.18920162627E+04  0.18920162627E+04  0.25500000920E-02 0.  1.
    10030    2    1    2    0    0  0.00000000000E+00  0.00000000000E+00 -0.14195635860E+04  0.23644689394E+04  0.18909131631E+04 0.  0.
        4    1    3    3  502    0 -0.93177346886E+03  0.15218527524E+03 -0.64695580205E+03  0.11445154337E+04  0.12699999809E+01 0. -1.
       -4    1    3    3    0  502  0.93177346886E+03 -0.15218527524E+03 -0.77260778395E+03  0.12199535057E+04  0.12699999809E+01 0.  1.
</event>
<event>
 5   0  0.6214547E-05  0.1914851E+04  0.7818609E-02  0.8647499E-01
        1   -1    0    0  501    0  0.00000000000E+00  0.00000000000E+00  0.20063437083E+04  0.20063437083E+04  0.50400001928E-02 0.  1.
       -1   -1    0    0    0  501  0.00000000000E+00  0.00000000000E+00 -0.45688250233E+03  0.45688250236E+03  0.50400001928E-02 0. -1.
    10030    2    1    2    0    0  0.00000000000E+00  0.00000000000E+00  0.15494612060E+04  0.24632262106E+04  0.19148507347E+04 0.  0.
        3    1    3    3  502    0  0.76278436511E+02 -0.37370288649E+03  0.19043974131E+04  0.19422156843E+04  0.10100000352E+00 0.  1.
       -3    1    3    3    0  502 -0.76278436511E+02  0.37370288649E+03 -0.35493620711E+03  0.52101052635E+03  0.10100000352E+00 0. -1.
</event>
<event>
 5   0  0.6214547E-05  0.1862761E+04  0.7818609E-02  0.8673618E-01
        1   -1    0    0  501    0  0.00000000000E+00  0.00000000000E+00  0.19803578611E+04  0.19803578611E+04  0.50400001928E-02 0. -1.
       -1   -1    0    0    0  501  0.00000000000E+00  0.00000000000E+00 -0.43803668373E+03  0.43803668375E+03  0.50400001928E-02 0.  1.
    10030    2    1    2    0    0  0.00000000000E+00  0.00000000000E+00  0.15423211774E+04  0.24183945448E+04  0.18627607362E+04 0.  0.
        3    1    3    3  502    0 -0.23769595723E+03 -0.82521610270E+03  0.12392430526E+04  0.15077149392E+04  0.10100000352E+00 0.  1.
       -3    1    3    3    0  502  0.23769595723E+03  0.82521610270E+03  0.30307812475E+03  0.91067960564E+03  0.10100000352E+00 0. -1.
</event>
<event>
 5   0  0.1159914E-04  0.1971111E+04  0.7818609E-02  0.8620247E-01
        2   -1    0    0  501    0  0.00000000000E+00  0.00000000000E+00  0.12770449022E+04  0.12770449022E+04  0.25500000920E-02 0.  1.
       -2   -1    0    0    0  501  0.00000000000E+00  0.00000000000E+00 -0.76059979254E+03  0.76059979255E+03  0.25500000920E-02 0. -1.
    10030    2    1    2    0    0  0.00000000000E+00  0.00000000000E+00  0.51644510970E+03  0.20376446948E+04  0.19711114507E+04 0.  0.
        3    1    3    3  502    0  0.24554593511E+03 -0.78225005441E+03 -0.30714943094E+03  0.87552769060E+03  0.10100000352E+00 0. -1.
       -3    1    3    3    0  502 -0.24554593511E+03  0.78225005441E+03  0.82359454064E+03  0.11621170042E+04  0.10100000352E+00 0.  1.
</event>
<event>
 5   0  0.1242761E-04  0.1981932E+04  0.7818609E-02  0.8615115E-01
        2   -1    0    0  501    0  0.00000000000E+00  0.00000000000E+00  0.82352512175E+03  0.82352512176E+03  0.25500000920E-02 0. -1.
       -2   -1    0    0    0  501  0.00000000000E+00  0.00000000000E+00 -0.11924517931E+04  0.11924517931E+04  0.25500000920E-02 0.  1.
    10030    2    1    2    0    0  0.00000000000E+00  0.00000000000E+00 -0.36892667133E+03  0.20159769148E+04  0.19819323985E+04 0.  0.
        4    1    3    3  502    0  0.37272307912E+03 -0.18753174146E+02 -0.11182400997E+04  0.11788709466E+04  0.12699999809E+01 0.  1.
       -4    1    3    3    0  502 -0.37272307912E+03  0.18753174146E+02  0.74931342837E+03  0.83710596825E+03  0.12699999809E+01 0. -1.
</event>
<event>
 5   0  0.6222733E-05  0.1998492E+04  0.7818609E-02  0.8607326E-01
        1   -1    0    0  501    0  0.00000000000E+00  0.00000000000E+00  0.15771201032E+04  0.15771201032E+04  0.50400001928E-02 0. -1.
       -1   -1    0    0    0  501  0.00000000000E+00  0.00000000000E+00 -0.63311151001E+03  0.63311151003E+03  0.50400001928E-02 0.  1.
    10030    2    1    2    0    0  0.00000000000E+00  0.00000000000E+00  0.94400859316E+03  0.22102316132E+04  0.19984923218E+04 0.  0.
        2    1    3    3  502    0 -0.39502872217E+03 -0.84808531335E+03  0.83823106503E+02  0.93932034113E+03  0.25500000920E-02 0. -1.
       -2    1    3    3    0  502  0.39502872217E+03  0.84808531335E+03  0.86018548666E+03  0.12709112721E+04  0.25500000920E-02 0.  1.
</event>
<event>
 5   0  0.6256535E-05  0.2001072E+04  0.7818609E-02  0.8606120E-01
        1   -1    0    0  501    0  0.00000000000E+00  0.00000000000E+00  0.12602493462E+04  0.12602493462E+04  0.50400001928E-02 0. -1.
       -1   -1    0    0    0  501  0.00000000000E+00  0.00000000000E+00 -0.79434443803E+03  0.79434443805E+03  0.50400001928E-02 0.  1.
    10030    2    1    2    0    0  0.00000000000E+00  0.00000000000E+00  0.46590490819E+03  0.20545937843E+04  0.20010717716E+04 0.  0.
        1    1    3    3  502    0  0.44689939394E+03 -0.78071101714E+03  0.68266667429E+03  0.11292752316E+04  0.50400001928E-02 0. -1.
       -1    1    3    3    0  502 -0.44689939394E+03  0.78071101714E+03 -0.21676176610E+03  0.92531855264E+03  0.50400001928E-02 0.  1.
</event>
<event>
 5   0  0.6222733E-05  0.2003381E+04  0.7818609E-02  0.8605042E-01
       -1   -1    0    0    0  501  0.00000000000E+00  0.00000000000E+00  0.11861048972E+04  0.11861048972E+04  0.50400001928E-02 0.  1.
        1   -1    0    0  501    0  0.00000000000E+00  0.00000000000E+00 -0.84594876796E+03  0.84594876797E+03  0.50400001928E-02 0. -1.
    10030    2    1    2    0    0  0.00000000000E+00  0.00000000000E+00  0.34015612920E+03  0.20320536651E+04  0.20033811185E+04 0.  0.
        2    1    3    3  502    0  0.76502754800E+03 -0.18471852199E+03 -0.45846478139E+03  0.91081174638E+03  0.25500000920E-02 0. -1.
       -2    1    3    3    0  502 -0.76502754800E+03  0.18471852199E+03  0.79862091059E+03  0.11212419188E+04  0.25500000920E-02 0.  1.
</event>
<event>
 5   0  0.1242761E-04  0.2032907E+04  0.7818609E-02  0.8591388E-01
       -2   -1    0    0    0  501  0.00000000000E+00  0.00000000000E+00  0.11626803697E+04  0.11626803697E+04  0.25500000920E-02 0.  1.
        2   -1    0    0  501    0  0.00000000000E+00  0.00000000000E+00 -0.88861686060E+03  0.88861686060E+03  0.25500000920E-02 0. -1.
    10030    2    1    2    0    0  0.00000000000E+00  0.00000000000E+00  0.27406350911E+03  0.20512972303E+04  0.20329066678E+04 0.  0.
        4    1    3    3  502    0  0.90932325688E+03  0.44160944358E+03  0.24423827758E+03  0.10399719397E+04  0.12699999809E+01 0.  1.
       -4    1    3    3    0  502 -0.90932325688E+03 -0.44160944358E+03  0.29825231529E+02  0.10113252906E+04  0.12699999809E+01 0. -1.
</event>
<event>
 5   0  0.1242761E-04  0.1987490E+04  0.7818609E-02  0.8612492E-01
        2   -1    0    0  501    0  0.00000000000E+00  0.00000000000E+00  0.15881852518E+04  0.15881852518E+04  0.25500000920E-02 0.  1.
       -2   -1    0    0    0  501  0.00000000000E+00  0.00000000000E+00 -0.62179749602E+03  0.62179749602E+03  0.25500000920E-02 0. -1.
    10030    2    1    2    0    0  0.00000000000E+00  0.00000000000E+00  0.96638775581E+03  0.22099827479E+04  0.19874904909E+04 0.  0.
        4    1    3    3  502    0 -0.48638057017E+03 -0.52225519598E+03 -0.28574852351E+03  0.76874597909E+03  0.12699999809E+01 0. -1.
       -4    1    3    3    0  502  0.48638057017E+03  0.52225519598E+03  0.12521362793E+04  0.14412367688E+04  0.12699999809E+01 0.  1.
</event>
<event>
 5   0  0.1244229E-04  0.2052390E+04  0.7818609E-02  0.8582511E-01
       -2   -1    0    0    0  501  0.00000000000E+00  0.00000000000E+00  0.74407294673E+03  0.74407294673E+03  0.25500000920E-02 0. -1.
        2   -1    0    0  501    0  0.00000000000E+00  0.00000000000E+00 -0.14152865750E+04  0.14152865750E+04  0.25500000920E-02 0.  1.
    10030    2    1    2    0    0  0.00000000000E+00  0.00000000000E+00 -0.67121362830E+03  0.21593595218E+04  0.20523902673E+04 0.  0.
        5    1    3    3  502    0  0.88534902083E+03 -0.73227979219E+02  0.20482741558E+03  0.91169160674E+03  0.46999998093E+01 0. -1.
       -5    1    3    3    0  502 -0.88534902083E+03  0.73227979219E+02 -0.87604104388E+03  0.12476679150E+04  0.46999998093E+01 0.  1.
</event>
<event>
 5   0  0.6214547E-05  0.1953468E+04  0.7818609E-02  0.8628690E-01
       -1   -1    0    0    0  501  0.00000000000E+00  0.00000000000E+00  0.61223423945E+03  0.61223423947E+03  0.50400001928E-02 0.  1.
        1   -1    0    0  501    0  0.00000000000E+00  0.00000000000E+00 -0.15582426006E+04  0.15582426007E+04  0.50400001928E-02 0. -1.
    10030    2    1    2    0    0  0.00000000000E+00  0.00000000000E+00 -0.94600836120E+03  0.21704768401E+04  0.19534681707E+04 0.  0.
        3    1    3    3  502    0  0.12003374350E+03  0.60050498580E+03 -0.13184509532E+04  0.14537287449E+04  0.10100000352E+00 0. -1.
       -3    1    3    3    0  502 -0.12003374350E+03 -0.60050498580E+03  0.37244259196E+03  0.71674809526E+03  0.10100000352E+00 0.  1.
</event>
<event>
 5   0  0.6222733E-05  0.2008243E+04  0.7818609E-02  0.8602777E-01
       -1   -1    0    0    0  501  0.00000000000E+00  0.00000000000E+00  0.14326321932E+04  0.14326321932E+04  0.50400001928E-02 0. -1.
        1   -1    0    0  501    0  0.00000000000E+00  0.00000000000E+00 -0.70378128539E+03  0.70378128541E+03  0.50400001928E-02 0.  1.
    10030    2    1    2    0    0  0.00000000000E+00  0.00000000000E+00  0.72885090780E+03  0.21364134786E+04  0.20082427407E+04 0.  0.
        2    1    3    3  502    0  0.42289709064E+03  0.68209451557E+03  0.10064004526E+04  0.12872205516E+04  0.25500000920E-02 0. -1.
       -2    1    3    3    0  502 -0.42289709064E+03 -0.68209451557E+03 -0.27754954481E+03  0.84919292700E+03  0.25500000920E-02 0.  1.
</event>
<event>
 5   0  0.1274868E-04  0.1976546E+04  0.7818609E-02  0.8617665E-01
       -2   -1    0    0    0  501  0.00000000000E+00  0.00000000000E+00  0.85033514788E+03  0.85033514788E+03  0.25500000920E-02 0.  1.
        2   -1    0    0  501    0  0.00000000000E+00  0.00000000000E+00 -0.11485870362E+04  0.11485870362E+04  0.25500000920E-02 0. -1.
    10030    2    1    2    0    0  0.00000000000E+00  0.00000000000E+00 -0.29825188830E+03  0.19989221841E+04  0.19765464095E+04 0.  0.
        1    1    3    3  502    0  0.48042066156E+03 -0.37592535525E+03 -0.93546272745E+03  0.11167875354E+04  0.50400001928E-02 0. -1.
       -1    1    3    3    0  502 -0.48042066156E+03  0.37592535525E+03  0.63721083915E+03  0.88213464864E+03  0.50400001928E-02 0.  1.
</event>
<event>
 5   0  0.6028501E-05  0.1983272E+04  0.7818609E-02  0.8614482E-01
        1   -1    0    0  501    0  0.00000000000E+00  0.00000000000E+00  0.15421816539E+04  0.15421816539E+04  0.50400001928E-02 0.  1.
       -1   -1    0    0    0  501  0.00000000000E+00  0.00000000000E+00 -0.63763023417E+03  0.63763023419E+03  0.50400001928E-02 0. -1.
    10030    2    1    2    0    0  0.00000000000E+00  0.00000000000E+00  0.90455141977E+03  0.21798118881E+04  0.19832716901E+04 0.  0.
        4    1    3    3  502    0 -0.37657382765E+03 -0.54327113505E+03  0.12647088747E+04  0.14270394264E+04  0.12699999809E+01 0.  1.
       -4    1    3    3    0  502  0.37657382765E+03  0.54327113505E+03 -0.36015745496E+03  0.75277246171E+03  0.12699999809E+01 0. -1.
</event>
<event>
 5   0  0.1274868E-04  0.1919205E+04  0.7818609E-02  0.8645355E-01
        2   -1    0    0  501    0  0.00000000000E+00  0.00000000000E+00  0.78301563028E+03  0.78301563029E+03  0.25500000920E-02 0.  1.
       -2   -1    0    0    0  501  0.00000000000E+00  0.00000000000E+00 -0.11760135148E+04  0.11760135148E+04  0.25500000920E-02 0. -1.
    10030    2    1    2    0    0  0.00000000000E+00  0.00000000000E+00 -0.39299788456E+03  0.19590291451E+04  0.19192050058E+04 0.  0.
        1    1    3    3  502    0  0.45246783150E+03  0.18560012586E+03  0.64626162139E+03  0.81044964592E+03  0.50400001928E-02 0.  1.
       -1    1    3    3    0  502 -0.45246783150E+03 -0.18560012586E+03 -0.10392595060E+04  0.11485794992E+04  0.50400001928E-02 0. -1.
</event>
<event>
 5   0  0.1281789E-04  0.1850402E+04  0.7818609E-02  0.8679946E-01
        2   -1    0    0  501    0  0.00000000000E+00  0.00000000000E+00  0.13043915444E+04  0.13043915444E+04  0.25500000920E-02 0.  1.
       -2   -1    0    0    0  501  0.00000000000E+00  0.00000000000E+00 -0.65624206253E+03  0.65624206253E+03  0.25500000920E-02 0. -1.
    10030    2    1    2    0    0  0.00000000000E+00  0.00000000000E+00  0.64814948188E+03  0.19606336069E+04  0.18504016834E+04 0.  0.
        2    1    3    3  502    0 -0.33065709080E+03  0.86219768102E+03  0.38473599125E+03  0.10003702993E+04  0.25500000920E-02 0. -1.
       -2    1    3    3    0  502  0.33065709080E+03 -0.86219768102E+03  0.26341349063E+03  0.96026330759E+03  0.25500000920E-02 0.  1.
</event>
<event>
 5   0  0.6028501E-05  0.2035291E+04  0.7818609E-02  0.8590296E-01
       -1   -1    0    0    0  501  0.00000000000E+00  0.00000000000E+00  0.75024515231E+03  0.75024515233E+03  0.50400001928E-02 0. -1.
        1   -1    0    0  501    0  0.00000000000E+00  0.00000000000E+00 -0.13803519105E+04  0.13803519105E+04  0.50400001928E-02 0.  1.
    10030    2    1    2    0    0  0.00000000000E+00  0.00000000000E+00 -0.63010675822E+03  0.21305970629E+04  0.20352909663E+04 0.  0.
        4    1    3    3  502    0  0.40157243738E+03  0.18948142123E+03  0.64348621910E+03  0.78181823880E+03  0.12699999809E+01 0. -1.
       -4    1    3    3    0  502 -0.40157243738E+03 -0.18948142123E+03 -0.12735929773E+04  0.13487788241E+04  0.12699999809E+01 0.  1.
</event>
<event>
 5   0  0.1242761E-04  0.1983182E+04  0.7818609E-02  0.8614524E-01
        2   -1    0    0  501    0  0.00000000000E+00  0.00000000000E+00  0.19172731308E+04  0.19172731308E+04  0.25500000920E-02 0. -1.
       -2   -1    0    0    0  501  0.00000000000E+00  0.00000000000E+00 -0.51283913600E+03  0.51283913600E+03  0.25500000920E-02 0.  1.
    10030    2    1    2    0    0  0.00000000000E+00  0.00000000000E+00  0.14044339948E+04  0.24301122668E+04  0.19831819845E+04 0.  0.
        4    1    3    3  502    0 -0.27550796386E+03 -0.62182723098E+03  0.15864121053E+04  0.17260587255E+04  0.12699999809E+01 0. -1.
       -4    1    3    3    0  502  0.27550796386E+03  0.62182723098E+03 -0.18197811050E+03  0.70405354124E+03  0.12699999809E+01 0.  1.
</event>
<event>
 5   0  0.6214547E-05  0.1986840E+04  0.7818609E-02  0.8612798E-01
        1   -1    0    0  501    0  0.00000000000E+00  0.00000000000E+00  0.15286774885E+04  0.15286774885E+04  0.50400001928E-02 0. -1.
       -1   -1    0    0    0  501  0.00000000000E+00  0.00000000000E+00 -0.64557977646E+03  0.64557977648E+03  0.50400001928E-02 0.  1.
    10030    2    1    2    0    0  0.00000000000E+00  0.00000000000E+00  0.88309771207E+03  0.21742572650E+04  0.19868399748E+04 0.  0.
        3    1    3    3  502    0 -0.15207499763E+02  0.90932078074E+03  0.87899010014E+03  0.12648000461E+04  0.10100000352E+00 0. -1.
       -3    1    3    3    0  502  0.15207499763E+02 -0.90932078074E+03  0.41076119233E+01  0.90945721890E+03  0.10100000352E+00 0.  1.
</event>
<event>
 5   0  0.1244229E-04  0.1936962E+04  0.7818609E-02  0.8636673E-01
       -2   -1    0    0    0  501  0.00000000000E+00  0.00000000000E+00  0.95678051392E+03  0.95678051392E+03  0.25500000920E-02 0.  1.
        2   -1    0    0  501    0  0.00000000000E+00  0.00000000000E+00 -0.98032505924E+03  0.98032505924E+03  0.25500000920E-02 0. -1.
    10030    2    1    2    0    0  0.00000000000E+00  0.00000000000E+00 -0.23544545320E+02  0.19371055732E+04  0.19369624818E+04 0.  0.
        5    1    3    3  502    0 -0.65646901546E+02 -0.27098952213E+03 -0.93930452723E+03  0.97982647528E+03  0.46999998093E+01 0. -1.
       -5    1    3    3    0  502  0.65646901546E+02  0.27098952213E+03  0.91575998191E+03  0.95727909789E+03  0.46999998093E+01 0.  1.
</event>
<event>
 5   0  0.1244229E-04  0.1982683E+04  0.7818609E-02  0.8614760E-01
       -2   -1    0    0    0  501  0.00000000000E+00  0.00000000000E+00  0.16953219040E+04  0.16953219040E+04  0.25500000920E-02 0.  1.
        2   -1    0    0  501    0  0.00000000000E+00  0.00000000000E+00 -0.57968822528E+03  0.57968822529E+03  0.25500000920E-02 0. -1.
    10030    2    1    2    0    0  0.00000000000E+00  0.00000000000E+00  0.11156336787E+04  0.22750101293E+04  0.19826831777E+04 0.  0.
        5    1    3    3  502    0 -0.16659900916E+03 -0.76345886214E+02 -0.56007021429E+03  0.58930862807E+03  0.46999998093E+01 0. -1.
       -5    1    3    3    0  502  0.16659900916E+03  0.76345886214E+02  0.16757038930E+04  0.16857015012E+04  0.46999998093E+01 0.  1.
</event>
<event>
 5   0  0.1274868E-04  0.1993936E+04  0.7818609E-02  0.8609461E-01
       -2   -1    0    0    0  501  0.00000000000E+00  0.00000000000E+00  0.72958803848E+03  0.72958803848E+03  0.25500000920E-02 0. -1.
        2   -1    0    0  501    0  0.00000000000E+00  0.00000000000E+00 -0.13623372104E+04  0.13623372104E+04  0.25500000920E-02 0.  1.
    10030    2    1    2    0    0  0.00000000000E+00  0.00000000000E+00 -0.63274917194E+03  0.20919252489E+04  0.19939357393E+04 0.  0.
        1    1    3    3  502    0  0.96445453663E+02 -0.29089664624E+03 -0.13116921108E+04  0.13470184772E+04  0.50400001928E-02 0.  1.
       -1    1    3    3    0  502 -0.96445453663E+02  0.29089664624E+03  0.67894293885E+03  0.74490677173E+03  0.50400001928E-02 0. -1.
</event>
<event>
 5   0  0.6222733E-05  0.1997611E+04  0.7818609E-02  0.8607739E-01
       -1   -1    0    0    0  501  0.00000000000E+00  0.00000000000E+00  0.75109252064E+03  0.75109252065E+03  0.50400001928E-02 0. -1.
        1   -1    0    0  501    0  0.00000000000E+00  0.00000000000E+00 -0.13282146855E+04  0.13282146855E+04  0.50400001928E-02 0.  1.
    10030    2    1    2    0    0  0.00000000000E+00  0.00000000000E+00 -0.57712216489E+03  0.20793072062E+04  0.19976106889E+04 0.  0.
        2    1    3    3  502    0 -0.50288627528E+03  0.71679336999E+03 -0.78876037143E+03  0.11784864296E+04  0.25500000920E-02 0.  1.
       -2    1    3    3    0  502  0.50288627528E+03 -0.71679336999E+03  0.21163820654E+03  0.90082077662E+03  0.25500000920E-02 0. -1.
</event>
<event>
 5   0  0.6214547E-05  0.1991445E+04  0.7818609E-02  0.8610631E-01
        1   -1    0    0  501    0  0.00000000000E+00  0.00000000000E+00  0.10957780341E+04  0.10957780341E+04  0.50400001928E-02 0.  1.
       -1   -1    0    0    0  501  0.00000000000E+00  0.00000000000E+00 -0.90480345133E+03  0.90480345134E+03  0.50400001928E-02 0. -1.
    10030    2    1    2    0    0  0.00000000000E+00  0.00000000000E+00  0.19097458278E+03  0.20005814855E+04  0.19914454521E+04 0.  0.
        3    1    3    3  502    0 -0.17506097205E+03  0.64441166682E+03 -0.64651544510E+03  0.92945950488E+03  0.10100000352E+00 0. -1.
       -3    1    3    3    0  502  0.17506097205E+03 -0.64441166682E+03  0.83749002787E+03  0.10711219806E+04  0.10100000352E+00 0.  1.
</event>
<event>
 5   0  0.6214547E-05  0.2012346E+04  0.7818609E-02  0.8600870E-01
        1   -1    0    0  501    0  0.00000000000E+00  0.00000000000E+00  0.83358087600E+03  0.83358087601E+03  0.50400001928E-02 0.  1.
       -1   -1    0    0    0  501  0.00000000000E+00  0.00000000000E+00 -0.12144995989E+04  0.12144995989E+04  0.50400001928E-02 0. -1.
    10030    2    1    2    0    0  0.00000000000E+00  0.00000000000E+00 -0.38091872293E+03  0.20480804750E+04  0.20123455365E+04 0.  0.
        3    1    3    3  502    0 -0.48899065449E+03  0.84980913834E+03  0.39599387542E+02  0.98125203362E+03  0.10100000352E+00 0.  1.
       -3    1    3    3    0  502  0.48899065449E+03 -0.84980913834E+03 -0.42051811048E+03  0.10668284413E+04  0.10100000352E+00 0. -1.
</event>
<event>
 5   0  0.1242761E-04  0.2006743E+04  0.7818609E-02  0.8603475E-01
       -2   -1    0    0    0  501  0.00000000000E+00  0.00000000000E+00  0.17267215614E+04  0.17267215614E+04  0.25500000920E-02 0. -1.
        2   -1    0    0  501    0  0.00000000000E+00  0.00000000000E+00 -0.58304358938E+03  0.58304358939E+03  0.25500000920E-02 0.  1.
    10030    2    1    2    0    0  0.00000000000E+00  0.00000000000E+00  0.11436779721E+04  0.23097651508E+04  0.20067425715E+04 0.  0.
        4    1    3    3  502    0  0.77350222526E+03 -0.59177029794E+03  0.29403333734E+03  0.10173273782E+04  0.12699999809E+01 0. -1.
       -4    1    3    3    0  502 -0.77350222526E+03  0.59177029794E+03  0.84964463473E+03  0.12924377727E+04  0.12699999809E+01 0.  1.
</event>
<event>
 5   0  0.6168338E-05  0.2000644E+04  0.7818609E-02  0.8606320E-01
       -1   -1    0    0    0  501  0.00000000000E+00  0.00000000000E+00  0.18364300563E+04  0.18364300563E+04  0.50400001928E-02 0.  1.
        1   -1    0    0  501    0  0.00000000000E+00  0.00000000000E+00 -0.54488561565E+03  0.54488561567E+03  0.50400001928E-02 0. -1.
    10030    2    1    2    0    0  0.00000000000E+00  0.00000000000E+00  0.12915444407E+04  0.23813156720E+04  0.20006442181E+04 0.  0.
        5    1    3    3  502    0 -0.56467700065E+03  0.19167215919E+03  0.16017218523E+04  0.17091323277E+04  0.46999998093E+01 0.  1.
       -5    1    3    3    0  502  0.56467700065E+03 -0.19167215919E+03 -0.31017741158E+03  0.67218334427E+03  0.46999998093E+01 0. -1.
</event>
<event>
 5   0  0.6028501E-05  0.1970085E+04  0.7818609E-02  0.8620736E-01
       -1   -1    0    0    0  501  0.00000000000E+00  0.00000000000E+00  0.75824034517E+03  0.75824034519E+03  0.50400001928E-02 0.  1.
        1   -1    0    0  501    0  0.00000000000E+00  0.00000000000E+00 -0.12796854377E+04  0.12796854377E+04  0.50400001928E-02 0. -1.
    10030    2    1    2    0    0  0.00000000000E+00  0.00000000000E+00 -0.52144509254E+03  0.20379257829E+04  0.19700854073E+04 0.  0.
        4    1    3    3  502    0 -0.37744647004E+03  0.72733437110E+03 -0.82619673196E+03  0.11636510551E+04  0.12699999809E+01 0. -1.
       -4    1    3    3    0  502  0.37744647004E+03 -0.72733437110E+03  0.30475163942E+03  0.87427472785E+03  0.12699999809E+01 0.  1.
</event>
<event>
 5   0  0.6222733E-05  0.1780592E+04  0.7818609E-02  0.8716689E-01
       -1   -1    0    0    0  501  0.00000000000E+00  0.00000000000E+00  0.84813011322E+03  0.84813011324E+03  0.50400001928E-02 0.  1.
        1   -1    0    0  501    0  0.00000000000E+00  0.00000000000E+00 -0.93455776200E+03  0.93455776201E+03  0.50400001928E-02 0. -1.
    10030    2    1    2    0    0  0.00000000000E+00  0.00000000000E+00 -0.86427648775E+02  0.17826878753E+04  0.17805915652E+04 0.  0.
        2    1    3    3  502    0 -0.52681248988E+03 -0.32460737395E+03 -0.68406525004E+03  0.92241347184E+03  0.25500000920E-02 0. -1.
       -2    1    3    3    0  502  0.52681248988E+03  0.32460737395E+03  0.59763760126E+03  0.86027440341E+03  0.25500000920E-02 0.  1.
</event>
<event>
 5   0  0.1159914E-04  0.1995884E+04  0.7818609E-02  0.8608548E-01
        2   -1    0    0  501    0  0.00000000000E+00  0.00000000000E+00  0.54470984744E+03  0.54470984744E+03  0.25500000920E-02 0. -1.
       -2   -1    0    0    0  501  0.00000000000E+00  0.00000000000E+00 -0.18282905976E+04  0.18282905976E+04  0.25500000920E-02 0.  1.
    10030    2    1    2    0    0  0.00000000000E+00  0.00000000000E+00 -0.12835807501E+04  0.23730004450E+04  0.19958836564E+04 0.  0.
        3    1    3    3  502    0 -0.39566214297E+03  0.82854762731E+03 -0.17696189018E+03  0.93506963531E+03  0.10100000352E+00 0. -1.
       -3    1    3    3    0  502  0.39566214297E+03 -0.82854762731E+03 -0.11066188600E+04  0.14379308097E+04  0.10100000352E+00 0.  1.
</event>
<event>
 5   0  0.1242761E-04  0.1994038E+04  0.7818609E-02  0.8609413E-01
        2   -1    0    0  501    0  0.00000000000E+00  0.00000000000E+00  0.12182808000E+04  0.12182808000E+04  0.25500000920E-02 0. -1.
       -2   -1    0    0    0  501  0.00000000000E+00  0.00000000000E+00 -0.81594222881E+03  0.81594222882E+03  0.25500000920E-02 0.  1.
    10030    2    1    2    0    0  0.00000000000E+00  0.00000000000E+00  0.40233857114E+03  0.20342230288E+04  0.19940378645E+04 0.  0.
        4    1    3    3  502    0  0.52328884135E+03  0.65883099796E+03  0.74688482798E+03  0.11250458011E+04  0.12699999809E+01 0. -1.
       -4    1    3    3    0  502 -0.52328884135E+03 -0.65883099796E+03 -0.34454625685E+03  0.90917722769E+03  0.12699999809E+01 0.  1.
</event>
<event>
 5   0  0.1274868E-04  0.2053270E+04  0.7818609E-02  0.8582112E-01
        2   -1    0    0  501    0  0.00000000000E+00  0.00000000000E+00  0.21945221056E+04  0.21945221056E+04  0.25500000920E-02 0.  1.
       -2   -1    0    0    0  501  0.00000000000E+00  0.00000000000E+00 -0.48027755343E+03  0.48027755343E+03  0.25500000920E-02 0. -1.
    10030    2    1    2    0    0  0.00000000000E+00  0.00000000000E+00  0.17142445522E+04  0.26747996590E+04  0.20532702772E+04 0.  0.
        1    1    3    3  502    0  0.21098289776E+02  0.90498324161E+03  0.14880120802E+04  0.17417289560E+04  0.50400001928E-02 0.  1.
       -1    1    3    3    0  502 -0.21098289776E+02 -0.90498324161E+03  0.22623247199E+03  0.93307070302E+03  0.50400001928E-02 0. -1.
</event>
<event>
 5   0  0.1159914E-04  0.2080395E+04  0.7818609E-02  0.8569929E-01
       -2   -1    0    0    0  501  0.00000000000E+00  0.00000000000E+00  0.59280247007E+03  0.59280247008E+03  0.25500000920E-02 0.  1.
        2   -1    0    0  501    0  0.00000000000E+00  0.00000000000E+00 -0.18252464299E+04  0.18252464300E+04  0.25500000920E-02 0. -1.
    10030    2    1    2    0    0  0.00000000000E+00  0.00000000000E+00 -0.12324439599E+04  0.24180489000E+04  0.20803947627E+04 0.  0.
        3    1    3    3  502    0 -0.70605340342E+03 -0.62176311483E+02  0.26868166474E+03  0.75800207741E+03  0.10100000352E+00 0.  1.
       -3    1    3    3    0  502  0.70605340342E+03  0.62176311483E+02 -0.15011256246E+04  0.16600468226E+04  0.10100000352E+00 0. -1.
</event>
<event>
 5   0  0.6168338E-05  0.1994523E+04  0.7818609E-02  0.8609185E-01
       -1   -1    0    0    0  501  0.00000000000E+00  0.00000000000E+00  0.38420692790E+03  0.38420692794E+03  0.50400001928E-02 0. -1.
        1   -1    0    0  501    0  0.00000000000E+00  0.00000000000E+00 -0.25885294442E+04  0.25885294442E+04  0.50400001928E-02 0.  1.
    10030    2    1    2    0    0  0.00000000000E+00  0.00000000000E+00 -0.22043225163E+04  0.29727363722E+04  0.19945234475E+04 0.  0.
        5    1    3    3  502    0  0.69301682244E+03  0.55195879680E+03 -0.41983808131E+03  0.98041671450E+03  0.46999998093E+01 0. -1.
       -5    1    3    3    0  502 -0.69301682244E+03 -0.55195879680E+03 -0.17844844350E+04  0.19923196577E+04  0.46999998093E+01 0.  1.
</event>
<event>
 5   0  0.6028501E-05  0.2011140E+04  0.7818609E-02  0.8601430E-01
        1   -1    0    0  501    0  0.00000000000E+00  0.00000000000E+00  0.86893530268E+03  0.86893530270E+03  0.50400001928E-02 0. -1.
       -1   -1    0    0    0  501  0.00000000000E+00  0.00000000000E+00 -0.11636891256E+04  0.11636891256E+04  0.50400001928E-02 0.  1.
    10030    2    1    2    0    0  0.00000000000E+00  0.00000000000E+00 -0.29475382291E+03  0.20326244283E+04  0.20111395403E+04 0.  0.
        4    1    3    3  502    0 -0.24056979123E+02  0.34990802809E+03  0.80511043905E+03  0.87819063895E+03  0.12699999809E+01 0. -1.
       -4    1    3    3    0  502  0.24056979123E+02 -0.34990802809E+03 -0.10998642620E+04  0.11544337894E+04  0.12699999809E+01 0.  1.
</event>
<event>
 5   0  0.6168338E-05  0.2003859E+04  0.7818609E-02  0.8604818E-01
       -1   -1    0    0    0  501  0.00000000000E+00  0.00000000000E+00  0.47182152476E+03  0.47182152478E+03  0.50400001928E-02 0. -1.
        1   -1    0    0  501    0  0.00000000000E+00  0.00000000000E+00 -0.21276331971E+04  0.21276331971E+04  0.50400001928E-02 0.  1.
    10030    2    1    2    0    0  0.00000000000E+00  0.00000000000E+00 -0.16558116723E+04  0.25994547219E+04  0.20038594154E+04 0.  0.
        5    1    3    3  502    0  0.82913967767E+03  0.21892560777E+03 -0.15579849226E+03  0.87160557996E+03  0.46999998093E+01 0. -1.
       -5    1    3    3    0  502 -0.82913967767E+03 -0.21892560777E+03 -0.15000131801E+04  0.17278491419E+04  0.46999998093E+01 0.  1.
</event>
<event>
 5   0  0.6256535E-05  0.1993205E+04  0.7818609E-02  0.8609804E-01
        1   -1    0    0  501    0  0.00000000000E+00  0.00000000000E+00  0.68603790431E+03  0.68603790433E+03  0.50400001928E-02 0. -1.
       -1   -1    0    0    0  501  0.00000000000E+00  0.00000000000E+00 -0.14477568590E+04  0.14477568590E+04  0.50400001928E-02 0.  1.
    10030    2    1    2    0    0  0.00000000000E+00  0.00000000000E+00 -0.76171895471E+03  0.21337947634E+04  0.19932045370E+04 0.  0.
        1    1    3    3  502    0  0.85435118620E+01  0.99780552383E+02  0.68063765810E+03  0.68796567638E+03  0.50400001928E-02 0. -1.
       -1    1    3    3    0  502 -0.85435118620E+01 -0.99780552383E+02 -0.14423566128E+04  0.14458290870E+04  0.50400001928E-02 0.  1.
</event>
<event>
 5   0  0.1242761E-04  0.1970590E+04  0.7818609E-02  0.8620496E-01
        2   -1    0    0  501    0  0.00000000000E+00  0.00000000000E+00  0.23496555482E+04  0.23496555482E+04  0.25500000920E-02 0. -1.
       -2   -1    0    0    0  501  0.00000000000E+00  0.00000000000E+00 -0.41316956995E+03  0.41316956996E+03  0.25500000920E-02 0.  1.
    10030    2    1    2    0    0  0.00000000000E+00  0.00000000000E+00  0.19364859783E+04  0.27628251182E+04  0.19705899344E+04 0.  0.
        4    1    3    3  502    0  0.58354158642E+03  0.86391963949E+02 -0.13822405265E+03  0.60588105776E+03  0.12699999809E+01 0.  1.
       -4    1    3    3    0  502 -0.58354158642E+03 -0.86391963949E+02  0.20747100309E+04  0.21569440605E+04  0.12699999809E+01 0. -1.
</event>
<event>
 5   0  0.1274868E-04  0.2035736E+04  0.7818609E-02  0.8590093E-01
       -2   -1    0    0    0  501  0.00000000000E+00  0.00000000000E+00  0.98557221652E+03  0.98557221653E+03  0.25500000920E-02 0. -1.
        2   -1    0    0  501    0  0.00000000000E+00  0.00000000000E+00 -0.10512215636E+04  0.10512215636E+04  0.25500000920E-02 0.  1.
    10030    2    1    2    0    0  0.00000000000E+00  0.00000000000E+00 -0.65649347052E+02  0.20367937801E+04  0.20357355098E+04 0.  0.
        1    1    3    3  502    0  0.81534384680E+03  0.42982794138E+03 -0.46492546010E+03  0.10323242374E+04  0.50400001928E-02 0.  1.
       -1    1    3    3    0  502 -0.81534384680E+03 -0.42982794138E+03  0.39927611304E+03  0.10044695427E+04  0.50400001928E-02 0. -1.
</event>
<event>
 5   0  0.1281789E-04  0.1995024E+04  0.7818609E-02  0.8608951E-01
        2   -1    0    0  501    0  0.00000000000E+00  0.00000000000E+00  0.69023811640E+03  0.69023811640E+03  0.25500000920E-02 0.  1.
       -2   -1    0    0    0  501  0.00000000000E+00  0.00000000000E+00 -0.14415746182E+04  0.14415746182E+04  0.25500000920E-02 0. -1.
    10030    2    1    2    0    0  0.00000000000E+00  0.00000000000E+00 -0.75133650179E+03  0.21318127346E+04  0.19950235579E+04 0.  0.
        2    1    3    3  502    0 -0.99204480443E+02 -0.32714876085E+03 -0.13770238288E+04  0.14188243252E+04  0.25500000920E-02 0. -1.
       -2    1    3    3    0  502  0.99204480443E+02  0.32714876085E+03  0.62568732704E+03  0.71298840937E+03  0.25500000920E-02 0.  1.
</event>
<event>
 5   0  0.6214547E-05  0.2008154E+04  0.7818609E-02  0.8602818E-01
       -1   -1    0    0    0  501  0.00000000000E+00  0.00000000000E+00  0.15978413062E+04  0.15978413062E+04  0.50400001928E-02 0.  1.
        1   -1    0    0  501    0  0.00000000000E+00  0.00000000000E+00 -0.63095786007E+03  0.63095786009E+03  0.50400001928E-02 0. -1.
    10030    2    1    2    0    0  0.00000000000E+00  0.00000000000E+00  0.96688344618E+03  0.22287991663E+04  0.20081539098E+04 0.  0.
        3    1    3    3  502    0  0.41859400371E+03 -0.66752980341E+03 -0.20731911493E+03  0.81473811988E+03  0.10100000352E+00 0. -1.
       -3    1    3    3    0  502 -0.41859400371E+03  0.66752980341E+03  0.11742025611E+04  0.14140610464E+04  0.10100000352E+00 0.  1.
</event>
<event>
 5   0  0.1159914E-04  0.2139731E+04  0.7818609E-02  0.8543941E-01
       -2   -1    0    0    0  501  0.00000000000E+00  0.00000000000E+00  0.68704765942E+03  0.68704765943E+03  0.25500000920E-02 0. -1.
        2   -1    0    0  501    0  0.00000000000E+00  0.00000000000E+00 -0.16659858410E+04  0.16659858410E+04  0.25500000920E-02 0.  1.
    10030    2    1    2    0    0  0.00000000000E+00  0.00000000000E+00 -0.97893818154E+03  0.23530335004E+04  0.21397305182E+04 0.  0.
        3    1    3    3  502    0 -0.25315588125E+03 -0.10133209933E+04 -0.23462552817E+03  0.10704935705E+04  0.10100000352E+00 0. -1.
       -3    1    3    3    0  502  0.25315588125E+03  0.10133209933E+04 -0.74431265336E+03  0.12825399299E+04  0.10100000352E+00 0.  1.
</event>
<event>
 5   0  0.1244229E-04  0.2003226E+04  0.7818609E-02  0.8605114E-01
        2   -1    0    0  501    0  0.00000000000E+00  0.00000000000E+00  0.14571970055E+04  0.14571970055E+04  0.25500000920E-02 0. -1.
       -2   -1    0    0    0  501  0.00000000000E+00  0.00000000000E+00 -0.68846465215E+03  0.68846465215E+03  0.25500000920E-02 0.  1.
    10030    2    1    2    0    0  0.00000000000E+00  0.00000000000E+00  0.76873235336E+03  0.21456616577E+04  0.20032260277E+04 0.  0.
        5    1    3    3  502    0 -0.36982433676E+03 -0.76753429151E+02 -0.60924892280E+03  0.71684549861E+03  0.46999998093E+01 0.  1.
       -5    1    3    3    0  502  0.36982433676E+03  0.76753429151E+02  0.13779812762E+04  0.14288161591E+04  0.46999998093E+01 0. -1.
</event>
<event>
 5   0  0.1274868E-04  0.1978872E+04  0.7818609E-02  0.8616563E-01
        2   -1    0    0  501    0  0.00000000000E+00  0.00000000000E+00  0.85169258777E+03  0.85169258777E+03  0.25500000920E-02 0. -1.
       -2   -1    0    0    0  501  0.00000000000E+00  0.00000000000E+00 -0.11494561671E+04  0.11494561671E+04  0.25500000920E-02 0.  1.
    10030    2    1    2    0    0  0.00000000000E+00  0.00000000000E+00 -0.29776357935E+03  0.20011487549E+04  0.19788716962E+04 0.  0.
        1    1    3    3  502    0 -0.63553832908E+03 -0.45871929283E+03  0.46177952023E+03  0.90971021906E+03  0.50400001928E-02 0. -1.
       -1    1    3    3    0  502  0.63553832908E+03  0.45871929283E+03 -0.75954309958E+03  0.10914385358E+04  0.50400001928E-02 0.  1.
</event>
<event>
 5   0  0.6214547E-05  0.2016498E+04  0.7818609E-02  0.8598946E-01
        1   -1    0    0  501    0  0.00000000000E+00  0.00000000000E+00  0.25192503804E+04  0.25192503804E+04  0.50400001928E-02 0.  1.
       -1   -1    0    0    0  501  0.00000000000E+00  0.00000000000E+00 -0.40351936099E+03  0.40351936102E+03  0.50400001928E-02 0. -1.
    10030    2    1    2    0    0  0.00000000000E+00  0.00000000000E+00  0.21157310194E+04  0.29227697414E+04  0.20164982556E+04 0.  0.
        3    1    3    3  502    0  0.40249488383E+03 -0.15491091906E+03 -0.26307733723E+03  0.50518236303E+03  0.10100000352E+00 0. -1.
       -3    1    3    3    0  502 -0.40249488383E+03  0.15491091906E+03  0.23788083566E+04  0.24175873783E+04  0.10100000352E+00 0.  1.
</event>
<event>
 5   0  0.6028501E-05  0.2009624E+04  0.7818609E-02  0.8602134E-01
       -1   -1    0    0    0  501  0.00000000000E+00  0.00000000000E+00  0.95856417675E+03  0.95856417676E+03  0.50400001928E-02 0. -1.
        1   -1    0    0  501    0  0.00000000000E+00  0.00000000000E+00 -0.10532912369E+04  0.10532912369E+04  0.50400001928E-02 0.  1.
    10030    2    1    2    0    0  0.00000000000E+00  0.00000000000E+00 -0.94727060126E+02  0.20118554137E+04  0.20096240916E+04 0.  0.
        4    1    3    3  502    0  0.25633458824E+03 -0.66028899468E+03  0.66613858629E+03  0.97233286824E+03  0.12699999809E+01 0. -1.
       -4    1    3    3    0  502 -0.25633458824E+03  0.66028899468E+03 -0.76086564642E+03  0.10395225454E+04  0.12699999809E+01 0.  1.
</event>
<event>
 5   0  0.6214547E-05  0.2001762E+04  0.7818609E-02  0.8605797E-01
       -1   -1    0    0    0  501  0.00000000000E+00  0.00000000000E+00  0.87487632085E+03  0.87487632087E+03  0.50400001928E-02 0.  1.
        1   -1    0    0  501    0  0.00000000000E+00  0.00000000000E+00 -0.11450339460E+04  0.11450339460E+04  0.50400001928E-02 0. -1.
    10030    2    1    2    0    0  0.00000000000E+00  0.00000000000E+00 -0.27015762513E+03  0.20199102669E+04  0.20017623095E+04 0.  0.
        3    1    3    3  502    0  0.31024447267E+03  0.83112431527E+03 -0.60268462558E+03  0.10724961671E+04  0.10100000352E+00 0.  1.
       -3    1    3    3    0  502 -0.31024447267E+03 -0.83112431527E+03  0.33252700045E+03  0.94741409979E+03  0.10100000352E+00 0. -1.
</event>
<event>
 5   0  0.1242761E-04  0.1997907E+04  0.7818609E-02  0.8607600E-01
       -2   -1    0    0    0  501  0.00000000000E+00  0.00000000000E+00  0.37716665251E+03  0.37716665252E+03  0.25500000920E-02 0.  1.
        2   -1    0    0  501    0  0.00000000000E+00  0.00000000000E+00 -0.26458007324E+04  0.26458007324E+04  0.25500000920E-02 0. -1.
    10030    2    1    2    0    0  0.00000000000E+00  0.00000000000E+00 -0.22686340799E+04  0.30229673849E+04  0.19979067100E+04 0.  0.
        4    1    3    3  502    0 -0.23137736816E+03 -0.42490839178E+03  0.18805842367E+03  0.51908593847E+03  0.12699999809E+01 0.  1.
       -4    1    3    3    0  502  0.23137736816E+03  0.42490839178E+03 -0.24566925035E+04  0.25038814464E+04  0.12699999809E+01 0. -1.
</event>
<event>
 5   0  0.1244229E-04  0.2008043E+04  0.7818609E-02  0.8602870E-01
        2   -1    0    0  501    0  0.00000000000E+00  0.00000000000E+00  0.17856670629E+04  0.17856670629E+04  0.25500000920E-02 0. -1.
       -2   -1    0    0    0  501  0.00000000000E+00  0.00000000000E+00 -0.56452804480E+03  0.56452804480E+03  0.25500000920E-02 0.  1.
    10030    2    1    2    0    0  0.00000000000E+00  0.00000000000E+00  0.12211390181E+04  0.23501951077E+04  0.20080429634E+04 0.  0.
        5    1    3    3  502    0  0.45506653004E+03  0.60112003366E+03 -0.16543246088E+03  0.77189431319E+03  0.46999998093E+01 0.  1.
       -5    1    3    3    0  502 -0.45506653004E+03 -0.60112003366E+03  0.13865714790E+04  0.15783007945E+04  0.46999998093E+01 0. -1.
</event>
<event>
 5   0  0.1281789E-04  0.2045273E+04  0.7818609E-02  0.8585742E-01
       -2   -1    0    0    0  501  0.00000000000E+00  0.00000000000E+00  0.10580849221E+04  0.10580849221E+04  0.25500000920E-02 0.  1.
        2   -1    0    0  501    0  0.00000000000E+00  0.00000000000E+00 -0.98837554799E+03  0.98837554799E+03  0.25500000920E-02 0. -1.
    10030    2    1    2    0    0  0.00000000000E+00  0.00000000000E+00  0.69709374129E+02  0.20464604701E+04  0.20452728568E+04 0.  0.
        2    1    3    3  502    0 -0.14078736261E+03  0.93464355848E+03  0.42547297345E+03  0.10365360168E+04  0.25500000920E-02 0.  1.
       -2    1    3    3    0  502  0.14078736261E+03 -0.93464355848E+03 -0.35576359932E+03  0.10099244534E+04  0.25500000920E-02 0. -1.
</event>
<event>
 5   0  0.1159914E-04  0.1999310E+04  0.7818609E-02  0.8606943E-01
       -2   -1    0    0    0  501  0.00000000000E+00  0.00000000000E+00  0.40667884135E+03  0.40667884136E+03  0.25500000920E-02 0. -1.
        2   -1    0    0  501    0  0.00000000000E+00  0.00000000000E+00 -0.24572462430E+04  0.24572462430E+04  0.25500000920E-02 0.  1.
    10030    2    1    2    0    0  0.00000000000E+00  0.00000000000E+00 -0.20505674017E+04  0.28639250844E+04  0.19993099360E+04 0.  0.
        3    1    3    3  502    0 -0.76846087738E+03  0.40489268557E+03 -0.17340818433E+04  0.19394612799E+04  0.10100000352E+00 0.  1.
       -3    1    3    3    0  502  0.76846087738E+03 -0.40489268557E+03 -0.31648555839E+03  0.92446380446E+03  0.10100000352E+00 0. -1.
</event>
<event>
 5   0  0.1281789E-04  0.1920807E+04  0.7818609E-02  0.8644568E-01
        2   -1    0    0  501    0  0.00000000000E+00  0.00000000000E+00  0.94574688947E+03  0.94574688948E+03  0.25500000920E-02 0.  1.
       -2   -1    0    0    0  501  0.00000000000E+00  0.00000000000E+00 -0.97528729035E+03  0.97528729035E+03  0.25500000920E-02 0. -1.
    10030    2    1    2    0    0  0.00000000000E+00  0.00000000000E+00 -0.29540400872E+02  0.19210341798E+04  0.19208070400E+04 0.  0.
        2    1    3    3  502    0  0.24845039817E+03 -0.77818710020E+03 -0.51987661223E+03  0.96828428429E+03  0.25500000920E-02 0. -1.
       -2    1    3    3    0  502 -0.24845039817E+03  0.77818710020E+03  0.49033621135E+03  0.95274989553E+03  0.25500000920E-02 0.  1.
</event>
<event>
 5   0  0.1159914E-04  0.2008374E+04  0.7818609E-02  0.8602716E-01
       -2   -1    0    0    0  501  0.00000000000E+00  0.00000000000E+00  0.72543383909E+03  0.72543383909E+03  0.25500000920E-02 0. -1.
        2   -1    0    0  501    0  0.00000000000E+00  0.00000000000E+00 -0.13900525882E+04  0.13900525882E+04  0.25500000920E-02 0.  1.
    10030    2    1    2    0    0  0.00000000000E+00  0.00000000000E+00 -0.66461874910E+03  0.21154864273E+04  0.20083736561E+04 0.  0.
        3    1    3    3  502    0  0.17957692426E+03 -0.90016528518E+02 -0.13686736938E+04  0.13833360175E+04  0.10100000352E+00 0.  1.
       -3    1    3    3    0  502 -0.17957692426E+03  0.90016528518E+02  0.70405494470E+03  0.73215040974E+03  0.10100000352E+00 0. -1.
</event>
<event>
 5   0  0.1159914E-04  0.2002435E+04  0.7818609E-02  0.8605483E-01
       -2   -1    0    0    0  501  0.00000000000E+00  0.00000000000E+00  0.78568390594E+03  0.78568390594E+03  0.25500000920E-02 0. -1.
        2   -1    0    0  501    0  0.00000000000E+00  0.00000000000E+00 -0.12758774456E+04  0.12758774456E+04  0.25500000920E-02 0.  1.
    10030    2    1    2    0    0  0.00000000000E+00  0.00000000000E+00 -0.49019353967E+03  0.20615613515E+04  0.20024348928E+04 0.  0.
        3    1    3    3  502    0  0.26826167781E+03  0.54527171501E+03  0.57410604773E+03  0.83599242533E+03  0.10100000352E+00 0. -1.
       -3    1    3    3    0  502 -0.26826167781E+03 -0.54527171501E+03 -0.10642995874E+04  0.12255689262E+04  0.10100000352E+00 0.  1.
</event>
<event>
 5   0  0.1242761E-04  0.2047155E+04  0.7818609E-02  0.8584886E-01
        2   -1    0    0  501    0  0.00000000000E+00  0.00000000000E+00  0.18814307357E+04  0.18814307357E+04  0.25500000920E-02 0. -1.
       -2   -1    0    0    0  501  0.00000000000E+00  0.00000000000E+00 -0.55686950073E+03  0.55686950073E+03  0.25500000920E-02 0.  1.
    10030    2    1    2    0    0  0.00000000000E+00  0.00000000000E+00  0.13245612350E+04  0.24383002365E+04  0.20471554845E+04 0.  0.
        4    1    3    3  502    0 -0.18428319798E+03 -0.40158575667E+03  0.17619902633E+04  0.18165469215E+04  0.12699999809E+01 0. -1.
       -4    1    3    3    0  502  0.18428319798E+03  0.40158575667E+03 -0.43742902830E+03  0.62175331500E+03  0.12699999809E+01 0.  1.
</event>
<event>
 5   0  0.6168338E-05  0.1768566E+04  0.7818609E-02  0.8723196E-01
       -1   -1    0    0    0  501  0.00000000000E+00  0.00000000000E+00  0.64033033212E+03  0.64033033214E+03  0.50400001928E-02 0. -1.
        1   -1    0    0  501    0  0.00000000000E+00  0.00000000000E+00 -0.12211771642E+04  0.12211771642E+04  0.50400001928E-02 0.  1.
    10030    2    1    2    0    0  0.00000000000E+00  0.00000000000E+00 -0.58084683209E+03  0.18615074964E+04  0.17685664015E+04 0.  0.
        5    1    3    3  502    0  0.49909027571E+03 -0.20570830924E+03  0.44675935684E+03  0.70073035094E+03  0.46999998093E+01 0. -1.
       -5    1    3    3    0  502 -0.49909027571E+03  0.20570830924E+03 -0.10276061889E+04  0.11607771454E+04  0.46999998093E+01 0.  1.
</event>
<event>
 5   0  0.6222733E-05  0.1993547E+04  0.7818609E-02  0.8609644E-01
        1   -1    0    0  501    0  0.00000000000E+00  0.00000000000E+00  0.16169816138E+04  0.16169816139E+04  0.50400001928E-02 0.  1.
       -1   -1    0    0    0  501  0.00000000000E+00  0.00000000000E+00 -0.61445184659E+03  0.61445184661E+03  0.50400001928E-02 0. -1.
    10030    2    1    2    0    0  0.00000000000E+00  0.00000000000E+00  0.10025297673E+04  0.22314334605E+04  0.19935469280E+04 0.  0.
        2    1    3    3  502    0  0.51127168489E+03  0.16898538228E+03  0.14401688592E+04  0.15375438655E+04  0.25500000920E-02 0.  1.
       -2    1    3    3    0  502 -0.51127168489E+03 -0.16898538228E+03 -0.43763909197E+03  0.69388959498E+03  0.25500000920E-02 0. -1.
</event>
<event>
 5   0  0.6222733E-05  0.2005940E+04  0.7818609E-02  0.8603848E-01
        1   -1    0    0  501    0  0.00000000000E+00  0.00000000000E+00  0.23122745635E+04  0.23122745635E+04  0.50400001928E-02 0.  1.
       -1   -1    0    0    0  501  0.00000000000E+00  0.00000000000E+00 -0.43504746248E+03  0.43504746251E+03  0.50400001928E-02 0. -1.
    10030    2    1    2    0    0  0.00000000000E+00  0.00000000000E+00  0.18772271010E+04  0.27473220260E+04  0.20059403595E+04 0.  0.
        2    1    3    3  502    0  0.19986710399E+03  0.96215767951E+03  0.12134036277E+04  0.15614232684E+04  0.25500000920E-02 0. -1.
       -2    1    3    3    0  502 -0.19986710399E+03 -0.96215767951E+03  0.66382347332E+03  0.11858987576E+04  0.25500000920E-02 0.  1.
</event>
<event>
 5   0  0.6214547E-05  0.1948900E+04  0.7818609E-02  0.8630891E-01
        1   -1    0    0  501    0  0.00000000000E+00  0.00000000000E+00  0.11099191069E+04  0.11099191069E+04  0.50400001928E-02 0. -1.
       -1   -1    0    0    0  501  0.00000000000E+00  0.00000000000E+00 -0.85551545586E+03  0.85551545587E+03  0.50400001928E-02 0.  1.
    10030    2    1    2    0    0  0.00000000000E+00  0.00000000000E+00  0.25440365107E+03  0.19654345628E+04  0.19489001521E+04 0.  0.
        3    1    3    3  502    0  0.58920453380E+03  0.52972291702E+03 -0.44487139714E+03  0.90866876344E+03  0.10100000352E+00 0.  1.
       -3    1    3    3    0  502 -0.58920453380E+03 -0.52972291702E+03  0.69927504820E+03  0.10567657994E+04  0.10100000352E+00 0. -1.
</event>
<event>
 5   0  0.1274868E-04  0.2020789E+04  0.7818609E-02  0.8596962E-01
        2   -1    0    0  501    0  0.00000000000E+00  0.00000000000E+00  0.86363406081E+03  0.86363406081E+03  0.25500000920E-02 0. -1.
       -2   -1    0    0    0  501  0.00000000000E+00  0.00000000000E+00 -0.11820946876E+04  0.11820946876E+04  0.25500000920E-02 0.  1.
    10030    2    1    2    0    0  0.00000000000E+00  0.00000000000E+00 -0.31846062681E+03  0.20457287484E+04  0.20207891877E+04 0.  0.
        1    1    3    3  502    0 -0.51237407393E+03 -0.29528478358E+03 -0.98859502406E+03  0.11519724027E+04  0.50400001928E-02 0.  1.
       -1    1    3    3    0  502  0.51237407393E+03  0.29528478358E+03  0.67013439725E+03  0.89375634569E+03  0.50400001928E-02 0. -1.
</event>
<event>
 5   0  0.6214547E-05  0.2001852E+04  0.7818609E-02  0.8605755E-01
        1   -1    0    0  501    0  0.00000000000E+00  0.00000000000E+00  0.56715920745E+03  0.56715920748E+03  0.50400001928E-02 0. -1.
       -1   -1    0    0    0  501  0.00000000000E+00  0.00000000000E+00 -0.17664407092E+04  0.17664407092E+04  0.50400001928E-02 0.  1.
    10030    2    1    2    0    0  0.00000000000E+00  0.00000000000E+00 -0.11992815018E+04  0.23335999167E+04  0.20018522550E+04 0.  0.
        3    1    3    3  502    0 -0.15008728792E+03  0.29716608864E+02 -0.17527284225E+04  0.17593937036E+04  0.10100000352E+00 0.  1.
       -3    1    3    3    0  502  0.15008728792E+03 -0.29716608864E+02  0.55344692079E+03  0.57420621310E+03  0.10100000352E+00 0. -1.
</event>
<event>
 5   0  0.1159914E-04  0.2007024E+04  0.7818609E-02  0.8603344E-01
        2   -1    0    0  501    0  0.00000000000E+00  0.00000000000E+00  0.23594299020E+04  0.23594299020E+04  0.25500000920E-02 0.  1.
       -2   -1    0    0    0  501  0.00000000000E+00  0.00000000000E+00 -0.42681346432E+03  0.42681346433E+03  0.25500000920E-02 0. -1.
    10030    2    1    2    0    0  0.00000000000E+00  0.00000000000E+00  0.19326164377E+04  0.27862433664E+04  0.20070241158E+04 0.  0.
        3    1    3    3  502    0  0.10357933627E+02 -0.78754845250E+03  0.10302832356E+03  0.79432656853E+03  0.10100000352E+00 0. -1.
       -3    1    3    3    0  502 -0.10357933627E+02  0.78754845250E+03  0.18295881141E+04  0.19919167978E+04  0.10100000352E+00 0.  1.
</event>
<event>
 5   0  0.6256535E-05  0.1997702E+04  0.7818609E-02  0.8607696E-01
       -1   -1    0    0    0  501  0.00000000000E+00  0.00000000000E+00  0.16572166820E+04  0.16572166820E+04  0.50400001928E-02 0. -1.
        1   -1    0    0  501    0  0.00000000000E+00  0.00000000000E+00 -0.60203560402E+03  0.60203560404E+03  0.50400001928E-02 0.  1.
    10030    2    1    2    0    0  0.00000000000E+00  0.00000000000E+00  0.10551810780E+04  0.22592522861E+04  0.19977021261E+04 0.  0.
        1    1    3    3  502    0  0.72837325652E+03  0.49827547249E+03 -0.15296089814E+01  0.88250121078E+03  0.50400001928E-02 0.  1.
       -1    1    3    3    0  502 -0.72837325652E+03 -0.49827547249E+03  0.10567106870E+04  0.13767510753E+04  0.50400001928E-02 0. -1.
</event>
<event>
 5   0  0.1242761E-04  0.1991633E+04  0.7818609E-02  0.8610543E-01
       -2   -1    0    0    0  501  0.00000000000E+00  0.00000000000E+00  0.53459891122E+03  0.53459891123E+03  0.25500000920E-02 0. -1.
        2   -1    0    0  501    0  0.00000000000E+00  0.00000000000E+00 -0.18549427261E+04  0.18549427261E+04  0.25500000920E-02 0.  1.
    10030    2    1    2    0    0  0.00000000000E+00  0.00000000000E+00 -0.13203438148E+04  0.23895416373E+04  0.19916328595E+04 0.  0.
        4    1    3    3  502    0 -0.67474849988E+03  0.26872460698E+03  0.15722809652E+03  0.74311556284E+03  0.12699999809E+01 0. -1.
       -4    1    3    3    0  502  0.67474849988E+03 -0.26872460698E+03 -0.14775719114E+04  0.16464260745E+04  0.12699999809E+01 0.  1.
</event>
<event>
 5   0  0.1242761E-04  0.1983009E+04  0.7818609E-02  0.8614606E-01
       -2   -1    0    0    0  501  0.00000000000E+00  0.00000000000E+00  0.62991857782E+03  0.62991857782E+03  0.25500000920E-02 0. -1.
        2   -1    0    0  501    0  0.00000000000E+00  0.00000000000E+00 -0.15606482922E+04  0.15606482922E+04  0.25500000920E-02 0.  1.
    10030    2    1    2    0    0  0.00000000000E+00  0.00000000000E+00 -0.93072971434E+03  0.21905668700E+04  0.19830091807E+04 0.  0.
        4    1    3    3  502    0 -0.98505398306E+03 -0.11250254238E+03 -0.45479414875E+03  0.10907921444E+04  0.12699999809E+01 0. -1.
       -4    1    3    3    0  502  0.98505398306E+03  0.11250254238E+03 -0.47593556559E+03  0.10997747256E+04  0.12699999809E+01 0.  1.
</event>
<event>
 5   0  0.6168338E-05  0.2007469E+04  0.7818609E-02  0.8603137E-01
        1   -1    0    0  501    0  0.00000000000E+00  0.00000000000E+00  0.16500272486E+04  0.16500272486E+04  0.50400001928E-02 0. -1.
       -1   -1    0    0    0  501  0.00000000000E+00  0.00000000000E+00 -0.61058534798E+03  0.61058534800E+03  0.50400001928E-02 0.  1.
    10030    2    1    2    0    0  0.00000000000E+00  0.00000000000E+00  0.10394419007E+04  0.22606125966E+04  0.20074685171E+04 0.  0.
        5    1    3    3  502    0 -0.16285949308E+03  0.18569335073E+03  0.16152588757E+04  0.16340405627E+04  0.46999998093E+01 0. -1.
       -5    1    3    3    0  502  0.16285949308E+03 -0.18569335073E+03 -0.57581697504E+03  0.62657203395E+03  0.46999998093E+01 0.  1.
</event>
<event>
 5   0  0.6214547E-05  0.1995296E+04  0.7818609E-02  0.8608823E-01
        1   -1    0    0  501    0  0.00000000000E+00  0.00000000000E+00  0.23394904346E+04  0.23394904346E+04  0.50400001928E-02 0.  1.
       -1   -1    0    0    0  501  0.00000000000E+00  0.00000000000E+00 -0.42543500819E+03  0.42543500822E+03  0.50400001928E-02 0. -1.
    10030    2    1    2    0    0  0.00000000000E+00  0.00000000000E+00  0.19140554264E+04  0.27649254428E+04  0.19952955994E+04 0.  0.
        3    1    3    3  502    0 -0.69517149918E+03  0.47680903267E+03  0.21765581739E+03  0.87062295625E+03  0.10100000352E+00 0. -1.
       -3    1    3    3    0  502  0.69517149918E+03 -0.47680903267E+03  0.16963996090E+04  0.18943024865E+04  0.10100000352E+00 0.  1.
</event>
<event>
 5   0  0.6222733E-05  0.2004859E+04  0.7818609E-02  0.8604352E-01
       -1   -1    0    0    0  501  0.00000000000E+00  0.00000000000E+00  0.57351418102E+03  0.57351418104E+03  0.50400001928E-02 0.  1.
        1   -1    0    0  501    0  0.00000000000E+00  0.00000000000E+00 -0.17521184790E+04  0.17521184790E+04  0.50400001928E-02 0. -1.
    10030    2    1    2    0    0  0.00000000000E+00  0.00000000000E+00 -0.11786042980E+04  0.23256326601E+04  0.20048588924E+04 0.  0.
        2    1    3    3  502    0  0.27999936819E+03 -0.75911473685E+02  0.52375378836E+03  0.59873218458E+03  0.25500000920E-02 0.  1.
       -2    1    3    3    0  502 -0.27999936819E+03  0.75911473685E+02 -0.17023580864E+04  0.17269004755E+04  0.25500000920E-02 0. -1.
</event>
<event>
 5   0  0.1242761E-04  0.1999472E+04  0.7818609E-02  0.8606867E-01
        2   -1    0    0  501    0  0.00000000000E+00  0.00000000000E+00  0.10322768218E+04  0.10322768218E+04  0.25500000920E-02 0. -1.
       -2   -1    0    0    0  501  0.00000000000E+00  0.00000000000E+00 -0.96822120910E+03  0.96822120910E+03  0.25500000920E-02 0.  1.
    10030    2    1    2    0    0  0.00000000000E+00  0.00000000000E+00  0.64055612706E+02  0.20004980309E+04  0.19994722429E+04 0.  0.
        4    1    3    3  502    0  0.78481449527E+03 -0.35974442627E+03 -0.47233482632E+03  0.98409940823E+03  0.12699999809E+01 0.  1.
       -4    1    3    3    0  502 -0.78481449527E+03  0.35974442627E+03  0.53639043903E+03  0.10163986227E+04  0.12699999809E+01 0. -1.
</event>
<event>
 5   0  0.6214547E-05  0.1695231E+04  0.7818609E-02  0.8764089E-01
       -1   -1    0    0    0  501  0.00000000000E+00  0.00000000000E+00  0.15343762564E+04  0.15343762565E+04  0.50400001928E-02 0. -1.
        1   -1    0    0  501    0  0.00000000000E+00  0.00000000000E+00 -0.46823715111E+03  0.46823715114E+03  0.50400001928E-02 0.  1.
    10030    2    1    2    0    0  0.00000000000E+00  0.00000000000E+00  0.10661391053E+04  0.20026134076E+04  0.16952309189E+04 0.  0.
        3    1    3    3  502    0  0.15995540440E+03  0.15815728805E+02  0.15162076877E+04  0.15247037847E+04  0.10100000352E+00 0. -1.
       -3    1    3    3    0  502 -0.15995540440E+03 -0.15815728805E+02 -0.45006858233E+03  0.47790962291E+03  0.10100000352E+00 0.  1.
</event>
<event>
 5   0  0.1281789E-04  0.2042293E+04  0.7818609E-02  0.8587099E-01
        2   -1    0    0  501    0  0.00000000000E+00  0.00000000000E+00  0.11375525371E+04  0.11375525371E+04  0.25500000920E-02 0.  1.
       -2   -1    0    0    0  501  0.00000000000E+00  0.00000000000E+00 -0.91665236341E+03  0.91665236341E+03  0.25500000920E-02 0. -1.
    10030    2    1    2    0    0  0.00000000000E+00  0.00000000000E+00  0.22090017372E+03  0.20542049005E+04  0.20422930462E+04 0.  0.
        2    1    3    3  502    0 -0.80099454525E+02 -0.78044788408E+02  0.11313742814E+04  0.11368881546E+04  0.25500000920E-02 0.  1.
       -2    1    3    3    0  502  0.80099454525E+02  0.78044788408E+02 -0.91047410764E+03  0.91731674590E+03  0.25500000920E-02 0. -1.
</event>
<event>
 5   0  0.1242761E-04  0.2012484E+04  0.7818609E-02  0.8600806E-01
        2   -1    0    0  501    0  0.00000000000E+00  0.00000000000E+00  0.10214501194E+04  0.10214501194E+04  0.25500000920E-02 0.  1.
       -2   -1    0    0    0  501  0.00000000000E+00  0.00000000000E+00 -0.99126079469E+03  0.99126079469E+03  0.25500000920E-02 0. -1.
    10030    2    1    2    0    0  0.00000000000E+00  0.00000000000E+00  0.30189324751E+02  0.20127109141E+04  0.20124844915E+04 0.  0.
        4    1    3    3  502    0  0.21470773508E+03 -0.88303613685E+03  0.44719606268E+03  0.10128366906E+04  0.12699999809E+01 0.  1.
       -4    1    3    3    0  502 -0.21470773508E+03  0.88303613685E+03 -0.41700673793E+03  0.99987422352E+03  0.12699999809E+01 0. -1.
</event>
<event>
 5   0  0.6168338E-05  0.2007571E+04  0.7818609E-02  0.8603089E-01
        1   -1    0    0  501    0  0.00000000000E+00  0.00000000000E+00  0.12515413897E+04  0.12515413897E+04  0.50400001928E-02 0.  1.
       -1   -1    0    0    0  501  0.00000000000E+00  0.00000000000E+00 -0.80507526151E+03  0.80507526153E+03  0.50400001928E-02 0. -1.
    10030    2    1    2    0    0  0.00000000000E+00  0.00000000000E+00  0.44646612816E+03  0.20566166512E+04  0.20075706828E+04 0.  0.
        5    1    3    3  502    0  0.26615356332E+03 -0.48732715767E+03 -0.63340001551E+03  0.84234384162E+03  0.46999998093E+01 0. -1.
       -5    1    3    3    0  502 -0.26615356332E+03  0.48732715767E+03  0.10798661437E+04  0.12142728096E+04  0.46999998093E+01 0.  1.
</event>
<event>
 5   0  0.4479000E-05  0.2019468E+04  0.7818609E-02  0.8597573E-01
        4   -1    0    0  501    0  0.00000000000E+00  0.00000000000E+00  0.72836509173E+03  0.72836619893E+03  0.12699999809E+01 0. -1.
       -4   -1    0    0    0  501  0.00000000000E+00  0.00000000000E+00 -0.13997935102E+04  0.13997940863E+04  0.12699999809E+01 0.  1.
    10030    2    1    2    0    0  0.00000000000E+00  0.00000000000E+00 -0.67142841848E+03  0.21281602853E+04  0.20194677711E+04 0.  0.
        5    1    3    3  502    0 -0.19695923791E+03  0.81901823300E+03 -0.92241661291E+03  0.12491830551E+04  0.46999998093E+01 0.  1.
       -5    1    3    3    0  502  0.19695923791E+03 -0.81901823300E+03  0.25098819443E+03  0.87897723015E+03  0.46999998093E+01 0. -1.
</event>
<event>
 5   0  0.1281789E-04  0.2004810E+04  0.7818609E-02  0.8604375E-01
       -2   -1    0    0    0  501  0.00000000000E+00  0.00000000000E+00  0.76329198017E+03  0.76329198018E+03  0.25500000920E-02 0. -1.
        2   -1    0    0  501    0  0.00000000000E+00  0.00000000000E+00 -0.13164236865E+04  0.13164236865E+04  0.25500000920E-02 0.  1.
    10030    2    1    2    0    0  0.00000000000E+00  0.00000000000E+00 -0.55313170629E+03  0.20797156666E+04  0.20048098587E+04 0.  0.
        2    1    3    3  502    0  0.85382715801E+03 -0.52413250752E+03 -0.24247555272E+03  0.10307910045E+04  0.25500000920E-02 0. -1.
       -2    1    3    3    0  502 -0.85382715801E+03  0.52413250752E+03 -0.31065615358E+03  0.10489246622E+04  0.25500000920E-02 0.  1.
</event>
<event>
 5   0  0.1159914E-04  0.1992727E+04  0.7818609E-02  0.8610029E-01
       -2   -1    0    0    0  501  0.00000000000E+00  0.00000000000E+00  0.75293978490E+03  0.75293978490E+03  0.25500000920E-02 0.  1.
        2   -1    0    0  501    0  0.00000000000E+00  0.00000000000E+00 -0.13184855543E+04  0.13184855543E+04  0.25500000920E-02 0. -1.
    10030    2    1    2    0    0  0.00000000000E+00  0.00000000000E+00 -0.56554576938E+03  0.20714253392E+04  0.19927270055E+04 0.  0.
        3    1    3    3  502    0 -0.33898415298E+03 -0.30346072014E+03 -0.12042007442E+04  0.12872832273E+04  0.10100000352E+00 0. -1.
       -3    1    3    3    0  502  0.33898415298E+03  0.30346072014E+03  0.63865497482E+03  0.78414211193E+03  0.10100000352E+00 0.  1.
</event>
<event>
 5   0  0.1244229E-04  0.2138686E+04  0.7818609E-02  0.8544391E-01
        2   -1    0    0  501    0  0.00000000000E+00  0.00000000000E+00  0.20000910603E+04  0.20000910603E+04  0.25500000920E-02 0. -1.
       -2   -1    0    0    0  501  0.00000000000E+00  0.00000000000E+00 -0.57172100041E+03  0.57172100041E+03  0.25500000920E-02 0.  1.
    10030    2    1    2    0    0  0.00000000000E+00  0.00000000000E+00  0.14283700599E+04  0.25718120607E+04  0.21386856355E+04 0.  0.
        5    1    3    3  502    0  0.17707148338E+03 -0.10288716207E+04  0.43593520068E+03  0.11313676287E+04  0.46999998093E+01 0.  1.
       -5    1    3    3    0  502 -0.17707148338E+03  0.10288716207E+04  0.99243485917E+03  0.14404444320E+04  0.46999998093E+01 0. -1.
</event>
<event>
 5   0  0.6222733E-05  0.1994591E+04  0.7818609E-02  0.8609154E-01
       -1   -1    0    0    0  501  0.00000000000E+00  0.00000000000E+00  0.84736853432E+03  0.84736853434E+03  0.50400001928E-02 0.  1.
        1   -1    0    0  501    0  0.00000000000E+00  0.00000000000E+00 -0.11737491005E+04  0.11737491005E+04  0.50400001928E-02 0. -1.
    10030    2    1    2    0    0  0.00000000000E+00  0.00000000000E+00 -0.32638056621E+03  0.20211176349E+04  0.19945907400E+04 0.  0.
        2    1    3    3  502    0  0.91639629532E+03  0.27168601209E+03  0.12520440776E+03  0.96398734586E+03  0.25500000920E-02 0. -1.
       -2    1    3    3    0  502 -0.91639629532E+03 -0.27168601209E+03 -0.45158497397E+03  0.10571302890E+04  0.25500000920E-02 0.  1.
</event>
<event>
 5   0  0.1281789E-04  0.1994893E+04  0.7818609E-02  0.8609012E-01
       -2   -1    0    0    0  501  0.00000000000E+00  0.00000000000E+00  0.90944888914E+03  0.90944888914E+03  0.25500000920E-02 0. -1.
        2   -1    0    0  501    0  0.00000000000E+00  0.00000000000E+00 -0.10939590112E+04  0.10939590112E+04  0.25500000920E-02 0.  1.
    10030    2    1    2    0    0  0.00000000000E+00  0.00000000000E+00 -0.18451012207E+03  0.20034079004E+04  0.19948932879E+04 0.  0.
        2    1    3    3  502    0 -0.41218687849E+03  0.33723192332E+03  0.75471667325E+03  0.92369943694E+03  0.25500000920E-02 0. -1.
       -2    1    3    3    0  502  0.41218687849E+03 -0.33723192332E+03 -0.93922679533E+03  0.10797084634E+04  0.25500000920E-02 0.  1.
</event>
<event>
 5   0  0.6222733E-05  0.2005314E+04  0.7818609E-02  0.8604140E-01
        1   -1    0    0  501    0  0.00000000000E+00  0.00000000000E+00  0.10520063513E+04  0.10520063513E+04  0.50400001928E-02 0.  1.
       -1   -1    0    0    0  501  0.00000000000E+00  0.00000000000E+00 -0.95562284446E+03  0.95562284447E+03  0.50400001928E-02 0. -1.
    10030    2    1    2    0    0  0.00000000000E+00  0.00000000000E+00  0.96383506862E+02  0.20076291958E+04  0.20053142416E+04 0.  0.
        2    1    3    3  502    0 -0.41018833378E+03 -0.74935408223E+03  0.57371227687E+03  0.10290441129E+04  0.25500000920E-02 0.  1.
       -2    1    3    3    0  502  0.41018833378E+03  0.74935408223E+03 -0.47732877001E+03  0.97858508287E+03  0.25500000920E-02 0. -1.
</event>
<event>
 5   0  0.1244229E-04  0.2042874E+04  0.7818609E-02  0.8586834E-01
        2   -1    0    0  501    0  0.00000000000E+00  0.00000000000E+00  0.87954161710E+03  0.87954161710E+03  0.25500000920E-02 0. -1.
       -2   -1    0    0    0  501  0.00000000000E+00  0.00000000000E+00 -0.11862239777E+04  0.11862239777E+04  0.25500000920E-02 0.  1.
    10030    2    1    2    0    0  0.00000000000E+00  0.00000000000E+00 -0.30668236065E+03  0.20657655948E+04  0.20428738146E+04 0.  0.
        5    1    3    3  502    0 -0.77758855845E+03  0.19220310464E+03  0.48757918530E+03  0.93773213212E+03  0.46999998093E+01 0. -1.
       -5    1    3    3    0  502  0.77758855845E+03 -0.19220310464E+03 -0.79426154595E+03  0.11280334627E+04  0.46999998093E+01 0.  1.
</event>
<event>
 5   0  0.6256535E-05  0.1767695E+04  0.7818609E-02  0.8723670E-01
       -1   -1    0    0    0  501  0.00000000000E+00  0.00000000000E+00  0.57012942394E+03  0.57012942396E+03  0.50400001928E-02 0. -1.
        1   -1    0    0  501    0  0.00000000000E+00  0.00000000000E+00 -0.13701913697E+04  0.13701913697E+04  0.50400001928E-02 0.  1.
    10030    2    1    2    0    0  0.00000000000E+00  0.00000000000E+00 -0.80006194580E+03  0.19403207937E+04  0.17676950148E+04 0.  0.
        1    1    3    3  502    0 -0.47020466988E+03 -0.56907389307E+03 -0.93355144428E+03  0.11901494975E+04  0.50400001928E-02 0.  1.
       -1    1    3    3    0  502  0.47020466988E+03  0.56907389307E+03  0.13348949848E+03  0.75017129616E+03  0.50400001928E-02 0. -1.
</event>
<event>
 5   0  0.6222733E-05  0.1999920E+04  0.7818609E-02  0.8606658E-01
        1   -1    0    0  501    0  0.00000000000E+00  0.00000000000E+00  0.22635917888E+04  0.22635917888E+04  0.50400001928E-02 0. -1.
       -1   -1    0    0    0  501  0.00000000000E+00  0.00000000000E+00 -0.44174056802E+03  0.44174056805E+03  0.50400001928E-02 0.  1.
    10030    2    1    2    0    0  0.00000000000E+00  0.00000000000E+00  0.18218512208E+04  0.27053323568E+04  0.19999203210E+04 0.  0.
        2    1    3    3  502    0 -0.20694365944E+03 -0.21818619142E+02 -0.41212769551E+03  0.46168275659E+03  0.25500000920E-02 0.  1.
       -2    1    3    3    0  502  0.20694365944E+03  0.21818619142E+02  0.22339789163E+04  0.22436496002E+04  0.25500000920E-02 0. -1.
</event>
<event>
 5   0  0.6256535E-05  0.2004359E+04  0.7818609E-02  0.8604586E-01
       -1   -1    0    0    0  501  0.00000000000E+00  0.00000000000E+00  0.94718176260E+03  0.94718176262E+03  0.50400001928E-02 0. -1.
        1   -1    0    0  501    0  0.00000000000E+00  0.00000000000E+00 -0.10603702523E+04  0.10603702523E+04  0.50400001928E-02 0.  1.
    10030    2    1    2    0    0  0.00000000000E+00  0.00000000000E+00 -0.11318848971E+03  0.20075520149E+04  0.20043586152E+04 0.  0.
        1    1    3    3  502    0 -0.18605039443E+03 -0.85923820039E+03  0.42527342318E+03  0.97660765857E+03  0.50400001928E-02 0. -1.
       -1    1    3    3    0  502  0.18605039443E+03  0.85923820039E+03 -0.53846191289E+03  0.10309443564E+04  0.50400001928E-02 0.  1.
</event>
<event>
 5   0  0.1244229E-04  0.2018421E+04  0.7818609E-02  0.8598056E-01
        2   -1    0    0  501    0  0.00000000000E+00  0.00000000000E+00  0.24328541635E+04  0.24328541635E+04  0.25500000920E-02 0.  1.
       -2   -1    0    0    0  501  0.00000000000E+00  0.00000000000E+00 -0.41864645842E+03  0.41864645842E+03  0.25500000920E-02 0. -1.
    10030    2    1    2    0    0  0.00000000000E+00  0.00000000000E+00  0.20142077051E+04  0.28515006219E+04  0.20184209466E+04 0.  0.
        5    1    3    3  502    0  0.13866693022E+03  0.46336641161E+03 -0.24422407478E+03  0.54185278227E+03  0.46999998093E+01 0. -1.
       -5    1    3    3    0  502 -0.13866693022E+03 -0.46336641161E+03  0.22584317799E+04  0.23096478397E+04  0.46999998093E+01 0.  1.
</event>
<event>
 5   0  0.6168338E-05  0.1958503E+04  0.7818609E-02  0.8626271E-01
       -1   -1    0    0    0  501  0.00000000000E+00  0.00000000000E+00  0.48852061424E+03  0.48852061427E+03  0.50400001928E-02 0.  1.
        1   -1    0    0  501    0  0.00000000000E+00  0.00000000000E+00 -0.19629337088E+04  0.19629337088E+04  0.50400001928E-02 0. -1.
    10030    2    1    2    0    0  0.00000000000E+00  0.00000000000E+00 -0.14744130946E+04  0.24514543231E+04  0.19585030826E+04 0.  0.
        5    1    3    3  502    0 -0.44479731694E+02  0.77666315987E+03  0.72406261680E+01  0.77798369334E+03  0.46999998093E+01 0.  1.
       -5    1    3    3    0  502  0.44479731694E+02 -0.77666315987E+03 -0.14816537207E+04  0.16734706297E+04  0.46999998093E+01 0. -1.
</event>
<event>
 5   0  0.6214547E-05  0.2002534E+04  0.7818609E-02  0.8605437E-01
       -1   -1    0    0    0  501  0.00000000000E+00  0.00000000000E+00  0.49537014343E+03  0.49537014345E+03  0.50400001928E-02 0. -1.
        1   -1    0    0  501    0  0.00000000000E+00  0.00000000000E+00 -0.20238112753E+04  0.20238112753E+04  0.50400001928E-02 0.  1.
    10030    2    1    2    0    0  0.00000000000E+00  0.00000000000E+00 -0.15284411319E+04  0.25191814188E+04  0.20025340764E+04 0.  0.
        3    1    3    3  502    0 -0.14296398839E+03  0.76119190639E+02 -0.20072225025E+04  0.20137465128E+04  0.10100000352E+00 0.  1.
       -3    1    3    3    0  502  0.14296398839E+03 -0.76119190639E+02  0.47878137059E+03  0.50543490598E+03  0.10100000352E+00 0. -1.
</event>
<event>
 5   0  0.1274868E-04  0.1995252E+04  0.7818609E-02  0.8608844E-01
        2   -1    0    0  501    0  0.00000000000E+00  0.00000000000E+00  0.53077968589E+03  0.53077968589E+03  0.25500000920E-02 0. -1.
       -2   -1    0    0    0  501  0.00000000000E+00  0.00000000000E+00 -0.18750862449E+04  0.18750862449E+04  0.25500000920E-02 0.  1.
    10030    2    1    2    0    0  0.00000000000E+00  0.00000000000E+00 -0.13443065590E+04  0.24058659307E+04  0.19952520523E+04 0.  0.
        1    1    3    3  502    0  0.87230033362E+03  0.45893343612E+03 -0.48640629688E+03  0.10991446022E+04  0.50400001928E-02 0. -1.
       -1    1    3    3    0  502 -0.87230033362E+03 -0.45893343612E+03 -0.85790026208E+03  0.13067213286E+04  0.50400001928E-02 0.  1.
</event>
<event>
 5   0  0.6214547E-05  0.1690242E+04  0.7818609E-02  0.8766949E-01
        1   -1    0    0  501    0  0.00000000000E+00  0.00000000000E+00  0.13010775476E+04  0.13010775476E+04  0.50400001928E-02 0.  1.
       -1   -1    0    0    0  501  0.00000000000E+00  0.00000000000E+00 -0.54895216119E+03  0.54895216121E+03  0.50400001928E-02 0. -1.
    10030    2    1    2    0    0  0.00000000000E+00  0.00000000000E+00  0.75212538638E+03  0.18500297088E+04  0.16902417953E+04 0.  0.
        3    1    3    3  502    0  0.19443310386E+03  0.19969239772E+03 -0.49720110661E+03  0.56999143520E+03  0.10100000352E+00 0. -1.
       -3    1    3    3    0  502 -0.19443310386E+03 -0.19969239772E+03  0.12493264930E+04  0.12800382736E+04  0.10100000352E+00 0.  1.
</event>
<event>
 5   0  0.1159914E-04  0.1908240E+04  0.7818609E-02  0.8650766E-01
       -2   -1    0    0    0  501  0.00000000000E+00  0.00000000000E+00  0.69539449659E+03  0.69539449659E+03  0.25500000920E-02 0. -1.
        2   -1    0    0  501    0  0.00000000000E+00  0.00000000000E+00 -0.13091055375E+04  0.13091055375E+04  0.25500000920E-02 0.  1.
    10030    2    1    2    0    0  0.00000000000E+00  0.00000000000E+00 -0.61371104093E+03  0.20045000341E+04  0.19082398028E+04 0.  0.
        3    1    3    3  502    0 -0.26114980468E+03  0.62978239981E+03  0.39428742110E+03  0.78758343827E+03  0.10100000352E+00 0. -1.
       -3    1    3    3    0  502  0.26114980468E+03 -0.62978239981E+03 -0.10079984620E+04  0.12169165959E+04  0.10100000352E+00 0.  1.
</event>
<event>
 5   0  0.6256535E-05  0.2000668E+04  0.7818609E-02  0.8606308E-01
        1   -1    0    0  501    0  0.00000000000E+00  0.00000000000E+00  0.12832156961E+04  0.12832156961E+04  0.50400001928E-02 0. -1.
       -1   -1    0    0    0  501  0.00000000000E+00  0.00000000000E+00 -0.77981288630E+03  0.77981288632E+03  0.50400001928E-02 0.  1.
    10030    2    1    2    0    0  0.00000000000E+00  0.00000000000E+00  0.50340280982E+03  0.20630285824E+04  0.20006680242E+04 0.  0.
        1    1    3    3  502    0  0.44031564168E+02 -0.69860776201E+03 -0.48518945991E+03  0.85170440636E+03  0.50400001928E-02 0.  1.
       -1    1    3    3    0  502 -0.44031564168E+02  0.69860776201E+03  0.98859226973E+03  0.12113241761E+04  0.50400001928E-02 0. -1.
</event>
<event>
 5   0  0.6256535E-05  0.2024345E+04  0.7818609E-02  0.8595322E-01
        1   -1    0    0  501    0  0.00000000000E+00  0.00000000000E+00  0.95502905562E+03  0.95502905563E+03  0.50400001928E-02 0. -1.
       -1   -1    0    0    0  501  0.00000000000E+00  0.00000000000E+00 -0.10727352148E+04  0.10727352149E+04  0.50400001928E-02 0.  1.
    10030    2    1    2    0    0  0.00000000000E+00  0.00000000000E+00 -0.11770615923E+03  0.20277642705E+04  0.20243451279E+04 0.  0.
        1    1    3    3  502    0 -0.48128928959E+03  0.85266052355E+03  0.19814204309E+03  0.99896427261E+03  0.50400001928E-02 0. -1.
       -1    1    3    3    0  502  0.48128928959E+03 -0.85266052355E+03 -0.31584820232E+03  0.10287999979E+04  0.50400001928E-02 0.  1.
</event>
<event>
 5   0  0.1274868E-04  0.2056727E+04  0.7818609E-02  0.8580549E-01
       -2   -1    0    0    0  501  0.00000000000E+00  0.00000000000E+00  0.87120637110E+03  0.87120637111E+03  0.25500000920E-02 0. -1.
        2   -1    0    0  501    0  0.00000000000E+00  0.00000000000E+00 -0.12138705326E+04  0.12138705326E+04  0.25500000920E-02 0.  1.
    10030    2    1    2    0    0  0.00000000000E+00  0.00000000000E+00 -0.34266416153E+03  0.20850769037E+04  0.20567272466E+04 0.  0.
        1    1    3    3  502    0  0.92456175924E+03 -0.29658262004E+03  0.17209391127E+03  0.98609939229E+03  0.50400001928E-02 0. -1.
       -1    1    3    3    0  502 -0.92456175924E+03  0.29658262004E+03 -0.51475807279E+03  0.10989775115E+04  0.50400001928E-02 0.  1.
</event>
<event>
 5   0  0.6214547E-05  0.1988959E+04  0.7818609E-02  0.8611800E-01
       -1   -1    0    0    0  501  0.00000000000E+00  0.00000000000E+00  0.86669158469E+03  0.86669158471E+03  0.50400001928E-02 0. -1.
        1   -1    0    0  501    0  0.00000000000E+00  0.00000000000E+00 -0.11411088581E+04  0.11411088581E+04  0.50400001928E-02 0.  1.
    10030    2    1    2    0    0  0.00000000000E+00  0.00000000000E+00 -0.27441727342E+03  0.20078004428E+04  0.19889589685E+04 0.  0.
        3    1    3    3  502    0 -0.65717898399E+03 -0.63732338671E+03 -0.52937834509E+03  0.10575002405E+04  0.10100000352E+00 0.  1.
       -3    1    3    3    0  502  0.65717898399E+03  0.63732338671E+03  0.25496107167E+03  0.95030020231E+03  0.10100000352E+00 0. -1.
</event>
<event>
 5   0  0.6256535E-05  0.1994125E+04  0.7818609E-02  0.8609372E-01
        1   -1    0    0  501    0  0.00000000000E+00  0.00000000000E+00  0.17156685866E+04  0.17156685866E+04  0.50400001928E-02 0.  1.
       -1   -1    0    0    0  501  0.00000000000E+00  0.00000000000E+00 -0.57944369682E+03  0.57944369684E+03  0.50400001928E-02 0. -1.
    10030    2    1    2    0    0  0.00000000000E+00  0.00000000000E+00  0.11362248898E+04  0.22951122835E+04  0.19941247187E+04 0.  0.
        1    1    3    3  502    0 -0.87242289031E+03  0.44121935905E+03  0.79346443445E+03  0.12591195460E+04  0.50400001928E-02 0.  1.
       -1    1    3    3    0  502  0.87242289031E+03 -0.44121935905E+03  0.34276045536E+03  0.10359927375E+04  0.50400001928E-02 0. -1.
</event>
<event>
 5   0  0.1159914E-04  0.2002520E+04  0.7818609E-02  0.8605444E-01
        2   -1    0    0  501    0  0.00000000000E+00  0.00000000000E+00  0.13080905872E+04  0.13080905872E+04  0.25500000920E-02 0. -1.
       -2   -1    0    0    0  501  0.00000000000E+00  0.00000000000E+00 -0.76640044564E+03  0.76640044564E+03  0.25500000920E-02 0.  1.
    10030    2    1    2    0    0  0.00000000000E+00  0.00000000000E+00  0.54169014157E+03  0.20744910329E+04  0.20025196219E+04 0.  0.
        3    1    3    3  502    0 -0.38533385936E+03 -0.92394339528E+03  0.29070753491E+03  0.10424319939E+04  0.10100000352E+00 0. -1.
       -3    1    3    3    0  502  0.38533385936E+03  0.92394339528E+03  0.25098260666E+03  0.10320590390E+04  0.10100000352E+00 0.  1.
</event>
<event>
 5   0  0.1244229E-04  0.1998240E+04  0.7818609E-02  0.8607444E-01
       -2   -1    0    0    0  501  0.00000000000E+00  0.00000000000E+00  0.66029107628E+03  0.66029107628E+03  0.25500000920E-02 0.  1.
        2   -1    0    0  501    0  0.00000000000E+00  0.00000000000E+00 -0.15118190582E+04  0.15118190582E+04  0.25500000920E-02 0. -1.
    10030    2    1    2    0    0  0.00000000000E+00  0.00000000000E+00 -0.85152798193E+03  0.21721101345E+04  0.19982398586E+04 0.  0.
        5    1    3    3  502    0  0.73808017028E+03 -0.45255322706E+03  0.11627435631E+03  0.87356086051E+03  0.46999998093E+01 0.  1.
       -5    1    3    3    0  502 -0.73808017028E+03  0.45255322706E+03 -0.96780233823E+03  0.12985492740E+04  0.46999998093E+01 0. -1.
</event>
<event>
 5   0  0.1281789E-04  0.2009790E+04  0.7818609E-02  0.8602057E-01
        2   -1    0    0  501    0  0.00000000000E+00  0.00000000000E+00  0.22964957261E+04  0.22964957261E+04  0.25500000920E-02 0. -1.
       -2   -1    0    0    0  501  0.00000000000E+00  0.00000000000E+00 -0.43971966015E+03  0.43971966016E+03  0.25500000920E-02 0.  1.
    10030    2    1    2    0    0  0.00000000000E+00  0.00000000000E+00  0.18567760660E+04  0.27362153863E+04  0.20097903575E+04 0.  0.
        2    1    3    3  502    0  0.47854815600E+03  0.63605035545E+02  0.21282825141E+04  0.21823474512E+04  0.25500000920E-02 0. -1.
       -2    1    3    3    0  502 -0.47854815600E+03 -0.63605035545E+02 -0.27150644808E+03  0.55386793508E+03  0.25500000920E-02 0.  1.
</event>
<event>
 5   0  0.1281789E-04  0.2014690E+04  0.7818609E-02  0.8599783E-01
        2   -1    0    0  501    0  0.00000000000E+00  0.00000000000E+00  0.14214972894E+04  0.14214972894E+04  0.25500000920E-02 0. -1.
       -2   -1    0    0    0  501  0.00000000000E+00  0.00000000000E+00 -0.71385589138E+03  0.71385589138E+03  0.25500000920E-02 0.  1.
    10030    2    1    2    0    0  0.00000000000E+00  0.00000000000E+00  0.70764139806E+03  0.21353531808E+04  0.20146902637E+04 0.  0.
        2    1    3    3  502    0 -0.67940786269E+03  0.73435424509E+03  0.22898269032E+03  0.10263061306E+04  0.25500000920E-02 0. -1.
       -2    1    3    3    0  502  0.67940786269E+03 -0.73435424509E+03  0.47865870774E+03  0.11090470503E+04  0.25500000920E-02 0.  1.
</event>
<event>
 5   0  0.1159914E-04  0.1980131E+04  0.7818609E-02  0.8615967E-01
       -2   -1    0    0    0  501  0.00000000000E+00  0.00000000000E+00  0.12509988010E+04  0.12509988010E+04  0.25500000920E-02 0. -1.
        2   -1    0    0  501    0  0.00000000000E+00  0.00000000000E+00 -0.78355768456E+03  0.78355768457E+03  0.25500000920E-02 0.  1.
    10030    2    1    2    0    0  0.00000000000E+00  0.00000000000E+00  0.46744111646E+03  0.20345564856E+04  0.19801310299E+04 0.  0.
        3    1    3    3  502    0 -0.69003046925E+01  0.98881965795E+03  0.28424302360E+03  0.10288858230E+04  0.10100000352E+00 0.  1.
       -3    1    3    3    0  502  0.69003046925E+01 -0.98881965795E+03  0.18319809287E+03  0.10056706626E+04  0.10100000352E+00 0. -1.
</event>
<event>
 5   0  0.6222733E-05  0.1881619E+04  0.7818609E-02  0.8664060E-01
        1   -1    0    0  501    0  0.00000000000E+00  0.00000000000E+00  0.12075282571E+04  0.12075282571E+04  0.50400001928E-02 0.  1.
       -1   -1    0    0    0  501  0.00000000000E+00  0.00000000000E+00 -0.73300379199E+03  0.73300379201E+03  0.50400001928E-02 0. -1.
    10030    2    1    2    0    0  0.00000000000E+00  0.00000000000E+00  0.47452446513E+03  0.19405320491E+04  0.18816192935E+04 0.  0.
        2    1    3    3  502    0  0.59733425627E+03  0.62144767430E+03 -0.15152557491E+03  0.87519450722E+03  0.25500000920E-02 0. -1.
       -2    1    3    3    0  502 -0.59733425627E+03 -0.62144767430E+03  0.62605004004E+03  0.10653375419E+04  0.25500000920E-02 0.  1.
</event>
<event>
 5   0  0.1274868E-04  0.2002438E+04  0.7818609E-02  0.8605482E-01
        2   -1    0    0  501    0  0.00000000000E+00  0.00000000000E+00  0.16744125213E+04  0.16744125213E+04  0.25500000920E-02 0. -1.
       -2   -1    0    0    0  501  0.00000000000E+00  0.00000000000E+00 -0.59868141036E+03  0.59868141037E+03  0.25500000920E-02 0.  1.
    10030    2    1    2    0    0  0.00000000000E+00  0.00000000000E+00  0.10757311109E+04  0.22730939316E+04  0.20024381636E+04 0.  0.
        1    1    3    3  502    0  0.69470959034E+03  0.40476295308E+03 -0.13942377179E+03  0.81602294776E+03  0.50400001928E-02 0.  1.
       -1    1    3    3    0  502 -0.69470959034E+03 -0.40476295308E+03  0.12151548827E+04  0.14570709839E+04  0.50400001928E-02 0. -1.
</event>
<event>
 5   0  0.6214547E-05  0.2021115E+04  0.7818609E-02  0.8596812E-01
        1   -1    0    0  501    0  0.00000000000E+00  0.00000000000E+00  0.53029489110E+03  0.53029489113E+03  0.50400001928E-02 0. -1.
       -1   -1    0    0    0  501  0.00000000000E+00  0.00000000000E+00 -0.19257711573E+04  0.19257711573E+04  0.50400001928E-02 0.  1.
    10030    2    1    2    0    0  0.00000000000E+00  0.00000000000E+00 -0.13954762662E+04  0.24560660484E+04  0.20211151439E+04 0.  0.
        3    1    3    3  502    0  0.26852550178E+03  0.13996189842E+02 -0.18815014407E+04  0.19006181941E+04  0.10100000352E+00 0.  1.
       -3    1    3    3    0  502 -0.26852550178E+03 -0.13996189842E+02  0.48602517447E+03  0.55544785431E+03  0.10100000352E+00 0. -1.
</event>
<event>
 5   0  0.6214547E-05  0.2023212E+04  0.7818609E-02  0.8595845E-01
       -1   -1    0    0    0  501  0.00000000000E+00  0.00000000000E+00  0.93996589983E+03  0.93996589984E+03  0.50400001928E-02 0. -1.
        1   -1    0    0  501    0  0.00000000000E+00  0.00000000000E+00 -0.10887062117E+04  0.10887062117E+04  0.50400001928E-02 0.  1.
    10030    2    1    2    0    0  0.00000000000E+00  0.00000000000E+00 -0.14874031186E+03  0.20286721115E+04  0.20232120145E+04 0.  0.
        3    1    3    3  502    0 -0.50572669520E+03  0.58826862344E+03 -0.72537359997E+03  0.10620670098E+04  0.10100000352E+00 0.  1.
       -3    1    3    3    0  502  0.50572669520E+03 -0.58826862344E+03  0.57663328811E+03  0.96660510175E+03  0.10100000352E+00 0. -1.
</event>
<event>
 5   0  0.6028501E-05  0.1953139E+04  0.7818609E-02  0.8628849E-01
       -1   -1    0    0    0  501  0.00000000000E+00  0.00000000000E+00  0.89948053003E+03  0.89948053004E+03  0.50400001928E-02 0.  1.
        1   -1    0    0  501    0  0.00000000000E+00  0.00000000000E+00 -0.10602653000E+04  0.10602653000E+04  0.50400001928E-02 0. -1.
    10030    2    1    2    0    0  0.00000000000E+00  0.00000000000E+00 -0.16078477000E+03  0.19597458301E+04  0.19531390059E+04 0.  0.
        4    1    3    3  502    0 -0.25330962222E+03 -0.92381661429E+03 -0.27099146552E+03  0.99551036601E+03  0.12699999809E+01 0. -1.
       -4    1    3    3    0  502  0.25330962222E+03  0.92381661429E+03  0.11020669552E+03  0.96423546407E+03  0.12699999809E+01 0.  1.
</event>
<event>
 5   0  0.1242761E-04  0.1978806E+04  0.7818609E-02  0.8616594E-01
       -2   -1    0    0    0  501  0.00000000000E+00  0.00000000000E+00  0.73283678839E+03  0.73283678839E+03  0.25500000920E-02 0.  1.
        2   -1    0    0  501    0  0.00000000000E+00  0.00000000000E+00 -0.13357928788E+04  0.13357928788E+04  0.25500000920E-02 0. -1.
    10030    2    1    2    0    0  0.00000000000E+00  0.00000000000E+00 -0.60295609039E+03  0.20686296672E+04  0.19788058654E+04 0.  0.
        4    1    3    3  502    0  0.34664161028E+03 -0.36624580241E+02 -0.12694773463E+04  0.13164634865E+04  0.12699999809E+01 0. -1.
       -4    1    3    3    0  502 -0.34664161028E+03  0.36624580241E+02  0.66652125587E+03  0.75216618063E+03  0.12699999809E+01 0.  1.
</event>
<event>
 5   0  0.6214547E-05  0.2000724E+04  0.7818609E-02  0.8606282E-01
       -1   -1    0    0    0  501  0.00000000000E+00  0.00000000000E+00  0.82178497693E+03  0.82178497695E+03  0.50400001928E-02 0.  1.
        1   -1    0    0  501    0  0.00000000000E+00  0.00000000000E+00 -0.12177446202E+04  0.12177446202E+04  0.50400001928E-02 0. -1.
    10030    2    1    2    0    0  0.00000000000E+00  0.00000000000E+00 -0.39595964325E+03  0.20395295971E+04  0.20007241036E+04 0.  0.
        3    1    3    3  502    0 -0.90726677579E+03 -0.33006449888E+03  0.69110901420E+02  0.96791110272E+03  0.10100000352E+00 0.  1.
       -3    1    3    3    0  502  0.90726677579E+03  0.33006449888E+03 -0.46507054467E+03  0.10716184944E+04  0.10100000352E+00 0. -1.
</event>
<event>
 5   0  0.1244229E-04  0.1990659E+04  0.7818609E-02  0.8611000E-01
       -2   -1    0    0    0  501  0.00000000000E+00  0.00000000000E+00  0.52301135701E+03  0.52301135702E+03  0.25500000920E-02 0.  1.
        2   -1    0    0  501    0  0.00000000000E+00  0.00000000000E+00 -0.18941869265E+04  0.18941869265E+04  0.25500000920E-02 0. -1.
    10030    2    1    2    0    0  0.00000000000E+00  0.00000000000E+00 -0.13711755695E+04  0.24171982835E+04  0.19906594635E+04 0.  0.
        5    1    3    3  502    0 -0.78109860435E+03 -0.52681774684E+03 -0.10753045873E+04  0.14296691973E+04  0.46999998093E+01 0. -1.
       -5    1    3    3    0  502  0.78109860435E+03  0.52681774684E+03 -0.29587098216E+03  0.98752908625E+03  0.46999998093E+01 0.  1.
</event>
<event>
 5   0  0.6214547E-05  0.1978803E+04  0.7818609E-02  0.8616596E-01
        1   -1    0    0  501    0  0.00000000000E+00  0.00000000000E+00  0.90961515658E+03  0.90961515659E+03  0.50400001928E-02 0. -1.
       -1   -1    0    0    0  501  0.00000000000E+00  0.00000000000E+00 -0.10761863079E+04  0.10761863079E+04  0.50400001928E-02 0.  1.
    10030    2    1    2    0    0  0.00000000000E+00  0.00000000000E+00 -0.16657115136E+03  0.19858014645E+04  0.19788030493E+04 0.  0.
        3    1    3    3  502    0 -0.56061616105E+03  0.58761293862E+03 -0.65038230509E+03  0.10404694126E+04  0.10100000352E+00 0.  1.
       -3    1    3    3    0  502  0.56061616105E+03 -0.58761293862E+03  0.48381115374E+03  0.94533205190E+03  0.10100000352E+00 0. -1.
</event>
<event>
 5   0  0.1274868E-04  0.2000021E+04  0.7818609E-02  0.8606611E-01
       -2   -1    0    0    0  501  0.00000000000E+00  0.00000000000E+00  0.84436248706E+03  0.84436248707E+03  0.25500000920E-02 0.  1.
        2   -1    0    0  501    0  0.00000000000E+00  0.00000000000E+00 -0.11843506205E+04  0.11843506205E+04  0.25500000920E-02 0. -1.
    10030    2    1    2    0    0  0.00000000000E+00  0.00000000000E+00 -0.33998813339E+03  0.20287131075E+04  0.20000212353E+04 0.  0.
        1    1    3    3  502    0  0.45326224375E+03 -0.87589105931E+03 -0.33786576885E+03  0.10424898499E+04  0.50400001928E-02 0. -1.
       -1    1    3    3    0  502 -0.45326224375E+03  0.87589105931E+03 -0.21223645395E+01  0.98622325761E+03  0.50400001928E-02 0.  1.
</event>
<event>
 5   0  0.6214547E-05  0.1942106E+04  0.7818609E-02  0.8634177E-01
       -1   -1    0    0    0  501  0.00000000000E+00  0.00000000000E+00  0.11625372693E+04  0.11625372693E+04  0.50400001928E-02 0.  1.
        1   -1    0    0  501    0  0.00000000000E+00  0.00000000000E+00 -0.81110864044E+03  0.81110864045E+03  0.50400001928E-02 0. -1.
    10030    2    1    2    0    0  0.00000000000E+00  0.00000000000E+00  0.35142862882E+03  0.19736459097E+04  0.19421060980E+04 0.  0.
        3    1    3    3  502    0  0.91158080415E+03  0.24626407573E+03  0.40592902897E+03  0.10278151314E+04  0.10100000352E+00 0. -1.
       -3    1    3    3    0  502 -0.91158080415E+03 -0.24626407573E+03 -0.54500400152E+02  0.94583077837E+03  0.10100000352E+00 0.  1.
</event>
<event>
 5   0  0.1244229E-04  0.1942887E+04  0.7818609E-02  0.8633798E-01
        2   -1    0    0  501    0  0.00000000000E+00  0.00000000000E+00  0.10287907122E+04  0.10287907122E+04  0.25500000920E-02 0. -1.
       -2   -1    0    0    0  501  0.00000000000E+00  0.00000000000E+00 -0.91729340036E+03  0.91729340036E+03  0.25500000920E-02 0.  1.
    10030    2    1    2    0    0  0.00000000000E+00  0.00000000000E+00  0.11149731188E+03  0.19460841126E+04  0.19428874704E+04 0.  0.
        5    1    3    3  502    0 -0.56110992883E+01  0.91340666305E+03  0.38695509847E+03  0.99201792059E+03  0.46999998093E+01 0.  1.
       -5    1    3    3    0  502  0.56110992883E+01 -0.91340666305E+03 -0.27545778659E+03  0.95406619201E+03  0.46999998093E+01 0. -1.
</event>
<event>
 5   0  0.1159914E-04  0.1961721E+04  0.7818609E-02  0.8624729E-01
        2   -1    0    0  501    0  0.00000000000E+00  0.00000000000E+00  0.11300830122E+04  0.11300830122E+04  0.25500000920E-02 0.  1.
       -2   -1    0    0    0  501  0.00000000000E+00  0.00000000000E+00 -0.85134250564E+03  0.85134250565E+03  0.25500000920E-02 0. -1.
    10030    2    1    2    0    0  0.00000000000E+00  0.00000000000E+00  0.27874050656E+03  0.19814255179E+04  0.19617213902E+04 0.  0.
        3    1    3    3  502    0 -0.18938761397E+03 -0.29481607045E+03  0.10647072868E+04  0.11208861675E+04  0.10100000352E+00 0.  1.
       -3    1    3    3    0  502  0.18938761397E+03  0.29481607045E+03 -0.78596678022E+03  0.86053935037E+03  0.10100000352E+00 0. -1.
</event>
<event>
 5   0  0.1159914E-04  0.1999577E+04  0.7818609E-02  0.8606818E-01
       -2   -1    0    0    0  501  0.00000000000E+00  0.00000000000E+00  0.78417824212E+03  0.78417824212E+03  0.25500000920E-02 0. -1.
        2   -1    0    0  501    0  0.00000000000E+00  0.00000000000E+00 -0.12746810653E+04  0.12746810653E+04  0.25500000920E-02 0.  1.
    10030    2    1    2    0    0  0.00000000000E+00  0.00000000000E+00 -0.49050282321E+03  0.20588593075E+04  0.19995771124E+04 0.  0.
        3    1    3    3  502    0 -0.92685645970E+03  0.37345699676E+03 -0.27852227279E+03  0.10373561066E+04  0.10100000352E+00 0.  1.
       -3    1    3    3    0  502  0.92685645970E+03 -0.37345699676E+03 -0.21198055042E+03  0.10215032008E+04  0.10100000352E+00 0. -1.
</event>
<event>
 5   0  0.6256535E-05  0.2000944E+04  0.7818609E-02  0.8606180E-01
        1   -1    0    0  501    0  0.00000000000E+00  0.00000000000E+00  0.14680190842E+04  0.14680190842E+04  0.50400001928E-02 0.  1.
       -1   -1    0    0    0  501  0.00000000000E+00  0.00000000000E+00 -0.68183314396E+03  0.68183314398E+03  0.50400001928E-02 0. -1.
    10030    2    1    2    0    0  0.00000000000E+00  0.00000000000E+00  0.78618594022E+03  0.21498522282E+04  0.20009438449E+04 0.  0.
        1    1    3    3  502    0  0.93653502163E+03  0.15070856316E+03  0.51412248551E+02  0.94997586131E+03  0.50400001928E-02 0. -1.
       -1    1    3    3    0  502 -0.93653502163E+03 -0.15070856316E+03  0.73477369167E+03  0.11998763669E+04  0.50400001928E-02 0.  1.
</event>
<event>
 5   0  0.6028501E-05  0.1996729E+04  0.7818609E-02  0.8608152E-01
        1   -1    0    0  501    0  0.00000000000E+00  0.00000000000E+00  0.16596391710E+04  0.16596391710E+04  0.50400001928E-02 0.  1.
       -1   -1    0    0    0  501  0.00000000000E+00  0.00000000000E+00 -0.60057128214E+03  0.60057128216E+03  0.50400001928E-02 0. -1.
    10030    2    1    2    0    0  0.00000000000E+00  0.00000000000E+00  0.10590678888E+04  0.22602104531E+04  0.19967289499E+04 0.  0.
        4    1    3    3  502    0  0.78194492406E+03  0.44219349863E+03  0.36441062777E+02  0.89905646010E+03  0.12699999809E+01 0.  1.
       -4    1    3    3    0  502 -0.78194492406E+03 -0.44219349863E+03  0.10226268261E+04  0.13611539930E+04  0.12699999809E+01 0. -1.
</event>
<event>
 5   0  0.6256535E-05  0.1984417E+04  0.7818609E-02  0.8613941E-01
        1   -1    0    0  501    0  0.00000000000E+00  0.00000000000E+00  0.11861361984E+04  0.11861361984E+04  0.50400001928E-02 0. -1.
       -1   -1    0    0    0  501  0.00000000000E+00  0.00000000000E+00 -0.82998723521E+03  0.82998723522E+03  0.50400001928E-02 0.  1.
    10030    2    1    2    0    0  0.00000000000E+00  0.00000000000E+00  0.35614896322E+03  0.20161234337E+04  0.19844171980E+04 0.  0.
        1    1    3    3  502    0  0.19899153877E+02  0.20654951716E+03  0.11638446395E+04  0.11821983862E+04  0.50400001928E-02 0. -1.
       -1    1    3    3    0  502 -0.19899153877E+02 -0.20654951716E+03 -0.80769567627E+03  0.83392504750E+03  0.50400001928E-02 0.  1.
</event>
<event>
 5   0  0.4479000E-05  0.1977823E+04  0.7818609E-02  0.8617060E-01
       -3   -1    0    0    0  501  0.00000000000E+00  0.00000000000E+00  0.11341631383E+04  0.11341631428E+04  0.10100000352E+00 0. -1.
        3   -1    0    0  501    0  0.00000000000E+00  0.00000000000E+00 -0.86226257178E+03  0.86226257769E+03  0.10100000352E+00 0.  1.
    10030    2    1    2    0    0  0.00000000000E+00  0.00000000000E+00  0.27190056649E+03  0.19964257205E+04  0.19778234854E+04 0.  0.
        1    1    3    3  502    0 -0.23402166763E+03  0.61224906099E+03 -0.61150837598E+03  0.89641371449E+03  0.50400001928E-02 0.  1.
       -1    1    3    3    0  502  0.23402166763E+03 -0.61224906099E+03  0.88340894248E+03  0.11000120060E+04  0.50400001928E-02 0. -1.
</event>
<event>
 5   0  0.6168338E-05  0.2001788E+04  0.7818609E-02  0.8605785E-01
       -1   -1    0    0    0  501  0.00000000000E+00  0.00000000000E+00  0.73373019370E+03  0.73373019372E+03  0.50400001928E-02 0. -1.
        1   -1    0    0  501    0  0.00000000000E+00  0.00000000000E+00 -0.13653362097E+04  0.13653362097E+04  0.50400001928E-02 0.  1.
    10030    2    1    2    0    0  0.00000000000E+00  0.00000000000E+00 -0.63160601598E+03  0.20990664034E+04  0.20017876027E+04 0.  0.
        5    1    3    3  502    0 -0.38369256749E+03  0.90599010318E+03 -0.12322568762E+03  0.99158696718E+03  0.46999998093E+01 0. -1.
       -5    1    3    3    0  502  0.38369256749E+03 -0.90599010318E+03 -0.50838032836E+03  0.11074794362E+04  0.46999998093E+01 0.  1.
</event>
<event>
 5   0  0.6028501E-05  0.1983085E+04  0.7818609E-02  0.8614570E-01
        1   -1    0    0  501    0  0.00000000000E+00  0.00000000000E+00  0.11664732166E+04  0.11664732166E+04  0.50400001928E-02 0.  1.
       -1   -1    0    0    0  501  0.00000000000E+00  0.00000000000E+00 -0.84284541907E+03  0.84284541909E+03  0.50400001928E-02 0. -1.
    10030    2    1    2    0    0  0.00000000000E+00  0.00000000000E+00  0.32362779755E+03  0.20093186357E+04  0.19830850785E+04 0.  0.
        4    1    3    3  502    0  0.61500262110E+03  0.76979008910E+02  0.94600379076E+03  0.11309636496E+04  0.12699999809E+01 0.  1.
       -4    1    3    3    0  502 -0.61500262110E+03 -0.76979008910E+02 -0.62237599321E+03  0.87835498609E+03  0.12699999809E+01 0. -1.
</event>
<event>
 5   0  0.6222733E-05  0.2023456E+04  0.7818609E-02  0.8595732E-01
        1   -1    0    0  501    0  0.00000000000E+00  0.00000000000E+00  0.10943250868E+04  0.10943250868E+04  0.50400001928E-02 0. -1.
       -1   -1    0    0    0  501  0.00000000000E+00  0.00000000000E+00 -0.93536554088E+03  0.93536554089E+03  0.50400001928E-02 0.  1.
    10030    2    1    2    0    0  0.00000000000E+00  0.00000000000E+00  0.15895954591E+03  0.20296906277E+04  0.20234564257E+04 0.  0.
        2    1    3    3  502    0  0.75281659058E+02  0.66709538337E+03  0.83872023028E+03  0.10743068479E+04  0.25500000920E-02 0. -1.
       -2    1    3    3    0  502 -0.75281659058E+02 -0.66709538337E+03 -0.67976068437E+03  0.95538377981E+03  0.25500000920E-02 0.  1.
</event>
<event>
 5   0  0.1281789E-04  0.1951706E+04  0.7818609E-02  0.8629539E-01
       -2   -1    0    0    0  501  0.00000000000E+00  0.00000000000E+00  0.48269217335E+03  0.48269217335E+03  0.25500000920E-02 0. -1.
        2   -1    0    0  501    0  0.00000000000E+00  0.00000000000E+00 -0.19728699616E+04  0.19728699616E+04  0.25500000920E-02 0.  1.
    10030    2    1    2    0    0  0.00000000000E+00  0.00000000000E+00 -0.14901777882E+04  0.24555621349E+04  0.19517058072E+04 0.  0.
        2    1    3    3  502    0  0.50136886813E+03  0.68347633028E+03 -0.13534180453E+04  0.15969505445E+04  0.25500000920E-02 0.  1.
       -2    1    3    3    0  502 -0.50136886813E+03 -0.68347633028E+03 -0.13675974288E+03  0.85861159046E+03  0.25500000920E-02 0. -1.
</event>
<event>
 5   0  0.6168338E-05  0.1998822E+04  0.7818609E-02  0.8607172E-01
        1   -1    0    0  501    0  0.00000000000E+00  0.00000000000E+00  0.20763392553E+04  0.20763392553E+04  0.50400001928E-02 0.  1.
       -1   -1    0    0    0  501  0.00000000000E+00  0.00000000000E+00 -0.48104951502E+03  0.48104951505E+03  0.50400001928E-02 0. -1.
    10030    2    1    2    0    0  0.00000000000E+00  0.00000000000E+00  0.15952897403E+04  0.25573887703E+04  0.19988216447E+04 0.  0.
        5    1    3    3  502    0 -0.93494436877E+03  0.21077878530E+03  0.11600952560E+04  0.15047896072E+04  0.46999998093E+01 0.  1.
       -5    1    3    3    0  502  0.93494436877E+03 -0.21077878530E+03  0.43519448424E+03  0.10525991631E+04  0.46999998093E+01 0. -1.
</event>
<event>
 5   0  0.6214547E-05  0.1985272E+04  0.7818609E-02  0.8613538E-01
        1   -1    0    0  501    0  0.00000000000E+00  0.00000000000E+00  0.12277609276E+04  0.12277609276E+04  0.50400001928E-02 0. -1.
       -1   -1    0    0    0  501  0.00000000000E+00  0.00000000000E+00 -0.80253921395E+03  0.80253921397E+03  0.50400001928E-02 0.  1.
    10030    2    1    2    0    0  0.00000000000E+00  0.00000000000E+00  0.42522171365E+03  0.20303001416E+04  0.19852720617E+04 0.  0.
        3    1    3    3  502    0 -0.14629695747E+03  0.65504476509E+03 -0.53530387432E+03  0.85850841120E+03  0.10100000352E+00 0.  1.
       -3    1    3    3    0  502  0.14629695747E+03 -0.65504476509E+03  0.96052558798E+03  0.11717917304E+04  0.10100000352E+00 0. -1.
</event>
<event>
 5   0  0.1281789E-04  0.1972668E+04  0.7818609E-02  0.8619507E-01
       -2   -1    0    0    0  501  0.00000000000E+00  0.00000000000E+00  0.67484800951E+03  0.67484800952E+03  0.25500000920E-02 0.  1.
        2   -1    0    0  501    0  0.00000000000E+00  0.00000000000E+00 -0.14415913014E+04  0.14415913014E+04  0.25500000920E-02 0. -1.
    10030    2    1    2    0    0  0.00000000000E+00  0.00000000000E+00 -0.76674329187E+03  0.21164393109E+04  0.19726682643E+04 0.  0.
        2    1    3    3  502    0  0.90298074737E+02 -0.86282305558E+03 -0.88686941036E+03  0.12406267443E+04  0.25500000920E-02 0. -1.
       -2    1    3    3    0  502 -0.90298074737E+02  0.86282305558E+03  0.12012611849E+03  0.87581256664E+03  0.25500000920E-02 0.  1.
</event>
<event>
 5   0  0.6222733E-05  0.2009449E+04  0.7818609E-02  0.8602216E-01
        1   -1    0    0  501    0  0.00000000000E+00  0.00000000000E+00  0.11123526015E+04  0.11123526015E+04  0.50400001928E-02 0. -1.
       -1   -1    0    0    0  501  0.00000000000E+00  0.00000000000E+00 -0.90751040505E+03  0.90751040507E+03  0.50400001928E-02 0.  1.
    10030    2    1    2    0    0  0.00000000000E+00  0.00000000000E+00  0.20484219645E+03  0.20198630066E+04  0.20094492380E+04 0.  0.
        2    1    3    3  502    0 -0.13154547197E+03  0.14987247060E+03 -0.88741850415E+03  0.90954800321E+03  0.25500000920E-02 0.  1.
       -2    1    3    3    0  502  0.13154547197E+03 -0.14987247060E+03  0.10922607006E+04  0.11103150034E+04  0.25500000920E-02 0. -1.
</event>
<event>
 5   0  0.6168338E-05  0.2015679E+04  0.7818609E-02  0.8599325E-01
        1   -1    0    0  501    0  0.00000000000E+00  0.00000000000E+00  0.12245326534E+04  0.12245326534E+04  0.50400001928E-02 0.  1.
       -1   -1    0    0    0  501  0.00000000000E+00  0.00000000000E+00 -0.82949225802E+03  0.82949225803E+03  0.50400001928E-02 0. -1.
    10030    2    1    2    0    0  0.00000000000E+00  0.00000000000E+00  0.39504039539E+03  0.20540249114E+04  0.20156788987E+04 0.  0.
        5    1    3    3  502    0  0.25744846709E+03  0.89788867212E+03 -0.18814295973E+03  0.95283977878E+03  0.46999998093E+01 0. -1.
       -5    1    3    3    0  502 -0.25744846709E+03 -0.89788867212E+03  0.58318335512E+03  0.11011851327E+04  0.46999998093E+01 0.  1.
</event>
<event>
 5   0  0.1274868E-04  0.1887725E+04  0.7818609E-02  0.8660990E-01
        2   -1    0    0  501    0  0.00000000000E+00  0.00000000000E+00  0.13436048643E+04  0.13436048643E+04  0.25500000920E-02 0.  1.
       -2   -1    0    0    0  501  0.00000000000E+00  0.00000000000E+00 -0.66304972749E+03  0.66304972750E+03  0.25500000920E-02 0. -1.
    10030    2    1    2    0    0  0.00000000000E+00  0.00000000000E+00  0.68055513683E+03  0.20066545918E+04  0.18877254452E+04 0.  0.
        1    1    3    3  502    0  0.25623161472E+03 -0.78398521216E+03 -0.14753392928E+03  0.83788645626E+03  0.50400001928E-02 0.  1.
       -1    1    3    3    0  502 -0.25623161472E+03  0.78398521216E+03  0.82808906612E+03  0.11687681356E+04  0.50400001928E-02 0. -1.
</event>
<event>
 5   0  0.1281789E-04  0.2002303E+04  0.7818609E-02  0.8605545E-01
        2   -1    0    0  501    0  0.00000000000E+00  0.00000000000E+00  0.50661530301E+03  0.50661530302E+03  0.25500000920E-02 0.  1.
       -2   -1    0    0    0  501  0.00000000000E+00  0.00000000000E+00 -0.19784318483E+04  0.19784318483E+04  0.25500000920E-02 0. -1.
    10030    2    1    2    0    0  0.00000000000E+00  0.00000000000E+00 -0.14718165453E+04  0.24850471513E+04  0.20023025249E+04 0.  0.
        2    1    3    3  502    0  0.60999584351E+01  0.87234075737E+03 -0.13455476624E+04  0.16035941252E+04  0.25500000920E-02 0.  1.
       -2    1    3    3    0  502 -0.60999584351E+01 -0.87234075737E+03 -0.12626888284E+03  0.88145302611E+03  0.25500000920E-02 0. -1.
</event>
<event>
 5   0  0.1242761E-04  0.2019395E+04  0.7818609E-02  0.8597606E-01
        2   -1    0    0  501    0  0.00000000000E+00  0.00000000000E+00  0.91066987463E+03  0.91066987464E+03  0.25500000920E-02 0.  1.
       -2   -1    0    0    0  501  0.00000000000E+00  0.00000000000E+00 -0.11194936386E+04  0.11194936386E+04  0.25500000920E-02 0. -1.
    10030    2    1    2    0    0  0.00000000000E+00  0.00000000000E+00 -0.20882376396E+03  0.20301635132E+04  0.20193950891E+04 0.  0.
        4    1    3    3  502    0 -0.24901106632E+03 -0.17595758950E+02  0.87915654328E+03  0.91391135367E+03  0.12699999809E+01 0.  1.
       -4    1    3    3    0  502  0.24901106632E+03  0.17595758950E+02 -0.10879803072E+04  0.11162521596E+04  0.12699999809E+01 0. -1.
</event>
<event>
 5   0  0.1244229E-04  0.2015180E+04  0.7818609E-02  0.8599556E-01
        2   -1    0    0  501    0  0.00000000000E+00  0.00000000000E+00  0.10723175238E+04  0.10723175238E+04  0.25500000920E-02 0. -1.
       -2   -1    0    0    0  501  0.00000000000E+00  0.00000000000E+00 -0.94676980573E+03  0.94676980573E+03  0.25500000920E-02 0.  1.
    10030    2    1    2    0    0  0.00000000000E+00  0.00000000000E+00  0.12554771807E+03  0.20190873295E+04  0.20151802437E+04 0.  0.
        5    1    3    3  502    0  0.12152424788E+03  0.11328169637E+03  0.10584887878E+04  0.10714576471E+04  0.46999998093E+01 0. -1.
       -5    1    3    3    0  502 -0.12152424788E+03 -0.11328169637E+03 -0.93294106972E+03  0.94762968248E+03  0.46999998093E+01 0.  1.
</event>
<event>
 5   0  0.1242761E-04  0.1998380E+04  0.7818609E-02  0.8607379E-01
       -2   -1    0    0    0  501  0.00000000000E+00  0.00000000000E+00  0.48421557501E+03  0.48421557501E+03  0.25500000920E-02 0. -1.
        2   -1    0    0  501    0  0.00000000000E+00  0.00000000000E+00 -0.20618511854E+04  0.20618511854E+04  0.25500000920E-02 0.  1.
    10030    2    1    2    0    0  0.00000000000E+00  0.00000000000E+00 -0.15776356104E+04  0.25460667604E+04  0.19983798011E+04 0.  0.
        4    1    3    3  502    0 -0.85892313526E+03 -0.17603540052E+03 -0.17827393270E+03  0.89471818049E+03  0.12699999809E+01 0. -1.
       -4    1    3    3    0  502  0.85892313526E+03  0.17603540052E+03 -0.13993616777E+04  0.16513485799E+04  0.12699999809E+01 0.  1.
</event>
<event>
 5   0  0.1274868E-04  0.2012167E+04  0.7818609E-02  0.8600953E-01
       -2   -1    0    0    0  501  0.00000000000E+00  0.00000000000E+00  0.88822722257E+03  0.88822722258E+03  0.25500000920E-02 0.  1.
        2   -1    0    0  501    0  0.00000000000E+00  0.00000000000E+00 -0.11395779881E+04  0.11395779881E+04  0.25500000920E-02 0. -1.
    10030    2    1    2    0    0  0.00000000000E+00  0.00000000000E+00 -0.25135076555E+03  0.20278052107E+04  0.20121671812E+04 0.  0.
        1    1    3    3  502    0 -0.44706904252E+03 -0.16883335997E+03 -0.10178970596E+04  0.11244953784E+04  0.50400001928E-02 0. -1.
       -1    1    3    3    0  502  0.44706904252E+03  0.16883335997E+03  0.76654629400E+03  0.90330983228E+03  0.50400001928E-02 0.  1.
</event>
<event>
 5   0  0.6222733E-05  0.1992926E+04  0.7818609E-02  0.8609935E-01
        1   -1    0    0  501    0  0.00000000000E+00  0.00000000000E+00  0.10511344778E+04  0.10511344778E+04  0.50400001928E-02 0. -1.
       -1   -1    0    0    0  501  0.00000000000E+00  0.00000000000E+00 -0.94463487176E+03  0.94463487178E+03  0.50400001928E-02 0.  1.
    10030    2    1    2    0    0  0.00000000000E+00  0.00000000000E+00  0.10649960599E+03  0.19957693495E+04  0.19929257714E+04 0.  0.
        2    1    3    3  502    0  0.37914465733E+03 -0.85015907064E+03 -0.30280942876E+03  0.97888439906E+03  0.25500000920E-02 0.  1.
       -2    1    3    3    0  502 -0.37914465733E+03  0.85015907064E+03  0.40930903475E+03  0.10168849505E+04  0.25500000920E-02 0. -1.
</event>
<event>
 5   0  0.1281789E-04  0.1967897E+04  0.7818609E-02  0.8621779E-01
        2   -1    0    0  501    0  0.00000000000E+00  0.00000000000E+00  0.24870224748E+04  0.24870224748E+04  0.25500000920E-02 0. -1.
       -2   -1    0    0    0  501  0.00000000000E+00  0.00000000000E+00 -0.38928272812E+03  0.38928272813E+03  0.25500000920E-02 0.  1.
    10030    2    1    2    0    0  0.00000000000E+00  0.00000000000E+00  0.20977397467E+04  0.28763052030E+04  0.19678972472E+04 0.  0.
        2    1    3    3  502    0 -0.67927897924E+03  0.58643893027E+03  0.45908691938E+03  0.10080135664E+04  0.25500000920E-02 0.  1.
       -2    1    3    3    0  502  0.67927897924E+03 -0.58643893027E+03  0.16386528273E+04  0.18682916365E+04  0.25500000920E-02 0. -1.
</event>
<event>
 5   0  0.1159914E-04  0.2011551E+04  0.7818609E-02  0.8601239E-01
       -2   -1    0    0    0  501  0.00000000000E+00  0.00000000000E+00  0.47321378185E+03  0.47321378185E+03  0.25500000920E-02 0. -1.
        2   -1    0    0  501    0  0.00000000000E+00  0.00000000000E+00 -0.21376900988E+04  0.21376900988E+04  0.25500000920E-02 0.  1.
    10030    2    1    2    0    0  0.00000000000E+00  0.00000000000E+00 -0.16644763170E+04  0.26109038807E+04  0.20115510594E+04 0.  0.
        3    1    3    3  502    0  0.72989592047E+03  0.47716331409E+03 -0.18176747039E+03  0.89077062509E+03  0.10100000352E+00 0. -1.
       -3    1    3    3    0  502 -0.72989592047E+03 -0.47716331409E+03 -0.14827088466E+04  0.17201332556E+04  0.10100000352E+00 0.  1.
</event>
<event>
 5   0  0.1244229E-04  0.1996730E+04  0.7818609E-02  0.8608151E-01
        2   -1    0    0  501    0  0.00000000000E+00  0.00000000000E+00  0.18645628516E+04  0.18645628516E+04  0.25500000920E-02 0.  1.
       -2   -1    0    0    0  501  0.00000000000E+00  0.00000000000E+00 -0.53456616133E+03  0.53456616134E+03  0.25500000920E-02 0. -1.
    10030    2    1    2    0    0  0.00000000000E+00  0.00000000000E+00  0.13299966902E+04  0.23991290129E+04  0.19967295321E+04 0.  0.
        5    1    3    3  502    0  0.94750631878E+03 -0.24424731439E+03  0.42684947692E+03  0.10675427582E+04  0.46999998093E+01 0. -1.
       -5    1    3    3    0  502 -0.94750631878E+03  0.24424731439E+03  0.90314721333E+03  0.13315862547E+04  0.46999998093E+01 0.  1.
</event>
<event>
 5   0  0.1274868E-04  0.1986180E+04  0.7818609E-02  0.8613109E-01
       -2   -1    0    0    0  501  0.00000000000E+00  0.00000000000E+00  0.79749560930E+03  0.79749560930E+03  0.25500000920E-02 0. -1.
        2   -1    0    0  501    0  0.00000000000E+00  0.00000000000E+00 -0.12366556801E+04  0.12366556801E+04  0.25500000920E-02 0.  1.
    10030    2    1    2    0    0  0.00000000000E+00  0.00000000000E+00 -0.43916007076E+03  0.20341512894E+04  0.19861797251E+04 0.  0.
        1    1    3    3  502    0  0.20561232105E+03  0.93718837156E+03  0.42789021988E+02  0.96043186681E+03  0.50400001928E-02 0. -1.
       -1    1    3    3    0  502 -0.20561232105E+03 -0.93718837156E+03 -0.48194909275E+03  0.10737194226E+04  0.50400001928E-02 0.  1.
</event>
<event>
 5   0  0.6256535E-05  0.1995179E+04  0.7818609E-02  0.8608878E-01
        1   -1    0    0  501    0  0.00000000000E+00  0.00000000000E+00  0.62086347674E+03  0.62086347676E+03  0.50400001928E-02 0. -1.
       -1   -1    0    0    0  501  0.00000000000E+00  0.00000000000E+00 -0.16029045455E+04  0.16029045455E+04  0.50400001928E-02 0.  1.
    10030    2    1    2    0    0  0.00000000000E+00  0.00000000000E+00 -0.98204106873E+03  0.22237680222E+04  0.19951790787E+04 0.  0.
        1    1    3    3  502    0 -0.18937438042E+03 -0.79229019382E+03 -0.11328414494E+04  0.13953193744E+04  0.50400001928E-02 0.  1.
       -1    1    3    3    0  502  0.18937438042E+03  0.79229019382E+03  0.15080038068E+03  0.82844864779E+03  0.50400001928E-02 0. -1.
</event>
<event>
 5   0  0.1281789E-04  0.1995014E+04  0.7818609E-02  0.8608955E-01
        2   -1    0    0  501    0  0.00000000000E+00  0.00000000000E+00  0.65891236126E+03  0.65891236127E+03  0.25500000920E-02 0. -1.
       -2   -1    0    0    0  501  0.00000000000E+00  0.00000000000E+00 -0.15100945941E+04  0.15100945941E+04  0.25500000920E-02 0.  1.
    10030    2    1    2    0    0  0.00000000000E+00  0.00000000000E+00 -0.85118223287E+03  0.21690069554E+04  0.19950137791E+04 0.  0.
        2    1    3    3  502    0 -0.78105376759E+03  0.21585911530E+03 -0.10580281477E+04  0.13326904017E+04  0.25500000920E-02 0.  1.
       -2    1    3    3    0  502  0.78105376759E+03 -0.21585911530E+03  0.20684591479E+03  0.83631655370E+03  0.25500000920E-02 0. -1.
</event>
<event>
 5   0  0.6168338E-05  0.2015588E+04  0.7818609E-02  0.8599367E-01
       -1   -1    0    0    0  501  0.00000000000E+00  0.00000000000E+00  0.93901081289E+03  0.93901081291E+03  0.50400001928E-02 0. -1.
        1   -1    0    0  501    0  0.00000000000E+00  0.00000000000E+00 -0.10816159171E+04  0.10816159171E+04  0.50400001928E-02 0.  1.
    10030    2    1    2    0    0  0.00000000000E+00  0.00000000000E+00 -0.14260510423E+03  0.20206267300E+04  0.20155882929E+04 0.  0.
        5    1    3    3  502    0  0.82813491786E+03 -0.26360693877E+03 -0.58280429659E+03  0.10464124419E+04  0.46999998093E+01 0.  1.
       -5    1    3    3    0  502 -0.82813491786E+03  0.26360693877E+03  0.44019919236E+03  0.97421428819E+03  0.46999998093E+01 0. -1.
</event>
<event>
 5   0  0.1244229E-04  0.2018427E+04  0.7818609E-02  0.8598053E-01
        2   -1    0    0  501    0  0.00000000000E+00  0.00000000000E+00  0.19247522830E+04  0.19247522830E+04  0.25500000920E-02 0. -1.
       -2   -1    0    0    0  501  0.00000000000E+00  0.00000000000E+00 -0.52916539828E+03  0.52916539829E+03  0.25500000920E-02 0.  1.
    10030    2    1    2    0    0  0.00000000000E+00  0.00000000000E+00  0.13955868847E+04  0.24539176813E+04  0.20184274160E+04 0.  0.
        5    1    3    3  502    0 -0.22842491638E+03 -0.96202026085E+03  0.94345250319E+03  0.13666695433E+04  0.46999998093E+01 0. -1.
       -5    1    3    3    0  502  0.22842491638E+03  0.96202026085E+03  0.45213438155E+03  0.10872481380E+04  0.46999998093E+01 0.  1.
</event>
<event>
 5   0  0.6028501E-05  0.1993923E+04  0.7818609E-02  0.8609467E-01
        1   -1    0    0  501    0  0.00000000000E+00  0.00000000000E+00  0.18222868413E+04  0.18222868413E+04  0.50400001928E-02 0.  1.
       -1   -1    0    0    0  501  0.00000000000E+00  0.00000000000E+00 -0.54543134518E+03  0.54543134521E+03  0.50400001928E-02 0. -1.
    10030    2    1    2    0    0  0.00000000000E+00  0.00000000000E+00  0.12768554961E+04  0.23677181865E+04  0.19939231311E+04 0.  0.
        4    1    3    3  502    0  0.37555038177E+03 -0.35835883428E+03  0.16491510613E+04  0.17289187312E+04  0.12699999809E+01 0.  1.
       -4    1    3    3    0  502 -0.37555038177E+03  0.35835883428E+03 -0.37229556515E+03  0.63879945530E+03  0.12699999809E+01 0. -1.
</event>
<event>
 5   0  0.1242761E-04  0.2020655E+04  0.7818609E-02  0.8597024E-01
       -2   -1    0    0    0  501  0.00000000000E+00  0.00000000000E+00  0.18176440319E+04  0.18176440319E+04  0.25500000920E-02 0. -1.
        2   -1    0    0  501    0  0.00000000000E+00  0.00000000000E+00 -0.56158477043E+03  0.56158477044E+03  0.25500000920E-02 0.  1.
    10030    2    1    2    0    0  0.00000000000E+00  0.00000000000E+00  0.12560592615E+04  0.23792288024E+04  0.20206545538E+04 0.  0.
        4    1    3    3  502    0 -0.89425774095E+03  0.16032024618E+03  0.11484593327E+04  0.14643633226E+04  0.12699999809E+01 0. -1.
       -4    1    3    3    0  502  0.89425774095E+03 -0.16032024618E+03  0.10759992877E+03  0.91486547982E+03  0.12699999809E+01 0.  1.
</event>
<event>
 5   0  0.6256535E-05  0.2009677E+04  0.7818609E-02  0.8602109E-01
       -1   -1    0    0    0  501  0.00000000000E+00  0.00000000000E+00  0.77927444477E+03  0.77927444478E+03  0.50400001928E-02 0.  1.
        1   -1    0    0  501    0  0.00000000000E+00  0.00000000000E+00 -0.12956935972E+04  0.12956935972E+04  0.50400001928E-02 0. -1.
    10030    2    1    2    0    0  0.00000000000E+00  0.00000000000E+00 -0.51641915244E+03  0.20749680420E+04  0.20096774951E+04 0.  0.
        1    1    3    3  502    0  0.58765207602E+03  0.80999723629E+03 -0.35210596989E+03  0.10608530055E+04  0.50400001928E-02 0.  1.
       -1    1    3    3    0  502 -0.58765207602E+03 -0.80999723629E+03 -0.16431318255E+03  0.10141150365E+04  0.50400001928E-02 0. -1.
</event>
<event>
 5   0  0.1274868E-04  0.2000159E+04  0.7818609E-02  0.8606546E-01
        2   -1    0    0  501    0  0.00000000000E+00  0.00000000000E+00  0.12338238694E+04  0.12338238694E+04  0.25500000920E-02 0.  1.
       -2   -1    0    0    0  501  0.00000000000E+00  0.00000000000E+00 -0.81061756443E+03  0.81061756443E+03  0.25500000920E-02 0. -1.
    10030    2    1    2    0    0  0.00000000000E+00  0.00000000000E+00  0.42320630496E+03  0.20444414338E+04  0.20001592936E+04 0.  0.
        1    1    3    3  502    0  0.65611838066E+03 -0.52772403619E+03  0.76315629632E+03  0.11363940868E+04  0.50400001928E-02 0.  1.
       -1    1    3    3    0  502 -0.65611838066E+03  0.52772403619E+03 -0.33994999137E+03  0.90804734704E+03  0.50400001928E-02 0. -1.
</event>
<event>
 5   0  0.6028501E-05  0.2003695E+04  0.7818609E-02  0.8604895E-01
        1   -1    0    0  501    0  0.00000000000E+00  0.00000000000E+00  0.14681177968E+04  0.14681177968E+04  0.50400001928E-02 0.  1.
       -1   -1    0    0    0  501  0.00000000000E+00  0.00000000000E+00 -0.68366337226E+03  0.68366337228E+03  0.50400001928E-02 0. -1.
    10030    2    1    2    0    0  0.00000000000E+00  0.00000000000E+00  0.78445442450E+03  0.21517811690E+04  0.20036949507E+04 0.  0.
        4    1    3    3  502    0 -0.85222968110E+03  0.35654826227E+03 -0.24075627412E+02  0.92412301206E+03  0.12699999809E+01 0.  1.
       -4    1    3    3    0  502  0.85222968110E+03 -0.35654826227E+03  0.80853005191E+03  0.12276581570E+04  0.12699999809E+01 0. -1.
</event>
<event>
 5   0  0.1159914E-04  0.1992471E+04  0.7818609E-02  0.8610149E-01
        2   -1    0    0  501    0  0.00000000000E+00  0.00000000000E+00  0.20980962660E+04  0.20980962660E+04  0.25500000920E-02 0.  1.
       -2   -1    0    0    0  501  0.00000000000E+00  0.00000000000E+00 -0.47304086791E+03  0.47304086792E+03  0.25500000920E-02 0. -1.
    10030    2    1    2    0    0  0.00000000000E+00  0.00000000000E+00  0.16250553981E+04  0.25711371339E+04  0.19924711076E+04 0.  0.
        3    1    3    3  502    0 -0.32268714474E+03 -0.51489088918E+03  0.18312664713E+04  0.19294497973E+04  0.10100000352E+00 0.  1.
       -3    1    3    3    0  502  0.32268714474E+03  0.51489088918E+03 -0.20621107317E+03  0.64168733667E+03  0.10100000352E+00 0. -1.
</event>
<event>
 5   0  0.6214547E-05  0.1984092E+04  0.7818609E-02  0.8614094E-01
        1   -1    0    0  501    0  0.00000000000E+00  0.00000000000E+00  0.17216907282E+04  0.17216907282E+04  0.50400001928E-02 0.  1.
       -1   -1    0    0    0  501  0.00000000000E+00  0.00000000000E+00 -0.57162146034E+03  0.57162146037E+03  0.50400001928E-02 0. -1.
    10030    2    1    2    0    0  0.00000000000E+00  0.00000000000E+00  0.11500692679E+04  0.22933121886E+04  0.19840921031E+04 0.  0.
        3    1    3    3  502    0 -0.48204102324E+03  0.53870908481E+03 -0.21024960327E+03  0.75284522448E+03  0.10100000352E+00 0. -1.
       -3    1    3    3    0  502  0.48204102324E+03 -0.53870908481E+03  0.13603188712E+04  0.15404669641E+04  0.10100000352E+00 0.  1.
</event>
<event>
 5   0  0.1274868E-04  0.1919266E+04  0.7818609E-02  0.8645326E-01
       -2   -1    0    0    0  501  0.00000000000E+00  0.00000000000E+00  0.44461230596E+03  0.44461230597E+03  0.25500000920E-02 0.  1.
        2   -1    0    0  501    0  0.00000000000E+00  0.00000000000E+00 -0.20712315732E+04  0.20712315732E+04  0.25500000920E-02 0. -1.
    10030    2    1    2    0    0  0.00000000000E+00  0.00000000000E+00 -0.16266192672E+04  0.25158438792E+04  0.19192655324E+04 0.  0.
        1    1    3    3  502    0  0.24798953141E+03  0.51687174227E+03 -0.18220918861E+04  0.19101502682E+04  0.50400001928E-02 0. -1.
       -1    1    3    3    0  502 -0.24798953141E+03 -0.51687174227E+03  0.19547261885E+03  0.60569361099E+03  0.50400001928E-02 0.  1.
</event>
<event>
 5   0  0.6028501E-05  0.2009080E+04  0.7818609E-02  0.8602387E-01
       -1   -1    0    0    0  501  0.00000000000E+00  0.00000000000E+00  0.70180489278E+03  0.70180489280E+03  0.50400001928E-02 0.  1.
        1   -1    0    0  501    0  0.00000000000E+00  0.00000000000E+00 -0.14378643737E+04  0.14378643737E+04  0.50400001928E-02 0. -1.
    10030    2    1    2    0    0  0.00000000000E+00  0.00000000000E+00 -0.73605948090E+03  0.21396692665E+04  0.20090796427E+04 0.  0.
        4    1    3    3  502    0 -0.98450570456E+03  0.11128676249E+03 -0.54451923115E+03  0.11305481112E+04  0.12699999809E+01 0.  1.
       -4    1    3    3    0  502  0.98450570456E+03 -0.11128676249E+03 -0.19154024975E+03  0.10091211553E+04  0.12699999809E+01 0. -1.
</event>
<event>
 5   0  0.1159914E-04  0.1991801E+04  0.7818609E-02  0.8610463E-01
        2   -1    0    0  501    0  0.00000000000E+00  0.00000000000E+00  0.24828027345E+04  0.24828027345E+04  0.25500000920E-02 0.  1.
       -2   -1    0    0    0  501  0.00000000000E+00  0.00000000000E+00 -0.39947526528E+03  0.39947526529E+03  0.25500000920E-02 0. -1.
    10030    2    1    2    0    0  0.00000000000E+00  0.00000000000E+00  0.20833274692E+04  0.28822779998E+04  0.19918014771E+04 0.  0.
        3    1    3    3  502    0  0.76780064494E+03  0.60861984405E+03  0.13000472573E+04  0.16279001279E+04  0.10100000352E+00 0.  1.
       -3    1    3    3    0  502 -0.76780064494E+03 -0.60861984405E+03  0.78328021188E+03  0.12543778719E+04  0.10100000352E+00 0. -1.
</event>
<event>
 5   0  0.6028501E-05  0.1981028E+04  0.7818609E-02  0.8615542E-01
        1   -1    0    0  501    0  0.00000000000E+00  0.00000000000E+00  0.92322330074E+03  0.92322330075E+03  0.50400001928E-02 0.  1.
       -1   -1    0    0    0  501  0.00000000000E+00  0.00000000000E+00 -0.10627094167E+04  0.10627094167E+04  0.50400001928E-02 0. -1.
    10030    2    1    2    0    0  0.00000000000E+00  0.00000000000E+00 -0.13948611592E+03  0.19859327174E+04  0.19810281123E+04 0.  0.
        4    1    3    3  502    0 -0.29961796039E+02  0.46738497219E+03  0.80521219365E+03  0.93151205637E+03  0.12699999809E+01 0.  1.
       -4    1    3    3    0  502  0.29961796039E+02 -0.46738497219E+03 -0.94469830958E+03  0.10544206611E+04  0.12699999809E+01 0. -1.
</event>
<event>
 5   0  0.4479000E-05  0.2022178E+04  0.7818609E-02  0.8596321E-01
        3   -1    0    0  501    0  0.00000000000E+00  0.00000000000E+00  0.12452901896E+04  0.12452901937E+04  0.10100000352E+00 0.  1.
       -3   -1    0    0    0  501  0.00000000000E+00  0.00000000000E+00 -0.82093404388E+03  0.82093405009E+03  0.10100000352E+00 0. -1.
    10030    2    1    2    0    0  0.00000000000E+00  0.00000000000E+00  0.42435614575E+03  0.20662242438E+04  0.20221781542E+04 0.  0.
        1    1    3    3  502    0 -0.13556800876E+03 -0.96897522119E+03 -0.48345070547E+02  0.97960650781E+03  0.50400001928E-02 0. -1.
       -1    1    3    3    0  502  0.13556800876E+03  0.96897522119E+03  0.47270121630E+03  0.10866177360E+04  0.50400001928E-02 0.  1.
</event>
<event>
 5   0  0.6028501E-05  0.1950435E+04  0.7818609E-02  0.8630151E-01
       -1   -1    0    0    0  501  0.00000000000E+00  0.00000000000E+00  0.15833194083E+04  0.15833194083E+04  0.50400001928E-02 0. -1.
        1   -1    0    0  501    0  0.00000000000E+00  0.00000000000E+00 -0.60066765885E+03  0.60066765887E+03  0.50400001928E-02 0.  1.
    10030    2    1    2    0    0  0.00000000000E+00  0.00000000000E+00  0.98265174940E+03  0.21839870671E+04  0.19504345795E+04 0.  0.
        4    1    3    3  502    0  0.57456655363E+03 -0.26205140608E+03 -0.34079484149E+03  0.71759347883E+03  0.12699999809E+01 0.  1.
       -4    1    3    3    0  502 -0.57456655363E+03  0.26205140608E+03  0.13234465909E+04  0.14663935883E+04  0.12699999809E+01 0. -1.
</event>
<event>
 5   0  0.6168338E-05  0.2004948E+04  0.7818609E-02  0.8604311E-01
       -1   -1    0    0    0  501  0.00000000000E+00  0.00000000000E+00  0.94145847684E+03  0.94145847685E+03  0.50400001928E-02 0. -1.
        1   -1    0    0  501    0  0.00000000000E+00  0.00000000000E+00 -0.10674438649E+04  0.10674438649E+04  0.50400001928E-02 0.  1.
    10030    2    1    2    0    0  0.00000000000E+00  0.00000000000E+00 -0.12598538810E+03  0.20089023418E+04  0.20049479546E+04 0.  0.
        5    1    3    3  502    0  0.93988889051E+03 -0.34753813967E+03 -0.90580618324E+02  0.10061813074E+04  0.46999998093E+01 0.  1.
       -5    1    3    3    0  502 -0.93988889051E+03  0.34753813967E+03 -0.35404769774E+02  0.10027210344E+04  0.46999998093E+01 0. -1.
</event>
<event>
 5   0  0.1281789E-04  0.1996193E+04  0.7818609E-02  0.8608402E-01
        2   -1    0    0  501    0  0.00000000000E+00  0.00000000000E+00  0.11166324828E+04  0.11166324828E+04  0.25500000920E-02 0.  1.
       -2   -1    0    0    0  501  0.00000000000E+00  0.00000000000E+00 -0.89214405290E+03  0.89214405291E+03  0.25500000920E-02 0. -1.
    10030    2    1    2    0    0  0.00000000000E+00  0.00000000000E+00  0.22448842988E+03  0.20087765357E+04  0.19961934063E+04 0.  0.
        2    1    3    3  502    0 -0.36642487742E+03 -0.31197498007E+03  0.99217106239E+03  0.11027234449E+04  0.25500000920E-02 0.  1.
       -2    1    3    3    0  502  0.36642487742E+03  0.31197498007E+03 -0.76768263251E+03  0.90605309075E+03  0.25500000920E-02 0. -1.
</event>
<event>
 5   0  0.1242761E-04  0.1956366E+04  0.7818609E-02  0.8627297E-01
       -2   -1    0    0    0  501  0.00000000000E+00  0.00000000000E+00  0.54760250670E+03  0.54760250670E+03  0.25500000920E-02 0.  1.
        2   -1    0    0  501    0  0.00000000000E+00  0.00000000000E+00 -0.17473297313E+04  0.17473297313E+04  0.25500000920E-02 0. -1.
    10030    2    1    2    0    0  0.00000000000E+00  0.00000000000E+00 -0.11997272246E+04  0.22949322380E+04  0.19563661629E+04 0.  0.
        4    1    3    3  502    0 -0.49640023717E+03 -0.62751625027E+03 -0.12599639305E+04  0.14925483439E+04  0.12699999809E+01 0. -1.
       -4    1    3    3    0  502  0.49640023717E+03  0.62751625027E+03  0.60236705939E+02  0.80238389406E+03  0.12699999809E+01 0.  1.
</event>
<event>
 5   0  0.1244229E-04  0.2023923E+04  0.7818609E-02  0.8595517E-01
        2   -1    0    0  501    0  0.00000000000E+00  0.00000000000E+00  0.72464900444E+03  0.72464900445E+03  0.25500000920E-02 0. -1.
       -2   -1    0    0    0  501  0.00000000000E+00  0.00000000000E+00 -0.14131896926E+04  0.14131896926E+04  0.25500000920E-02 0.  1.
    10030    2    1    2    0    0  0.00000000000E+00  0.00000000000E+00 -0.68854068818E+03  0.21378386971E+04  0.20239234213E+04 0.  0.
        5    1    3    3  502    0 -0.51176234471E+03 -0.72179639614E+03 -0.86298414575E+03  0.12359831960E+04  0.46999998093E+01 0.  1.
       -5    1    3    3    0  502  0.51176234471E+03  0.72179639614E+03  0.17444345757E+03  0.90185550109E+03  0.46999998093E+01 0. -1.
</event>
<event>
 5   0  0.1244229E-04  0.2027648E+04  0.7818609E-02  0.8593802E-01
       -2   -1    0    0    0  501  0.00000000000E+00  0.00000000000E+00  0.74515363456E+03  0.74515363456E+03  0.25500000920E-02 0.  1.
        2   -1    0    0  501    0  0.00000000000E+00  0.00000000000E+00 -0.13793659111E+04  0.13793659111E+04  0.25500000920E-02 0. -1.
    10030    2    1    2    0    0  0.00000000000E+00  0.00000000000E+00 -0.63421227656E+03  0.21245195457E+04  0.20276484134E+04 0.  0.
        5    1    3    3  502    0  0.87407215252E+03  0.32486131026E+03  0.99745674169E+02  0.93782103209E+03  0.46999998093E+01 0.  1.
       -5    1    3    3    0  502 -0.87407215252E+03 -0.32486131026E+03 -0.73395795072E+03  0.11866985136E+04  0.46999998093E+01 0. -1.
</event>
<event>
 5   0  0.6028501E-05  0.1994673E+04  0.7818609E-02  0.8609115E-01
       -1   -1    0    0    0  501  0.00000000000E+00  0.00000000000E+00  0.10563611702E+04  0.10563611702E+04  0.50400001928E-02 0.  1.
        1   -1    0    0  501    0  0.00000000000E+00  0.00000000000E+00 -0.94161009821E+03  0.94161009822E+03  0.50400001928E-02 0. -1.
    10030    2    1    2    0    0  0.00000000000E+00  0.00000000000E+00  0.11475107202E+03  0.19979712685E+04  0.19946732517E+04 0.  0.
        4    1    3    3  502    0 -0.84969643185E+03  0.50888287722E+03 -0.60005779561E+02  0.99224397983E+03  0.12699999809E+01 0. -1.
       -4    1    3    3    0  502  0.84969643185E+03 -0.50888287722E+03  0.17475685158E+03  0.10057272886E+04  0.12699999809E+01 0.  1.
</event>
<event>
 5   0  0.6256535E-05  0.2014781E+04  0.7818609E-02  0.8599741E-01
       -1   -1    0    0    0  501  0.00000000000E+00  0.00000000000E+00  0.15257079740E+04  0.15257079740E+04  0.50400001928E-02 0. -1.
        1   -1    0    0  501    0  0.00000000000E+00  0.00000000000E+00 -0.66515712194E+03  0.66515712196E+03  0.50400001928E-02 0.  1.
    10030    2    1    2    0    0  0.00000000000E+00  0.00000000000E+00  0.86055085204E+03  0.21908650959E+04  0.20147809061E+04 0.  0.
        1    1    3    3  502    0 -0.27342992331E+03 -0.47379639422E+03 -0.48957986365E+03  0.73412218945E+03  0.50400001928E-02 0.  1.
       -1    1    3    3    0  502  0.27342992331E+03  0.47379639422E+03  0.13501307157E+04  0.14567429065E+04  0.50400001928E-02 0. -1.
</event>
<event>
 5   0  0.1159914E-04  0.1905093E+04  0.7818609E-02  0.8652325E-01
       -2   -1    0    0    0  501  0.00000000000E+00  0.00000000000E+00  0.80313925881E+03  0.80313925881E+03  0.25500000920E-02 0.  1.
        2   -1    0    0  501    0  0.00000000000E+00  0.00000000000E+00 -0.11297482617E+04  0.11297482617E+04  0.25500000920E-02 0. -1.
    10030    2    1    2    0    0  0.00000000000E+00  0.00000000000E+00 -0.32660900286E+03  0.19328875205E+04  0.19050933641E+04 0.  0.
        3    1    3    3  502    0 -0.52648635499E+03  0.18399479512E+03  0.62016823710E+03  0.83405672417E+03  0.10100000352E+00 0.  1.
       -3    1    3    3    0  502  0.52648635499E+03 -0.18399479512E+03 -0.94677723996E+03  0.10988307963E+04  0.10100000352E+00 0. -1.
</event>
<event>
 5   0  0.1274868E-04  0.1984953E+04  0.7818609E-02  0.8613688E-01
       -2   -1    0    0    0  501  0.00000000000E+00  0.00000000000E+00  0.52202403186E+03  0.52202403187E+03  0.25500000920E-02 0. -1.
        2   -1    0    0  501    0  0.00000000000E+00  0.00000000000E+00 -0.18869053576E+04  0.18869053576E+04  0.25500000920E-02 0.  1.
    10030    2    1    2    0    0  0.00000000000E+00  0.00000000000E+00 -0.13648813257E+04  0.24089293894E+04  0.19849533420E+04 0.  0.
        1    1    3    3  502    0  0.17925360127E+03  0.74475485090E+03  0.83392863698E+02  0.77054916213E+03  0.50400001928E-02 0. -1.
       -1    1    3    3    0  502 -0.17925360127E+03 -0.74475485090E+03 -0.14482741894E+04  0.16383802273E+04  0.50400001928E-02 0.  1.
</event>
<event>
 5   0  0.1244229E-04  0.1991672E+04  0.7818609E-02  0.8610524E-01
        2   -1    0    0  501    0  0.00000000000E+00  0.00000000000E+00  0.73331209754E+03  0.73331209754E+03  0.25500000920E-02 0. -1.
       -2   -1    0    0    0  501  0.00000000000E+00  0.00000000000E+00 -0.13523427834E+04  0.13523427834E+04  0.25500000920E-02 0.  1.
    10030    2    1    2    0    0  0.00000000000E+00  0.00000000000E+00 -0.61903068586E+03  0.20856548809E+04  0.19916719841E+04 0.  0.
        5    1    3    3  502    0 -0.23715391131E+03 -0.17353743567E+03  0.68686073928E+03  0.74709904591E+03  0.46999998093E+01 0. -1.
       -5    1    3    3    0  502  0.23715391131E+03  0.17353743567E+03 -0.13058914251E+04  0.13385558350E+04  0.46999998093E+01 0.  1.
</event>
<event>
 5   0  0.6214547E-05  0.1999642E+04  0.7818609E-02  0.8606788E-01
       -1   -1    0    0    0  501  0.00000000000E+00  0.00000000000E+00  0.12076061095E+04  0.12076061095E+04  0.50400001928E-02 0. -1.
        1   -1    0    0  501    0  0.00000000000E+00  0.00000000000E+00 -0.82778808118E+03  0.82778808119E+03  0.50400001928E-02 0.  1.
    10030    2    1    2    0    0  0.00000000000E+00  0.00000000000E+00  0.37981802833E+03  0.20353941907E+04  0.19996419122E+04 0.  0.
        3    1    3    3  502    0  0.53559875159E+03  0.82894180152E+03  0.35286956068E+03  0.10481066120E+04  0.10100000352E+00 0.  1.
       -3    1    3    3    0  502 -0.53559875159E+03 -0.82894180152E+03  0.26948467643E+02  0.98728757873E+03  0.10100000352E+00 0. -1.
</event>
<event>
 5   0  0.1281789E-04  0.1993549E+04  0.7818609E-02  0.8609642E-01
       -2   -1    0    0    0  501  0.00000000000E+00  0.00000000000E+00  0.84617554307E+03  0.84617554307E+03  0.25500000920E-02 0.  1.
        2   -1    0    0  501    0  0.00000000000E+00  0.00000000000E+00 -0.11741769284E+04  0.11741769284E+04  0.25500000920E-02 0. -1.
    10030    2    1    2    0    0  0.00000000000E+00  0.00000000000E+00 -0.32800138534E+03  0.20203524715E+04  0.19935493975E+04 0.  0.
        2    1    3    3  502    0  0.78130150723E+03  0.23763002094E+03 -0.74322654851E+03  0.11042127397E+04  0.25500000920E-02 0. -1.
       -2    1    3    3    0  502 -0.78130150723E+03 -0.23763002094E+03  0.41522516317E+03  0.91613973180E+03  0.25500000920E-02 0.  1.
</event>
<event>
 5   0  0.6256535E-05  0.1961227E+04  0.7818609E-02  0.8624966E-01
       -1   -1    0    0    0  501  0.00000000000E+00  0.00000000000E+00  0.66981827354E+03  0.66981827356E+03  0.50400001928E-02 0.  1.
        1   -1    0    0  501    0  0.00000000000E+00  0.00000000000E+00 -0.14356180835E+04  0.14356180835E+04  0.50400001928E-02 0. -1.
    10030    2    1    2    0    0  0.00000000000E+00  0.00000000000E+00 -0.76579980994E+03  0.21054363570E+04  0.19612273975E+04 0.  0.
        1    1    3    3  502    0 -0.77158662272E+03  0.59545596887E+03 -0.49896780154E+03  0.10949349726E+04  0.50400001928E-02 0.  1.
       -1    1    3    3    0  502  0.77158662272E+03 -0.59545596887E+03 -0.26683200840E+03  0.10105013844E+04  0.50400001928E-02 0. -1.
</event>
<event>
 5   0  0.1159914E-04  0.2064653E+04  0.7818609E-02  0.8576976E-01
        2   -1    0    0  501    0  0.00000000000E+00  0.00000000000E+00  0.79320895524E+03  0.79320895525E+03  0.25500000920E-02 0. -1.
       -2   -1    0    0    0  501  0.00000000000E+00  0.00000000000E+00 -0.13435273118E+04  0.13435273118E+04  0.25500000920E-02 0.  1.
    10030    2    1    2    0    0  0.00000000000E+00  0.00000000000E+00 -0.55031835653E+03  0.21367362670E+04  0.20646528961E+04 0.  0.
        3    1    3    3  502    0 -0.19885451033E+03 -0.86435771679E+01  0.77316232730E+03  0.79837198239E+03  0.10100000352E+00 0. -1.
       -3    1    3    3    0  502  0.19885451033E+03  0.86435771679E+01 -0.13234806838E+04  0.13383642846E+04  0.10100000352E+00 0.  1.
</event>
<event>
 5   0  0.1281789E-04  0.2004180E+04  0.7818609E-02  0.8604669E-01
        2   -1    0    0  501    0  0.00000000000E+00  0.00000000000E+00  0.15662560751E+04  0.15662560751E+04  0.25500000920E-02 0. -1.
       -2   -1    0    0    0  501  0.00000000000E+00  0.00000000000E+00 -0.64113689427E+03  0.64113689427E+03  0.25500000920E-02 0.  1.
    10030    2    1    2    0    0  0.00000000000E+00  0.00000000000E+00  0.92511918087E+03  0.22073929694E+04  0.20041801872E+04 0.  0.
        2    1    3    3  502    0 -0.64618161800E+03  0.73835191348E+03  0.68685046536E+03  0.11976968704E+04  0.25500000920E-02 0. -1.
       -2    1    3    3    0  502  0.64618161800E+03 -0.73835191348E+03  0.23826871551E+03  0.10096960990E+04  0.25500000920E-02 0.  1.
</event>
<event>
 5   0  0.6256535E-05  0.2008321E+04  0.7818609E-02  0.8602740E-01
        1   -1    0    0  501    0  0.00000000000E+00  0.00000000000E+00  0.11740648242E+04  0.11740648242E+04  0.50400001928E-02 0. -1.
       -1   -1    0    0    0  501  0.00000000000E+00  0.00000000000E+00 -0.85884377540E+03  0.85884377541E+03  0.50400001928E-02 0.  1.
    10030    2    1    2    0    0  0.00000000000E+00  0.00000000000E+00  0.31522104883E+03  0.20329085997E+04  0.20083209567E+04 0.  0.
        1    1    3    3  502    0  0.45085781825E+03  0.51484883262E+03 -0.58623040947E+03  0.90111496810E+03  0.50400001928E-02 0.  1.
       -1    1    3    3    0  502 -0.45085781825E+03 -0.51484883262E+03  0.90145145830E+03  0.11317936316E+04  0.50400001928E-02 0. -1.
</event>
<event>
 5   0  0.1244229E-04  0.1889457E+04  0.7818609E-02  0.8660122E-01
       -2   -1    0    0    0  501  0.00000000000E+00  0.00000000000E+00  0.86778739491E+03  0.86778739491E+03  0.25500000920E-02 0. -1.
        2   -1    0    0  501    0  0.00000000000E+00  0.00000000000E+00 -0.10284916540E+04  0.10284916540E+04  0.25500000920E-02 0.  1.
    10030    2    1    2    0    0  0.00000000000E+00  0.00000000000E+00 -0.16070425908E+03  0.18962790489E+04  0.18894571634E+04 0.  0.
        5    1    3    3  502    0 -0.22686532674E+03 -0.72547953881E+03  0.48265597687E+03  0.90042618783E+03  0.46999998093E+01 0. -1.
       -5    1    3    3    0  502  0.22686532674E+03  0.72547953881E+03 -0.64336023595E+03  0.99585286108E+03  0.46999998093E+01 0.  1.
</event>
<event>
 5   0  0.1281789E-04  0.1999662E+04  0.7818609E-02  0.8606779E-01
       -2   -1    0    0    0  501  0.00000000000E+00  0.00000000000E+00  0.73708025052E+03  0.73708025053E+03  0.25500000920E-02 0.  1.
        2   -1    0    0  501    0  0.00000000000E+00  0.00000000000E+00 -0.13562459442E+04  0.13562459442E+04  0.25500000920E-02 0. -1.
    10030    2    1    2    0    0  0.00000000000E+00  0.00000000000E+00 -0.61916569367E+03  0.20933261947E+04  0.19996620718E+04 0.  0.
        2    1    3    3  502    0 -0.52091470295E+03 -0.56640736249E+03 -0.97783474409E+03  0.12443191772E+04  0.25500000920E-02 0. -1.
       -2    1    3    3    0  502  0.52091470295E+03  0.56640736249E+03  0.35866905042E+03  0.84900701750E+03  0.25500000920E-02 0.  1.
</event>
<event>
 5   0  0.1244229E-04  0.2011135E+04  0.7818609E-02  0.8601432E-01
       -2   -1    0    0    0  501  0.00000000000E+00  0.00000000000E+00  0.59990043719E+03  0.59990043719E+03  0.25500000920E-02 0. -1.
        2   -1    0    0  501    0  0.00000000000E+00  0.00000000000E+00 -0.16855561648E+04  0.16855561648E+04  0.25500000920E-02 0.  1.
    10030    2    1    2    0    0  0.00000000000E+00  0.00000000000E+00 -0.10856557276E+04  0.22854566020E+04  0.20111348838E+04 0.  0.
        5    1    3    3  502    0 -0.16599738549E+03 -0.45447104282E+03 -0.15445673419E+04  0.16185825356E+04  0.46999998093E+01 0.  1.
       -5    1    3    3    0  502  0.16599738549E+03  0.45447104282E+03  0.45891161429E+03  0.66687406643E+03  0.46999998093E+01 0. -1.
</event>
<event>
 5   0  0.6256535E-05  0.1980892E+04  0.7818609E-02  0.8615607E-01
       -1   -1    0    0    0  501  0.00000000000E+00  0.00000000000E+00  0.11034378132E+04  0.11034378132E+04  0.50400001928E-02 0.  1.
        1   -1    0    0  501    0  0.00000000000E+00  0.00000000000E+00 -0.88902455066E+03  0.88902455067E+03  0.50400001928E-02 0. -1.
    10030    2    1    2    0    0  0.00000000000E+00  0.00000000000E+00  0.21441326250E+03  0.19924623638E+04  0.19808920274E+04 0.  0.
        1    1    3    3  502    0  0.65796386906E+01 -0.78919486834E+03 -0.49471290706E+03  0.93145729494E+03  0.50400001928E-02 0. -1.
       -1    1    3    3    0  502 -0.65796386906E+01  0.78919486834E+03  0.70912616956E+03  0.10610050689E+04  0.50400001928E-02 0.  1.
</event>
<event>
 5   0  0.1242761E-04  0.2011456E+04  0.7818609E-02  0.8601283E-01
       -2   -1    0    0    0  501  0.00000000000E+00  0.00000000000E+00  0.10905073746E+04  0.10905073746E+04  0.25500000920E-02 0.  1.
        2   -1    0    0  501    0  0.00000000000E+00  0.00000000000E+00 -0.92753930157E+03  0.92753930158E+03  0.25500000920E-02 0. -1.
    10030    2    1    2    0    0  0.00000000000E+00  0.00000000000E+00  0.16296807301E+03  0.20180466762E+04  0.20114556407E+04 0.  0.
        4    1    3    3  502    0 -0.20878501691E+03 -0.92632115697E+03  0.41396814465E+03  0.10358732098E+04  0.12699999809E+01 0. -1.
       -4    1    3    3    0  502  0.20878501691E+03  0.92632115697E+03 -0.25100007164E+03  0.98217346635E+03  0.12699999809E+01 0.  1.
</event>
<event>
 5   0  0.1159914E-04  0.1930712E+04  0.7818609E-02  0.8639718E-01
        2   -1    0    0  501    0  0.00000000000E+00  0.00000000000E+00  0.96780910492E+03  0.96780910492E+03  0.25500000920E-02 0. -1.
       -2   -1    0    0    0  501  0.00000000000E+00  0.00000000000E+00 -0.96290954846E+03  0.96290954847E+03  0.25500000920E-02 0.  1.
    10030    2    1    2    0    0  0.00000000000E+00  0.00000000000E+00  0.48995564559E+01  0.19307186534E+04  0.19307124366E+04 0.  0.
        3    1    3    3  502    0 -0.66338294929E+03 -0.61002328735E+03 -0.34353871927E+03  0.96448131675E+03  0.10100000352E+00 0. -1.
       -3    1    3    3    0  502  0.66338294929E+03  0.61002328735E+03  0.34843827573E+03  0.96623733664E+03  0.10100000352E+00 0.  1.
</event>
<event>
 5   0  0.1244229E-04  0.1991551E+04  0.7818609E-02  0.8610581E-01
       -2   -1    0    0    0  501  0.00000000000E+00  0.00000000000E+00  0.10980262136E+04  0.10980262136E+04  0.25500000920E-02 0.  1.
        2   -1    0    0  501    0  0.00000000000E+00  0.00000000000E+00 -0.90304685263E+03  0.90304685264E+03  0.25500000920E-02 0. -1.
    10030    2    1    2    0    0  0.00000000000E+00  0.00000000000E+00  0.19497936093E+03  0.20010730662E+04  0.19915512710E+04 0.  0.
        5    1    3    3  502    0 -0.61358845425E+03 -0.78396843016E+03  0.11879804338E+03  0.10026127646E+04  0.46999998093E+01 0.  1.
       -5    1    3    3    0  502  0.61358845425E+03  0.78396843016E+03  0.76181317543E+02  0.99846030157E+03  0.46999998093E+01 0. -1.
</event>
<event>
 5   0  0.1159914E-04  0.2004182E+04  0.7818609E-02  0.8604668E-01
       -2   -1    0    0    0  501  0.00000000000E+00  0.00000000000E+00  0.79721548380E+03  0.79721548380E+03  0.25500000920E-02 0. -1.
        2   -1    0    0  501    0  0.00000000000E+00  0.00000000000E+00 -0.12596169875E+04  0.12596169875E+04  0.25500000920E-02 0.  1.
    10030    2    1    2    0    0  0.00000000000E+00  0.00000000000E+00 -0.46240150371E+03  0.20568324713E+04  0.20041817942E+04 0.  0.
        3    1    3    3  502    0  0.43748779900E+03  0.26606838357E+03  0.65282157185E+03  0.82967702986E+03  0.10100000352E+00 0. -1.
       -3    1    3    3    0  502 -0.43748779900E+03 -0.26606838357E+03 -0.11152230756E+04  0.12271554414E+04  0.10100000352E+00 0.  1.
</event>
<event>
 5   0  0.6214547E-05  0.2008562E+04  0.7818609E-02  0.8602628E-01
       -1   -1    0    0    0  501  0.00000000000E+00  0.00000000000E+00  0.61683115905E+03  0.61683115907E+03  0.50400001928E-02 0. -1.
        1   -1    0    0  501    0  0.00000000000E+00  0.00000000000E+00 -0.16350994938E+04  0.16350994938E+04  0.50400001928E-02 0.  1.
    10030    2    1    2    0    0  0.00000000000E+00  0.00000000000E+00 -0.10182683348E+04  0.22519306529E+04  0.20085619890E+04 0.  0.
        3    1    3    3  502    0 -0.81626039133E+03  0.28031060588E+03  0.66631313501E+02  0.86561816314E+03  0.10100000352E+00 0. -1.
       -3    1    3    3    0  502  0.81626039133E+03 -0.28031060588E+03 -0.10848996483E+04  0.13863124897E+04  0.10100000352E+00 0.  1.
</event>
<event>
 5   0  0.6214547E-05  0.2002115E+04  0.7818609E-02  0.8605632E-01
       -1   -1    0    0    0  501  0.00000000000E+00  0.00000000000E+00  0.10030268284E+04  0.10030268284E+04  0.50400001928E-02 0.  1.
        1   -1    0    0  501    0  0.00000000000E+00  0.00000000000E+00 -0.99909199244E+03  0.99909199246E+03  0.50400001928E-02 0. -1.
    10030    2    1    2    0    0  0.00000000000E+00  0.00000000000E+00  0.39348359681E+01  0.20021188209E+04  0.20021149542E+04 0.  0.
        3    1    3    3  502    0  0.68139347848E+03  0.65476160891E+03 -0.32834553470E+03  0.10004102345E+04  0.10100000352E+00 0. -1.
       -3    1    3    3    0  502 -0.68139347848E+03 -0.65476160891E+03  0.33228037067E+03  0.10017085863E+04  0.10100000352E+00 0.  1.
</event>
<event>
 5   0  0.1242761E-04  0.1928050E+04  0.7818609E-02  0.8641019E-01
       -2   -1    0    0    0  501  0.00000000000E+00  0.00000000000E+00  0.64195078349E+03  0.64195078350E+03  0.25500000920E-02 0.  1.
        2   -1    0    0  501    0  0.00000000000E+00  0.00000000000E+00 -0.14476880998E+04  0.14476880998E+04  0.25500000920E-02 0. -1.
    10030    2    1    2    0    0  0.00000000000E+00  0.00000000000E+00 -0.80573731634E+03  0.20896388833E+04  0.19280503209E+04 0.  0.
        4    1    3    3  502    0  0.56505588572E+03 -0.56831743382E+03 -0.98356195037E+03  0.12687271506E+04  0.12699999809E+01 0. -1.
       -4    1    3    3    0  502 -0.56505588572E+03  0.56831743382E+03  0.17782463402E+03  0.82091173273E+03  0.12699999809E+01 0.  1.
</event>
<event>
 5   0  0.6168338E-05  0.2012887E+04  0.7818609E-02  0.8600619E-01
       -1   -1    0    0    0  501  0.00000000000E+00  0.00000000000E+00  0.51999465581E+03  0.51999465583E+03  0.50400001928E-02 0.  1.
        1   -1    0    0  501    0  0.00000000000E+00  0.00000000000E+00 -0.19479588799E+04  0.19479588799E+04  0.50400001928E-02 0. -1.
    10030    2    1    2    0    0  0.00000000000E+00  0.00000000000E+00 -0.14279642241E+04  0.24679535358E+04  0.20128866906E+04 0.  0.
        5    1    3    3  502    0  0.92412913281E+03 -0.33128412352E+03 -0.44218467449E+03  0.10767140758E+04  0.46999998093E+01 0. -1.
       -5    1    3    3    0  502 -0.92412913281E+03  0.33128412352E+03 -0.98577954962E+03  0.13912394600E+04  0.46999998093E+01 0.  1.
</event>
<event>
 5   0  0.6168338E-05  0.1987635E+04  0.7818609E-02  0.8612424E-01
       -1   -1    0    0    0  501  0.00000000000E+00  0.00000000000E+00  0.10579251859E+04  0.10579251859E+04  0.50400001928E-02 0. -1.
        1   -1    0    0  501    0  0.00000000000E+00  0.00000000000E+00 -0.93359461668E+03  0.93359461669E+03  0.50400001928E-02 0.  1.
    10030    2    1    2    0    0  0.00000000000E+00  0.00000000000E+00  0.12433056918E+03  0.19915198026E+04  0.19876350353E+04 0.  0.
        5    1    3    3  502    0  0.35608532340E+03  0.71870646770E+03 -0.52576553254E+03  0.95905538394E+03  0.46999998093E+01 0.  1.
       -5    1    3    3    0  502 -0.35608532340E+03 -0.71870646770E+03  0.65009610172E+03  0.10324644186E+04  0.46999998093E+01 0. -1.
</event>
<event>
 5   0  0.4479000E-05  0.2010211E+04  0.7818609E-02  0.8601862E-01
       -3   -1    0    0    0  501  0.00000000000E+00  0.00000000000E+00  0.55121722432E+03  0.55121723358E+03  0.10100000352E+00 0. -1.
        3   -1    0    0  501    0  0.00000000000E+00  0.00000000000E+00 -0.18327378521E+04  0.18327378548E+04  0.10100000352E+00 0.  1.
    10030    2    1    2    0    0  0.00000000000E+00  0.00000000000E+00 -0.12815206277E+04  0.23839550884E+04  0.20102106219E+04 0.  0.
        3    1    3    3  502    0  0.19420271436E+03  0.85065937504E+03 -0.49104024025E+02  0.87392635959E+03  0.10100000352E+00 0. -1.
       -3    1    3    3    0  502 -0.19420271436E+03 -0.85065937504E+03 -0.12324166037E+04  0.15100287288E+04  0.10100000352E+00 0.  1.
</event>
<event>
 5   0  0.6214547E-05  0.2006156E+04  0.7818609E-02  0.8603748E-01
        1   -1    0    0  501    0  0.00000000000E+00  0.00000000000E+00  0.11793656934E+04  0.11793656934E+04  0.50400001928E-02 0. -1.
       -1   -1    0    0    0  501  0.00000000000E+00  0.00000000000E+00 -0.85314118874E+03  0.85314118875E+03  0.50400001928E-02 0.  1.
    10030    2    1    2    0    0  0.00000000000E+00  0.00000000000E+00  0.32622450465E+03  0.20325068821E+04  0.20061559756E+04 0.  0.
        3    1    3    3  502    0  0.28462976047E+03 -0.13902100061E+03  0.11273616153E+04  0.11710188559E+04  0.10100000352E+00 0. -1.
       -3    1    3    3    0  502 -0.28462976047E+03  0.13902100061E+03 -0.80113711061E+03  0.86148802624E+03  0.10100000352E+00 0.  1.
</event>
<event>
 5   0  0.1274868E-04  0.2000477E+04  0.7818609E-02  0.8606398E-01
       -2   -1    0    0    0  501  0.00000000000E+00  0.00000000000E+00  0.59299942443E+03  0.59299942444E+03  0.25500000920E-02 0. -1.
        2   -1    0    0  501    0  0.00000000000E+00  0.00000000000E+00 -0.16871465436E+04  0.16871465436E+04  0.25500000920E-02 0.  1.
    10030    2    1    2    0    0  0.00000000000E+00  0.00000000000E+00 -0.10941471192E+04  0.22801459681E+04  0.20004768725E+04 0.  0.
        1    1    3    3  502    0 -0.92456426464E+03 -0.37971882744E+03 -0.59079592309E+03  0.11610535260E+04  0.50400001928E-02 0. -1.
       -1    1    3    3    0  502  0.92456426464E+03  0.37971882744E+03 -0.50335119611E+03  0.11190924421E+04  0.50400001928E-02 0.  1.
</event>
<event>
 5   0  0.6222733E-05  0.2020308E+04  0.7818609E-02  0.8597185E-01
       -1   -1    0    0    0  501  0.00000000000E+00  0.00000000000E+00  0.14063154366E+04  0.14063154367E+04  0.50400001928E-02 0. -1.
        1   -1    0    0  501    0  0.00000000000E+00  0.00000000000E+00 -0.72559157712E+03  0.72559157713E+03  0.50400001928E-02 0.  1.
    10030    2    1    2    0    0  0.00000000000E+00  0.00000000000E+00  0.68072385953E+03  0.21319070138E+04  0.20203075366E+04 0.  0.
        2    1    3    3  502    0 -0.64742512370E+03 -0.42608710622E+03  0.10239915003E+04  0.12842383367E+04  0.25500000920E-02 0. -1.
       -2    1    3    3    0  502  0.64742512370E+03  0.42608710622E+03 -0.34326764074E+03  0.84766867706E+03  0.25500000920E-02 0.  1.
</event>
<event>
 5   0  0.6214547E-05  0.1997972E+04  0.7818609E-02  0.8607569E-01
       -1   -1    0    0    0  501  0.00000000000E+00  0.00000000000E+00  0.94221493118E+03  0.94221493120E+03  0.50400001928E-02 0. -1.
        1   -1    0    0  501    0  0.00000000000E+00  0.00000000000E+00 -0.10591778800E+04  0.10591778800E+04  0.50400001928E-02 0.  1.
    10030    2    1    2    0    0  0.00000000000E+00  0.00000000000E+00 -0.11696294878E+03  0.20013928112E+04  0.19979721853E+04 0.  0.
        3    1    3    3  502    0 -0.47276416208E+03  0.82274226740E+03 -0.37136605499E+03  0.10189816232E+04  0.10100000352E+00 0.  1.
       -3    1    3    3    0  502  0.47276416208E+03 -0.82274226740E+03  0.25440310620E+03  0.98241118793E+03  0.10100000352E+00 0. -1.
</event>
<event>
 5   0  0.6222733E-05  0.2001930E+04  0.7818609E-02  0.8605719E-01
       -1   -1    0    0    0  501  0.00000000000E+00  0.00000000000E+00  0.87359197905E+03  0.87359197906E+03  0.50400001928E-02 0.  1.
        1   -1    0    0  501    0  0.00000000000E+00  0.00000000000E+00 -0.11469094675E+04  0.11469094675E+04  0.50400001928E-02 0. -1.
    10030    2    1    2    0    0  0.00000000000E+00  0.00000000000E+00 -0.27331748844E+03  0.20205014466E+04  0.20019299803E+04 0.  0.
        2    1    3    3  502    0 -0.34376633629E+03  0.94006021414E+03 -0.13008593186E+03  0.10093616051E+04  0.25500000920E-02 0. -1.
       -2    1    3    3    0  502  0.34376633629E+03 -0.94006021414E+03 -0.14323155658E+03  0.10111398415E+04  0.25500000920E-02 0.  1.
</event>
<event>
 5   0  0.6214547E-05  0.2005839E+04  0.7818609E-02  0.8603896E-01
        1   -1    0    0  501    0  0.00000000000E+00  0.00000000000E+00  0.12540408225E+04  0.12540408225E+04  0.50400001928E-02 0.  1.
       -1   -1    0    0    0  501  0.00000000000E+00  0.00000000000E+00 -0.80208530276E+03  0.80208530277E+03  0.50400001928E-02 0. -1.
    10030    2    1    2    0    0  0.00000000000E+00  0.00000000000E+00  0.45195551970E+03  0.20561261252E+04  0.20058391888E+04 0.  0.
        3    1    3    3  502    0  0.45810342929E+03  0.46429688713E+03  0.10069288451E+04  0.11997233267E+04  0.10100000352E+00 0.  1.
       -3    1    3    3    0  502 -0.45810342929E+03 -0.46429688713E+03 -0.55497332537E+03  0.85640279857E+03  0.10100000352E+00 0. -1.
</event>
<event>
 5   0  0.1244229E-04  0.1744013E+04  0.7818609E-02  0.8736653E-01
        2   -1    0    0  501    0  0.00000000000E+00  0.00000000000E+00  0.18929015146E+04  0.18929015146E+04  0.25500000920E-02 0. -1.
       -2   -1    0    0    0  501  0.00000000000E+00  0.00000000000E+00 -0.40170891698E+03  0.40170891699E+03  0.25500000920E-02 0.  1.
    10030    2    1    2    0    0  0.00000000000E+00  0.00000000000E+00  0.14911925976E+04  0.22946104316E+04  0.17440130933E+04 0.  0.
        5    1    3    3  502    0 -0.65263914402E+03  0.15746526573E+03  0.13466864021E+02  0.67151813724E+03  0.46999998093E+01 0.  1.
       -5    1    3    3    0  502  0.65263914402E+03 -0.15746526573E+03  0.14777257336E+04  0.16230922944E+04  0.46999998093E+01 0. -1.
</event>
<event>
 5   0  0.1274868E-04  0.2022459E+04  0.7818609E-02  0.8596192E-01
       -2   -1    0    0    0  501  0.00000000000E+00  0.00000000000E+00  0.64165544458E+03  0.64165544458E+03  0.25500000920E-02 0. -1.
        2   -1    0    0  501    0  0.00000000000E+00  0.00000000000E+00 -0.15936662243E+04  0.15936662243E+04  0.25500000920E-02 0.  1.
    10030    2    1    2    0    0  0.00000000000E+00  0.00000000000E+00 -0.95201077975E+03  0.22353216689E+04  0.20224585135E+04 0.  0.
        1    1    3    3  502    0  0.37200881612E+03 -0.92849663257E+03 -0.31174262409E+03  0.10477022572E+04  0.50400001928E-02 0.  1.
       -1    1    3    3    0  502 -0.37200881612E+03  0.92849663257E+03 -0.64026815566E+03  0.11876194117E+04  0.50400001928E-02 0. -1.
</event>
<event>
 5   0  0.6256535E-05  0.2004223E+04  0.7818609E-02  0.8604649E-01
        1   -1    0    0  501    0  0.00000000000E+00  0.00000000000E+00  0.15126695815E+04  0.15126695815E+04  0.50400001928E-02 0. -1.
       -1   -1    0    0    0  501  0.00000000000E+00  0.00000000000E+00 -0.66387740337E+03  0.66387740339E+03  0.50400001928E-02 0.  1.
    10030    2    1    2    0    0  0.00000000000E+00  0.00000000000E+00  0.84879217811E+03  0.21765469849E+04  0.20042226961E+04 0.  0.
        1    1    3    3  502    0  0.90380072906E+02 -0.57409422693E+03  0.13109676822E+04  0.14340115072E+04  0.50400001928E-02 0. -1.
       -1    1    3    3    0  502 -0.90380072906E+02  0.57409422693E+03 -0.46217550410E+03  0.74253547766E+03  0.50400001928E-02 0.  1.
</event>
<event>
 5   0  0.1281789E-04  0.2002304E+04  0.7818609E-02  0.8605544E-01
       -2   -1    0    0    0  501  0.00000000000E+00  0.00000000000E+00  0.14508097355E+04  0.14508097355E+04  0.25500000920E-02 0. -1.
        2   -1    0    0  501    0  0.00000000000E+00  0.00000000000E+00 -0.69085919388E+03  0.69085919388E+03  0.25500000920E-02 0.  1.
    10030    2    1    2    0    0  0.00000000000E+00  0.00000000000E+00  0.75995054160E+03  0.21416689294E+04  0.20023039173E+04 0.  0.
        2    1    3    3  502    0 -0.40551608852E+02 -0.82734427664E+03 -0.22144401736E+03  0.85742663703E+03  0.25500000920E-02 0.  1.
       -2    1    3    3    0  502  0.40551608852E+02  0.82734427664E+03  0.98139455896E+03  0.12842422923E+04  0.25500000920E-02 0. -1.
</event>
<event>
 5   0  0.1244229E-04  0.1979206E+04  0.7818609E-02  0.8616405E-01
        2   -1    0    0  501    0  0.00000000000E+00  0.00000000000E+00  0.73853275380E+03  0.73853275381E+03  0.25500000920E-02 0. -1.
       -2   -1    0    0    0  501  0.00000000000E+00  0.00000000000E+00 -0.13260266375E+04  0.13260266375E+04  0.25500000920E-02 0.  1.
    10030    2    1    2    0    0  0.00000000000E+00  0.00000000000E+00 -0.58749388368E+03  0.20645593913E+04  0.19792060067E+04 0.  0.
        5    1    3    3  502    0 -0.58401766304E+03  0.31910734168E+03  0.47022085449E+03  0.81488395999E+03  0.46999998093E+01 0. -1.
       -5    1    3    3    0  502  0.58401766304E+03 -0.31910734168E+03 -0.10577147382E+04  0.12496754313E+04  0.46999998093E+01 0.  1.
</event>
<event>
 5   0  0.6222733E-05  0.2006223E+04  0.7818609E-02  0.8603717E-01
        1   -1    0    0  501    0  0.00000000000E+00  0.00000000000E+00  0.12010530147E+04  0.12010530147E+04  0.50400001928E-02 0.  1.
       -1   -1    0    0    0  501  0.00000000000E+00  0.00000000000E+00 -0.83779187348E+03  0.83779187350E+03  0.50400001928E-02 0. -1.
    10030    2    1    2    0    0  0.00000000000E+00  0.00000000000E+00  0.36326114117E+03  0.20388448882E+04  0.20062227746E+04 0.  0.
        2    1    3    3  502    0  0.12541761324E+03 -0.53724976926E+03 -0.66976619819E+03  0.86772902022E+03  0.25500000920E-02 0. -1.
       -2    1    3    3    0  502 -0.12541761324E+03  0.53724976926E+03  0.10330273394E+04  0.11711158679E+04  0.25500000920E-02 0.  1.
</event>
<event>
 5   0  0.1281789E-04  0.2003180E+04  0.7818609E-02  0.8605135E-01
        2   -1    0    0  501    0  0.00000000000E+00  0.00000000000E+00  0.12360700757E+04  0.12360700757E+04  0.25500000920E-02 0. -1.
       -2   -1    0    0    0  501  0.00000000000E+00  0.00000000000E+00 -0.81159011854E+03  0.81159011854E+03  0.25500000920E-02 0.  1.
    10030    2    1    2    0    0  0.00000000000E+00  0.00000000000E+00  0.42447995711E+03  0.20476601942E+04  0.20031797316E+04 0.  0.
        2    1    3    3  502    0 -0.85317886738E+03  0.19271389167E+03 -0.28658077223E+03  0.92042455574E+03  0.25500000920E-02 0. -1.
       -2    1    3    3    0  502  0.85317886738E+03 -0.19271389167E+03  0.71106072934E+03  0.11272356385E+04  0.25500000920E-02 0.  1.
</event>
<event>
 5   0  0.1159914E-04  0.2020797E+04  0.7818609E-02  0.8596959E-01
       -2   -1    0    0    0  501  0.00000000000E+00  0.00000000000E+00  0.10868013011E+04  0.10868013011E+04  0.25500000920E-02 0. -1.
        2   -1    0    0  501    0  0.00000000000E+00  0.00000000000E+00 -0.93936692870E+03  0.93936692870E+03  0.25500000920E-02 0.  1.
    10030    2    1    2    0    0  0.00000000000E+00  0.00000000000E+00  0.14743437239E+03  0.20261682298E+04  0.20207970708E+04 0.  0.
        3    1    3    3  502    0 -0.97502232808E+03  0.25695190894E+03  0.86419331466E+01  0.10083489064E+04  0.10100000352E+00 0.  1.
       -3    1    3    3    0  502  0.97502232808E+03 -0.25695190894E+03  0.13879243925E+03  0.10178193234E+04  0.10100000352E+00 0. -1.
</event>
<event>
 5   0  0.4479000E-05  0.1923987E+04  0.7818609E-02  0.8643008E-01
       -3   -1    0    0    0  501  0.00000000000E+00  0.00000000000E+00  0.13579368991E+04  0.13579369029E+04  0.10100000352E+00 0.  1.
        3   -1    0    0  501    0  0.00000000000E+00  0.00000000000E+00 -0.68149818236E+03  0.68149818985E+03  0.10100000352E+00 0. -1.
    10030    2    1    2    0    0  0.00000000000E+00  0.00000000000E+00  0.67643871678E+03  0.20394350927E+04  0.19239870478E+04 0.  0.
        1    1    3    3  502    0 -0.50569734539E+03 -0.49456473621E+03 -0.35290644101E+03  0.79048531901E+03  0.50400001928E-02 0. -1.
       -1    1    3    3    0  502  0.50569734539E+03  0.49456473621E+03  0.10293451578E+04  0.12489497737E+04  0.50400001928E-02 0.  1.
</event>
<event>
 5   0  0.6168338E-05  0.2012584E+04  0.7818609E-02  0.8600760E-01
        1   -1    0    0  501    0  0.00000000000E+00  0.00000000000E+00  0.19156681104E+04  0.19156681104E+04  0.50400001928E-02 0. -1.
       -1   -1    0    0    0  501  0.00000000000E+00  0.00000000000E+00 -0.52860061008E+03  0.52860061011E+03  0.50400001928E-02 0.  1.
    10030    2    1    2    0    0  0.00000000000E+00  0.00000000000E+00  0.13870675003E+04  0.24442687205E+04  0.20125837443E+04 0.  0.
        5    1    3    3  502    0  0.29964131208E+03  0.65159049769E+03 -0.16373494526E+03  0.73565366504E+03  0.46999998093E+01 0.  1.
       -5    1    3    3    0  502 -0.29964131208E+03 -0.65159049769E+03  0.15508024456E+04  0.17086150555E+04  0.46999998093E+01 0. -1.
</event>
<event>
 5   0  0.1274868E-04  0.2020258E+04  0.7818609E-02  0.8597208E-01
       -2   -1    0    0    0  501  0.00000000000E+00  0.00000000000E+00  0.52074110579E+03  0.52074110580E+03  0.25500000920E-02 0. -1.
        2   -1    0    0  501    0  0.00000000000E+00  0.00000000000E+00 -0.19594388399E+04  0.19594388399E+04  0.25500000920E-02 0.  1.
    10030    2    1    2    0    0  0.00000000000E+00  0.00000000000E+00 -0.14386977341E+04  0.24801799457E+04  0.20202577541E+04 0.  0.
        1    1    3    3  502    0  0.10310428798E+03 -0.27229620361E+03  0.46810828834E+03  0.55127224340E+03  0.50400001928E-02 0. -1.
       -1    1    3    3    0  502 -0.10310428798E+03  0.27229620361E+03 -0.19068060224E+04  0.19289077023E+04  0.50400001928E-02 0.  1.
</event>
<event>
 5   0  0.6028501E-05  0.2010672E+04  0.7818609E-02  0.8601647E-01
       -1   -1    0    0    0  501  0.00000000000E+00  0.00000000000E+00  0.67095433582E+03  0.67095433584E+03  0.50400001928E-02 0.  1.
        1   -1    0    0  501    0  0.00000000000E+00  0.00000000000E+00 -0.15063621693E+04  0.15063621693E+04  0.50400001928E-02 0. -1.
    10030    2    1    2    0    0  0.00000000000E+00  0.00000000000E+00 -0.83540783349E+03  0.21773165052E+04  0.20106717573E+04 0.  0.
        4    1    3    3  502    0 -0.30162132561E+03 -0.90925012413E+03 -0.87492223641E+02  0.96196034969E+03  0.12699999809E+01 0.  1.
       -4    1    3    3    0  502  0.30162132561E+03  0.90925012413E+03 -0.74791560985E+03  0.12153561555E+04  0.12699999809E+01 0. -1.
</event>
<event>
 5   0  0.6222733E-05  0.2008434E+04  0.7818609E-02  0.8602687E-01
       -1   -1    0    0    0  501  0.00000000000E+00  0.00000000000E+00  0.84567767109E+03  0.84567767110E+03  0.50400001928E-02 0. -1.
        1   -1    0    0  501    0  0.00000000000E+00  0.00000000000E+00 -0.11924782910E+04  0.11924782910E+04  0.50400001928E-02 0.  1.
    10030    2    1    2    0    0  0.00000000000E+00  0.00000000000E+00 -0.34680061989E+03  0.20381559621E+04  0.20084344789E+04 0.  0.
        2    1    3    3  502    0  0.97212293592E+03  0.42957894577E+02 -0.42523367672E+03  0.10619284642E+04  0.25500000920E-02 0.  1.
       -2    1    3    3    0  502 -0.97212293592E+03 -0.42957894577E+02  0.78433056829E+02  0.97622749790E+03  0.25500000920E-02 0. -1.
</event>
<event>
 5   0  0.1242761E-04  0.1998676E+04  0.7818609E-02  0.8607240E-01
       -2   -1    0    0    0  501  0.00000000000E+00  0.00000000000E+00  0.31701987302E+04  0.31701987302E+04  0.25500000920E-02 0.  1.
        2   -1    0    0  501    0  0.00000000000E+00  0.00000000000E+00 -0.31502028637E+03  0.31502028638E+03  0.25500000920E-02 0. -1.
    10030    2    1    2    0    0  0.00000000000E+00  0.00000000000E+00  0.28551784439E+04  0.34852190166E+04  0.19986764739E+04 0.  0.
        4    1    3    3  502    0 -0.94683883648E+03  0.25999428630E+03  0.11033500720E+04  0.14769847005E+04  0.12699999809E+01 0. -1.
       -4    1    3    3    0  502  0.94683883648E+03 -0.25999428630E+03  0.17518283719E+04  0.20082343161E+04  0.12699999809E+01 0.  1.
</event>
<event>
 5   0  0.1281789E-04  0.1993351E+04  0.7818609E-02  0.8609736E-01
       -2   -1    0    0    0  501  0.00000000000E+00  0.00000000000E+00  0.80154161490E+03  0.80154161491E+03  0.25500000920E-02 0.  1.
        2   -1    0    0  501    0  0.00000000000E+00  0.00000000000E+00 -0.12393137826E+04  0.12393137826E+04  0.25500000920E-02 0. -1.
    10030    2    1    2    0    0  0.00000000000E+00  0.00000000000E+00 -0.43777216770E+03  0.20408553975E+04  0.19933505168E+04 0.  0.
        2    1    3    3  502    0  0.71087941705E+01  0.40309505300E+02  0.80068073148E+03  0.80172627806E+03  0.25500000920E-02 0.  1.
       -2    1    3    3    0  502 -0.71087941705E+01 -0.40309505300E+02 -0.12384528992E+04  0.12391291194E+04  0.25500000920E-02 0. -1.
</event>
<event>
 5   0  0.1159914E-04  0.2007679E+04  0.7818609E-02  0.8603039E-01
        2   -1    0    0  501    0  0.00000000000E+00  0.00000000000E+00  0.18993834406E+04  0.18993834406E+04  0.25500000920E-02 0.  1.
       -2   -1    0    0    0  501  0.00000000000E+00  0.00000000000E+00 -0.53053712207E+03  0.53053712208E+03  0.25500000920E-02 0. -1.
    10030    2    1    2    0    0  0.00000000000E+00  0.00000000000E+00  0.13688463185E+04  0.24299205627E+04  0.20076786837E+04 0.  0.
        3    1    3    3  502    0  0.64823359528E+03  0.46468208003E+03 -0.53329357801E+02  0.79936240852E+03  0.10100000352E+00 0. -1.
       -3    1    3    3    0  502 -0.64823359528E+03 -0.46468208003E+03  0.14221756763E+04  0.16305581541E+04  0.10100000352E+00 0.  1.
</event>
<event>
 5   0  0.4479000E-05  0.1940249E+04  0.7818609E-02  0.8635077E-01
        4   -1    0    0  501    0  0.00000000000E+00  0.00000000000E+00  0.85161772868E+03  0.85161867564E+03  0.12699999809E+01 0. -1.
       -4   -1    0    0    0  501  0.00000000000E+00  0.00000000000E+00 -0.11051199393E+04  0.11051206690E+04  0.12699999809E+01 0.  1.
    10030    2    1    2    0    0  0.00000000000E+00  0.00000000000E+00 -0.25350221058E+03  0.19567393446E+04  0.19402488222E+04 0.  0.
        1    1    3    3  502    0  0.83330564485E+03  0.40907740635E+03 -0.41092382520E+03  0.10151852108E+04  0.50400001928E-02 0.  1.
       -1    1    3    3    0  502 -0.83330564485E+03 -0.40907740635E+03  0.15742161462E+03  0.94155413382E+03  0.50400001928E-02 0. -1.
</event>
<event>
 5   0  0.1242761E-04  0.2001323E+04  0.7818609E-02  0.8606002E-01
        2   -1    0    0  501    0  0.00000000000E+00  0.00000000000E+00  0.16990867429E+04  0.16990867429E+04  0.25500000920E-02 0.  1.
       -2   -1    0    0    0  501  0.00000000000E+00  0.00000000000E+00 -0.58933026296E+03  0.58933026297E+03  0.25500000920E-02 0. -1.
    10030    2    1    2    0    0  0.00000000000E+00  0.00000000000E+00  0.11097564800E+04  0.22884170059E+04  0.20013227996E+04 0.  0.
        4    1    3    3  502    0  0.79816525135E+03  0.98549321900E+02  0.12357288004E+04  0.14743836063E+04  0.12699999809E+01 0.  1.
       -4    1    3    3    0  502 -0.79816525135E+03 -0.98549321900E+02 -0.12597232045E+03  0.81403339964E+03  0.12699999809E+01 0. -1.
</event>
<event>
 5   0  0.1159914E-04  0.1981191E+04  0.7818609E-02  0.8615465E-01
        2   -1    0    0  501    0  0.00000000000E+00  0.00000000000E+00  0.30186565252E+04  0.30186565252E+04  0.25500000920E-02 0. -1.
       -2   -1    0    0    0  501  0.00000000000E+00  0.00000000000E+00 -0.32507145823E+03  0.32507145824E+03  0.25500000920E-02 0.  1.
    10030    2    1    2    0    0  0.00000000000E+00  0.00000000000E+00  0.26935850669E+04  0.33437279834E+04  0.19811906305E+04 0.  0.
        3    1    3    3  502    0  0.93286035219E+03  0.20297228270E+03  0.17928561955E+04  0.20311965765E+04  0.10100000352E+00 0.  1.
       -3    1    3    3    0  502 -0.93286035219E+03 -0.20297228270E+03  0.90072887143E+03  0.13125314070E+04  0.10100000352E+00 0. -1.
</event>
<event>
 5   0  0.6214547E-05  0.1999287E+04  0.7818609E-02  0.8606954E-01
        1   -1    0    0  501    0  0.00000000000E+00  0.00000000000E+00  0.74500828182E+03  0.74500828184E+03  0.50400001928E-02 0.  1.
       -1   -1    0    0    0  501  0.00000000000E+00  0.00000000000E+00 -0.13413098723E+04  0.13413098723E+04  0.50400001928E-02 0. -1.
    10030    2    1    2    0    0  0.00000000000E+00  0.00000000000E+00 -0.59630159051E+03  0.20863181542E+04  0.19992868363E+04 0.  0.
        3    1    3    3  502    0 -0.34917891313E+03  0.52579225842E+03 -0.11070749656E+04  0.12743619588E+04  0.10100000352E+00 0. -1.
       -3    1    3    3    0  502  0.34917891313E+03 -0.52579225842E+03  0.51077337506E+03  0.81195619540E+03  0.10100000352E+00 0.  1.
</event>
<event>
 5   0  0.1159914E-04  0.1711117E+04  0.7818609E-02  0.8755049E-01
       -2   -1    0    0    0  501  0.00000000000E+00  0.00000000000E+00  0.73120761266E+03  0.73120761266E+03  0.25500000920E-02 0. -1.
        2   -1    0    0  501    0  0.00000000000E+00  0.00000000000E+00 -0.10010568608E+04  0.10010568608E+04  0.25500000920E-02 0.  1.
    10030    2    1    2    0    0  0.00000000000E+00  0.00000000000E+00 -0.26984924810E+03  0.17322644734E+04  0.17111170589E+04 0.  0.
        3    1    3    3  502    0  0.41574632991E+03  0.39542792587E+03 -0.77741138705E+03  0.96621774477E+03  0.10100000352E+00 0.  1.
       -3    1    3    3    0  502 -0.41574632991E+03 -0.39542792587E+03  0.50756213895E+03  0.76604672866E+03  0.10100000352E+00 0. -1.
</event>
<event>
 5   0  0.6222733E-05  0.1734843E+04  0.7818609E-02  0.8741738E-01
        1   -1    0    0  501    0  0.00000000000E+00  0.00000000000E+00  0.19018767890E+04  0.19018767890E+04  0.50400001928E-02 0.  1.
       -1   -1    0    0    0  501  0.00000000000E+00  0.00000000000E+00 -0.39561995456E+03  0.39561995459E+03  0.50400001928E-02 0. -1.
    10030    2    1    2    0    0  0.00000000000E+00  0.00000000000E+00  0.15062568344E+04  0.22974967436E+04  0.17348434037E+04 0.  0.
        2    1    3    3  502    0 -0.55675434903E+03 -0.25536425259E+03  0.15665207953E+04  0.16820147766E+04  0.25500000920E-02 0.  1.
       -2    1    3    3    0  502  0.55675434903E+03  0.25536425259E+03 -0.60263960871E+02  0.61548196696E+03  0.25500000920E-02 0. -1.
</event>
<event>
 5   0  0.6256535E-05  0.1993314E+04  0.7818609E-02  0.8609753E-01
        1   -1    0    0  501    0  0.00000000000E+00  0.00000000000E+00  0.13383381257E+04  0.13383381257E+04  0.50400001928E-02 0. -1.
       -1   -1    0    0    0  501  0.00000000000E+00  0.00000000000E+00 -0.74220824215E+03  0.74220824216E+03  0.50400001928E-02 0.  1.
    10030    2    1    2    0    0  0.00000000000E+00  0.00000000000E+00  0.59612988357E+03  0.20805463679E+04  0.19933144135E+04 0.  0.
        1    1    3    3  502    0  0.85905881881E+03  0.30261644361E+03 -0.12432595716E+03  0.91924736049E+03  0.50400001928E-02 0.  1.
       -1    1    3    3    0  502 -0.85905881881E+03 -0.30261644361E+03  0.72045584074E+03  0.11612990074E+04  0.50400001928E-02 0. -1.
</event>
<event>
 5   0  0.1242761E-04  0.2058591E+04  0.7818609E-02  0.8579707E-01
        2   -1    0    0  501    0  0.00000000000E+00  0.00000000000E+00  0.26043470013E+04  0.26043470013E+04  0.25500000920E-02 0.  1.
       -2   -1    0    0    0  501  0.00000000000E+00  0.00000000000E+00 -0.40680036981E+03  0.40680036982E+03  0.25500000920E-02 0. -1.
    10030    2    1    2    0    0  0.00000000000E+00  0.00000000000E+00  0.21975466315E+04  0.30111473711E+04  0.20585910942E+04 0.  0.
        4    1    3    3  502    0 -0.65626868761E+03  0.48805223669E+03  0.18464302243E+03  0.83843797308E+03  0.12699999809E+01 0. -1.
       -4    1    3    3    0  502  0.65626868761E+03 -0.48805223669E+03  0.20129036091E+04  0.21727093981E+04  0.12699999809E+01 0.  1.
</event>
<event>
 5   0  0.1242761E-04  0.1969886E+04  0.7818609E-02  0.8620831E-01
        2   -1    0    0  501    0  0.00000000000E+00  0.00000000000E+00  0.21190492198E+04  0.21190492198E+04  0.25500000920E-02 0. -1.
       -2   -1    0    0    0  501  0.00000000000E+00  0.00000000000E+00 -0.45780579886E+03  0.45780579887E+03  0.25500000920E-02 0.  1.
    10030    2    1    2    0    0  0.00000000000E+00  0.00000000000E+00  0.16612434209E+04  0.25768550186E+04  0.19698863124E+04 0.  0.
        4    1    3    3  502    0 -0.39145943762E+03 -0.17286298150E+03 -0.32984647223E+03  0.54029844513E+03  0.12699999809E+01 0.  1.
       -4    1    3    3    0  502  0.39145943762E+03  0.17286298150E+03  0.19910898931E+04  0.20365565735E+04  0.12699999809E+01 0. -1.
</event>
<event>
 5   0  0.1242761E-04  0.2002177E+04  0.7818609E-02  0.8605604E-01
       -2   -1    0    0    0  501  0.00000000000E+00  0.00000000000E+00  0.63163503769E+03  0.63163503770E+03  0.25500000920E-02 0. -1.
        2   -1    0    0  501    0  0.00000000000E+00  0.00000000000E+00 -0.15866410238E+04  0.15866410238E+04  0.25500000920E-02 0.  1.
    10030    2    1    2    0    0  0.00000000000E+00  0.00000000000E+00 -0.95500598613E+03  0.22182760615E+04  0.20021768782E+04 0.  0.
        4    1    3    3  502    0  0.99950034782E+02 -0.37547105600E+03  0.54468548292E+03  0.66906831606E+03  0.12699999809E+01 0. -1.
       -4    1    3    3    0  502 -0.99950034782E+02  0.37547105600E+03 -0.14996914691E+04  0.15492077455E+04  0.12699999809E+01 0.  1.
</event>
<event>
 5   0  0.6256535E-05  0.1992664E+04  0.7818609E-02  0.8610058E-01
        1   -1    0    0  501    0  0.00000000000E+00  0.00000000000E+00  0.13826084506E+04  0.13826084506E+04  0.50400001928E-02 0.  1.
       -1   -1    0    0    0  501  0.00000000000E+00  0.00000000000E+00 -0.71797420121E+03  0.71797420123E+03  0.50400001928E-02 0. -1.
    10030    2    1    2    0    0  0.00000000000E+00  0.00000000000E+00  0.66463424939E+03  0.21005826518E+04  0.19926637428E+04 0.  0.
        1    1    3    3  502    0  0.85631627099E+03 -0.32632165815E+03 -0.79902934040E+02  0.91986295687E+03  0.50400001928E-02 0. -1.
       -1    1    3    3    0  502 -0.85631627099E+03  0.32632165815E+03  0.74453718343E+03  0.11807196950E+04  0.50400001928E-02 0.  1.
</event>
<event>
 5   0  0.1159914E-04  0.1966668E+04  0.7818609E-02  0.8622365E-01
       -2   -1    0    0    0  501  0.00000000000E+00  0.00000000000E+00  0.85291904273E+03  0.85291904273E+03  0.25500000920E-02 0.  1.
        2   -1    0    0  501    0  0.00000000000E+00  0.00000000000E+00 -0.11336897132E+04  0.11336897132E+04  0.25500000920E-02 0. -1.
    10030    2    1    2    0    0  0.00000000000E+00  0.00000000000E+00 -0.28077067050E+03  0.19866087560E+04  0.19666677858E+04 0.  0.
        3    1    3    3  502    0  0.22184720748E+03  0.94106923257E+03 -0.32141757790E+03  0.10188899615E+04  0.10100000352E+00 0. -1.
       -3    1    3    3    0  502 -0.22184720748E+03 -0.94106923257E+03  0.40646907401E+02  0.96771879451E+03  0.10100000352E+00 0.  1.
</event>
<event>
 5   0  0.1274868E-04  0.2012961E+04  0.7818609E-02  0.8600585E-01
        2   -1    0    0  501    0  0.00000000000E+00  0.00000000000E+00  0.93114193756E+03  0.93114193756E+03  0.25500000920E-02 0.  1.
       -2   -1    0    0    0  501  0.00000000000E+00  0.00000000000E+00 -0.10879141670E+04  0.10879141670E+04  0.25500000920E-02 0. -1.
    10030    2    1    2    0    0  0.00000000000E+00  0.00000000000E+00 -0.15677222939E+03  0.20190561045E+04  0.20129605116E+04 0.  0.
        1    1    3    3  502    0 -0.32542683972E+03  0.92407347414E+03  0.15293769494E+03  0.99156661510E+03  0.50400001928E-02 0.  1.
       -1    1    3    3    0  502  0.32542683972E+03 -0.92407347414E+03 -0.30970992433E+03  0.10274894894E+04  0.50400001928E-02 0. -1.
</event>
<event>
 5   0  0.4479000E-05  0.2010550E+04  0.7818609E-02  0.8601704E-01
       -4   -1    0    0    0  501  0.00000000000E+00  0.00000000000E+00  0.90733235412E+03  0.90733324293E+03  0.12699999809E+01 0. -1.
        4   -1    0    0  501    0  0.00000000000E+00  0.00000000000E+00 -0.11137885149E+04  0.11137892390E+04  0.12699999809E+01 0.  1.
    10030    2    1    2    0    0  0.00000000000E+00  0.00000000000E+00 -0.20645616083E+03  0.20211224819E+04  0.20105501587E+04 0.  0.
        5    1    3    3  502    0  0.88346802124E+03  0.21428477057E+03  0.32812289451E+03  0.96649905916E+03  0.46999998093E+01 0. -1.
       -5    1    3    3    0  502 -0.88346802124E+03 -0.21428477057E+03 -0.53457905533E+03  0.10546234228E+04  0.46999998093E+01 0.  1.
</event>
<event>
 5   0  0.6256535E-05  0.2005508E+04  0.7818609E-02  0.8604050E-01
        1   -1    0    0  501    0  0.00000000000E+00  0.00000000000E+00  0.21515122768E+04  0.21515122768E+04  0.50400001928E-02 0.  1.
       -1   -1    0    0    0  501  0.00000000000E+00  0.00000000000E+00 -0.46735289327E+03  0.46735289330E+03  0.50400001928E-02 0. -1.
    10030    2    1    2    0    0  0.00000000000E+00  0.00000000000E+00  0.16841593835E+04  0.26188651701E+04  0.20055079032E+04 0.  0.
        1    1    3    3  502    0 -0.39303516111E+02 -0.97094182786E+03  0.11652384153E+04  0.15172519118E+04  0.50400001928E-02 0.  1.
       -1    1    3    3    0  502  0.39303516111E+02  0.97094182786E+03  0.51892096822E+03  0.11016132582E+04  0.50400001928E-02 0. -1.
</event>
<event>
 5   0  0.6222733E-05  0.1960362E+04  0.7818609E-02  0.8625380E-01
       -1   -1    0    0    0  501  0.00000000000E+00  0.00000000000E+00  0.66643171941E+03  0.66643171942E+03  0.50400001928E-02 0. -1.
        1   -1    0    0  501    0  0.00000000000E+00  0.00000000000E+00 -0.14416399042E+04  0.14416399042E+04  0.50400001928E-02 0.  1.
    10030    2    1    2    0    0  0.00000000000E+00  0.00000000000E+00 -0.77520818481E+03  0.21080716236E+04  0.19603617627E+04 0.  0.
        2    1    3    3  502    0  0.22129130143E+03 -0.46865472449E+03  0.50703620669E+03  0.72504676110E+03  0.25500000920E-02 0. -1.
       -2    1    3    3    0  502 -0.22129130143E+03  0.46865472449E+03 -0.12822443915E+04  0.13830248625E+04  0.25500000920E-02 0.  1.
</event>
<event>
 5   0  0.1159914E-04  0.2019069E+04  0.7818609E-02  0.8597757E-01
        2   -1    0    0  501    0  0.00000000000E+00  0.00000000000E+00  0.16091917247E+04  0.16091917247E+04  0.25500000920E-02 0. -1.
       -2   -1    0    0    0  501  0.00000000000E+00  0.00000000000E+00 -0.63333659026E+03  0.63333659026E+03  0.25500000920E-02 0.  1.
    10030    2    1    2    0    0  0.00000000000E+00  0.00000000000E+00  0.97585513443E+03  0.22425283150E+04  0.20190690924E+04 0.  0.
        3    1    3    3  502    0 -0.49534573680E+03 -0.30475787501E+03 -0.42857413971E+03  0.72244069984E+03  0.10100000352E+00 0.  1.
       -3    1    3    3    0  502  0.49534573680E+03  0.30475787501E+03  0.14044292741E+04  0.15200876151E+04  0.10100000352E+00 0. -1.
</event>
<event>
 5   0  0.6222733E-05  0.1981076E+04  0.7818609E-02  0.8615520E-01
       -1   -1    0    0    0  501  0.00000000000E+00  0.00000000000E+00  0.99742791944E+03  0.99742791945E+03  0.50400001928E-02 0.  1.
        1   -1    0    0  501    0  0.00000000000E+00  0.00000000000E+00 -0.98369539877E+03  0.98369539878E+03  0.50400001928E-02 0. -1.
    10030    2    1    2    0    0  0.00000000000E+00  0.00000000000E+00  0.13732520671E+02  0.19811233182E+04  0.19810757229E+04 0.  0.
        2    1    3    3  502    0  0.29023449532E+03 -0.88740166766E+03 -0.32397015233E+03  0.98826840567E+03  0.25500000920E-02 0. -1.
       -2    1    3    3    0  502 -0.29023449532E+03  0.88740166766E+03  0.33770267300E+03  0.99285491256E+03  0.25500000920E-02 0.  1.
</event>
<event>
 5   0  0.1242761E-04  0.2003702E+04  0.7818609E-02  0.8604892E-01
        2   -1    0    0  501    0  0.00000000000E+00  0.00000000000E+00  0.17349321259E+04  0.17349321259E+04  0.25500000920E-02 0.  1.
       -2   -1    0    0    0  501  0.00000000000E+00  0.00000000000E+00 -0.57852748063E+03  0.57852748063E+03  0.25500000920E-02 0. -1.
    10030    2    1    2    0    0  0.00000000000E+00  0.00000000000E+00  0.11564046453E+04  0.23134596065E+04  0.20037024848E+04 0.  0.
        4    1    3    3  502    0  0.51571992172E+03  0.75153908574E+03  0.98071968071E+02  0.91673210856E+03  0.12699999809E+01 0. -1.
       -4    1    3    3    0  502 -0.51571992172E+03 -0.75153908574E+03  0.10583326772E+04  0.13967274980E+04  0.12699999809E+01 0.  1.
</event>
<event>
 5   0  0.6214547E-05  0.1993193E+04  0.7818609E-02  0.8609810E-01
        1   -1    0    0  501    0  0.00000000000E+00  0.00000000000E+00  0.12282611460E+04  0.12282611461E+04  0.50400001928E-02 0. -1.
       -1   -1    0    0    0  501  0.00000000000E+00  0.00000000000E+00 -0.80862642153E+03  0.80862642155E+03  0.50400001928E-02 0.  1.
    10030    2    1    2    0    0  0.00000000000E+00  0.00000000000E+00  0.41963472452E+03  0.20368875676E+04  0.19931928309E+04 0.  0.
        3    1    3    3  502    0  0.31649718534E+03  0.64705518642E+03  0.91364903429E+03  0.11634455082E+04  0.10100000352E+00 0. -1.
       -3    1    3    3    0  502 -0.31649718534E+03 -0.64705518642E+03 -0.49401430977E+03  0.87344205936E+03  0.10100000352E+00 0.  1.
</event>
<event>
 5   0  0.6256535E-05  0.1834448E+04  0.7818609E-02  0.8688192E-01
        1   -1    0    0  501    0  0.00000000000E+00  0.00000000000E+00  0.10692849623E+04  0.10692849623E+04  0.50400001928E-02 0. -1.
       -1   -1    0    0    0  501  0.00000000000E+00  0.00000000000E+00 -0.78678739341E+03  0.78678739342E+03  0.50400001928E-02 0.  1.
    10030    2    1    2    0    0  0.00000000000E+00  0.00000000000E+00  0.28249756891E+03  0.18560723558E+04  0.18344480678E+04 0.  0.
        1    1    3    3  502    0  0.88772123824E+03  0.95238632993E+02  0.35391816327E+03  0.96040484191E+03  0.50400001928E-02 0. -1.
       -1    1    3    3    0  502 -0.88772123824E+03 -0.95238632993E+02 -0.71420594358E+02  0.89566751385E+03  0.50400001928E-02 0.  1.
</event>
<event>
 5   0  0.1242761E-04  0.2047806E+04  0.7818609E-02  0.8584590E-01
       -2   -1    0    0    0  501  0.00000000000E+00  0.00000000000E+00  0.17199692857E+04  0.17199692857E+04  0.25500000920E-02 0. -1.
        2   -1    0    0  501    0  0.00000000000E+00  0.00000000000E+00 -0.60953270191E+03  0.60953270192E+03  0.25500000920E-02 0.  1.
    10030    2    1    2    0    0  0.00000000000E+00  0.00000000000E+00  0.11104365837E+04  0.23295019876E+04  0.20478061685E+04 0.  0.
        4    1    3    3  502    0  0.71894932930E+03 -0.26147612915E+03  0.13293592989E+04  0.15337717114E+04  0.12699999809E+01 0. -1.
       -4    1    3    3    0  502 -0.71894932930E+03  0.26147612915E+03 -0.21892271521E+03  0.79573027613E+03  0.12699999809E+01 0.  1.
</event>
<event>
 5   0  0.1244229E-04  0.1993891E+04  0.7818609E-02  0.8609482E-01
       -2   -1    0    0    0  501  0.00000000000E+00  0.00000000000E+00  0.71735641922E+03  0.71735641922E+03  0.25500000920E-02 0.  1.
        2   -1    0    0  501    0  0.00000000000E+00  0.00000000000E+00 -0.13855048727E+04  0.13855048727E+04  0.25500000920E-02 0. -1.
    10030    2    1    2    0    0  0.00000000000E+00  0.00000000000E+00 -0.66814845345E+03  0.21028612919E+04  0.19938914858E+04 0.  0.
        5    1    3    3  502    0 -0.56926098066E+03  0.80868738478E+03 -0.20131633306E+03  0.10092490804E+04  0.46999998093E+01 0. -1.
       -5    1    3    3    0  502  0.56926098066E+03 -0.80868738478E+03 -0.46683212038E+03  0.10936122114E+04  0.46999998093E+01 0.  1.
</event>
<event>
 5   0  0.6222733E-05  0.2120799E+04  0.7818609E-02  0.8552136E-01
       -1   -1    0    0    0  501  0.00000000000E+00  0.00000000000E+00  0.12799025349E+04  0.12799025349E+04  0.50400001928E-02 0.  1.
        1   -1    0    0  501    0  0.00000000000E+00  0.00000000000E+00 -0.87854095635E+03  0.87854095636E+03  0.50400001928E-02 0. -1.
    10030    2    1    2    0    0  0.00000000000E+00  0.00000000000E+00  0.40136157854E+03  0.21584434913E+04  0.21207987147E+04 0.  0.
        2    1    3    3  502    0 -0.82397461491E+03 -0.62391390207E+03  0.44204874743E+03  0.11241040069E+04  0.25500000920E-02 0.  1.
       -2    1    3    3    0  502  0.82397461491E+03  0.62391390207E+03 -0.40687168890E+02  0.10343394844E+04  0.25500000920E-02 0. -1.
</event>
<event>
 5   0  0.6222733E-05  0.2052319E+04  0.7818609E-02  0.8582543E-01
        1   -1    0    0  501    0  0.00000000000E+00  0.00000000000E+00  0.21564057784E+04  0.21564057784E+04  0.50400001928E-02 0.  1.
       -1   -1    0    0    0  501  0.00000000000E+00  0.00000000000E+00 -0.48831398179E+03  0.48831398181E+03  0.50400001928E-02 0. -1.
    10030    2    1    2    0    0  0.00000000000E+00  0.00000000000E+00  0.16680917966E+04  0.26447197602E+04  0.20523187784E+04 0.  0.
        2    1    3    3  502    0  0.99746151086E+02  0.44314849513E+03 -0.35170305509E+03  0.57447795638E+03  0.25500000920E-02 0. -1.
       -2    1    3    3    0  502 -0.99746151086E+02 -0.44314849513E+03  0.20197948517E+04  0.20702418038E+04  0.25500000920E-02 0.  1.
</event>
<event>
 5   0  0.6256535E-05  0.1937653E+04  0.7818609E-02  0.8636338E-01
       -1   -1    0    0    0  501  0.00000000000E+00  0.00000000000E+00  0.42864687734E+03  0.42864687737E+03  0.50400001928E-02 0. -1.
        1   -1    0    0  501    0  0.00000000000E+00  0.00000000000E+00 -0.21897398588E+04  0.21897398588E+04  0.50400001928E-02 0.  1.
    10030    2    1    2    0    0  0.00000000000E+00  0.00000000000E+00 -0.17610929815E+04  0.26183867362E+04  0.19376533774E+04 0.  0.
        1    1    3    3  502    0  0.14772849369E+03  0.31775737416E+02 -0.21737178143E+04  0.21789636393E+04  0.50400001928E-02 0.  1.
       -1    1    3    3    0  502 -0.14772849369E+03 -0.31775737416E+02  0.41262483284E+03  0.43942309684E+03  0.50400001928E-02 0. -1.
</event>
<event>
 5   0  0.6168338E-05  0.2027165E+04  0.7818609E-02  0.8594025E-01
        1   -1    0    0  501    0  0.00000000000E+00  0.00000000000E+00  0.88456641645E+03  0.88456641647E+03  0.50400001928E-02 0. -1.
       -1   -1    0    0    0  501  0.00000000000E+00  0.00000000000E+00 -0.11614155699E+04  0.11614155699E+04  0.50400001928E-02 0.  1.
    10030    2    1    2    0    0  0.00000000000E+00  0.00000000000E+00 -0.27684915343E+03  0.20459819864E+04  0.20271647281E+04 0.  0.
        5    1    3    3  502    0 -0.87383822819E+03 -0.31174335196E+03  0.27346900132E+03  0.96725619730E+03  0.46999998093E+01 0. -1.
       -5    1    3    3    0  502  0.87383822819E+03  0.31174335196E+03 -0.55031815475E+03  0.10787257891E+04  0.46999998093E+01 0.  1.
</event>
<event>
 5   0  0.6214547E-05  0.1994291E+04  0.7818609E-02  0.8609294E-01
       -1   -1    0    0    0  501  0.00000000000E+00  0.00000000000E+00  0.10063893184E+04  0.10063893184E+04  0.50400001928E-02 0. -1.
        1   -1    0    0  501    0  0.00000000000E+00  0.00000000000E+00 -0.98798701536E+03  0.98798701538E+03  0.50400001928E-02 0.  1.
    10030    2    1    2    0    0  0.00000000000E+00  0.00000000000E+00  0.18402302994E+02  0.19943763337E+04  0.19942914320E+04 0.  0.
        3    1    3    3  502    0 -0.77755608778E+03  0.54767412208E+03 -0.29040992608E+03  0.99442362653E+03  0.10100000352E+00 0.  1.
       -3    1    3    3    0  502  0.77755608778E+03 -0.54767412208E+03  0.30881222907E+03  0.99995270722E+03  0.10100000352E+00 0. -1.
</event>
<event>
 5   0  0.1274868E-04  0.1995412E+04  0.7818609E-02  0.8608769E-01
        2   -1    0    0  501    0  0.00000000000E+00  0.00000000000E+00  0.24081791633E+04  0.24081791633E+04  0.25500000920E-02 0.  1.
       -2   -1    0    0    0  501  0.00000000000E+00  0.00000000000E+00 -0.41334861889E+03  0.41334861890E+03  0.25500000920E-02 0. -1.
    10030    2    1    2    0    0  0.00000000000E+00  0.00000000000E+00  0.19948305444E+04  0.28215277822E+04  0.19954122694E+04 0.  0.
        1    1    3    3  502    0 -0.32814452357E+03  0.19961861144E+03  0.22994475007E+04  0.23313054770E+04  0.50400001928E-02 0.  1.
       -1    1    3    3    0  502  0.32814452357E+03 -0.19961861144E+03 -0.30461695635E+03  0.49022230519E+03  0.50400001928E-02 0. -1.
</event>
<event>
 5   0  0.6168338E-05  0.2026720E+04  0.7818609E-02  0.8594229E-01
       -1   -1    0    0    0  501  0.00000000000E+00  0.00000000000E+00  0.54730879383E+03  0.54730879385E+03  0.50400001928E-02 0.  1.
        1   -1    0    0  501    0  0.00000000000E+00  0.00000000000E+00 -0.18762681889E+04  0.18762681889E+04  0.50400001928E-02 0. -1.
    10030    2    1    2    0    0  0.00000000000E+00  0.00000000000E+00 -0.13289593951E+04  0.24235769828E+04  0.20267195952E+04 0.  0.
        5    1    3    3  502    0 -0.60490259120E+03 -0.49501586309E+03  0.10672968523E+03  0.78889870406E+03  0.46999998093E+01 0.  1.
       -5    1    3    3    0  502  0.60490259120E+03  0.49501586309E+03 -0.14356890803E+04  0.16346782787E+04  0.46999998093E+01 0. -1.
</event>
<event>
 5   0  0.6256535E-05  0.2044525E+04  0.7818609E-02  0.8586082E-01
       -1   -1    0    0    0  501  0.00000000000E+00  0.00000000000E+00  0.92528978536E+03  0.92528978538E+03  0.50400001928E-02 0. -1.
        1   -1    0    0  501    0  0.00000000000E+00  0.00000000000E+00 -0.11293986757E+04  0.11293986757E+04  0.50400001928E-02 0.  1.
    10030    2    1    2    0    0  0.00000000000E+00  0.00000000000E+00 -0.20410889036E+03  0.20546884611E+04  0.20445254298E+04 0.  0.
        1    1    3    3  502    0  0.68118558899E+03 -0.24156937400E+03  0.62448560801E+03  0.95517110705E+03  0.50400001928E-02 0. -1.
       -1    1    3    3    0  502 -0.68118558899E+03  0.24156937400E+03 -0.82859449837E+03  0.10995173541E+04  0.50400001928E-02 0.  1.
</event>
<event>
 5   0  0.6256535E-05  0.2040118E+04  0.7818609E-02  0.8588090E-01
       -1   -1    0    0    0  501  0.00000000000E+00  0.00000000000E+00  0.51587846486E+03  0.51587846488E+03  0.50400001928E-02 0.  1.
        1   -1    0    0  501    0  0.00000000000E+00  0.00000000000E+00 -0.20169878045E+04  0.20169878046E+04  0.50400001928E-02 0. -1.
    10030    2    1    2    0    0  0.00000000000E+00  0.00000000000E+00 -0.15011093397E+04  0.25328662694E+04  0.20401182047E+04 0.  0.
        1    1    3    3  502    0  0.83198888251E+03  0.58496960431E+03 -0.84772472290E+03  0.13240212024E+04  0.50400001928E-02 0.  1.
       -1    1    3    3    0  502 -0.83198888251E+03 -0.58496960431E+03 -0.65338461679E+03  0.12088450670E+04  0.50400001928E-02 0. -1.
</event>
<event>
 5   0  0.6028501E-05  0.1966422E+04  0.7818609E-02  0.8622482E-01
        1   -1    0    0  501    0  0.00000000000E+00  0.00000000000E+00  0.12528050787E+04  0.12528050787E+04  0.50400001928E-02 0.  1.
       -1   -1    0    0    0  501  0.00000000000E+00  0.00000000000E+00 -0.77163166024E+03  0.77163166025E+03  0.50400001928E-02 0. -1.
    10030    2    1    2    0    0  0.00000000000E+00  0.00000000000E+00  0.48117341847E+03  0.20244367390E+04  0.19664221956E+04 0.  0.
        4    1    3    3  502    0  0.93049361499E+03  0.22274887201E+03  0.47368897230E+03  0.10676227250E+04  0.12699999809E+01 0. -1.
       -4    1    3    3    0  502 -0.93049361499E+03 -0.22274887201E+03  0.74844461716E+01  0.95681401399E+03  0.12699999809E+01 0.  1.
</event>
<event>
 5   0  0.6214547E-05  0.1826693E+04  0.7818609E-02  0.8692232E-01
       -1   -1    0    0    0  501  0.00000000000E+00  0.00000000000E+00  0.65646429534E+03  0.65646429536E+03  0.50400001928E-02 0.  1.
        1   -1    0    0  501    0  0.00000000000E+00  0.00000000000E+00 -0.12707501606E+04  0.12707501606E+04  0.50400001928E-02 0. -1.
    10030    2    1    2    0    0  0.00000000000E+00  0.00000000000E+00 -0.61428586529E+03  0.19272144560E+04  0.18266933063E+04 0.  0.
        3    1    3    3  502    0  0.10761891704E+02  0.91179644907E+03 -0.25218497576E+03  0.94608977114E+03  0.10100000352E+00 0. -1.
       -3    1    3    3    0  502 -0.10761891704E+02 -0.91179644907E+03 -0.36210088953E+03  0.98112468486E+03  0.10100000352E+00 0.  1.
</event>
<event>
 5   0  0.1274868E-04  0.2001758E+04  0.7818609E-02  0.8605799E-01
       -2   -1    0    0    0  501  0.00000000000E+00  0.00000000000E+00  0.91277800597E+03  0.91277800598E+03  0.25500000920E-02 0.  1.
        2   -1    0    0  501    0  0.00000000000E+00  0.00000000000E+00 -0.10974835860E+04  0.10974835860E+04  0.25500000920E-02 0. -1.
    10030    2    1    2    0    0  0.00000000000E+00  0.00000000000E+00 -0.18470558002E+03  0.20102615920E+04  0.20017581065E+04 0.  0.
        1    1    3    3  502    0  0.85898226334E+03  0.73435447994E+02  0.41825136520E+03  0.95821578899E+03  0.50400001928E-02 0.  1.
       -1    1    3    3    0  502 -0.85898226334E+03 -0.73435447994E+02 -0.60295694522E+03  0.10520458030E+04  0.50400001928E-02 0. -1.
</event>
<event>
 5   0  0.1159914E-04  0.1988530E+04  0.7818609E-02  0.8612002E-01
       -2   -1    0    0    0  501  0.00000000000E+00  0.00000000000E+00  0.62919185072E+03  0.62919185073E+03  0.25500000920E-02 0. -1.
        2   -1    0    0  501    0  0.00000000000E+00  0.00000000000E+00 -0.15711633172E+04  0.15711633172E+04  0.25500000920E-02 0.  1.
    10030    2    1    2    0    0  0.00000000000E+00  0.00000000000E+00 -0.94197146650E+03  0.22003551679E+04  0.19885302667E+04 0.  0.
        3    1    3    3  502    0  0.74047831302E+02  0.15184546064E+03  0.61319430161E+03  0.63604039728E+03  0.10100000352E+00 0. -1.
       -3    1    3    3    0  502 -0.74047831302E+02 -0.15184546064E+03 -0.15551657681E+04  0.15643147707E+04  0.10100000352E+00 0.  1.
</event>
<event>
 5   0  0.6214547E-05  0.1995595E+04  0.7818609E-02  0.8608683E-01
       -1   -1    0    0    0  501  0.00000000000E+00  0.00000000000E+00  0.72494384027E+03  0.72494384029E+03  0.50400001928E-02 0.  1.
        1   -1    0    0  501    0  0.00000000000E+00  0.00000000000E+00 -0.13733472455E+04  0.13733472455E+04  0.50400001928E-02 0. -1.
    10030    2    1    2    0    0  0.00000000000E+00  0.00000000000E+00 -0.64840340519E+03  0.20982910858E+04  0.19955947747E+04 0.  0.
        3    1    3    3  502    0 -0.37840912960E+03 -0.63351269738E+02 -0.12926843755E+04  0.13484212093E+04  0.10100000352E+00 0. -1.
       -3    1    3    3    0  502  0.37840912960E+03  0.63351269738E+02  0.64428097032E+03  0.74986987648E+03  0.10100000352E+00 0.  1.
</event>
<event>
 5   0  0.1244229E-04  0.2106689E+04  0.7818609E-02  0.8558303E-01
       -2   -1    0    0    0  501  0.00000000000E+00  0.00000000000E+00  0.95497486445E+03  0.95497486446E+03  0.25500000920E-02 0. -1.
        2   -1    0    0  501    0  0.00000000000E+00  0.00000000000E+00 -0.11618470109E+04  0.11618470109E+04  0.25500000920E-02 0.  1.
    10030    2    1    2    0    0  0.00000000000E+00  0.00000000000E+00 -0.20687214646E+03  0.21168218754E+04  0.21066890533E+04 0.  0.
        5    1    3    3  502    0 -0.71447218432E+03 -0.63514872197E+03 -0.54786222482E+03  0.11018436861E+04  0.46999998093E+01 0.  1.
       -5    1    3    3    0  502  0.71447218432E+03  0.63514872197E+03  0.34099007836E+03  0.10149781893E+04  0.46999998093E+01 0. -1.
</event>
<event>
 5   0  0.6028501E-05  0.2013362E+04  0.7818609E-02  0.8600399E-01
        1   -1    0    0  501    0  0.00000000000E+00  0.00000000000E+00  0.23280034508E+04  0.23280034508E+04  0.50400001928E-02 0. -1.
       -1   -1    0    0    0  501  0.00000000000E+00  0.00000000000E+00 -0.43531159526E+03  0.43531159529E+03  0.50400001928E-02 0.  1.
    10030    2    1    2    0    0  0.00000000000E+00  0.00000000000E+00  0.18926918555E+04  0.27633150461E+04  0.20133622585E+04 0.  0.
        4    1    3    3  502    0 -0.80239933444E+03  0.35311317535E+03  0.26717708247E+03  0.91647084668E+03  0.12699999809E+01 0.  1.
       -4    1    3    3    0  502  0.80239933444E+03 -0.35311317535E+03  0.16255147730E+04  0.18468441994E+04  0.12699999809E+01 0. -1.
</event>
<event>
 5   0  0.6222733E-05  0.1955998E+04  0.7818609E-02  0.8627474E-01
        1   -1    0    0  501    0  0.00000000000E+00  0.00000000000E+00  0.17865612360E+04  0.17865612360E+04  0.50400001928E-02 0. -1.
       -1   -1    0    0    0  501  0.00000000000E+00  0.00000000000E+00 -0.53537615620E+03  0.53537615622E+03  0.50400001928E-02 0.  1.
    10030    2    1    2    0    0  0.00000000000E+00  0.00000000000E+00  0.12511850798E+04  0.23219373922E+04  0.19559982488E+04 0.  0.
        2    1    3    3  502    0 -0.73961824195E+03  0.46782716804E+03  0.10735810108E+03  0.88171603414E+03  0.25500000920E-02 0.  1.
       -2    1    3    3    0  502  0.73961824195E+03 -0.46782716804E+03  0.11438269787E+04  0.14402213580E+04  0.25500000920E-02 0. -1.
</event>
<event>
 5   0  0.6256535E-05  0.2006734E+04  0.7818609E-02  0.8603479E-01
        1   -1    0    0  501    0  0.00000000000E+00  0.00000000000E+00  0.72847245794E+03  0.72847245796E+03  0.50400001928E-02 0. -1.
       -1   -1    0    0    0  501  0.00000000000E+00  0.00000000000E+00 -0.13819957389E+04  0.13819957389E+04  0.50400001928E-02 0.  1.
    10030    2    1    2    0    0  0.00000000000E+00  0.00000000000E+00 -0.65352328096E+03  0.21104681969E+04  0.20067344945E+04 0.  0.
        1    1    3    3  502    0  0.14938564632E+03 -0.30668125225E+03  0.66561311768E+03  0.74793735316E+03  0.50400001928E-02 0. -1.
       -1    1    3    3    0  502 -0.14938564632E+03  0.30668125225E+03 -0.13191363986E+04  0.13625308437E+04  0.50400001928E-02 0.  1.
</event>
<event>
 5   0  0.6168338E-05  0.1697082E+04  0.7818609E-02  0.8763030E-01
       -1   -1    0    0    0  501  0.00000000000E+00  0.00000000000E+00  0.47733888081E+03  0.47733888084E+03  0.50400001928E-02 0. -1.
        1   -1    0    0  501    0  0.00000000000E+00  0.00000000000E+00 -0.15084077074E+04  0.15084077074E+04  0.50400001928E-02 0.  1.
    10030    2    1    2    0    0  0.00000000000E+00  0.00000000000E+00 -0.10310688266E+04  0.19857465882E+04  0.16970817858E+04 0.  0.
        5    1    3    3  502    0 -0.16507697313E+03  0.72614752322E+03 -0.99148969552E+03  0.12400058624E+04  0.46999998093E+01 0. -1.
       -5    1    3    3    0  502  0.16507697313E+03 -0.72614752322E+03 -0.39579131076E+02  0.74574072582E+03  0.46999998093E+01 0.  1.
</event>
<event>
 5   0  0.1244229E-04  0.2009319E+04  0.7818609E-02  0.8602276E-01
       -2   -1    0    0    0  501  0.00000000000E+00  0.00000000000E+00  0.54544483168E+03  0.54544483169E+03  0.25500000920E-02 0. -1.
        2   -1    0    0  501    0  0.00000000000E+00  0.00000000000E+00 -0.18504903052E+04  0.18504903052E+04  0.25500000920E-02 0.  1.
    10030    2    1    2    0    0  0.00000000000E+00  0.00000000000E+00 -0.13050454735E+04  0.23959351369E+04  0.20093186637E+04 0.  0.
        5    1    3    3  502    0  0.25655693866E+03  0.22885922500E+03 -0.17781494753E+04  0.18110868710E+04  0.46999998093E+01 0.  1.
       -5    1    3    3    0  502 -0.25655693866E+03 -0.22885922500E+03  0.47310400179E+03  0.58484826592E+03  0.46999998093E+01 0. -1.
</event>
<event>
 5   0  0.1242761E-04  0.2011499E+04  0.7818609E-02  0.8601263E-01
        2   -1    0    0  501    0  0.00000000000E+00  0.00000000000E+00  0.53225923349E+03  0.53225923349E+03  0.25500000920E-02 0.  1.
       -2   -1    0    0    0  501  0.00000000000E+00  0.00000000000E+00 -0.19004499284E+04  0.19004499284E+04  0.25500000920E-02 0. -1.
    10030    2    1    2    0    0  0.00000000000E+00  0.00000000000E+00 -0.13681906949E+04  0.24327091619E+04  0.20114989656E+04 0.  0.
        4    1    3    3  502    0  0.78699334931E+03 -0.57298219076E+03 -0.98972536704E+03  0.13882453090E+04  0.12699999809E+01 0. -1.
       -4    1    3    3    0  502 -0.78699334931E+03  0.57298219076E+03 -0.37846532787E+03  0.10444638529E+04  0.12699999809E+01 0.  1.
</event>
<event>
 5   0  0.6168338E-05  0.2063578E+04  0.7818609E-02  0.8577459E-01
       -1   -1    0    0    0  501  0.00000000000E+00  0.00000000000E+00  0.77263645400E+03  0.77263645401E+03  0.50400001928E-02 0. -1.
        1   -1    0    0  501    0  0.00000000000E+00  0.00000000000E+00 -0.13778650779E+04  0.13778650779E+04  0.50400001928E-02 0.  1.
    10030    2    1    2    0    0  0.00000000000E+00  0.00000000000E+00 -0.60522862392E+03  0.21505015319E+04  0.20635782398E+04 0.  0.
        5    1    3    3  502    0  0.66631102633E+02  0.10157965399E+04 -0.12735053117E+03  0.10259252225E+04  0.46999998093E+01 0. -1.
       -5    1    3    3    0  502 -0.66631102633E+02 -0.10157965399E+04 -0.47787809275E+03  0.11245763095E+04  0.46999998093E+01 0.  1.
</event>
<event>
 5   0  0.4479000E-05  0.1987845E+04  0.7818609E-02  0.8612325E-01
        3   -1    0    0  501    0  0.00000000000E+00  0.00000000000E+00  0.17179471955E+04  0.17179471985E+04  0.10100000352E+00 0. -1.
       -3   -1    0    0    0  501  0.00000000000E+00  0.00000000000E+00 -0.57503610450E+03  0.57503611337E+03  0.10100000352E+00 0.  1.
    10030    2    1    2    0    0  0.00000000000E+00  0.00000000000E+00  0.11429110910E+04  0.22929833118E+04  0.19878447390E+04 0.  0.
        3    1    3    3  502    0 -0.61189567047E+03 -0.54717500862E+03 -0.74984288430E+02  0.82428117491E+03  0.10100000352E+00 0.  1.
       -3    1    3    3    0  502  0.61189567047E+03  0.54717500862E+03  0.12178953794E+04  0.14687021369E+04  0.10100000352E+00 0. -1.
</event>
<event>
 5   0  0.1159914E-04  0.2003331E+04  0.7818609E-02  0.8605065E-01
       -2   -1    0    0    0  501  0.00000000000E+00  0.00000000000E+00  0.11005875666E+04  0.11005875666E+04  0.25500000920E-02 0. -1.
        2   -1    0    0  501    0  0.00000000000E+00  0.00000000000E+00 -0.91163482533E+03  0.91163482533E+03  0.25500000920E-02 0.  1.
    10030    2    1    2    0    0  0.00000000000E+00  0.00000000000E+00  0.18895274122E+03  0.20122223919E+04  0.20033311798E+04 0.  0.
        3    1    3    3  502    0 -0.83546801392E+03  0.37435815666E+03  0.50270743476E+03  0.10444451191E+04  0.10100000352E+00 0. -1.
       -3    1    3    3    0  502  0.83546801392E+03 -0.37435815666E+03 -0.31375469353E+03  0.96777727275E+03  0.10100000352E+00 0.  1.
</event>
<event>
 5   0  0.1242761E-04  0.1977592E+04  0.7818609E-02  0.8617169E-01
        2   -1    0    0  501    0  0.00000000000E+00  0.00000000000E+00  0.13692756230E+04  0.13692756230E+04  0.25500000920E-02 0. -1.
       -2   -1    0    0    0  501  0.00000000000E+00  0.00000000000E+00 -0.71403989213E+03  0.71403989214E+03  0.25500000920E-02 0.  1.
    10030    2    1    2    0    0  0.00000000000E+00  0.00000000000E+00  0.65523573091E+03  0.20833155152E+04  0.19775918873E+04 0.  0.
        4    1    3    3  502    0  0.50934312212E+02 -0.22099063905E+03 -0.68627159220E+03  0.72277346234E+03  0.12699999809E+01 0.  1.
       -4    1    3    3    0  502 -0.50934312212E+02  0.22099063905E+03  0.13415073231E+04  0.13605420528E+04  0.12699999809E+01 0. -1.
</event>
<event>
 5   0  0.1242761E-04  0.2004308E+04  0.7818609E-02  0.8604609E-01
        2   -1    0    0  501    0  0.00000000000E+00  0.00000000000E+00  0.18714544439E+04  0.18714544439E+04  0.25500000920E-02 0.  1.
       -2   -1    0    0    0  501  0.00000000000E+00  0.00000000000E+00 -0.53664836165E+03  0.53664836166E+03  0.25500000920E-02 0. -1.
    10030    2    1    2    0    0  0.00000000000E+00  0.00000000000E+00  0.13348060823E+04  0.24081028056E+04  0.20043083208E+04 0.  0.
        4    1    3    3  502    0 -0.25642125679E+03  0.93538273754E+03  0.36436118164E+03  0.10360759674E+04  0.12699999809E+01 0. -1.
       -4    1    3    3    0  502  0.25642125679E+03 -0.93538273754E+03  0.97044490061E+03  0.13720268382E+04  0.12699999809E+01 0.  1.
</event>
<event>
 5   0  0.6028501E-05  0.1982715E+04  0.7818609E-02  0.8614745E-01
       -1   -1    0    0    0  501  0.00000000000E+00  0.00000000000E+00  0.90312408842E+03  0.90312408844E+03  0.50400001928E-02 0.  1.
        1   -1    0    0  501    0  0.00000000000E+00  0.00000000000E+00 -0.10882114962E+04  0.10882114962E+04  0.50400001928E-02 0. -1.
    10030    2    1    2    0    0  0.00000000000E+00  0.00000000000E+00 -0.18508740773E+03  0.19913355846E+04  0.19827153255E+04 0.  0.
        4    1    3    3  502    0  0.78521393559E+03  0.55649706998E+03 -0.33135572824E+03  0.10178645023E+04  0.12699999809E+01 0.  1.
       -4    1    3    3    0  502 -0.78521393559E+03 -0.55649706998E+03  0.14626832051E+03  0.97347108228E+03  0.12699999809E+01 0. -1.
</event>
<event>
 5   0  0.6214547E-05  0.2007322E+04  0.7818609E-02  0.8603205E-01
       -1   -1    0    0    0  501  0.00000000000E+00  0.00000000000E+00  0.13332108082E+04  0.13332108082E+04  0.50400001928E-02 0.  1.
        1   -1    0    0  501    0  0.00000000000E+00  0.00000000000E+00 -0.75557101710E+03  0.75557101711E+03  0.50400001928E-02 0. -1.
    10030    2    1    2    0    0  0.00000000000E+00  0.00000000000E+00  0.57763979111E+03  0.20887818253E+04  0.20073220433E+04 0.  0.
        3    1    3    3  502    0 -0.60675568838E+03 -0.13652484455E+03  0.11085337865E+04  0.12710777571E+04  0.10100000352E+00 0.  1.
       -3    1    3    3    0  502  0.60675568838E+03  0.13652484455E+03 -0.53089399543E+03  0.81770406820E+03  0.10100000352E+00 0. -1.
</event>
<event>
 5   0  0.6214547E-05  0.2005696E+04  0.7818609E-02  0.8603962E-01
       -1   -1    0    0    0  501  0.00000000000E+00  0.00000000000E+00  0.13112573622E+04  0.13112573622E+04  0.50400001928E-02 0.  1.
        1   -1    0    0  501    0  0.00000000000E+00  0.00000000000E+00 -0.76697681933E+03  0.76697681935E+03  0.50400001928E-02 0. -1.
    10030    2    1    2    0    0  0.00000000000E+00  0.00000000000E+00  0.54428054288E+03  0.20782341816E+04  0.20056958902E+04 0.  0.
        3    1    3    3  502    0  0.79169971366E+03 -0.10079562831E+03  0.90135492217E+03  0.12039056862E+04  0.10100000352E+00 0.  1.
       -3    1    3    3    0  502 -0.79169971366E+03  0.10079562831E+03 -0.35707437929E+03  0.87432849539E+03  0.10100000352E+00 0. -1.
</event>
<event>
 5   0  0.1242761E-04  0.1919465E+04  0.7818609E-02  0.8645228E-01
       -2   -1    0    0    0  501  0.00000000000E+00  0.00000000000E+00  0.59073849241E+03  0.59073849242E+03  0.25500000920E-02 0.  1.
        2   -1    0    0  501    0  0.00000000000E+00  0.00000000000E+00 -0.15592110850E+04  0.15592110850E+04  0.25500000920E-02 0. -1.
    10030    2    1    2    0    0  0.00000000000E+00  0.00000000000E+00 -0.96847259260E+03  0.21499495774E+04  0.19194645146E+04 0.  0.
        4    1    3    3  502    0  0.41106243047E+01  0.10665417185E+03  0.58406920815E+03  0.59374275777E+03  0.12699999809E+01 0.  1.
       -4    1    3    3    0  502 -0.41106243047E+01 -0.10665417185E+03 -0.15525418007E+04  0.15562068197E+04  0.12699999809E+01 0. -1.
</event>
<event>
 5   0  0.6028501E-05  0.1987053E+04  0.7818609E-02  0.8612698E-01
       -1   -1    0    0    0  501  0.00000000000E+00  0.00000000000E+00  0.10579836791E+04  0.10579836791E+04  0.50400001928E-02 0.  1.
        1   -1    0    0  501    0  0.00000000000E+00  0.00000000000E+00 -0.93299590858E+03  0.93299590860E+03  0.50400001928E-02 0. -1.
    10030    2    1    2    0    0  0.00000000000E+00  0.00000000000E+00  0.12498777050E+03  0.19909795877E+04  0.19870525347E+04 0.  0.
        4    1    3    3  502    0  0.36587643503E+03 -0.45718481576E+03  0.86670663948E+03  0.10459758761E+04  0.12699999809E+01 0.  1.
       -4    1    3    3    0  502 -0.36587643503E+03  0.45718481576E+03 -0.74171886899E+03  0.94500371163E+03  0.12699999809E+01 0. -1.
</event>
<event>
 5   0  0.1159914E-04  0.2001000E+04  0.7818609E-02  0.8606153E-01
        2   -1    0    0  501    0  0.00000000000E+00  0.00000000000E+00  0.77562109068E+03  0.77562109068E+03  0.25500000920E-02 0. -1.
       -2   -1    0    0    0  501  0.00000000000E+00  0.00000000000E+00 -0.12905784217E+04  0.12905784218E+04  0.25500000920E-02 0.  1.
    10030    2    1    2    0    0  0.00000000000E+00  0.00000000000E+00 -0.51495733107E+03  0.20661995124E+04  0.20009995933E+04 0.  0.
        3    1    3    3  502    0  0.70995052060E+03 -0.26082326679E+03 -0.93375500559E+03  0.12016475935E+04  0.10100000352E+00 0. -1.
       -3    1    3    3    0  502 -0.70995052060E+03  0.26082326679E+03  0.41879767452E+03  0.86455191897E+03  0.10100000352E+00 0.  1.
</event>
<event>
 5   0  0.6168338E-05  0.1999145E+04  0.7818609E-02  0.8607020E-01
        1   -1    0    0  501    0  0.00000000000E+00  0.00000000000E+00  0.29144290766E+04  0.29144290766E+04  0.50400001928E-02 0. -1.
       -1   -1    0    0    0  501  0.00000000000E+00  0.00000000000E+00 -0.34282723989E+03  0.34282723993E+03  0.50400001928E-02 0.  1.
    10030    2    1    2    0    0  0.00000000000E+00  0.00000000000E+00  0.25716018367E+04  0.32572563165E+04  0.19991454937E+04 0.  0.
        5    1    3    3  502    0  0.73947093346E+03  0.30669911727E+03  0.22610055801E+04  0.23985516324E+04  0.46999998093E+01 0. -1.
       -5    1    3    3    0  502 -0.73947093346E+03 -0.30669911727E+03  0.31059625662E+03  0.85870468416E+03  0.46999998093E+01 0.  1.
</event>
<event>
 5   0  0.1159914E-04  0.1995571E+04  0.7818609E-02  0.8608694E-01
        2   -1    0    0  501    0  0.00000000000E+00  0.00000000000E+00  0.19537549452E+04  0.19537549452E+04  0.25500000920E-02 0. -1.
       -2   -1    0    0    0  501  0.00000000000E+00  0.00000000000E+00 -0.50957062662E+03  0.50957062663E+03  0.25500000920E-02 0.  1.
    10030    2    1    2    0    0  0.00000000000E+00  0.00000000000E+00  0.14441843186E+04  0.24633255718E+04  0.19955712282E+04 0.  0.
        3    1    3    3  502    0  0.95599484176E+03 -0.27909516694E+03  0.64644197984E+03  0.11873110347E+04  0.10100000352E+00 0. -1.
       -3    1    3    3    0  502 -0.95599484176E+03  0.27909516694E+03  0.79774233873E+03  0.12760145371E+04  0.10100000352E+00 0.  1.
</event>
<event>
 5   0  0.1274868E-04  0.1998877E+04  0.7818609E-02  0.8607146E-01
       -2   -1    0    0    0  501  0.00000000000E+00  0.00000000000E+00  0.65254396790E+03  0.65254396790E+03  0.25500000920E-02 0.  1.
        2   -1    0    0  501    0  0.00000000000E+00  0.00000000000E+00 -0.15307435244E+04  0.15307435244E+04  0.25500000920E-02 0. -1.
    10030    2    1    2    0    0  0.00000000000E+00  0.00000000000E+00 -0.87819955654E+03  0.21832874923E+04  0.19988771381E+04 0.  0.
        1    1    3    3  502    0 -0.47471349660E+03 -0.52314968622E+03 -0.12113176990E+04  0.14022585589E+04  0.50400001928E-02 0. -1.
       -1    1    3    3    0  502  0.47471349660E+03  0.52314968622E+03  0.33311814245E+03  0.78102893346E+03  0.50400001928E-02 0.  1.
</event>
<event>
 5   0  0.6168338E-05  0.1999372E+04  0.7818609E-02  0.8606915E-01
        1   -1    0    0  501    0  0.00000000000E+00  0.00000000000E+00  0.12151256786E+04  0.12151256786E+04  0.50400001928E-02 0. -1.
       -1   -1    0    0    0  501  0.00000000000E+00  0.00000000000E+00 -0.82244309319E+03  0.82244309321E+03  0.50400001928E-02 0.  1.
    10030    2    1    2    0    0  0.00000000000E+00  0.00000000000E+00  0.39268258545E+03  0.20375687719E+04  0.19993716231E+04 0.  0.
        5    1    3    3  502    0 -0.51777807196E+03  0.80754892483E+03 -0.90315695433E+02  0.96353952313E+03  0.46999998093E+01 0.  1.
       -5    1    3    3    0  502  0.51777807196E+03 -0.80754892483E+03  0.48299828088E+03  0.10740292487E+04  0.46999998093E+01 0. -1.
</event>
<event>
 5   0  0.6222733E-05  0.1962827E+04  0.7818609E-02  0.8624200E-01
        1   -1    0    0  501    0  0.00000000000E+00  0.00000000000E+00  0.20743715452E+04  0.20743715452E+04  0.50400001928E-02 0.  1.
       -1   -1    0    0    0  501  0.00000000000E+00  0.00000000000E+00 -0.46431993176E+03  0.46431993179E+03  0.50400001928E-02 0. -1.
    10030    2    1    2    0    0  0.00000000000E+00  0.00000000000E+00  0.16100516135E+04  0.25386914770E+04  0.19628265887E+04 0.  0.
        2    1    3    3  502    0 -0.32762103333E+03  0.43116688885E+03 -0.25360184341E+03  0.59795846219E+03  0.25500000920E-02 0. -1.
       -2    1    3    3    0  502  0.32762103333E+03 -0.43116688885E+03  0.18636534569E+04  0.19407330148E+04  0.25500000920E-02 0.  1.
</event>
<event>
 5   0  0.1281789E-04  0.1995052E+04  0.7818609E-02  0.8608938E-01
       -2   -1    0    0    0  501  0.00000000000E+00  0.00000000000E+00  0.77486861279E+03  0.77486861279E+03  0.25500000920E-02 0. -1.
        2   -1    0    0  501    0  0.00000000000E+00  0.00000000000E+00 -0.12841634587E+04  0.12841634587E+04  0.25500000920E-02 0.  1.
    10030    2    1    2    0    0  0.00000000000E+00  0.00000000000E+00 -0.50929484592E+03  0.20590320715E+04  0.19950518368E+04 0.  0.
        2    1    3    3  502    0 -0.20741141708E+03 -0.60625239699E+03 -0.10436889885E+04  0.12246828853E+04  0.25500000920E-02 0.  1.
       -2    1    3    3    0  502  0.20741141708E+03  0.60625239699E+03  0.53439414262E+03  0.83434918617E+03  0.25500000920E-02 0. -1.
</event>
<event>
 5   0  0.1281789E-04  0.1997651E+04  0.7818609E-02  0.8607720E-01
       -2   -1    0    0    0  501  0.00000000000E+00  0.00000000000E+00  0.11541975041E+04  0.11541975041E+04  0.25500000920E-02 0.  1.
        2   -1    0    0  501    0  0.00000000000E+00  0.00000000000E+00 -0.86436867307E+03  0.86436867307E+03  0.25500000920E-02 0. -1.
    10030    2    1    2    0    0  0.00000000000E+00  0.00000000000E+00  0.28982883101E+03  0.20185661772E+04  0.19976507854E+04 0.  0.
        2    1    3    3  502    0 -0.76947891070E+03 -0.38489312884E+03  0.65758396304E+03  0.10828929694E+04  0.25500000920E-02 0.  1.
       -2    1    3    3    0  502  0.76947891070E+03  0.38489312884E+03 -0.36775513203E+03  0.93567320779E+03  0.25500000920E-02 0. -1.
</event>
<event>
 5   0  0.6214547E-05  0.1945264E+04  0.7818609E-02  0.8632648E-01
       -1   -1    0    0    0  501  0.00000000000E+00  0.00000000000E+00  0.82938767695E+03  0.82938767696E+03  0.50400001928E-02 0.  1.
        1   -1    0    0  501    0  0.00000000000E+00  0.00000000000E+00 -0.11406166918E+04  0.11406166918E+04  0.50400001928E-02 0. -1.
    10030    2    1    2    0    0  0.00000000000E+00  0.00000000000E+00 -0.31122901485E+03  0.19700043688E+04  0.19452644327E+04 0.  0.
        3    1    3    3  502    0  0.12919831628E+02 -0.45262370969E+03 -0.10273631506E+04  0.11227244533E+04  0.10100000352E+00 0. -1.
       -3    1    3    3    0  502 -0.12919831628E+02  0.45262370969E+03  0.71613413573E+03  0.84727991549E+03  0.10100000352E+00 0.  1.
</event>
<event>
 5   0  0.6222733E-05  0.1978774E+04  0.7818609E-02  0.8616609E-01
        1   -1    0    0  501    0  0.00000000000E+00  0.00000000000E+00  0.83000189382E+03  0.83000189384E+03  0.50400001928E-02 0.  1.
       -1   -1    0    0    0  501  0.00000000000E+00  0.00000000000E+00 -0.11793785675E+04  0.11793785675E+04  0.50400001928E-02 0. -1.
    10030    2    1    2    0    0  0.00000000000E+00  0.00000000000E+00 -0.34937667369E+03  0.20093804614E+04  0.19787738068E+04 0.  0.
        2    1    3    3  502    0 -0.68018184100E+03  0.63030880421E+03  0.17553743216E+03  0.94379548398E+03  0.25500000920E-02 0.  1.
       -2    1    3    3    0  502  0.68018184100E+03 -0.63030880421E+03 -0.52491410586E+03  0.10655849774E+04  0.25500000920E-02 0. -1.
</event>
<event>
 5   0  0.1274868E-04  0.1988625E+04  0.7818609E-02  0.8611958E-01
       -2   -1    0    0    0  501  0.00000000000E+00  0.00000000000E+00  0.61187056129E+03  0.61187056129E+03  0.25500000920E-02 0.  1.
        2   -1    0    0  501    0  0.00000000000E+00  0.00000000000E+00 -0.16157943474E+04  0.16157943474E+04  0.25500000920E-02 0. -1.
    10030    2    1    2    0    0  0.00000000000E+00  0.00000000000E+00 -0.10039237862E+04  0.22276649087E+04  0.19886246446E+04 0.  0.
        1    1    3    3  502    0  0.42632359879E+03  0.64590183813E+03 -0.12012741883E+04  0.14289858890E+04  0.50400001928E-02 0. -1.
       -1    1    3    3    0  502 -0.42632359879E+03 -0.64590183813E+03  0.19735040213E+03  0.79867901978E+03  0.50400001928E-02 0.  1.
</event>
<event>
 5   0  0.6028501E-05  0.2215908E+04  0.7818609E-02  0.8511836E-01
       -1   -1    0    0    0  501  0.00000000000E+00  0.00000000000E+00  0.77060011486E+03  0.77060011487E+03  0.50400001928E-02 0. -1.
        1   -1    0    0  501    0  0.00000000000E+00  0.00000000000E+00 -0.15929947556E+04  0.15929947556E+04  0.50400001928E-02 0.  1.
    10030    2    1    2    0    0  0.00000000000E+00  0.00000000000E+00 -0.82239464078E+03  0.23635948705E+04  0.22159078877E+04 0.  0.
        4    1    3    3  502    0 -0.10383273822E+01  0.10860567158E+04 -0.17740883936E+03  0.11004525329E+04  0.12699999809E+01 0. -1.
       -4    1    3    3    0  502  0.10383273822E+01 -0.10860567158E+04 -0.64498580142E+03  0.12631423376E+04  0.12699999809E+01 0.  1.
</event>
<event>
 5   0  0.1274868E-04  0.1718457E+04  0.7818609E-02  0.8750907E-01
        2   -1    0    0  501    0  0.00000000000E+00  0.00000000000E+00  0.27087239793E+04  0.27087239793E+04  0.25500000920E-02 0. -1.
       -2   -1    0    0    0  501  0.00000000000E+00  0.00000000000E+00 -0.27255415969E+03  0.27255415970E+03  0.25500000920E-02 0.  1.
    10030    2    1    2    0    0  0.00000000000E+00  0.00000000000E+00  0.24361698196E+04  0.29812781390E+04  0.17184574339E+04 0.  0.
        1    1    3    3  502    0  0.80294591871E+03 -0.19747343893E+03  0.16232997082E+04  0.18217628413E+04  0.50400001928E-02 0.  1.
       -1    1    3    3    0  502 -0.80294591871E+03  0.19747343893E+03  0.81287011147E+03  0.11595152977E+04  0.50400001928E-02 0. -1.
</event>
<event>
 5   0  0.6256535E-05  0.2010463E+04  0.7818609E-02  0.8601744E-01
        1   -1    0    0  501    0  0.00000000000E+00  0.00000000000E+00  0.96409611709E+03  0.96409611710E+03  0.50400001928E-02 0. -1.
       -1   -1    0    0    0  501  0.00000000000E+00  0.00000000000E+00 -0.10481222893E+04  0.10481222894E+04  0.50400001928E-02 0.  1.
    10030    2    1    2    0    0  0.00000000000E+00  0.00000000000E+00 -0.84026172256E+02  0.20122184065E+04  0.20104632595E+04 0.  0.
        1    1    3    3  502    0 -0.38837404558E+03  0.92424503693E+03  0.31721723636E+02  0.10030301867E+04  0.50400001928E-02 0.  1.
       -1    1    3    3    0  502  0.38837404558E+03 -0.92424503693E+03 -0.11574789589E+03  0.10091882198E+04  0.50400001928E-02 0. -1.
</event>
<event>
 5   0  0.1242761E-04  0.1997262E+04  0.7818609E-02  0.8607902E-01
       -2   -1    0    0    0  501  0.00000000000E+00  0.00000000000E+00  0.16813711674E+04  0.16813711675E+04  0.25500000920E-02 0. -1.
        2   -1    0    0  501    0  0.00000000000E+00  0.00000000000E+00 -0.59312521670E+03  0.59312521671E+03  0.25500000920E-02 0.  1.
    10030    2    1    2    0    0  0.00000000000E+00  0.00000000000E+00  0.10882459507E+04  0.22744963842E+04  0.19972617636E+04 0.  0.
        4    1    3    3  502    0  0.66917642526E+03 -0.35385421223E+03 -0.19763509556E+03  0.78234975269E+03  0.12699999809E+01 0.  1.
       -4    1    3    3    0  502 -0.66917642526E+03  0.35385421223E+03  0.12858810463E+04  0.14921466315E+04  0.12699999809E+01 0. -1.
</event>
<event>
 5   0  0.4479000E-05  0.1710948E+04  0.7818609E-02  0.8755145E-01
       -3   -1    0    0    0  501  0.00000000000E+00  0.00000000000E+00  0.10088559390E+04  0.10088559441E+04  0.10100000352E+00 0.  1.
        3   -1    0    0  501    0  0.00000000000E+00  0.00000000000E+00 -0.72541170787E+03  0.72541171491E+03  0.10100000352E+00 0. -1.
    10030    2    1    2    0    0  0.00000000000E+00  0.00000000000E+00  0.28344423112E+03  0.17342676590E+04  0.17109481818E+04 0.  0.
        3    1    3    3  502    0  0.53667574935E+03 -0.63306877373E+03  0.35200805872E+03  0.90150242141E+03  0.10100000352E+00 0. -1.
       -3    1    3    3    0  502 -0.53667574935E+03  0.63306877373E+03 -0.68563827598E+02  0.83276523755E+03  0.10100000352E+00 0.  1.
</event>
<event>
 5   0  0.1159914E-04  0.1993043E+04  0.7818609E-02  0.8609880E-01
       -2   -1    0    0    0  501  0.00000000000E+00  0.00000000000E+00  0.58737481675E+03  0.58737481676E+03  0.25500000920E-02 0. -1.
        2   -1    0    0  501    0  0.00000000000E+00  0.00000000000E+00 -0.16906665660E+04  0.16906665660E+04  0.25500000920E-02 0.  1.
    10030    2    1    2    0    0  0.00000000000E+00  0.00000000000E+00 -0.11032917492E+04  0.22780413828E+04  0.19930428640E+04 0.  0.
        3    1    3    3  502    0 -0.20072247090E+03  0.69323990510E+03 -0.13370633271E+04  0.15194108817E+04  0.10100000352E+00 0.  1.
       -3    1    3    3    0  502  0.20072247090E+03 -0.69323990510E+03  0.23377157789E+03  0.75863050109E+03  0.10100000352E+00 0. -1.
</event>
<event>
 5   0  0.1281789E-04  0.2067146E+04  0.7818609E-02  0.8575856E-01
        2   -1    0    0  501    0  0.00000000000E+00  0.00000000000E+00  0.14346782862E+04  0.14346782862E+04  0.25500000920E-02 0.  1.
       -2   -1    0    0    0  501  0.00000000000E+00  0.00000000000E+00 -0.74460787374E+03  0.74460787374E+03  0.25500000920E-02 0. -1.
    10030    2    1    2    0    0  0.00000000000E+00  0.00000000000E+00  0.69007041246E+03  0.21792861599E+04  0.20671456148E+04 0.  0.
        2    1    3    3  502    0  0.46915749588E+03 -0.56572785420E+03  0.11111746952E+04  0.13322409558E+04  0.25500000920E-02 0.  1.
       -2    1    3    3    0  502 -0.46915749588E+03  0.56572785420E+03 -0.42110428274E+03  0.84704520417E+03  0.25500000920E-02 0. -1.
</event>
<event>
 5   0  0.1274868E-04  0.2017672E+04  0.7818609E-02  0.8598403E-01
       -2   -1    0    0    0  501  0.00000000000E+00  0.00000000000E+00  0.46043050525E+03  0.46043050526E+03  0.25500000920E-02 0. -1.
        2   -1    0    0  501    0  0.00000000000E+00  0.00000000000E+00 -0.22104303843E+04  0.22104303843E+04  0.25500000920E-02 0.  1.
    10030    2    1    2    0    0  0.00000000000E+00  0.00000000000E+00 -0.17499998790E+04  0.26708608895E+04  0.20176715081E+04 0.  0.
        1    1    3    3  502    0  0.46249415664E+03  0.62251140992E+03 -0.20880192957E+02  0.77579461386E+03  0.50400001928E-02 0. -1.
       -1    1    3    3    0  502 -0.46249415664E+03 -0.62251140992E+03 -0.17291196861E+04  0.18950662757E+04  0.50400001928E-02 0.  1.
</event>
<event>
 5   0  0.6222733E-05  0.2003511E+04  0.7818609E-02  0.8604981E-01
       -1   -1    0    0    0  501  0.00000000000E+00  0.00000000000E+00  0.12752575920E+04  0.12752575920E+04  0.50400001928E-02 0.  1.
        1   -1    0    0  501    0  0.00000000000E+00  0.00000000000E+00 -0.78691057466E+03  0.78691057467E+03  0.50400001928E-02 0. -1.
    10030    2    1    2    0    0  0.00000000000E+00  0.00000000000E+00  0.48834701732E+03  0.20621681667E+04  0.20035106035E+04 0.  0.
        2    1    3    3  502    0  0.17552117937E+03 -0.18103505343E+03  0.12420590324E+04  0.12673957610E+04  0.25500000920E-02 0.  1.
       -2    1    3    3    0  502 -0.17552117937E+03  0.18103505343E+03 -0.75371201513E+03  0.79477240562E+03  0.25500000920E-02 0. -1.
</event>
<event>
 5   0  0.1281789E-04  0.1965164E+04  0.7818609E-02  0.8623083E-01
       -2   -1    0    0    0  501  0.00000000000E+00  0.00000000000E+00  0.53120287686E+03  0.53120287686E+03  0.25500000920E-02 0.  1.
        2   -1    0    0  501    0  0.00000000000E+00  0.00000000000E+00 -0.18175110105E+04  0.18175110105E+04  0.25500000920E-02 0. -1.
    10030    2    1    2    0    0  0.00000000000E+00  0.00000000000E+00 -0.12863081336E+04  0.23487138874E+04  0.19651636853E+04 0.  0.
        2    1    3    3  502    0 -0.97025268077E+03 -0.15469485742E+03 -0.65761094095E+03  0.11822744661E+04  0.25500000920E-02 0. -1.
       -2    1    3    3    0  502  0.97025268077E+03  0.15469485742E+03 -0.62869719267E+03  0.11664394213E+04  0.25500000920E-02 0.  1.
</event>
<event>
 5   0  0.6168338E-05  0.1993842E+04  0.7818609E-02  0.8609505E-01
       -1   -1    0    0    0  501  0.00000000000E+00  0.00000000000E+00  0.67253213092E+03  0.67253213094E+03  0.50400001928E-02 0. -1.
        1   -1    0    0  501    0  0.00000000000E+00  0.00000000000E+00 -0.14777755707E+04  0.14777755707E+04  0.50400001928E-02 0.  1.
    10030    2    1    2    0    0  0.00000000000E+00  0.00000000000E+00 -0.80524343982E+03  0.21503077017E+04  0.19938420736E+04 0.  0.
        5    1    3    3  502    0 -0.80023532188E+03  0.56735300346E+03 -0.21101877698E+03  0.10034027183E+04  0.46999998093E+01 0. -1.
       -5    1    3    3    0  502  0.80023532188E+03 -0.56735300346E+03 -0.59422466284E+03  0.11469049834E+04  0.46999998093E+01 0.  1.
</event>
<event>
 5   0  0.6028501E-05  0.2005196E+04  0.7818609E-02  0.8604195E-01
       -1   -1    0    0    0  501  0.00000000000E+00  0.00000000000E+00  0.54652119894E+03  0.54652119896E+03  0.50400001928E-02 0.  1.
        1   -1    0    0  501    0  0.00000000000E+00  0.00000000000E+00 -0.18392754914E+04  0.18392754914E+04  0.50400001928E-02 0. -1.
    10030    2    1    2    0    0  0.00000000000E+00  0.00000000000E+00 -0.12927542924E+04  0.23857966903E+04  0.20051962964E+04 0.  0.
        4    1    3    3  502    0 -0.33218218637E+03  0.74448534306E+03  0.48003466219E+02  0.81664519630E+03  0.12699999809E+01 0.  1.
       -4    1    3    3    0  502  0.33218218637E+03 -0.74448534306E+03 -0.13407577586E+04  0.15691514940E+04  0.12699999809E+01 0. -1.
</event>
<event>
 5   0  0.6222733E-05  0.1994586E+04  0.7818609E-02  0.8609156E-01
        1   -1    0    0  501    0  0.00000000000E+00  0.00000000000E+00  0.12414821263E+04  0.12414821264E+04  0.50400001928E-02 0.  1.
       -1   -1    0    0    0  501  0.00000000000E+00  0.00000000000E+00 -0.80113403839E+03  0.80113403840E+03  0.50400001928E-02 0. -1.
    10030    2    1    2    0    0  0.00000000000E+00  0.00000000000E+00  0.44034808796E+03  0.20426161648E+04  0.19945862624E+04 0.  0.
        2    1    3    3  502    0  0.23656207303E+03  0.74691105952E+03 -0.41173886877E+03  0.88508001972E+03  0.25500000920E-02 0. -1.
       -2    1    3    3    0  502 -0.23656207303E+03 -0.74691105952E+03  0.85208695674E+03  0.11575361450E+04  0.25500000920E-02 0.  1.
</event>
<event>
 5   0  0.6168338E-05  0.1968114E+04  0.7818609E-02  0.8621675E-01
        1   -1    0    0  501    0  0.00000000000E+00  0.00000000000E+00  0.96812979230E+03  0.96812979231E+03  0.50400001928E-02 0.  1.
       -1   -1    0    0    0  501  0.00000000000E+00  0.00000000000E+00 -0.10002465497E+04  0.10002465497E+04  0.50400001928E-02 0. -1.
    10030    2    1    2    0    0  0.00000000000E+00  0.00000000000E+00 -0.32116757402E+02  0.19683763420E+04  0.19681143101E+04 0.  0.
        5    1    3    3  502    0  0.47202138449E+03 -0.21684992036E+03 -0.85194373619E+03  0.99782678608E+03  0.46999998093E+01 0. -1.
       -5    1    3    3    0  502 -0.47202138449E+03  0.21684992036E+03  0.81982697879E+03  0.97054955594E+03  0.46999998093E+01 0.  1.
</event>
<event>
 5   0  0.1159914E-04  0.1782824E+04  0.7818609E-02  0.8715487E-01
        2   -1    0    0  501    0  0.00000000000E+00  0.00000000000E+00  0.10138458790E+04  0.10138458790E+04  0.25500000920E-02 0.  1.
       -2   -1    0    0    0  501  0.00000000000E+00  0.00000000000E+00 -0.78376321325E+03  0.78376321325E+03  0.25500000920E-02 0. -1.
    10030    2    1    2    0    0  0.00000000000E+00  0.00000000000E+00  0.23008266570E+03  0.17976090922E+04  0.17828237196E+04 0.  0.
        3    1    3    3  502    0 -0.20737191769E+03 -0.84387900215E+03 -0.85302780236E+02  0.87316175881E+03  0.10100000352E+00 0. -1.
       -3    1    3    3    0  502  0.20737191769E+03  0.84387900215E+03  0.31538544594E+03  0.92444733340E+03  0.10100000352E+00 0.  1.
</event>
<event>
 5   0  0.1242761E-04  0.2012905E+04  0.7818609E-02  0.8600611E-01
        2   -1    0    0  501    0  0.00000000000E+00  0.00000000000E+00  0.25141146202E+04  0.25141146202E+04  0.25500000920E-02 0.  1.
       -2   -1    0    0    0  501  0.00000000000E+00  0.00000000000E+00 -0.40290391164E+03  0.40290391164E+03  0.25500000920E-02 0. -1.
    10030    2    1    2    0    0  0.00000000000E+00  0.00000000000E+00  0.21112107086E+04  0.29170185319E+04  0.20129049802E+04 0.  0.
        4    1    3    3  502    0 -0.24187446177E+03  0.97664468023E+03  0.10199043911E+04  0.14326704668E+04  0.12699999809E+01 0.  1.
       -4    1    3    3    0  502  0.24187446177E+03 -0.97664468023E+03  0.10913063175E+04  0.14843480651E+04  0.12699999809E+01 0. -1.
</event>
<event>
 5   0  0.1159914E-04  0.1931184E+04  0.7818609E-02  0.8639488E-01
        2   -1    0    0  501    0  0.00000000000E+00  0.00000000000E+00  0.14227867146E+04  0.14227867146E+04  0.25500000920E-02 0.  1.
       -2   -1    0    0    0  501  0.00000000000E+00  0.00000000000E+00 -0.65531094557E+03  0.65531094558E+03  0.25500000920E-02 0. -1.
    10030    2    1    2    0    0  0.00000000000E+00  0.00000000000E+00  0.76747576903E+03  0.20780976602E+04  0.19311837896E+04 0.  0.
        3    1    3    3  502    0  0.80253659758E+03  0.46259386041E+03  0.90402208001E+02  0.93071512267E+03  0.10100000352E+00 0. -1.
       -3    1    3    3    0  502 -0.80253659758E+03 -0.46259386041E+03  0.67707356103E+03  0.11473825375E+04  0.10100000352E+00 0.  1.
</event>
<event>
 5   0  0.6222733E-05  0.2001915E+04  0.7818609E-02  0.8605726E-01
        1   -1    0    0  501    0  0.00000000000E+00  0.00000000000E+00  0.12603712764E+04  0.12603712764E+04  0.50400001928E-02 0. -1.
       -1   -1    0    0    0  501  0.00000000000E+00  0.00000000000E+00 -0.79493683725E+03  0.79493683727E+03  0.50400001928E-02 0.  1.
    10030    2    1    2    0    0  0.00000000000E+00  0.00000000000E+00  0.46543443917E+03  0.20553081137E+04  0.20019146398E+04 0.  0.
        2    1    3    3  502    0 -0.18644945558E+03 -0.98098234566E+03  0.16139648902E+03  0.10115031333E+04  0.25500000920E-02 0.  1.
       -2    1    3    3    0  502  0.18644945558E+03  0.98098234566E+03  0.30403795015E+03  0.10438049804E+04  0.25500000920E-02 0. -1.
</event>
<event>
 5   0  0.4479000E-05  0.1992204E+04  0.7818609E-02  0.8610274E-01
       -4   -1    0    0    0  501  0.00000000000E+00  0.00000000000E+00  0.11721664287E+04  0.11721671167E+04  0.12699999809E+01 0. -1.
        4   -1    0    0  501    0  0.00000000000E+00  0.00000000000E+00 -0.84648148264E+03  0.84648243535E+03  0.12699999809E+01 0.  1.
    10030    2    1    2    0    0  0.00000000000E+00  0.00000000000E+00  0.32568494607E+03  0.20186495521E+04  0.19922036367E+04 0.  0.
        3    1    3    3  502    0  0.44069265489E+03 -0.57945479432E+03 -0.52606581329E+03  0.89817766887E+03  0.10100000352E+00 0.  1.
       -3    1    3    3    0  502 -0.44069265489E+03  0.57945479432E+03  0.85175075936E+03  0.11204718832E+04  0.10100000352E+00 0. -1.
</event>
<event>
 5   0  0.4479000E-05  0.2047504E+04  0.7818609E-02  0.8584727E-01
       -3   -1    0    0    0  501  0.00000000000E+00  0.00000000000E+00  0.14790673576E+04  0.14790673611E+04  0.10100000352E+00 0. -1.
        3   -1    0    0  501    0  0.00000000000E+00  0.00000000000E+00 -0.70860084384E+03  0.70860085103E+03  0.10100000352E+00 0.  1.
    10030    2    1    2    0    0  0.00000000000E+00  0.00000000000E+00  0.77046651379E+03  0.21876682121E+04  0.20475042265E+04 0.  0.
        5    1    3    3  502    0 -0.26242417803E+03  0.80284407410E+03  0.10032971930E+04  0.13115076836E+04  0.46999998093E+01 0. -1.
       -5    1    3    3    0  502  0.26242417803E+03 -0.80284407410E+03 -0.23283067926E+03  0.87616052852E+03  0.46999998093E+01 0.  1.
</event>
<event>
 5   0  0.4479000E-05  0.2051014E+04  0.7818609E-02  0.8583134E-01
       -3   -1    0    0    0  501  0.00000000000E+00  0.00000000000E+00  0.10019262455E+04  0.10019262506E+04  0.10100000352E+00 0.  1.
        3   -1    0    0  501    0  0.00000000000E+00  0.00000000000E+00 -0.10496431019E+04  0.10496431067E+04  0.10100000352E+00 0. -1.
    10030    2    1    2    0    0  0.00000000000E+00  0.00000000000E+00 -0.47716856329E+02  0.20515693574E+04  0.20510143660E+04 0.  0.
        3    1    3    3  502    0  0.49318574564E+02  0.90431031506E+03 -0.50508683775E+03  0.10369774306E+04  0.10100000352E+00 0.  1.
       -3    1    3    3    0  502 -0.49318574564E+02 -0.90431031506E+03  0.45736998142E+03  0.10145919267E+04  0.10100000352E+00 0. -1.
</event>
<event>
 5   0  0.6028501E-05  0.2006620E+04  0.7818609E-02  0.8603532E-01
        1   -1    0    0  501    0  0.00000000000E+00  0.00000000000E+00  0.18707026333E+04  0.18707026333E+04  0.50400001928E-02 0.  1.
       -1   -1    0    0    0  501  0.00000000000E+00  0.00000000000E+00 -0.53810328850E+03  0.53810328853E+03  0.50400001928E-02 0. -1.
    10030    2    1    2    0    0  0.00000000000E+00  0.00000000000E+00  0.13325993448E+04  0.24088059218E+04  0.20066202818E+04 0.  0.
        4    1    3    3  502    0 -0.24056555303E+03 -0.75713560670E+03 -0.69303536749E+02  0.79745263517E+03  0.12699999809E+01 0. -1.
       -4    1    3    3    0  502  0.24056555303E+03  0.75713560670E+03  0.14019028815E+04  0.16113532867E+04  0.12699999809E+01 0.  1.
</event>
<event>
 5   0  0.6256535E-05  0.1965277E+04  0.7818609E-02  0.8623029E-01
       -1   -1    0    0    0  501  0.00000000000E+00  0.00000000000E+00  0.83539522596E+03  0.83539522597E+03  0.50400001928E-02 0.  1.
        1   -1    0    0  501    0  0.00000000000E+00  0.00000000000E+00 -0.11558342713E+04  0.11558342714E+04  0.50400001928E-02 0. -1.
    10030    2    1    2    0    0  0.00000000000E+00  0.00000000000E+00 -0.32043904539E+03  0.19912294973E+04  0.19652770108E+04 0.  0.
        1    1    3    3  502    0 -0.13005329452E+03  0.69055960416E+03 -0.85616117857E+03  0.11076093129E+04  0.50400001928E-02 0. -1.
       -1    1    3    3    0  502  0.13005329452E+03 -0.69055960416E+03  0.53572213318E+03  0.88362018442E+03  0.50400001928E-02 0.  1.
</event>
<event>
 5   0  0.1242761E-04  0.1962141E+04  0.7818609E-02  0.8624528E-01
       -2   -1    0    0    0  501  0.00000000000E+00  0.00000000000E+00  0.55507134534E+03  0.55507134534E+03  0.25500000920E-02 0.  1.
        2   -1    0    0  501    0  0.00000000000E+00  0.00000000000E+00 -0.17340100552E+04  0.17340100552E+04  0.25500000920E-02 0. -1.
    10030    2    1    2    0    0  0.00000000000E+00  0.00000000000E+00 -0.11789387099E+04  0.22890814006E+04  0.19621409676E+04 0.  0.
        4    1    3    3  502    0  0.85713976346E+03  0.14502285341E+03 -0.11199660094E+04  0.14177607969E+04  0.12699999809E+01 0. -1.
       -4    1    3    3    0  502 -0.85713976346E+03 -0.14502285341E+03 -0.58972700514E+02  0.87132060370E+03  0.12699999809E+01 0.  1.
</event>
<event>
 5   0  0.1244229E-04  0.1983254E+04  0.7818609E-02  0.8614490E-01
       -2   -1    0    0    0  501  0.00000000000E+00  0.00000000000E+00  0.73659661155E+03  0.73659661155E+03  0.25500000920E-02 0.  1.
        2   -1    0    0  501    0  0.00000000000E+00  0.00000000000E+00 -0.13349560588E+04  0.13349560588E+04  0.25500000920E-02 0. -1.
    10030    2    1    2    0    0  0.00000000000E+00  0.00000000000E+00 -0.59835944722E+03  0.20715526703E+04  0.19832540023E+04 0.  0.
        5    1    3    3  502    0  0.15640962827E+03  0.30788138604E+03  0.67174676359E+03  0.75532822274E+03  0.46999998093E+01 0.  1.
       -5    1    3    3    0  502 -0.15640962827E+03 -0.30788138604E+03 -0.12701062108E+04  0.13162244476E+04  0.46999998093E+01 0. -1.
</event>
<event>
 5   0  0.6168338E-05  0.1960104E+04  0.7818609E-02  0.8625504E-01
       -1   -1    0    0    0  501  0.00000000000E+00  0.00000000000E+00  0.81279890582E+03  0.81279890584E+03  0.50400001928E-02 0.  1.
        1   -1    0    0  501    0  0.00000000000E+00  0.00000000000E+00 -0.11817209908E+04  0.11817209908E+04  0.50400001928E-02 0. -1.
    10030    2    1    2    0    0  0.00000000000E+00  0.00000000000E+00 -0.36892208495E+03  0.19945198966E+04  0.19601035976E+04 0.  0.
        5    1    3    3  502    0 -0.84828823841E+03 -0.36720297143E+03  0.14690772519E+03  0.93596737517E+03  0.46999998093E+01 0. -1.
       -5    1    3    3    0  502  0.84828823841E+03  0.36720297143E+03 -0.51582981014E+03  0.10585525215E+04  0.46999998093E+01 0.  1.
</event>
<event>
 5   0  0.1274868E-04  0.1984348E+04  0.7818609E-02  0.8613974E-01
        2   -1    0    0  501    0  0.00000000000E+00  0.00000000000E+00  0.12090302955E+04  0.12090302955E+04  0.25500000920E-02 0.  1.
       -2   -1    0    0    0  501  0.00000000000E+00  0.00000000000E+00 -0.81421354530E+03  0.81421354530E+03  0.25500000920E-02 0. -1.
    10030    2    1    2    0    0  0.00000000000E+00  0.00000000000E+00  0.39481675021E+03  0.20232438408E+04  0.19843475938E+04 0.  0.
        1    1    3    3  502    0  0.29479800232E+03 -0.73520321262E+03  0.80659722329E+03  0.11304993174E+04  0.50400001928E-02 0.  1.
       -1    1    3    3    0  502 -0.29479800232E+03  0.73520321262E+03 -0.41178047308E+03  0.89274452340E+03  0.50400001928E-02 0. -1.
</event>
<event>
 5   0  0.1281789E-04  0.1952324E+04  0.7818609E-02  0.8629241E-01
        2   -1    0    0  501    0  0.00000000000E+00  0.00000000000E+00  0.14198870711E+04  0.14198870711E+04  0.25500000920E-02 0.  1.
       -2   -1    0    0    0  501  0.00000000000E+00  0.00000000000E+00 -0.67110430975E+03  0.67110430976E+03  0.25500000920E-02 0. -1.
    10030    2    1    2    0    0  0.00000000000E+00  0.00000000000E+00  0.74878276132E+03  0.20909913808E+04  0.19523240845E+04 0.  0.
        2    1    3    3  502    0 -0.92362534404E+03  0.13106357615E+03  0.66518411064E+02  0.93524656437E+03  0.25500000920E-02 0. -1.
       -2    1    3    3    0  502  0.92362534404E+03 -0.13106357615E+03  0.68226435026E+03  0.11557448165E+04  0.25500000920E-02 0.  1.
</event>
<event>
 5   0  0.1281789E-04  0.1973220E+04  0.7818609E-02  0.8619244E-01
       -2   -1    0    0    0  501  0.00000000000E+00  0.00000000000E+00  0.57481615715E+03  0.57481615716E+03  0.25500000920E-02 0. -1.
        2   -1    0    0  501    0  0.00000000000E+00  0.00000000000E+00 -0.16934101852E+04  0.16934101852E+04  0.25500000920E-02 0.  1.
    10030    2    1    2    0    0  0.00000000000E+00  0.00000000000E+00 -0.11185940280E+04  0.22682263423E+04  0.19732202463E+04 0.  0.
        2    1    3    3  502    0 -0.16798129569E+03  0.84929810287E+03 -0.15404361757E+02  0.86588814382E+03  0.25500000920E-02 0. -1.
       -2    1    3    3    0  502  0.16798129569E+03 -0.84929810287E+03 -0.11031896663E+04  0.14023381985E+04  0.25500000920E-02 0.  1.
</event>
<event>
 5   0  0.6028501E-05  0.1969647E+04  0.7818609E-02  0.8620945E-01
       -1   -1    0    0    0  501  0.00000000000E+00  0.00000000000E+00  0.34149037412E+03  0.34149037416E+03  0.50400001928E-02 0. -1.
        1   -1    0    0  501    0  0.00000000000E+00  0.00000000000E+00 -0.28401310748E+04  0.28401310748E+04  0.50400001928E-02 0.  1.
    10030    2    1    2    0    0  0.00000000000E+00  0.00000000000E+00 -0.24986407007E+04  0.31816214490E+04  0.19696470987E+04 0.  0.
        4    1    3    3  502    0  0.17451384274E+03 -0.91390654156E+03 -0.72790393839E+03  0.11813238356E+04  0.12699999809E+01 0. -1.
       -4    1    3    3    0  502 -0.17451384274E+03  0.91390654156E+03 -0.17707367623E+04  0.20002976134E+04  0.12699999809E+01 0.  1.
</event>
<event>
 5   0  0.6256535E-05  0.1983550E+04  0.7818609E-02  0.8614351E-01
        1   -1    0    0  501    0  0.00000000000E+00  0.00000000000E+00  0.85863405208E+03  0.85863405209E+03  0.50400001928E-02 0.  1.
       -1   -1    0    0    0  501  0.00000000000E+00  0.00000000000E+00 -0.11455605272E+04  0.11455605272E+04  0.50400001928E-02 0. -1.
    10030    2    1    2    0    0  0.00000000000E+00  0.00000000000E+00 -0.28692647508E+03  0.20041945793E+04  0.19835496236E+04 0.  0.
        1    1    3    3  502    0 -0.17564875437E+03 -0.97597174656E+03 -0.12768202368E+03  0.99983800398E+03  0.50400001928E-02 0. -1.
       -1    1    3    3    0  502  0.17564875437E+03  0.97597174656E+03 -0.15924445140E+03  0.10043565753E+04  0.50400001928E-02 0.  1.
</event>
<event>
 5   0  0.1244229E-04  0.2003493E+04  0.7818609E-02  0.8604989E-01
        2   -1    0    0  501    0  0.00000000000E+00  0.00000000000E+00  0.21072574842E+04  0.21072574842E+04  0.25500000920E-02 0.  1.
       -2   -1    0    0    0  501  0.00000000000E+00  0.00000000000E+00 -0.47620936654E+03  0.47620936655E+03  0.25500000920E-02 0. -1.
    10030    2    1    2    0    0  0.00000000000E+00  0.00000000000E+00  0.16310481177E+04  0.25834668507E+04  0.20034927020E+04 0.  0.
        5    1    3    3  502    0  0.87559810073E+03 -0.49932088960E+02  0.14397029407E+04  0.16858030416E+04  0.46999998093E+01 0.  1.
       -5    1    3    3    0  502 -0.87559810073E+03  0.49932088960E+02  0.19134517691E+03  0.89766380914E+03  0.46999998093E+01 0. -1.
</event>
<event>
 5   0  0.6168338E-05  0.1987269E+04  0.7818609E-02  0.8612596E-01
       -1   -1    0    0    0  501  0.00000000000E+00  0.00000000000E+00  0.56913662728E+03  0.56913662730E+03  0.50400001928E-02 0.  1.
        1   -1    0    0  501    0  0.00000000000E+00  0.00000000000E+00 -0.17347487283E+04  0.17347487283E+04  0.50400001928E-02 0. -1.
    10030    2    1    2    0    0  0.00000000000E+00  0.00000000000E+00 -0.11656121010E+04  0.23038853556E+04  0.19872685178E+04 0.  0.
        5    1    3    3  502    0 -0.34007507301E+03 -0.93361429599E+03 -0.58223633355E+03  0.11516544391E+04  0.46999998093E+01 0. -1.
       -5    1    3    3    0  502  0.34007507301E+03  0.93361429599E+03 -0.58337576749E+03  0.11522309165E+04  0.46999998093E+01 0.  1.
</event>
<event>
 5   0  0.1281789E-04  0.2008597E+04  0.7818609E-02  0.8602612E-01
        2   -1    0    0  501    0  0.00000000000E+00  0.00000000000E+00  0.14080196713E+04  0.14080196713E+04  0.25500000920E-02 0. -1.
       -2   -1    0    0    0  501  0.00000000000E+00  0.00000000000E+00 -0.71633589202E+03  0.71633589202E+03  0.25500000920E-02 0.  1.
    10030    2    1    2    0    0  0.00000000000E+00  0.00000000000E+00  0.69168377923E+03  0.21243555633E+04  0.20085965520E+04 0.  0.
        2    1    3    3  502    0  0.41104047770E+03 -0.12870322127E+03  0.13053746406E+04  0.13745987581E+04  0.25500000920E-02 0. -1.
       -2    1    3    3    0  502 -0.41104047770E+03  0.12870322127E+03 -0.61369086140E+03  0.74975680513E+03  0.25500000920E-02 0.  1.
</event>
<event>
 5   0  0.1242761E-04  0.2015794E+04  0.7818609E-02  0.8599272E-01
       -2   -1    0    0    0  501  0.00000000000E+00  0.00000000000E+00  0.81988858836E+03  0.81988858837E+03  0.25500000920E-02 0. -1.
        2   -1    0    0  501    0  0.00000000000E+00  0.00000000000E+00 -0.12390169737E+04  0.12390169737E+04  0.25500000920E-02 0.  1.
    10030    2    1    2    0    0  0.00000000000E+00  0.00000000000E+00 -0.41912838535E+03  0.20589055621E+04  0.20157935187E+04 0.  0.
        4    1    3    3  502    0  0.83375672994E+03  0.45190262489E+03  0.13903868847E+03  0.95848820384E+03  0.12699999809E+01 0. -1.
       -4    1    3    3    0  502 -0.83375672994E+03 -0.45190262489E+03 -0.55816707382E+03  0.11004173582E+04  0.12699999809E+01 0.  1.
</event>
<event>
 5   0  0.6028501E-05  0.1808103E+04  0.7818609E-02  0.8702002E-01
       -1   -1    0    0    0  501  0.00000000000E+00  0.00000000000E+00  0.96539148062E+03  0.96539148063E+03  0.50400001928E-02 0. -1.
        1   -1    0    0  501    0  0.00000000000E+00  0.00000000000E+00 -0.84660922752E+03  0.84660922753E+03  0.50400001928E-02 0.  1.
    10030    2    1    2    0    0  0.00000000000E+00  0.00000000000E+00  0.11878225310E+03  0.18120007082E+04  0.18081032445E+04 0.  0.
        4    1    3    3  502    0  0.41452614803E+03  0.25715134430E+03 -0.70339934868E+03  0.85599707821E+03  0.12699999809E+01 0.  1.
       -4    1    3    3    0  502 -0.41452614803E+03 -0.25715134430E+03  0.82218160178E+03  0.95600362995E+03  0.12699999809E+01 0. -1.
</event>
<event>
 5   0  0.1244229E-04  0.2003395E+04  0.7818609E-02  0.8605035E-01
        2   -1    0    0  501    0  0.00000000000E+00  0.00000000000E+00  0.12661617136E+04  0.12661617136E+04  0.25500000920E-02 0. -1.
       -2   -1    0    0    0  501  0.00000000000E+00  0.00000000000E+00 -0.79247179814E+03  0.79247179814E+03  0.25500000920E-02 0.  1.
    10030    2    1    2    0    0  0.00000000000E+00  0.00000000000E+00  0.47368991549E+03  0.20586335118E+04  0.20033945692E+04 0.  0.
        5    1    3    3  502    0 -0.78881367575E+03 -0.40456807920E+03 -0.24235330289E+03  0.91905362149E+03  0.46999998093E+01 0.  1.
       -5    1    3    3    0  502  0.78881367575E+03  0.40456807920E+03  0.71604321838E+03  0.11395798903E+04  0.46999998093E+01 0. -1.
</event>
<event>
 5   0  0.1159914E-04  0.2079011E+04  0.7818609E-02  0.8570546E-01
       -2   -1    0    0    0  501  0.00000000000E+00  0.00000000000E+00  0.67823516635E+03  0.67823516635E+03  0.25500000920E-02 0.  1.
        2   -1    0    0  501    0  0.00000000000E+00  0.00000000000E+00 -0.15932113143E+04  0.15932113143E+04  0.25500000920E-02 0. -1.
    10030    2    1    2    0    0  0.00000000000E+00  0.00000000000E+00 -0.91497614793E+03  0.22714464806E+04  0.20790112465E+04 0.  0.
        3    1    3    3  502    0 -0.33112820182E+03 -0.66717693052E+03  0.33475120123E+03  0.81659617902E+03  0.10100000352E+00 0.  1.
       -3    1    3    3    0  502  0.33112820182E+03  0.66717693052E+03 -0.12497273492E+04  0.14548503016E+04  0.10100000352E+00 0. -1.
</event>
<event>
 5   0  0.1242761E-04  0.2013245E+04  0.7818609E-02  0.8600453E-01
        2   -1    0    0  501    0  0.00000000000E+00  0.00000000000E+00  0.17208564860E+04  0.17208564860E+04  0.25500000920E-02 0.  1.
       -2   -1    0    0    0  501  0.00000000000E+00  0.00000000000E+00 -0.58882810325E+03  0.58882810325E+03  0.25500000920E-02 0. -1.
    10030    2    1    2    0    0  0.00000000000E+00  0.00000000000E+00  0.11320283828E+04  0.23096845893E+04  0.20132448044E+04 0.  0.
        4    1    3    3  502    0 -0.78941676494E+03 -0.59930786728E+03  0.76780635978E+03  0.12537451765E+04  0.12699999809E+01 0.  1.
       -4    1    3    3    0  502  0.78941676494E+03  0.59930786728E+03  0.36422202299E+03  0.10559394128E+04  0.12699999809E+01 0. -1.
</event>
<event>
 5   0  0.6222733E-05  0.2079922E+04  0.7818609E-02  0.8570140E-01
        1   -1    0    0  501    0  0.00000000000E+00  0.00000000000E+00  0.12631478956E+04  0.12631478957E+04  0.50400001928E-02 0. -1.
       -1   -1    0    0    0  501  0.00000000000E+00  0.00000000000E+00 -0.85620922861E+03  0.85620922862E+03  0.50400001928E-02 0.  1.
    10030    2    1    2    0    0  0.00000000000E+00  0.00000000000E+00  0.40693866704E+03  0.21193571243E+04  0.20799220037E+04 0.  0.
        2    1    3    3  502    0 -0.18837170698E+03  0.10017096360E+04 -0.68731911714E+01  0.10192906041E+04  0.25500000920E-02 0.  1.
       -2    1    3    3    0  502  0.18837170698E+03 -0.10017096360E+04  0.41381185821E+03  0.11000665202E+04  0.25500000920E-02 0. -1.
</event>
<event>
 5   0  0.1159914E-04  0.1990484E+04  0.7818609E-02  0.8611083E-01
        2   -1    0    0  501    0  0.00000000000E+00  0.00000000000E+00  0.10151932360E+04  0.10151932360E+04  0.25500000920E-02 0. -1.
       -2   -1    0    0    0  501  0.00000000000E+00  0.00000000000E+00 -0.97568237732E+03  0.97568237732E+03  0.25500000920E-02 0.  1.
    10030    2    1    2    0    0  0.00000000000E+00  0.00000000000E+00  0.39510858681E+02  0.19908756133E+04  0.19904835090E+04 0.  0.
        3    1    3    3  502    0 -0.60864257256E+02  0.78972337562E+03 -0.58297316216E+03  0.98347607282E+03  0.10100000352E+00 0.  1.
       -3    1    3    3    0  502  0.60864257256E+02 -0.78972337562E+03  0.62248402084E+03  0.10073995405E+04  0.10100000352E+00 0. -1.
</event>
<event>
 5   0  0.6168338E-05  0.1897644E+04  0.7818609E-02  0.8656030E-01
        1   -1    0    0  501    0  0.00000000000E+00  0.00000000000E+00  0.94192818162E+03  0.94192818163E+03  0.50400001928E-02 0. -1.
       -1   -1    0    0    0  501  0.00000000000E+00  0.00000000000E+00 -0.95576602440E+03  0.95576602441E+03  0.50400001928E-02 0.  1.
    10030    2    1    2    0    0  0.00000000000E+00  0.00000000000E+00 -0.13837842786E+02  0.18976942060E+04  0.18976437531E+04 0.  0.
        5    1    3    3  502    0 -0.78148630267E+03  0.48516720562E+03 -0.23958968293E+03  0.95054372064E+03  0.46999998093E+01 0.  1.
       -5    1    3    3    0  502  0.78148630267E+03 -0.48516720562E+03  0.22575184014E+03  0.94715048541E+03  0.46999998093E+01 0. -1.
</event>
<event>
 5   0  0.1242761E-04  0.2021873E+04  0.7818609E-02  0.8596462E-01
        2   -1    0    0  501    0  0.00000000000E+00  0.00000000000E+00  0.10312471828E+04  0.10312471829E+04  0.25500000920E-02 0. -1.
       -2   -1    0    0    0  501  0.00000000000E+00  0.00000000000E+00 -0.99102563737E+03  0.99102563737E+03  0.25500000920E-02 0.  1.
    10030    2    1    2    0    0  0.00000000000E+00  0.00000000000E+00  0.40221545477E+02  0.20222728202E+04  0.20218727919E+04 0.  0.
        4    1    3    3  502    0  0.87864278193E+03  0.39709410400E+03 -0.28374847510E+03  0.10050928692E+04  0.12699999809E+01 0. -1.
       -4    1    3    3    0  502 -0.87864278193E+03 -0.39709410400E+03  0.32397002057E+03  0.10171799510E+04  0.12699999809E+01 0.  1.
</event>
<event>
 5   0  0.6256535E-05  0.2015084E+04  0.7818609E-02  0.8599600E-01
        1   -1    0    0  501    0  0.00000000000E+00  0.00000000000E+00  0.12963470448E+04  0.12963470448E+04  0.50400001928E-02 0. -1.
       -1   -1    0    0    0  501  0.00000000000E+00  0.00000000000E+00 -0.78307838573E+03  0.78307838574E+03  0.50400001928E-02 0.  1.
    10030    2    1    2    0    0  0.00000000000E+00  0.00000000000E+00  0.51326865911E+03  0.20794254306E+04  0.20150844660E+04 0.  0.
        1    1    3    3  502    0  0.68331671154E+03 -0.72038834193E+03  0.80116253844E+02  0.99614241232E+03  0.50400001928E-02 0. -1.
       -1    1    3    3    0  502 -0.68331671154E+03  0.72038834193E+03  0.43315240527E+03  0.10832830183E+04  0.50400001928E-02 0.  1.
</event>
<event>
 5   0  0.1244229E-04  0.1987944E+04  0.7818609E-02  0.8612278E-01
        2   -1    0    0  501    0  0.00000000000E+00  0.00000000000E+00  0.94289550981E+03  0.94289550981E+03  0.25500000920E-02 0.  1.
       -2   -1    0    0    0  501  0.00000000000E+00  0.00000000000E+00 -0.10478151855E+04  0.10478151855E+04  0.25500000920E-02 0. -1.
    10030    2    1    2    0    0  0.00000000000E+00  0.00000000000E+00 -0.10491967566E+03  0.19907106953E+04  0.19879438961E+04 0.  0.
        5    1    3    3  502    0  0.60867032329E+03  0.66841161722E+03  0.36127919958E+03  0.97354938371E+03  0.46999998093E+01 0.  1.
       -5    1    3    3    0  502 -0.60867032329E+03 -0.66841161722E+03 -0.46619887524E+03  0.10171613116E+04  0.46999998093E+01 0. -1.
</event>
<event>
 5   0  0.6168338E-05  0.1990844E+04  0.7818609E-02  0.8610913E-01
       -1   -1    0    0    0  501  0.00000000000E+00  0.00000000000E+00  0.14476994895E+04  0.14476994895E+04  0.50400001928E-02 0.  1.
        1   -1    0    0  501    0  0.00000000000E+00  0.00000000000E+00 -0.68444124746E+03  0.68444124748E+03  0.50400001928E-02 0. -1.
    10030    2    1    2    0    0  0.00000000000E+00  0.00000000000E+00  0.76325824207E+03  0.21321407370E+04  0.19908442878E+04 0.  0.
        5    1    3    3  502    0  0.13552072624E+03 -0.94901314669E+01 -0.67445423163E+03  0.68801637364E+03  0.46999998093E+01 0. -1.
       -5    1    3    3    0  502 -0.13552072624E+03  0.94901314669E+01  0.14377124737E+04  0.14441243634E+04  0.46999998093E+01 0.  1.
</event>
<event>
 5   0  0.6168338E-05  0.2001596E+04  0.7818609E-02  0.8605875E-01
        1   -1    0    0  501    0  0.00000000000E+00  0.00000000000E+00  0.85245187458E+03  0.85245187460E+03  0.50400001928E-02 0. -1.
       -1   -1    0    0    0  501  0.00000000000E+00  0.00000000000E+00 -0.11749595580E+04  0.11749595580E+04  0.50400001928E-02 0.  1.
    10030    2    1    2    0    0  0.00000000000E+00  0.00000000000E+00 -0.32250768339E+03  0.20274114326E+04  0.20015958411E+04 0.  0.
        5    1    3    3  502    0 -0.84380716703E+02 -0.52598818248E+03  0.69689855367E+03  0.87719630504E+03  0.46999998093E+01 0. -1.
       -5    1    3    3    0  502  0.84380716703E+02  0.52598818248E+03 -0.10194062371E+04  0.11502151275E+04  0.46999998093E+01 0.  1.
</event>
<event>
 5   0  0.1244229E-04  0.2005417E+04  0.7818609E-02  0.8604092E-01
        2   -1    0    0  501    0  0.00000000000E+00  0.00000000000E+00  0.22503880614E+04  0.22503880614E+04  0.25500000920E-02 0.  1.
       -2   -1    0    0    0  501  0.00000000000E+00  0.00000000000E+00 -0.44677801017E+03  0.44677801017E+03  0.25500000920E-02 0. -1.
    10030    2    1    2    0    0  0.00000000000E+00  0.00000000000E+00  0.18036100512E+04  0.26971660716E+04  0.20054165654E+04 0.  0.
        5    1    3    3  502    0  0.24506566547E+03  0.34152532761E+02  0.22086680853E+04  0.22224896798E+04  0.46999998093E+01 0.  1.
       -5    1    3    3    0  502 -0.24506566547E+03 -0.34152532761E+02 -0.40505803409E+03  0.47467639173E+03  0.46999998093E+01 0. -1.
</event>
<event>
 5   0  0.6028501E-05  0.1972360E+04  0.7818609E-02  0.8619654E-01
       -1   -1    0    0    0  501  0.00000000000E+00  0.00000000000E+00  0.11710900038E+04  0.11710900038E+04  0.50400001928E-02 0.  1.
        1   -1    0    0  501    0  0.00000000000E+00  0.00000000000E+00 -0.83046610411E+03  0.83046610413E+03  0.50400001928E-02 0. -1.
    10030    2    1    2    0    0  0.00000000000E+00  0.00000000000E+00  0.34062389970E+03  0.20015561080E+04  0.19723595545E+04 0.  0.
        4    1    3    3  502    0 -0.22599645586E+03 -0.75462359987E+03 -0.43178159482E+03  0.89831405092E+03  0.12699999809E+01 0. -1.
       -4    1    3    3    0  502  0.22599645586E+03  0.75462359987E+03  0.77240549452E+03  0.11032420570E+04  0.12699999809E+01 0.  1.
</event>
<event>
 5   0  0.6028501E-05  0.2058211E+04  0.7818609E-02  0.8579878E-01
        1   -1    0    0  501    0  0.00000000000E+00  0.00000000000E+00  0.18484068769E+04  0.18484068769E+04  0.50400001928E-02 0. -1.
       -1   -1    0    0    0  501  0.00000000000E+00  0.00000000000E+00 -0.57295740433E+03  0.57295740435E+03  0.50400001928E-02 0.  1.
    10030    2    1    2    0    0  0.00000000000E+00  0.00000000000E+00  0.12754494726E+04  0.24213642813E+04  0.20582112684E+04 0.  0.
        4    1    3    3  502    0  0.99967109917E+03  0.23589916257E+03  0.56270807773E+03  0.11711672447E+04  0.12699999809E+01 0. -1.
       -4    1    3    3    0  502 -0.99967109917E+03 -0.23589916257E+03  0.71274139486E+03  0.12501970366E+04  0.12699999809E+01 0.  1.
</event>
<event>
 5   0  0.6168338E-05  0.2087368E+04  0.7818609E-02  0.8566828E-01
        1   -1    0    0  501    0  0.00000000000E+00  0.00000000000E+00  0.14057068501E+04  0.14057068501E+04  0.50400001928E-02 0.  1.
       -1   -1    0    0    0  501  0.00000000000E+00  0.00000000000E+00 -0.77489603444E+03  0.77489603445E+03  0.50400001928E-02 0. -1.
    10030    2    1    2    0    0  0.00000000000E+00  0.00000000000E+00  0.63081081568E+03  0.21806028846E+04  0.20873683563E+04 0.  0.
        5    1    3    3  502    0 -0.79708693307E+03  0.12056145902E+03  0.10078637322E+04  0.12906176959E+04  0.46999998093E+01 0.  1.
       -5    1    3    3    0  502  0.79708693307E+03 -0.12056145902E+03 -0.37705291649E+03  0.88998518870E+03  0.46999998093E+01 0. -1.
</event>
<event>
 5   0  0.6028501E-05  0.1910195E+04  0.7818609E-02  0.8649798E-01
        1   -1    0    0  501    0  0.00000000000E+00  0.00000000000E+00  0.20676605465E+04  0.20676605465E+04  0.50400001928E-02 0. -1.
       -1   -1    0    0    0  501  0.00000000000E+00  0.00000000000E+00 -0.44118017804E+03  0.44118017806E+03  0.50400001928E-02 0.  1.
    10030    2    1    2    0    0  0.00000000000E+00  0.00000000000E+00  0.16264803685E+04  0.25088407246E+04  0.19101945954E+04 0.  0.
        4    1    3    3  502    0  0.24383553474E+03  0.26161919133E+03  0.19763990651E+04  0.20084957672E+04  0.12699999809E+01 0. -1.
       -4    1    3    3    0  502 -0.24383553474E+03 -0.26161919133E+03 -0.34991869662E+03  0.50034495742E+03  0.12699999809E+01 0.  1.
</event>
<event>
 5   0  0.6028501E-05  0.2002127E+04  0.7818609E-02  0.8605627E-01
        1   -1    0    0  501    0  0.00000000000E+00  0.00000000000E+00  0.11319795753E+04  0.11319795753E+04  0.50400001928E-02 0.  1.
       -1   -1    0    0    0  501  0.00000000000E+00  0.00000000000E+00 -0.88528839246E+03  0.88528839247E+03  0.50400001928E-02 0. -1.
    10030    2    1    2    0    0  0.00000000000E+00  0.00000000000E+00  0.24669118282E+03  0.20172679678E+04  0.20021272472E+04 0.  0.
        4    1    3    3  502    0  0.27061698683E+03 -0.18303001386E+03 -0.83006246755E+03  0.89204195668E+03  0.12699999809E+01 0. -1.
       -4    1    3    3    0  502 -0.27061698683E+03  0.18303001386E+03  0.10767536504E+04  0.11252260111E+04  0.12699999809E+01 0.  1.
</event>
<event>
 5   0  0.6028501E-05  0.2109000E+04  0.7818609E-02  0.8557289E-01
        1   -1    0    0  501    0  0.00000000000E+00  0.00000000000E+00  0.10211205503E+04  0.10211205503E+04  0.50400001928E-02 0.  1.
       -1   -1    0    0    0  501  0.00000000000E+00  0.00000000000E+00 -0.10889709006E+04  0.10889709006E+04  0.50400001928E-02 0. -1.
    10030    2    1    2    0    0  0.00000000000E+00  0.00000000000E+00 -0.67850350288E+02  0.21100914508E+04  0.21090002989E+04 0.  0.
        4    1    3    3  502    0  0.69710209241E+03  0.54496023211E+03  0.53998817284E+03  0.10365914439E+04  0.12699999809E+01 0.  1.
       -4    1    3    3    0  502 -0.69710209241E+03 -0.54496023211E+03 -0.60783852313E+03  0.10735000070E+04  0.12699999809E+01 0. -1.
</event>
<event>
 5   0  0.6256535E-05  0.1995404E+04  0.7818609E-02  0.8608772E-01
       -1   -1    0    0    0  501  0.00000000000E+00  0.00000000000E+00  0.14617553161E+04  0.14617553161E+04  0.50400001928E-02 0. -1.
        1   -1    0    0  501    0  0.00000000000E+00  0.00000000000E+00 -0.68096874316E+03  0.68096874318E+03  0.50400001928E-02 0.  1.
    10030    2    1    2    0    0  0.00000000000E+00  0.00000000000E+00  0.78078657290E+03  0.21427240593E+04  0.19954044005E+04 0.  0.
        1    1    3    3  502    0 -0.44302935261E+03 -0.22522486343E+03 -0.53858306164E+03  0.73285261867E+03  0.50400001928E-02 0.  1.
       -1    1    3    3    0  502  0.44302935261E+03  0.22522486343E+03  0.13193696345E+04  0.14098714406E+04  0.50400001928E-02 0. -1.
</event>
<event>
 5   0  0.1281789E-04  0.1996186E+04  0.7818609E-02  0.8608406E-01
        2   -1    0    0  501    0  0.00000000000E+00  0.00000000000E+00  0.11001938738E+04  0.11001938738E+04  0.25500000920E-02 0. -1.
       -2   -1    0    0    0  501  0.00000000000E+00  0.00000000000E+00 -0.90546706391E+03  0.90546706392E+03  0.25500000920E-02 0.  1.
    10030    2    1    2    0    0  0.00000000000E+00  0.00000000000E+00  0.19472680985E+03  0.20056609377E+04  0.19961856794E+04 0.  0.
        2    1    3    3  502    0 -0.30959582231E+03 -0.64637565104E+03  0.79531042615E+03  0.10705931671E+04  0.25500000920E-02 0. -1.
       -2    1    3    3    0  502  0.30959582231E+03  0.64637565104E+03 -0.60058361630E+03  0.93506777061E+03  0.25500000920E-02 0.  1.
</event>
<event>
 5   0  0.6256535E-05  0.1989396E+04  0.7818609E-02  0.8611595E-01
        1   -1    0    0  501    0  0.00000000000E+00  0.00000000000E+00  0.14719406890E+04  0.14719406890E+04  0.50400001928E-02 0.  1.
       -1   -1    0    0    0  501  0.00000000000E+00  0.00000000000E+00 -0.67219014151E+03  0.67219014153E+03  0.50400001928E-02 0. -1.
    10030    2    1    2    0    0  0.00000000000E+00  0.00000000000E+00  0.79975054752E+03  0.21441308306E+04  0.19893959084E+04 0.  0.
        1    1    3    3  502    0 -0.46093201531E+03  0.42551315494E+03 -0.43211510382E+03  0.76173698266E+03  0.50400001928E-02 0. -1.
       -1    1    3    3    0  502  0.46093201531E+03 -0.42551315494E+03  0.12318656513E+04  0.13823938479E+04  0.50400001928E-02 0.  1.
</event>
<event>
 5   0  0.6028501E-05  0.1995898E+04  0.7818609E-02  0.8608541E-01
        1   -1    0    0  501    0  0.00000000000E+00  0.00000000000E+00  0.83695898515E+03  0.83695898516E+03  0.50400001928E-02 0. -1.
       -1   -1    0    0    0  501  0.00000000000E+00  0.00000000000E+00 -0.11899060897E+04  0.11899060897E+04  0.50400001928E-02 0.  1.
    10030    2    1    2    0    0  0.00000000000E+00  0.00000000000E+00 -0.35294710452E+03  0.20268650748E+04  0.19958983875E+04 0.  0.
        4    1    3    3  502    0 -0.26857546025E+03  0.25163909158E+03  0.76552061684E+03  0.84939886859E+03  0.12699999809E+01 0. -1.
       -4    1    3    3    0  502  0.26857546025E+03 -0.25163909158E+03 -0.11184677214E+04  0.11774662063E+04  0.12699999809E+01 0.  1.
</event>
<event>
 5   0  0.1244229E-04  0.1973341E+04  0.7818609E-02  0.8619187E-01
        2   -1    0    0  501    0  0.00000000000E+00  0.00000000000E+00  0.14784393638E+04  0.14784393638E+04  0.25500000920E-02 0.  1.
       -2   -1    0    0    0  501  0.00000000000E+00  0.00000000000E+00 -0.65847756693E+03  0.65847756693E+03  0.25500000920E-02 0. -1.
    10030    2    1    2    0    0  0.00000000000E+00  0.00000000000E+00  0.81996179685E+03  0.21369169307E+04  0.19733414860E+04 0.  0.
        5    1    3    3  502    0  0.73048418638E+03 -0.56789997172E+02  0.11255630395E+04  0.13430362975E+04  0.46999998093E+01 0.  1.
       -5    1    3    3    0  502 -0.73048418638E+03  0.56789997172E+02 -0.30560124268E+03  0.79388063325E+03  0.46999998093E+01 0. -1.
</event>
<event>
 5   0  0.1244229E-04  0.2019756E+04  0.7818609E-02  0.8597439E-01
        2   -1    0    0  501    0  0.00000000000E+00  0.00000000000E+00  0.11783547324E+04  0.11783547324E+04  0.25500000920E-02 0. -1.
       -2   -1    0    0    0  501  0.00000000000E+00  0.00000000000E+00 -0.86548978554E+03  0.86548978554E+03  0.25500000920E-02 0.  1.
    10030    2    1    2    0    0  0.00000000000E+00  0.00000000000E+00  0.31286494689E+03  0.20438445180E+04  0.20197564058E+04 0.  0.
        5    1    3    3  502    0 -0.29539514672E+03 -0.94467064067E+03  0.35924981591E+03  0.10529688658E+04  0.46999998093E+01 0. -1.
       -5    1    3    3    0  502  0.29539514672E+03  0.94467064067E+03 -0.46384869022E+02  0.99087565220E+03  0.46999998093E+01 0.  1.
</event>
<event>
 5   0  0.6214547E-05  0.1974381E+04  0.7818609E-02  0.8618693E-01
        1   -1    0    0  501    0  0.00000000000E+00  0.00000000000E+00  0.16916536442E+04  0.16916536442E+04  0.50400001928E-02 0. -1.
       -1   -1    0    0    0  501  0.00000000000E+00  0.00000000000E+00 -0.57609037243E+03  0.57609037246E+03  0.50400001928E-02 0.  1.
    10030    2    1    2    0    0  0.00000000000E+00  0.00000000000E+00  0.11155632718E+04  0.22677440167E+04  0.19743812985E+04 0.  0.
        3    1    3    3  502    0  0.95650526319E+03  0.21529172109E+03  0.42535762760E+03  0.10687291356E+04  0.10100000352E+00 0.  1.
       -3    1    3    3    0  502 -0.95650526319E+03 -0.21529172109E+03  0.69020564420E+03  0.11990148811E+04  0.10100000352E+00 0. -1.
</event>
<event>
 5   0  0.6028501E-05  0.2015012E+04  0.7818609E-02  0.8599634E-01
       -1   -1    0    0    0  501  0.00000000000E+00  0.00000000000E+00  0.83615974275E+03  0.83615974276E+03  0.50400001928E-02 0.  1.
        1   -1    0    0  501    0  0.00000000000E+00  0.00000000000E+00 -0.12139645641E+04  0.12139645642E+04  0.50400001928E-02 0. -1.
    10030    2    1    2    0    0  0.00000000000E+00  0.00000000000E+00 -0.37780482139E+03  0.20501243069E+04  0.20150119580E+04 0.  0.
        4    1    3    3  502    0  0.86640396520E+03 -0.35527192485E+03  0.18931815422E+03  0.95536220771E+03  0.12699999809E+01 0. -1.
       -4    1    3    3    0  502 -0.86640396520E+03  0.35527192485E+03 -0.56712297562E+03  0.10947620992E+04  0.12699999809E+01 0.  1.
</event>
<event>
 5   0  0.6028501E-05  0.2014135E+04  0.7818609E-02  0.8600041E-01
        1   -1    0    0  501    0  0.00000000000E+00  0.00000000000E+00  0.13617948790E+04  0.13617948790E+04  0.50400001928E-02 0. -1.
       -1   -1    0    0    0  501  0.00000000000E+00  0.00000000000E+00 -0.74474118624E+03  0.74474118626E+03  0.50400001928E-02 0.  1.
    10030    2    1    2    0    0  0.00000000000E+00  0.00000000000E+00  0.61705369275E+03  0.21065360653E+04  0.20141347856E+04 0.  0.
        4    1    3    3  502    0 -0.85290378046E+03  0.46718967131E+03  0.58220309431E+03  0.11334342079E+04  0.12699999809E+01 0. -1.
       -4    1    3    3    0  502  0.85290378046E+03 -0.46718967131E+03  0.34850598435E+02  0.97310185737E+03  0.12699999809E+01 0.  1.
</event>
<event>
 5   0  0.1242761E-04  0.1955461E+04  0.7818609E-02  0.8627732E-01
        2   -1    0    0  501    0  0.00000000000E+00  0.00000000000E+00  0.13629183902E+04  0.13629183902E+04  0.25500000920E-02 0.  1.
       -2   -1    0    0    0  501  0.00000000000E+00  0.00000000000E+00 -0.70140454299E+03  0.70140454299E+03  0.25500000920E-02 0. -1.
    10030    2    1    2    0    0  0.00000000000E+00  0.00000000000E+00  0.66151384720E+03  0.20643229332E+04  0.19554612250E+04 0.  0.
        4    1    3    3  502    0 -0.66793654604E+03 -0.71262041838E+03  0.28368244806E+03  0.10170764153E+04  0.12699999809E+01 0.  1.
       -4    1    3    3    0  502  0.66793654604E+03  0.71262041838E+03  0.37783139914E+03  0.10472465179E+04  0.12699999809E+01 0. -1.
</event>
<event>
 5   0  0.4479000E-05  0.2009797E+04  0.7818609E-02  0.8602054E-01
        3   -1    0    0  501    0  0.00000000000E+00  0.00000000000E+00  0.76638175127E+03  0.76638175793E+03  0.10100000352E+00 0.  1.
       -3   -1    0    0    0  501  0.00000000000E+00  0.00000000000E+00 -0.13176478564E+04  0.13176478603E+04  0.10100000352E+00 0. -1.
    10030    2    1    2    0    0  0.00000000000E+00  0.00000000000E+00 -0.55126610516E+03  0.20840296182E+04  0.20097972860E+04 0.  0.
        5    1    3    3  502    0 -0.43149886846E+03 -0.90752588085E+03 -0.27787984409E+03  0.10426091289E+04  0.46999998093E+01 0.  1.
       -5    1    3    3    0  502  0.43149886846E+03  0.90752588085E+03 -0.27338626107E+03  0.10414204893E+04  0.46999998093E+01 0. -1.
</event>
<event>
 5   0  0.6214547E-05  0.1909819E+04  0.7818609E-02  0.8649984E-01
       -1   -1    0    0    0  501  0.00000000000E+00  0.00000000000E+00  0.93512954309E+03  0.93512954311E+03  0.50400001928E-02 0.  1.
        1   -1    0    0  501    0  0.00000000000E+00  0.00000000000E+00 -0.97510795904E+03  0.97510795905E+03  0.50400001928E-02 0. -1.
    10030    2    1    2    0    0  0.00000000000E+00  0.00000000000E+00 -0.39978415946E+02  0.19102375022E+04  0.19098191121E+04 0.  0.
        3    1    3    3  502    0  0.11895844779E+03 -0.55492947307E+03 -0.78811214387E+03  0.97119441612E+03  0.10100000352E+00 0. -1.
       -3    1    3    3    0  502 -0.11895844779E+03  0.55492947307E+03  0.74813372792E+03  0.93904308604E+03  0.10100000352E+00 0.  1.
</event>
<event>
 5   0  0.1281789E-04  0.2023889E+04  0.7818609E-02  0.8595533E-01
        2   -1    0    0  501    0  0.00000000000E+00  0.00000000000E+00  0.22741321265E+04  0.22741321265E+04  0.25500000920E-02 0.  1.
       -2   -1    0    0    0  501  0.00000000000E+00  0.00000000000E+00 -0.45029549234E+03  0.45029549235E+03  0.25500000920E-02 0. -1.
    10030    2    1    2    0    0  0.00000000000E+00  0.00000000000E+00  0.18238366341E+04  0.27244276188E+04  0.20238887771E+04 0.  0.
        2    1    3    3  502    0 -0.37467376302E+03 -0.79772396825E+02  0.21727571418E+04  0.22062678127E+04  0.25500000920E-02 0.  1.
       -2    1    3    3    0  502  0.37467376302E+03  0.79772396825E+02 -0.34892050770E+03  0.51815980613E+03  0.25500000920E-02 0. -1.
</event>
<event>
 5   0  0.1244229E-04  0.2000935E+04  0.7818609E-02  0.8606183E-01
       -2   -1    0    0    0  501  0.00000000000E+00  0.00000000000E+00  0.82100594273E+03  0.82100594274E+03  0.25500000920E-02 0. -1.
        2   -1    0    0  501    0  0.00000000000E+00  0.00000000000E+00 -0.12191575056E+04  0.12191575056E+04  0.25500000920E-02 0.  1.
    10030    2    1    2    0    0  0.00000000000E+00  0.00000000000E+00 -0.39815156282E+03  0.20401634483E+04  0.20009353385E+04 0.  0.
        5    1    3    3  502    0  0.19285304581E+03 -0.37221536021E+03  0.72712562866E+03  0.83932731488E+03  0.46999998093E+01 0. -1.
       -5    1    3    3    0  502 -0.19285304581E+03  0.37221536021E+03 -0.11252771915E+04  0.12008361334E+04  0.46999998093E+01 0.  1.
</event>
<event>
 5   0  0.1159914E-04  0.2017375E+04  0.7818609E-02  0.8598540E-01
       -2   -1    0    0    0  501  0.00000000000E+00  0.00000000000E+00  0.51379336679E+03  0.51379336680E+03  0.25500000920E-02 0.  1.
        2   -1    0    0  501    0  0.00000000000E+00  0.00000000000E+00 -0.19802722617E+04  0.19802722617E+04  0.25500000920E-02 0. -1.
    10030    2    1    2    0    0  0.00000000000E+00  0.00000000000E+00 -0.14664788950E+04  0.24940656285E+04  0.20173752775E+04 0.  0.
        3    1    3    3  502    0  0.51190177026E+03  0.42277317788E+03 -0.16720650455E+04  0.17990503353E+04  0.10100000352E+00 0. -1.
       -3    1    3    3    0  502 -0.51190177026E+03 -0.42277317788E+03  0.20558615056E+03  0.69501529324E+03  0.10100000352E+00 0.  1.
</event>
<event>
 5   0  0.6222733E-05  0.1995071E+04  0.7818609E-02  0.8608929E-01
       -1   -1    0    0    0  501  0.00000000000E+00  0.00000000000E+00  0.10614238161E+04  0.10614238161E+04  0.50400001928E-02 0.  1.
        1   -1    0    0  501    0  0.00000000000E+00  0.00000000000E+00 -0.93749285495E+03  0.93749285496E+03  0.50400001928E-02 0. -1.
    10030    2    1    2    0    0  0.00000000000E+00  0.00000000000E+00  0.12393096110E+03  0.19989166710E+04  0.19950711703E+04 0.  0.
        2    1    3    3  502    0  0.77237242728E+03 -0.90740209756E+02  0.68789701666E+03  0.10382655044E+04  0.25500000920E-02 0.  1.
       -2    1    3    3    0  502 -0.77237242728E+03  0.90740209756E+02 -0.56396605556E+03  0.96065116662E+03  0.25500000920E-02 0. -1.
</event>
<event>
 5   0  0.1159914E-04  0.1977534E+04  0.7818609E-02  0.8617197E-01
       -2   -1    0    0    0  501  0.00000000000E+00  0.00000000000E+00  0.11921053834E+04  0.11921053834E+04  0.25500000920E-02 0. -1.
        2   -1    0    0  501    0  0.00000000000E+00  0.00000000000E+00 -0.82011227137E+03  0.82011227138E+03  0.25500000920E-02 0.  1.
    10030    2    1    2    0    0  0.00000000000E+00  0.00000000000E+00  0.37199311207E+03  0.20122176548E+04  0.19775340743E+04 0.  0.
        3    1    3    3  502    0 -0.93323442726E+03 -0.21215878104E+03  0.43879382527E+03  0.10528427593E+04  0.10100000352E+00 0. -1.
       -3    1    3    3    0  502  0.93323442726E+03  0.21215878104E+03 -0.66800713207E+02  0.95937489548E+03  0.10100000352E+00 0.  1.
</event>
<event>
 5   0  0.6168338E-05  0.1930113E+04  0.7818609E-02  0.8640011E-01
       -1   -1    0    0    0  501  0.00000000000E+00  0.00000000000E+00  0.11925817516E+04  0.11925817516E+04  0.50400001928E-02 0. -1.
        1   -1    0    0  501    0  0.00000000000E+00  0.00000000000E+00 -0.78093919939E+03  0.78093919940E+03  0.50400001928E-02 0.  1.
    10030    2    1    2    0    0  0.00000000000E+00  0.00000000000E+00  0.41164255222E+03  0.19735209510E+04  0.19301127825E+04 0.  0.
        5    1    3    3  502    0  0.53375701472E+03  0.63271752998E+03 -0.30140354802E+03  0.88096209468E+03  0.46999998093E+01 0.  1.
       -5    1    3    3    0  502 -0.53375701472E+03 -0.63271752998E+03  0.71304610024E+03  0.10925588563E+04  0.46999998093E+01 0. -1.
</event>
<event>
 5   0  0.6214547E-05  0.1988498E+04  0.7818609E-02  0.8612017E-01
        1   -1    0    0  501    0  0.00000000000E+00  0.00000000000E+00  0.76644304871E+03  0.76644304873E+03  0.50400001928E-02 0.  1.
       -1   -1    0    0    0  501  0.00000000000E+00  0.00000000000E+00 -0.12897647401E+04  0.12897647401E+04  0.50400001928E-02 0. -1.
    10030    2    1    2    0    0  0.00000000000E+00  0.00000000000E+00 -0.52332169137E+03  0.20562077888E+04  0.19884981464E+04 0.  0.
        3    1    3    3  502    0  0.42572146297E+03  0.85614578283E+03  0.20213932211E+02  0.95636445916E+03  0.10100000352E+00 0.  1.
       -3    1    3    3    0  502 -0.42572146297E+03 -0.85614578283E+03 -0.54353562358E+03  0.10998433297E+04  0.10100000352E+00 0. -1.
</event>
<event>
 5   0  0.6028501E-05  0.1999402E+04  0.7818609E-02  0.8606900E-01
        1   -1    0    0  501    0  0.00000000000E+00  0.00000000000E+00  0.13124759946E+04  0.13124759946E+04  0.50400001928E-02 0. -1.
       -1   -1    0    0    0  501  0.00000000000E+00  0.00000000000E+00 -0.76146335014E+03  0.76146335016E+03  0.50400001928E-02 0.  1.
    10030    2    1    2    0    0  0.00000000000E+00  0.00000000000E+00  0.55101264445E+03  0.20739393448E+04  0.19994022785E+04 0.  0.
        4    1    3    3  502    0 -0.53476171012E+03 -0.44601462566E+03 -0.46852161349E+03  0.83929330280E+03  0.12699999809E+01 0.  1.
       -4    1    3    3    0  502  0.53476171012E+03  0.44601462566E+03  0.10195342579E+04  0.12346460420E+04  0.12699999809E+01 0. -1.
</event>
<event>
 5   0  0.1242761E-04  0.1966447E+04  0.7818609E-02  0.8622470E-01
       -2   -1    0    0    0  501  0.00000000000E+00  0.00000000000E+00  0.39588483406E+03  0.39588483407E+03  0.25500000920E-02 0.  1.
        2   -1    0    0  501    0  0.00000000000E+00  0.00000000000E+00 -0.24419446934E+04  0.24419446934E+04  0.25500000920E-02 0. -1.
    10030    2    1    2    0    0  0.00000000000E+00  0.00000000000E+00 -0.20460598594E+04  0.28378295275E+04  0.19664474260E+04 0.  0.
        4    1    3    3  502    0  0.54368939015E+03  0.31437819380E+03 -0.21147570824E+04  0.22060441818E+04  0.12699999809E+01 0. -1.
       -4    1    3    3    0  502 -0.54368939015E+03 -0.31437819380E+03  0.68697223004E+02  0.63178534571E+03  0.12699999809E+01 0.  1.
</event>
<event>
 5   0  0.6028501E-05  0.1990377E+04  0.7818609E-02  0.8611133E-01
        1   -1    0    0  501    0  0.00000000000E+00  0.00000000000E+00  0.14132221131E+04  0.14132221131E+04  0.50400001928E-02 0. -1.
       -1   -1    0    0    0  501  0.00000000000E+00  0.00000000000E+00 -0.70081004504E+03  0.70081004506E+03  0.50400001928E-02 0.  1.
    10030    2    1    2    0    0  0.00000000000E+00  0.00000000000E+00  0.71241206809E+03  0.21140321582E+04  0.19903771027E+04 0.  0.
        4    1    3    3  502    0 -0.98726156132E+03  0.21969338177E+02  0.22512655869E+03  0.10128433357E+04  0.12699999809E+01 0. -1.
       -4    1    3    3    0  502  0.98726156132E+03 -0.21969338177E+02  0.48728550941E+03  0.11011888225E+04  0.12699999809E+01 0.  1.
</event>
<event>
 5   0  0.1244229E-04  0.2004170E+04  0.7818609E-02  0.8604674E-01
       -2   -1    0    0    0  501  0.00000000000E+00  0.00000000000E+00  0.94943868192E+03  0.94943868192E+03  0.25500000920E-02 0. -1.
        2   -1    0    0  501    0  0.00000000000E+00  0.00000000000E+00 -0.10576503922E+04  0.10576503922E+04  0.25500000920E-02 0.  1.
    10030    2    1    2    0    0  0.00000000000E+00  0.00000000000E+00 -0.10821171028E+03  0.20070890741E+04  0.20041698474E+04 0.  0.
        5    1    3    3  502    0 -0.97730151285E+03  0.87167947036E+02 -0.25795973045E+03  0.10145352683E+04  0.46999998093E+01 0.  1.
       -5    1    3    3    0  502  0.97730151285E+03 -0.87167947036E+02  0.14974802017E+03  0.99255380587E+03  0.46999998093E+01 0. -1.
</event>
<event>
 5   0  0.6214547E-05  0.1981714E+04  0.7818609E-02  0.8615218E-01
        1   -1    0    0  501    0  0.00000000000E+00  0.00000000000E+00  0.54246920051E+03  0.54246920053E+03  0.50400001928E-02 0. -1.
       -1   -1    0    0    0  501  0.00000000000E+00  0.00000000000E+00 -0.18098686116E+04  0.18098686116E+04  0.50400001928E-02 0.  1.
    10030    2    1    2    0    0  0.00000000000E+00  0.00000000000E+00 -0.12673994111E+04  0.23523378122E+04  0.19817143879E+04 0.  0.
        3    1    3    3  502    0  0.95358391723E+02  0.66770604810E+03  0.22791232639E+03  0.71194706844E+03  0.10100000352E+00 0. -1.
       -3    1    3    3    0  502 -0.95358391723E+02 -0.66770604810E+03 -0.14953117375E+04  0.16403907437E+04  0.10100000352E+00 0.  1.
</event>
<event>
 5   0  0.1281789E-04  0.1976333E+04  0.7818609E-02  0.8617766E-01
       -2   -1    0    0    0  501  0.00000000000E+00  0.00000000000E+00  0.62718510573E+03  0.62718510573E+03  0.25500000920E-02 0. -1.
        2   -1    0    0  501    0  0.00000000000E+00  0.00000000000E+00 -0.15569141309E+04  0.15569141309E+04  0.25500000920E-02 0.  1.
    10030    2    1    2    0    0  0.00000000000E+00  0.00000000000E+00 -0.92972902518E+03  0.21840992366E+04  0.19763333259E+04 0.  0.
        2    1    3    3  502    0  0.15898502157E+03 -0.15731184048E+03 -0.15285743843E+04  0.15448504460E+04  0.25500000920E-02 0.  1.
       -2    1    3    3    0  502 -0.15898502157E+03  0.15731184048E+03  0.59884535909E+03  0.63924879065E+03  0.25500000920E-02 0. -1.
</event>
<event>
 5   0  0.1242761E-04  0.2004024E+04  0.7818609E-02  0.8604742E-01
        2   -1    0    0  501    0  0.00000000000E+00  0.00000000000E+00  0.12009400684E+04  0.12009400685E+04  0.25500000920E-02 0. -1.
       -2   -1    0    0    0  501  0.00000000000E+00  0.00000000000E+00 -0.83603499102E+03  0.83603499102E+03  0.25500000920E-02 0.  1.
    10030    2    1    2    0    0  0.00000000000E+00  0.00000000000E+00  0.36490507743E+03  0.20369750595E+04  0.20040238715E+04 0.  0.
        4    1    3    3  502    0  0.75541394619E+03  0.64596449095E+03  0.31144847584E+03  0.10415959484E+04  0.12699999809E+01 0. -1.
       -4    1    3    3    0  502 -0.75541394619E+03 -0.64596449095E+03  0.53456601586E+02  0.99537911110E+03  0.12699999809E+01 0.  1.
</event>
<event>
 5   0  0.1281789E-04  0.2059394E+04  0.7818609E-02  0.8579344E-01
       -2   -1    0    0    0  501  0.00000000000E+00  0.00000000000E+00  0.49047426278E+03  0.49047426278E+03  0.25500000920E-02 0.  1.
        2   -1    0    0  501    0  0.00000000000E+00  0.00000000000E+00 -0.21617367358E+04  0.21617367358E+04  0.25500000920E-02 0. -1.
    10030    2    1    2    0    0  0.00000000000E+00  0.00000000000E+00 -0.16712624730E+04  0.26522109986E+04  0.20593943108E+04 0.  0.
        2    1    3    3  502    0 -0.91361977372E+03  0.28112048013E+03 -0.34262074125E+03  0.10154401940E+04  0.25500000920E-02 0.  1.
       -2    1    3    3    0  502  0.91361977372E+03 -0.28112048013E+03 -0.13286417318E+04  0.16367708046E+04  0.25500000920E-02 0. -1.
</event>
<event>
 5   0  0.6028501E-05  0.2007142E+04  0.7818609E-02  0.8603289E-01
       -1   -1    0    0    0  501  0.00000000000E+00  0.00000000000E+00  0.43722040580E+03  0.43722040583E+03  0.50400001928E-02 0. -1.
        1   -1    0    0  501    0  0.00000000000E+00  0.00000000000E+00 -0.23035392720E+04  0.23035392720E+04  0.50400001928E-02 0.  1.
    10030    2    1    2    0    0  0.00000000000E+00  0.00000000000E+00 -0.18663188662E+04  0.27407596779E+04  0.20071416246E+04 0.  0.
        4    1    3    3  502    0 -0.84866591613E+03 -0.31080536671E+03 -0.15288681491E+04  0.17760273769E+04  0.12699999809E+01 0.  1.
       -4    1    3    3    0  502  0.84866591613E+03  0.31080536671E+03 -0.33745071712E+03  0.96473230098E+03  0.12699999809E+01 0. -1.
</event>
<event>
 5   0  0.1244229E-04  0.2005475E+04  0.7818609E-02  0.8604065E-01
       -2   -1    0    0    0  501  0.00000000000E+00  0.00000000000E+00  0.86884428525E+03  0.86884428525E+03  0.25500000920E-02 0. -1.
        2   -1    0    0  501    0  0.00000000000E+00  0.00000000000E+00 -0.11572640361E+04  0.11572640361E+04  0.25500000920E-02 0.  1.
    10030    2    1    2    0    0  0.00000000000E+00  0.00000000000E+00 -0.28841975082E+03  0.20261083213E+04  0.20054747510E+04 0.  0.
        5    1    3    3  502    0  0.65124930888E+03  0.14278764767E+03  0.61245932883E+03  0.90534109269E+03  0.46999998093E+01 0. -1.
       -5    1    3    3    0  502 -0.65124930888E+03 -0.14278764767E+03 -0.90087907965E+03  0.11207672286E+04  0.46999998093E+01 0.  1.
</event>
<event>
 5   0  0.6222733E-05  0.1875045E+04  0.7818609E-02  0.8667379E-01
        1   -1    0    0  501    0  0.00000000000E+00  0.00000000000E+00  0.54523535944E+03  0.54523535947E+03  0.50400001928E-02 0.  1.
       -1   -1    0    0    0  501  0.00000000000E+00  0.00000000000E+00 -0.16120529294E+04  0.16120529294E+04  0.50400001928E-02 0. -1.
    10030    2    1    2    0    0  0.00000000000E+00  0.00000000000E+00 -0.10668175699E+04  0.21572882888E+04  0.18750448084E+04 0.  0.
        2    1    3    3  502    0 -0.32536840764E+02  0.91581780143E+03 -0.76110652694E+03  0.11912447426E+04  0.25500000920E-02 0. -1.
       -2    1    3    3    0  502  0.32536840764E+02 -0.91581780143E+03 -0.30571104300E+03  0.96604354625E+03  0.25500000920E-02 0.  1.
</event>
<event>
 5   0  0.6256535E-05  0.2012634E+04  0.7818609E-02  0.8600736E-01
       -1   -1    0    0    0  501  0.00000000000E+00  0.00000000000E+00  0.53475838877E+03  0.53475838880E+03  0.50400001928E-02 0.  1.
        1   -1    0    0  501    0  0.00000000000E+00  0.00000000000E+00 -0.18937044241E+04  0.18937044241E+04  0.50400001928E-02 0. -1.
    10030    2    1    2    0    0  0.00000000000E+00  0.00000000000E+00 -0.13589460353E+04  0.24284628129E+04  0.20126344195E+04 0.  0.
        1    1    3    3  502    0 -0.57645225273E+03 -0.80513253979E+03 -0.89578513688E+03  0.13352777306E+04  0.50400001928E-02 0. -1.
       -1    1    3    3    0  502  0.57645225273E+03  0.80513253979E+03 -0.46316089842E+03  0.10931850823E+04  0.50400001928E-02 0.  1.
</event>
<event>
 5   0  0.6168338E-05  0.2002009E+04  0.7818609E-02  0.8605682E-01
       -1   -1    0    0    0  501  0.00000000000E+00  0.00000000000E+00  0.97578273682E+03  0.97578273684E+03  0.50400001928E-02 0. -1.
        1   -1    0    0  501    0  0.00000000000E+00  0.00000000000E+00 -0.10268779249E+04  0.10268779249E+04  0.50400001928E-02 0.  1.
    10030    2    1    2    0    0  0.00000000000E+00  0.00000000000E+00 -0.51095188046E+02  0.20026606617E+04  0.20020087432E+04 0.  0.
        5    1    3    3  502    0 -0.53578260906E+02 -0.78933732511E+02 -0.10223089670E+04  0.10267613541E+04  0.46999998093E+01 0.  1.
       -5    1    3    3    0  502  0.53578260906E+02  0.78933732511E+02  0.97121377898E+03  0.97589930764E+03  0.46999998093E+01 0. -1.
</event>
<event>
 5   0  0.6028501E-05  0.2031602E+04  0.7818609E-02  0.8591987E-01
        1   -1    0    0  501    0  0.00000000000E+00  0.00000000000E+00  0.71153484190E+03  0.71153484192E+03  0.50400001928E-02 0.  1.
       -1   -1    0    0    0  501  0.00000000000E+00  0.00000000000E+00 -0.14501774088E+04  0.14501774088E+04  0.50400001928E-02 0. -1.
    10030    2    1    2    0    0  0.00000000000E+00  0.00000000000E+00 -0.73864256692E+03  0.21617122508E+04  0.20316020805E+04 0.  0.
        4    1    3    3  502    0  0.93517921099E+03  0.34119523726E+03 -0.15419556436E+03  0.10073491111E+04  0.12699999809E+01 0.  1.
       -4    1    3    3    0  502 -0.93517921099E+03 -0.34119523726E+03 -0.58444700256E+03  0.11543631397E+04  0.12699999809E+01 0. -1.
</event>
<event>
 5   0  0.1274868E-04  0.1987999E+04  0.7818609E-02  0.8612252E-01
       -2   -1    0    0    0  501  0.00000000000E+00  0.00000000000E+00  0.84879979852E+03  0.84879979852E+03  0.25500000920E-02 0.  1.
        2   -1    0    0  501    0  0.00000000000E+00  0.00000000000E+00 -0.11640382096E+04  0.11640382096E+04  0.25500000920E-02 0. -1.
    10030    2    1    2    0    0  0.00000000000E+00  0.00000000000E+00 -0.31523841109E+03  0.20128380081E+04  0.19879993942E+04 0.  0.
        1    1    3    3  502    0 -0.11974012737E+03  0.95543857270E+03  0.92109656720E+02  0.96730799294E+03  0.50400001928E-02 0.  1.
       -1    1    3    3    0  502  0.11974012737E+03 -0.95543857270E+03 -0.40734806781E+03  0.10455300152E+04  0.50400001928E-02 0. -1.
</event>
<event>
 5   0  0.6256535E-05  0.1990604E+04  0.7818609E-02  0.8611026E-01
       -1   -1    0    0    0  501  0.00000000000E+00  0.00000000000E+00  0.54184397750E+03  0.54184397752E+03  0.50400001928E-02 0.  1.
        1   -1    0    0  501    0  0.00000000000E+00  0.00000000000E+00 -0.18282505336E+04  0.18282505336E+04  0.50400001928E-02 0. -1.
    10030    2    1    2    0    0  0.00000000000E+00  0.00000000000E+00 -0.12864065561E+04  0.23700945112E+04  0.19906044721E+04 0.  0.
        1    1    3    3  502    0  0.12710273359E+03  0.96713046275E+03 -0.40767872353E+03  0.10572125512E+04  0.50400001928E-02 0.  1.
       -1    1    3    3    0  502 -0.12710273359E+03 -0.96713046275E+03 -0.87872783261E+03  0.13128819599E+04  0.50400001928E-02 0. -1.
</event>
<event>
 5   0  0.1159914E-04  0.2017278E+04  0.7818609E-02  0.8598585E-01
        2   -1    0    0  501    0  0.00000000000E+00  0.00000000000E+00  0.25436585704E+04  0.25436585704E+04  0.25500000920E-02 0. -1.
       -2   -1    0    0    0  501  0.00000000000E+00  0.00000000000E+00 -0.39995634244E+03  0.39995634245E+03  0.25500000920E-02 0.  1.
    10030    2    1    2    0    0  0.00000000000E+00  0.00000000000E+00  0.21437022280E+04  0.29436149129E+04  0.20172777481E+04 0.  0.
        3    1    3    3  502    0 -0.34704804031E+03  0.69875177419E+03  0.13903889191E+03  0.79248230761E+03  0.10100000352E+00 0.  1.
       -3    1    3    3    0  502  0.34704804031E+03 -0.69875177419E+03  0.20046633361E+04  0.21511326053E+04  0.10100000352E+00 0. -1.
</event>
<event>
 5   0  0.1274868E-04  0.2002511E+04  0.7818609E-02  0.8605447E-01
        2   -1    0    0  501    0  0.00000000000E+00  0.00000000000E+00  0.80361519662E+03  0.80361519662E+03  0.25500000920E-02 0. -1.
       -2   -1    0    0    0  501  0.00000000000E+00  0.00000000000E+00 -0.12475035770E+04  0.12475035770E+04  0.25500000920E-02 0.  1.
    10030    2    1    2    0    0  0.00000000000E+00  0.00000000000E+00 -0.44388838042E+03  0.20511187737E+04  0.20025112557E+04 0.  0.
        1    1    3    3  502    0 -0.10252235032E+03  0.98774588192E+03 -0.90932979776E+02  0.99720688245E+03  0.50400001928E-02 0. -1.
       -1    1    3    3    0  502  0.10252235032E+03 -0.98774588192E+03 -0.35295540065E+03  0.10539118912E+04  0.50400001928E-02 0.  1.
</event>
<event>
 5   0  0.1274868E-04  0.1999631E+04  0.7818609E-02  0.8606793E-01
        2   -1    0    0  501    0  0.00000000000E+00  0.00000000000E+00  0.82570964644E+03  0.82570964644E+03  0.25500000920E-02 0. -1.
       -2   -1    0    0    0  501  0.00000000000E+00  0.00000000000E+00 -0.12106326221E+04  0.12106326221E+04  0.25500000920E-02 0.  1.
    10030    2    1    2    0    0  0.00000000000E+00  0.00000000000E+00 -0.38492297565E+03  0.20363422685E+04  0.19996310003E+04 0.  0.
        1    1    3    3  502    0 -0.92385309091E+03  0.27219264111E+03  0.80864379163E+02  0.96650525880E+03  0.50400001928E-02 0. -1.
       -1    1    3    3    0  502  0.92385309091E+03 -0.27219264111E+03 -0.46578735481E+03  0.10698370097E+04  0.50400001928E-02 0.  1.
</event>
<event>
 5   0  0.1244229E-04  0.2007259E+04  0.7818609E-02  0.8603234E-01
       -2   -1    0    0    0  501  0.00000000000E+00  0.00000000000E+00  0.10363355976E+04  0.10363355976E+04  0.25500000920E-02 0. -1.
        2   -1    0    0  501    0  0.00000000000E+00  0.00000000000E+00 -0.97195577603E+03  0.97195577604E+03  0.25500000920E-02 0.  1.
    10030    2    1    2    0    0  0.00000000000E+00  0.00000000000E+00  0.64379821550E+02  0.20082913736E+04  0.20072591960E+04 0.  0.
        5    1    3    3  502    0  0.58872803920E+03 -0.63516953538E+03 -0.47522888143E+03  0.98787935628E+03  0.46999998093E+01 0.  1.
       -5    1    3    3    0  502 -0.58872803920E+03  0.63516953538E+03  0.53960870298E+03  0.10204120173E+04  0.46999998093E+01 0. -1.
</event>
<event>
 5   0  0.6168338E-05  0.1978687E+04  0.7818609E-02  0.8616651E-01
        1   -1    0    0  501    0  0.00000000000E+00  0.00000000000E+00  0.10094730671E+04  0.10094730671E+04  0.50400001928E-02 0.  1.
       -1   -1    0    0    0  501  0.00000000000E+00  0.00000000000E+00 -0.96961490110E+03  0.96961490111E+03  0.50400001928E-02 0. -1.
    10030    2    1    2    0    0  0.00000000000E+00  0.00000000000E+00  0.39858165989E+02  0.19790879682E+04  0.19786865625E+04 0.  0.
        5    1    3    3  502    0  0.47566935172E+03  0.15437860327E+03  0.87373212314E+03  0.10067392901E+04  0.46999998093E+01 0.  1.
       -5    1    3    3    0  502 -0.47566935172E+03 -0.15437860327E+03 -0.83387395716E+03  0.97234867806E+03  0.46999998093E+01 0. -1.
</event>
<event>
 5   0  0.1159914E-04  0.1990760E+04  0.7818609E-02  0.8610953E-01
        2   -1    0    0  501    0  0.00000000000E+00  0.00000000000E+00  0.18975897660E+04  0.18975897660E+04  0.25500000920E-02 0. -1.
       -2   -1    0    0    0  501  0.00000000000E+00  0.00000000000E+00 -0.52212643573E+03  0.52212643574E+03  0.25500000920E-02 0.  1.
    10030    2    1    2    0    0  0.00000000000E+00  0.00000000000E+00  0.13754633303E+04  0.24197162018E+04  0.19907604387E+04 0.  0.
        3    1    3    3  502    0 -0.10705123728E+03  0.63847418046E+03 -0.23127590878E+03  0.68745749156E+03  0.10100000352E+00 0.  1.
       -3    1    3    3    0  502  0.10705123728E+03 -0.63847418046E+03  0.16067392391E+04  0.17322587102E+04  0.10100000352E+00 0. -1.
</event>
<event>
 5   0  0.6222733E-05  0.1992453E+04  0.7818609E-02  0.8610157E-01
        1   -1    0    0  501    0  0.00000000000E+00  0.00000000000E+00  0.13795236886E+04  0.13795236886E+04  0.50400001928E-02 0.  1.
       -1   -1    0    0    0  501  0.00000000000E+00  0.00000000000E+00 -0.71942751682E+03  0.71942751684E+03  0.50400001928E-02 0. -1.
    10030    2    1    2    0    0  0.00000000000E+00  0.00000000000E+00  0.66009617178E+03  0.20989512054E+04  0.19924530626E+04 0.  0.
        2    1    3    3  502    0 -0.58885369487E+03  0.40202050022E+03  0.10630092305E+04  0.12799835080E+04  0.25500000920E-02 0.  1.
       -2    1    3    3    0  502  0.58885369487E+03 -0.40202050022E+03 -0.40291305874E+03  0.81896769745E+03  0.25500000920E-02 0. -1.
</event>
<event>
 5   0  0.6256535E-05  0.1987487E+04  0.7818609E-02  0.8612494E-01
       -1   -1    0    0    0  501  0.00000000000E+00  0.00000000000E+00  0.53145524902E+03  0.53145524904E+03  0.50400001928E-02 0.  1.
        1   -1    0    0  501    0  0.00000000000E+00  0.00000000000E+00 -0.18581541165E+04  0.18581541165E+04  0.50400001928E-02 0. -1.
    10030    2    1    2    0    0  0.00000000000E+00  0.00000000000E+00 -0.13266988675E+04  0.23896093656E+04  0.19874866125E+04 0.  0.
        1    1    3    3  502    0 -0.52560842264E+03 -0.57669446303E+03  0.76531395537E+02  0.78402663996E+03  0.50400001928E-02 0.  1.
       -1    1    3    3    0  502  0.52560842264E+03  0.57669446303E+03 -0.14032302630E+04  0.16055827256E+04  0.50400001928E-02 0. -1.
</event>
<event>
 5   0  0.6214547E-05  0.1878629E+04  0.7818609E-02  0.8665568E-01
        1   -1    0    0  501    0  0.00000000000E+00  0.00000000000E+00  0.11362334920E+04  0.11362334920E+04  0.50400001928E-02 0. -1.
       -1   -1    0    0    0  501  0.00000000000E+00  0.00000000000E+00 -0.77652288477E+03  0.77652288479E+03  0.50400001928E-02 0.  1.
    10030    2    1    2    0    0  0.00000000000E+00  0.00000000000E+00  0.35971060722E+03  0.19127563768E+04  0.18786285519E+04 0.  0.
        3    1    3    3  502    0 -0.41897210556E+03  0.80103626418E+03 -0.79955886255E+02  0.90751841618E+03  0.10100000352E+00 0.  1.
       -3    1    3    3    0  502  0.41897210556E+03 -0.80103626418E+03  0.43966649348E+03  0.10052379606E+04  0.10100000352E+00 0. -1.
</event>
<event>
 5   0  0.6214547E-05  0.2006509E+04  0.7818609E-02  0.8603584E-01
       -1   -1    0    0    0  501  0.00000000000E+00  0.00000000000E+00  0.69828344690E+03  0.69828344692E+03  0.50400001928E-02 0. -1.
        1   -1    0    0  501    0  0.00000000000E+00  0.00000000000E+00 -0.14414195176E+04  0.14414195177E+04  0.50400001928E-02 0.  1.
    10030    2    1    2    0    0  0.00000000000E+00  0.00000000000E+00 -0.74313607074E+03  0.21397029646E+04  0.20065087981E+04 0.  0.
        3    1    3    3  502    0  0.84173462928E+03  0.45424083821E+03 -0.48703751935E+02  0.95771811660E+03  0.10100000352E+00 0. -1.
       -3    1    3    3    0  502 -0.84173462928E+03 -0.45424083821E+03 -0.69443231881E+03  0.11819848480E+04  0.10100000352E+00 0.  1.
</event>
<event>
 5   0  0.1281789E-04  0.1983609E+04  0.7818609E-02  0.8614323E-01
        2   -1    0    0  501    0  0.00000000000E+00  0.00000000000E+00  0.17154331149E+04  0.17154331149E+04  0.25500000920E-02 0. -1.
       -2   -1    0    0    0  501  0.00000000000E+00  0.00000000000E+00 -0.57342710712E+03  0.57342710713E+03  0.25500000920E-02 0.  1.
    10030    2    1    2    0    0  0.00000000000E+00  0.00000000000E+00  0.11420060078E+04  0.22888602220E+04  0.19836086797E+04 0.  0.
        2    1    3    3  502    0 -0.57731375302E+03 -0.45440517569E+03 -0.19778419849E+03  0.76085072274E+03  0.25500000920E-02 0.  1.
       -2    1    3    3    0  502  0.57731375302E+03  0.45440517569E+03  0.13397902062E+04  0.15280094993E+04  0.25500000920E-02 0. -1.
</event>
<event>
 5   0  0.6168338E-05  0.1958220E+04  0.7818609E-02  0.8626407E-01
        1   -1    0    0  501    0  0.00000000000E+00  0.00000000000E+00  0.14111673777E+04  0.14111673777E+04  0.50400001928E-02 0.  1.
       -1   -1    0    0    0  501  0.00000000000E+00  0.00000000000E+00 -0.67933559515E+03  0.67933559517E+03  0.50400001928E-02 0. -1.
    10030    2    1    2    0    0  0.00000000000E+00  0.00000000000E+00  0.73183178254E+03  0.20905029729E+04  0.19582198349E+04 0.  0.
        5    1    3    3  502    0 -0.90404332460E+03 -0.25517262550E+03  0.66065856189E+03  0.11484333794E+04  0.46999998093E+01 0.  1.
       -5    1    3    3    0  502  0.90404332460E+03  0.25517262550E+03  0.71173220651E+02  0.94206959345E+03  0.46999998093E+01 0. -1.
</event>
<event>
 5   0  0.1244229E-04  0.1990247E+04  0.7818609E-02  0.8611194E-01
        2   -1    0    0  501    0  0.00000000000E+00  0.00000000000E+00  0.10783249466E+04  0.10783249466E+04  0.25500000920E-02 0.  1.
       -2   -1    0    0    0  501  0.00000000000E+00  0.00000000000E+00 -0.91834212653E+03  0.91834212653E+03  0.25500000920E-02 0. -1.
    10030    2    1    2    0    0  0.00000000000E+00  0.00000000000E+00  0.15998282009E+03  0.19966670732E+04  0.19902474465E+04 0.  0.
        5    1    3    3  502    0 -0.48395015376E+03 -0.86450590889E+03  0.17340952272E+03  0.10058186568E+04  0.46999998093E+01 0.  1.
       -5    1    3    3    0  502  0.48395015376E+03  0.86450590889E+03 -0.13426702624E+02  0.99084841634E+03  0.46999998093E+01 0. -1.
</event>
<event>
 5   0  0.6222733E-05  0.1985896E+04  0.7818609E-02  0.8613243E-01
       -1   -1    0    0    0  501  0.00000000000E+00  0.00000000000E+00  0.86952206467E+03  0.86952206468E+03  0.50400001928E-02 0. -1.
        1   -1    0    0  501    0  0.00000000000E+00  0.00000000000E+00 -0.11338941463E+04  0.11338941463E+04  0.50400001928E-02 0.  1.
    10030    2    1    2    0    0  0.00000000000E+00  0.00000000000E+00 -0.26437208165E+03  0.20034162110E+04  0.19858962503E+04 0.  0.
        2    1    3    3  502    0 -0.35055406007E+03  0.48379044986E+03 -0.93228102762E+03  0.11072891505E+04  0.25500000920E-02 0.  1.
       -2    1    3    3    0  502  0.35055406007E+03 -0.48379044986E+03  0.66790894597E+03  0.89612706048E+03  0.25500000920E-02 0. -1.
</event>
<event>
 5   0  0.4479000E-05  0.1955224E+04  0.7818609E-02  0.8627846E-01
        4   -1    0    0  501    0  0.00000000000E+00  0.00000000000E+00  0.18514111334E+04  0.18514115690E+04  0.12699999809E+01 0.  1.
       -4   -1    0    0    0  501  0.00000000000E+00  0.00000000000E+00 -0.51621303628E+03  0.51621459852E+03  0.12699999809E+01 0. -1.
    10030    2    1    2    0    0  0.00000000000E+00  0.00000000000E+00  0.13351980971E+04  0.23676261675E+04  0.19552236983E+04 0.  0.
        4    1    3    3  502    0 -0.94968803143E+03  0.39620119402E+02  0.94438500364E+03  0.13399036379E+04  0.12699999809E+01 0. -1.
       -4    1    3    3    0  502  0.94968803143E+03 -0.39620119402E+02  0.39081309348E+03  0.10277225296E+04  0.12699999809E+01 0.  1.
</event>
<event>
 5   0  0.6256535E-05  0.2005352E+04  0.7818609E-02  0.8604123E-01
       -1   -1    0    0    0  501  0.00000000000E+00  0.00000000000E+00  0.45385875271E+03  0.45385875273E+03  0.50400001928E-02 0.  1.
        1   -1    0    0  501    0  0.00000000000E+00  0.00000000000E+00 -0.22151357039E+04  0.22151357039E+04  0.50400001928E-02 0. -1.
    10030    2    1    2    0    0  0.00000000000E+00  0.00000000000E+00 -0.17612769512E+04  0.26689944566E+04  0.20053515679E+04 0.  0.
        1    1    3    3  502    0 -0.87939576116E+03  0.37918728181E+03 -0.12759932756E+04  0.15953929732E+04  0.50400001928E-02 0.  1.
       -1    1    3    3    0  502  0.87939576116E+03 -0.37918728181E+03 -0.48528367555E+03  0.10736014834E+04  0.50400001928E-02 0. -1.
</event>
<event>
 5   0  0.6222733E-05  0.1998352E+04  0.7818609E-02  0.8607392E-01
       -1   -1    0    0    0  501  0.00000000000E+00  0.00000000000E+00  0.38981473848E+03  0.38981473851E+03  0.50400001928E-02 0. -1.
        1   -1    0    0  501    0  0.00000000000E+00  0.00000000000E+00 -0.25610941250E+04  0.25610941250E+04  0.50400001928E-02 0.  1.
    10030    2    1    2    0    0  0.00000000000E+00  0.00000000000E+00 -0.21712793865E+04  0.29509088635E+04  0.19983515573E+04 0.  0.
        2    1    3    3  502    0 -0.28485702680E+03 -0.94402493917E+03 -0.84741625508E+03  0.13001695739E+04  0.25500000920E-02 0. -1.
       -2    1    3    3    0  502  0.28485702680E+03  0.94402493917E+03 -0.13238631314E+04  0.16507392896E+04  0.25500000920E-02 0.  1.
</event>
<event>
 5   0  0.1274868E-04  0.1997958E+04  0.7818609E-02  0.8607576E-01
       -2   -1    0    0    0  501  0.00000000000E+00  0.00000000000E+00  0.95418025898E+03  0.95418025898E+03  0.25500000920E-02 0. -1.
        2   -1    0    0  501    0  0.00000000000E+00  0.00000000000E+00 -0.10458815278E+04  0.10458815278E+04  0.25500000920E-02 0.  1.
    10030    2    1    2    0    0  0.00000000000E+00  0.00000000000E+00 -0.91701268866E+02  0.20000617868E+04  0.19979584651E+04 0.  0.
        1    1    3    3  502    0  0.80129769511E+03  0.52555288179E+03 -0.32841659567E+03  0.10129863218E+04  0.50400001928E-02 0. -1.
       -1    1    3    3    0  502 -0.80129769511E+03 -0.52555288179E+03  0.23671532680E+03  0.98707546506E+03  0.50400001928E-02 0.  1.
</event>
<event>
 5   0  0.1274868E-04  0.1966450E+04  0.7818609E-02  0.8622469E-01
       -2   -1    0    0    0  501  0.00000000000E+00  0.00000000000E+00  0.91026486521E+03  0.91026486522E+03  0.25500000920E-02 0.  1.
        2   -1    0    0  501    0  0.00000000000E+00  0.00000000000E+00 -0.10620333209E+04  0.10620333209E+04  0.25500000920E-02 0. -1.
    10030    2    1    2    0    0  0.00000000000E+00  0.00000000000E+00 -0.15176845569E+03  0.19722981861E+04  0.19664502208E+04 0.  0.
        1    1    3    3  502    0 -0.89480093897E+03  0.28248295406E+03  0.21870044609E+03  0.96348078593E+03  0.50400001928E-02 0.  1.
       -1    1    3    3    0  502  0.89480093897E+03 -0.28248295406E+03 -0.37046890178E+03  0.10088174002E+04  0.50400001928E-02 0. -1.
</event>
<event>
 5   0  0.4479000E-05  0.1924715E+04  0.7818609E-02  0.8642651E-01
       -3   -1    0    0    0  501  0.00000000000E+00  0.00000000000E+00  0.80042781890E+03  0.80042782527E+03  0.10100000352E+00 0.  1.
        3   -1    0    0  501    0  0.00000000000E+00  0.00000000000E+00 -0.11570465872E+04  0.11570465916E+04  0.10100000352E+00 0. -1.
    10030    2    1    2    0    0  0.00000000000E+00  0.00000000000E+00 -0.35661876828E+03  0.19574744169E+04  0.19247153418E+04 0.  0.
        5    1    3    3  502    0 -0.42084496398E+03 -0.41533683606E+03 -0.95050506624E+03  0.11194182159E+04  0.46999998093E+01 0. -1.
       -5    1    3    3    0  502  0.42084496398E+03  0.41533683606E+03  0.59388629796E+03  0.83805620098E+03  0.46999998093E+01 0.  1.
</event>
<event>
 5   0  0.6028501E-05  0.2015617E+04  0.7818609E-02  0.8599354E-01
       -1   -1    0    0    0  501  0.00000000000E+00  0.00000000000E+00  0.93100936330E+03  0.93100936332E+03  0.50400001928E-02 0. -1.
        1   -1    0    0  501    0  0.00000000000E+00  0.00000000000E+00 -0.10909431912E+04  0.10909431912E+04  0.50400001928E-02 0.  1.
    10030    2    1    2    0    0  0.00000000000E+00  0.00000000000E+00 -0.15993382791E+03  0.20219525545E+04  0.20156173505E+04 0.  0.
        4    1    3    3  502    0  0.74716562158E+03  0.90522971171E+02  0.59238281867E+03  0.95779428435E+03  0.12699999809E+01 0. -1.
       -4    1    3    3    0  502 -0.74716562158E+03 -0.90522971171E+02 -0.75231664658E+03  0.10641582702E+04  0.12699999809E+01 0.  1.
</event>
<event>
 5   0  0.1244229E-04  0.1995707E+04  0.7818609E-02  0.8608630E-01
       -2   -1    0    0    0  501  0.00000000000E+00  0.00000000000E+00  0.85079350951E+03  0.85079350951E+03  0.25500000920E-02 0. -1.
        2   -1    0    0  501    0  0.00000000000E+00  0.00000000000E+00 -0.11703333990E+04  0.11703333990E+04  0.25500000920E-02 0.  1.
    10030    2    1    2    0    0  0.00000000000E+00  0.00000000000E+00 -0.31953988951E+03  0.20211269085E+04  0.19957074534E+04 0.  0.
        5    1    3    3  502    0 -0.49358042160E+03 -0.80772428705E+03 -0.47946428644E+03  0.10611070862E+04  0.46999998093E+01 0.  1.
       -5    1    3    3    0  502  0.49358042160E+03  0.80772428705E+03  0.15992439693E+03  0.96001982230E+03  0.46999998093E+01 0. -1.
</event>
<event>
 5   0  0.6168338E-05  0.2002598E+04  0.7818609E-02  0.8605407E-01
       -1   -1    0    0    0  501  0.00000000000E+00  0.00000000000E+00  0.70181434046E+03  0.70181434048E+03  0.50400001928E-02 0. -1.
        1   -1    0    0  501    0  0.00000000000E+00  0.00000000000E+00 -0.14285829733E+04  0.14285829733E+04  0.50400001928E-02 0.  1.
    10030    2    1    2    0    0  0.00000000000E+00  0.00000000000E+00 -0.72676863282E+03  0.21303973138E+04  0.20025983294E+04 0.  0.
        5    1    3    3  502    0  0.11764628357E+03  0.18157857952E+03  0.67663799949E+03  0.71040305527E+03  0.46999998093E+01 0. -1.
       -5    1    3    3    0  502 -0.11764628357E+03 -0.18157857952E+03 -0.14034066323E+04  0.14199942585E+04  0.46999998093E+01 0.  1.
</event>
<event>
 5   0  0.6222733E-05  0.2007454E+04  0.7818609E-02  0.8603144E-01
        1   -1    0    0  501    0  0.00000000000E+00  0.00000000000E+00  0.13356459547E+04  0.13356459547E+04  0.50400001928E-02 0. -1.
       -1   -1    0    0    0  501  0.00000000000E+00  0.00000000000E+00 -0.75429232700E+03  0.75429232702E+03  0.50400001928E-02 0.  1.
    10030    2    1    2    0    0  0.00000000000E+00  0.00000000000E+00  0.58135362771E+03  0.20899382817E+04  0.20074536062E+04 0.  0.
        2    1    3    3  502    0  0.50392614474E+03  0.33774895915E+03  0.11231912539E+04  0.12765478885E+04  0.25500000920E-02 0. -1.
       -2    1    3    3    0  502 -0.50392614474E+03 -0.33774895915E+03 -0.54183762616E+03  0.81339039328E+03  0.25500000920E-02 0.  1.
</event>
<event>
 5   0  0.1244229E-04  0.2036806E+04  0.7818609E-02  0.8589604E-01
        2   -1    0    0  501    0  0.00000000000E+00  0.00000000000E+00  0.91970670369E+03  0.91970670369E+03  0.25500000920E-02 0. -1.
       -2   -1    0    0    0  501  0.00000000000E+00  0.00000000000E+00 -0.11276903985E+04  0.11276903985E+04  0.25500000920E-02 0.  1.
    10030    2    1    2    0    0  0.00000000000E+00  0.00000000000E+00 -0.20798369486E+03  0.20473971022E+04  0.20368057534E+04 0.  0.
        5    1    3    3  502    0  0.51067763081E+03  0.98311556266E+02  0.77615560929E+03  0.93428926170E+03  0.46999998093E+01 0. -1.
       -5    1    3    3    0  502 -0.51067763081E+03 -0.98311556266E+02 -0.98413930415E+03  0.11131078405E+04  0.46999998093E+01 0.  1.
</event>
<event>
 5   0  0.1274868E-04  0.1996626E+04  0.7818609E-02  0.8608200E-01
       -2   -1    0    0    0  501  0.00000000000E+00  0.00000000000E+00  0.10951119619E+04  0.10951119619E+04  0.25500000920E-02 0. -1.
        2   -1    0    0  501    0  0.00000000000E+00  0.00000000000E+00 -0.91007022749E+03  0.91007022749E+03  0.25500000920E-02 0.  1.
    10030    2    1    2    0    0  0.00000000000E+00  0.00000000000E+00  0.18504173439E+03  0.20051821894E+04  0.19966259462E+04 0.  0.
        1    1    3    3  502    0 -0.19322614832E+03 -0.96919435426E+03  0.23438750955E+03  0.10156827976E+04  0.50400001928E-02 0. -1.
       -1    1    3    3    0  502  0.19322614832E+03  0.96919435426E+03 -0.49345775167E+02  0.98949939175E+03  0.50400001928E-02 0.  1.
</event>
<event>
 5   0  0.6222733E-05  0.1987045E+04  0.7818609E-02  0.8612702E-01
       -1   -1    0    0    0  501  0.00000000000E+00  0.00000000000E+00  0.15150008324E+04  0.15150008324E+04  0.50400001928E-02 0. -1.
        1   -1    0    0  501    0  0.00000000000E+00  0.00000000000E+00 -0.65154214338E+03  0.65154214340E+03  0.50400001928E-02 0.  1.
    10030    2    1    2    0    0  0.00000000000E+00  0.00000000000E+00  0.86345868899E+03  0.21665429758E+04  0.19870449311E+04 0.  0.
        2    1    3    3  502    0  0.38436270816E+02  0.99030479051E+03  0.50809917438E+03  0.11137080839E+04  0.25500000920E-02 0. -1.
       -2    1    3    3    0  502 -0.38436270816E+02 -0.99030479051E+03  0.35535951462E+03  0.10528348919E+04  0.25500000920E-02 0.  1.
</event>
<event>
 5   0  0.4479000E-05  0.2088204E+04  0.7818609E-02  0.8566457E-01
       -3   -1    0    0    0  501  0.00000000000E+00  0.00000000000E+00  0.14215873417E+04  0.14215873452E+04  0.10100000352E+00 0.  1.
        3   -1    0    0  501    0  0.00000000000E+00  0.00000000000E+00 -0.76685337837E+03  0.76685338502E+03  0.10100000352E+00 0. -1.
    10030    2    1    2    0    0  0.00000000000E+00  0.00000000000E+00  0.65473396329E+03  0.21884407303E+04  0.20882040770E+04 0.  0.
        2    1    3    3  502    0 -0.40576936469E+03 -0.63839037552E+02 -0.67861873382E+03  0.79325127541E+03  0.25500000920E-02 0. -1.
       -2    1    3    3    0  502  0.40576936469E+03  0.63839037552E+02  0.13333526971E+04  0.13951894549E+04  0.25500000920E-02 0.  1.
</event>
<event>
 5   0  0.6214547E-05  0.2015479E+04  0.7818609E-02  0.8599418E-01
        1   -1    0    0  501    0  0.00000000000E+00  0.00000000000E+00  0.12900804629E+04  0.12900804629E+04  0.50400001928E-02 0.  1.
       -1   -1    0    0    0  501  0.00000000000E+00  0.00000000000E+00 -0.78719035716E+03  0.78719035718E+03  0.50400001928E-02 0. -1.
    10030    2    1    2    0    0  0.00000000000E+00  0.00000000000E+00  0.50289010574E+03  0.20772708201E+04  0.20154790005E+04 0.  0.
        3    1    3    3  502    0  0.45012683059E+02  0.93326536006E+02 -0.78168568805E+03  0.78852299209E+03  0.10100000352E+00 0. -1.
       -3    1    3    3    0  502 -0.45012683059E+02 -0.93326536006E+02  0.12845757938E+04  0.12887478280E+04  0.10100000352E+00 0.  1.
</event>
<event>
 5   0  0.6214547E-05  0.1912250E+04  0.7818609E-02  0.8648783E-01
       -1   -1    0    0    0  501  0.00000000000E+00  0.00000000000E+00  0.68596260321E+03  0.68596260323E+03  0.50400001928E-02 0.  1.
        1   -1    0    0  501    0  0.00000000000E+00  0.00000000000E+00 -0.13326893712E+04  0.13326893712E+04  0.50400001928E-02 0. -1.
    10030    2    1    2    0    0  0.00000000000E+00  0.00000000000E+00 -0.64672676794E+03  0.20186519744E+04  0.19122500572E+04 0.  0.
        3    1    3    3  502    0 -0.29862709893E+03 -0.76348535054E+03  0.19603732052E+03  0.84292269274E+03  0.10100000352E+00 0.  1.
       -3    1    3    3    0  502  0.29862709893E+03  0.76348535054E+03 -0.84276408847E+03  0.11757292816E+04  0.10100000352E+00 0. -1.
</event>
<event>
 5   0  0.6168338E-05  0.1986031E+04  0.7818609E-02  0.8613180E-01
       -1   -1    0    0    0  501  0.00000000000E+00  0.00000000000E+00  0.46201940774E+03  0.46201940777E+03  0.50400001928E-02 0. -1.
        1   -1    0    0  501    0  0.00000000000E+00  0.00000000000E+00 -0.21342813672E+04  0.21342813672E+04  0.50400001928E-02 0.  1.
    10030    2    1    2    0    0  0.00000000000E+00  0.00000000000E+00 -0.16722619595E+04  0.25963007750E+04  0.19860306274E+04 0.  0.
        5    1    3    3  502    0 -0.80637620677E+03 -0.20255372744E+03 -0.15459097767E+04  0.17553147089E+04  0.46999998093E+01 0.  1.
       -5    1    3    3    0  502  0.80637620677E+03  0.20255372744E+03 -0.12635218275E+03  0.84098606614E+03  0.46999998093E+01 0. -1.
</event>
<event>
 5   0  0.6028501E-05  0.2000339E+04  0.7818609E-02  0.8606462E-01
        1   -1    0    0  501    0  0.00000000000E+00  0.00000000000E+00  0.12921992052E+04  0.12921992053E+04  0.50400001928E-02 0.  1.
       -1   -1    0    0    0  501  0.00000000000E+00  0.00000000000E+00 -0.77413706256E+03  0.77413706258E+03  0.50400001928E-02 0. -1.
    10030    2    1    2    0    0  0.00000000000E+00  0.00000000000E+00  0.51806214268E+03  0.20663362678E+04  0.20003392682E+04 0.  0.
        4    1    3    3  502    0  0.39484408706E+03 -0.45264770623E+03  0.10851321558E+04  0.12402843253E+04  0.12699999809E+01 0.  1.
       -4    1    3    3    0  502 -0.39484408706E+03  0.45264770623E+03 -0.56707001316E+03  0.82605194254E+03  0.12699999809E+01 0. -1.
</event>
<event>
 5   0  0.6168338E-05  0.2009989E+04  0.7818609E-02  0.8601965E-01
       -1   -1    0    0    0  501  0.00000000000E+00  0.00000000000E+00  0.11807256159E+04  0.11807256159E+04  0.50400001928E-02 0.  1.
        1   -1    0    0  501    0  0.00000000000E+00  0.00000000000E+00 -0.85541824958E+03  0.85541824959E+03  0.50400001928E-02 0. -1.
    10030    2    1    2    0    0  0.00000000000E+00  0.00000000000E+00  0.32530736629E+03  0.20361438655E+04  0.20099892931E+04 0.  0.
        5    1    3    3  502    0 -0.94646773400E+03  0.27575174590E+03 -0.35213195015E+02  0.98645945481E+03  0.46999998093E+01 0.  1.
       -5    1    3    3    0  502  0.94646773400E+03 -0.27575174590E+03  0.36052056130E+03  0.10496844107E+04  0.46999998093E+01 0. -1.
</event>
<event>
 5   0  0.1242761E-04  0.1996314E+04  0.7818609E-02  0.8608346E-01
       -2   -1    0    0    0  501  0.00000000000E+00  0.00000000000E+00  0.12980156825E+04  0.12980156825E+04  0.25500000920E-02 0.  1.
        2   -1    0    0  501    0  0.00000000000E+00  0.00000000000E+00 -0.76756969324E+03  0.76756969325E+03  0.25500000920E-02 0. -1.
    10030    2    1    2    0    0  0.00000000000E+00  0.00000000000E+00  0.53044598926E+03  0.20655853758E+04  0.19963141028E+04 0.  0.
        4    1    3    3  502    0  0.17604202200E+03  0.18648013366E+02  0.12816421331E+04  0.12938109260E+04  0.12699999809E+01 0.  1.
       -4    1    3    3    0  502 -0.17604202200E+03 -0.18648013366E+02 -0.75119614385E+03  0.77177444978E+03  0.12699999809E+01 0. -1.
</event>
<event>
 5   0  0.6168338E-05  0.1967720E+04  0.7818609E-02  0.8621863E-01
       -1   -1    0    0    0  501  0.00000000000E+00  0.00000000000E+00  0.61325304353E+03  0.61325304355E+03  0.50400001928E-02 0.  1.
        1   -1    0    0  501    0  0.00000000000E+00  0.00000000000E+00 -0.15784351254E+04  0.15784351254E+04  0.50400001928E-02 0. -1.
    10030    2    1    2    0    0  0.00000000000E+00  0.00000000000E+00 -0.96518208184E+03  0.21916881689E+04  0.19677196392E+04 0.  0.
        5    1    3    3  502    0  0.31706687083E+03  0.53557920690E+03  0.36609520658E+03  0.72209713870E+03  0.46999998093E+01 0.  1.
       -5    1    3    3    0  502 -0.31706687083E+03 -0.53557920690E+03 -0.13312772884E+04  0.14695910302E+04  0.46999998093E+01 0. -1.
</event>
<event>
 5   0  0.1159914E-04  0.1745304E+04  0.7818609E-02  0.8735940E-01
        2   -1    0    0  501    0  0.00000000000E+00  0.00000000000E+00  0.79837589090E+03  0.79837589091E+03  0.25500000920E-02 0. -1.
       -2   -1    0    0    0  501  0.00000000000E+00  0.00000000000E+00 -0.95383806417E+03  0.95383806418E+03  0.25500000920E-02 0.  1.
    10030    2    1    2    0    0  0.00000000000E+00  0.00000000000E+00 -0.15546217327E+03  0.17522139551E+04  0.17453037721E+04 0.  0.
        3    1    3    3  502    0  0.91738815265E+02 -0.57026956343E+03  0.57899791373E+03  0.81783982509E+03  0.10100000352E+00 0. -1.
       -3    1    3    3    0  502 -0.91738815265E+02  0.57026956343E+03 -0.73446008700E+03  0.93437412999E+03  0.10100000352E+00 0.  1.
</event>
<event>
 5   0  0.1159914E-04  0.2045971E+04  0.7818609E-02  0.8585424E-01
       -2   -1    0    0    0  501  0.00000000000E+00  0.00000000000E+00  0.69642119501E+03  0.69642119502E+03  0.25500000920E-02 0. -1.
        2   -1    0    0  501    0  0.00000000000E+00  0.00000000000E+00 -0.15026810451E+04  0.15026810451E+04  0.25500000920E-02 0.  1.
    10030    2    1    2    0    0  0.00000000000E+00  0.00000000000E+00 -0.80625985012E+03  0.21991022401E+04  0.20459706050E+04 0.  0.
        3    1    3    3  502    0 -0.77489006349E+03  0.49898018296E+03  0.74013199668E+02  0.92461548625E+03  0.10100000352E+00 0. -1.
       -3    1    3    3    0  502  0.77489006349E+03 -0.49898018296E+03 -0.88027304979E+03  0.12744867539E+04  0.10100000352E+00 0.  1.
</event>
<event>
 5   0  0.4479000E-05  0.1998501E+04  0.7818609E-02  0.8607322E-01
       -4   -1    0    0    0  501  0.00000000000E+00  0.00000000000E+00  0.96764930286E+03  0.96765013627E+03  0.12699999809E+01 0.  1.
        4   -1    0    0  501    0  0.00000000000E+00  0.00000000000E+00 -0.10318816830E+04  0.10318824646E+04  0.12699999809E+01 0. -1.
    10030    2    1    2    0    0  0.00000000000E+00  0.00000000000E+00 -0.64232380163E+02  0.19995326008E+04  0.19985006438E+04 0.  0.
        4    1    3    3  502    0  0.45671860061E+03 -0.85047515849E+03  0.22608627874E+03  0.99147188245E+03  0.12699999809E+01 0.  1.
       -4    1    3    3    0  502 -0.45671860061E+03  0.85047515849E+03 -0.29031865890E+03  0.10080607184E+04  0.12699999809E+01 0. -1.
</event>
<event>
 5   0  0.1244229E-04  0.2057620E+04  0.7818609E-02  0.8580145E-01
        2   -1    0    0  501    0  0.00000000000E+00  0.00000000000E+00  0.13612331434E+04  0.13612331434E+04  0.25500000920E-02 0. -1.
       -2   -1    0    0    0  501  0.00000000000E+00  0.00000000000E+00 -0.77756732491E+03  0.77756732491E+03  0.25500000920E-02 0.  1.
    10030    2    1    2    0    0  0.00000000000E+00  0.00000000000E+00  0.58366581848E+03  0.21388004683E+04  0.20576203867E+04 0.  0.
        5    1    3    3  502    0 -0.92359641167E+01  0.93786564386E+03  0.73130299968E+03  0.11893289857E+04  0.46999998093E+01 0. -1.
       -5    1    3    3    0  502  0.92359641167E+01 -0.93786564386E+03 -0.14763718119E+03  0.94947148258E+03  0.46999998093E+01 0.  1.
</event>
<event>
 5   0  0.6168338E-05  0.1992882E+04  0.7818609E-02  0.8609956E-01
        1   -1    0    0  501    0  0.00000000000E+00  0.00000000000E+00  0.93897516132E+03  0.93897516133E+03  0.50400001928E-02 0.  1.
       -1   -1    0    0    0  501  0.00000000000E+00  0.00000000000E+00 -0.10574239013E+04  0.10574239013E+04  0.50400001928E-02 0. -1.
    10030    2    1    2    0    0  0.00000000000E+00  0.00000000000E+00 -0.11844873995E+03  0.19963990626E+04  0.19928821122E+04 0.  0.
        5    1    3    3  502    0 -0.40462459797E+03  0.88748327354E+03  0.14491223803E+03  0.98608786263E+03  0.46999998093E+01 0.  1.
       -5    1    3    3    0  502  0.40462459797E+03 -0.88748327354E+03 -0.26336097797E+03  0.10103112000E+04  0.46999998093E+01 0. -1.
</event>
<event>
 5   0  0.6222733E-05  0.1662902E+04  0.7818609E-02  0.8782810E-01
       -1   -1    0    0    0  501  0.00000000000E+00  0.00000000000E+00  0.13535458952E+04  0.13535458952E+04  0.50400001928E-02 0.  1.
        1   -1    0    0  501    0  0.00000000000E+00  0.00000000000E+00 -0.51074025791E+03  0.51074025793E+03  0.50400001928E-02 0. -1.
    10030    2    1    2    0    0  0.00000000000E+00  0.00000000000E+00  0.84280563727E+03  0.18642861531E+04  0.16629015360E+04 0.  0.
        2    1    3    3  502    0 -0.22219426616E+03 -0.27044299344E+03 -0.42412147635E+03  0.54989883735E+03  0.25500000920E-02 0. -1.
       -2    1    3    3    0  502  0.22219426616E+03  0.27044299344E+03  0.12669271136E+04  0.13143873158E+04  0.25500000920E-02 0.  1.
</event>
<event>
 5   0  0.1244229E-04  0.1799236E+04  0.7818609E-02  0.8706706E-01
       -2   -1    0    0    0  501  0.00000000000E+00  0.00000000000E+00  0.13753985110E+04  0.13753985110E+04  0.25500000920E-02 0. -1.
        2   -1    0    0  501    0  0.00000000000E+00  0.00000000000E+00 -0.58842037031E+03  0.58842037032E+03  0.25500000920E-02 0.  1.
    10030    2    1    2    0    0  0.00000000000E+00  0.00000000000E+00  0.78697814064E+03  0.19638188813E+04  0.17992359502E+04 0.  0.
        5    1    3    3  502    0  0.34370540512E+02 -0.61766947675E+03  0.11063756275E+04  0.12675906420E+04  0.46999998093E+01 0. -1.
       -5    1    3    3    0  502 -0.34370540512E+02  0.61766947675E+03 -0.31939748685E+03  0.69622823928E+03  0.46999998093E+01 0.  1.
</event>
<event>
 5   0  0.1274868E-04  0.1953007E+04  0.7818609E-02  0.8628912E-01
        2   -1    0    0  501    0  0.00000000000E+00  0.00000000000E+00  0.15284721206E+04  0.15284721206E+04  0.25500000920E-02 0. -1.
       -2   -1    0    0    0  501  0.00000000000E+00  0.00000000000E+00 -0.62386408612E+03  0.62386408613E+03  0.25500000920E-02 0.  1.
    10030    2    1    2    0    0  0.00000000000E+00  0.00000000000E+00  0.90460803445E+03  0.21523362067E+04  0.19530067718E+04 0.  0.
        1    1    3    3  502    0  0.44429349176E+03 -0.73152909728E+03 -0.65814789471E+02  0.85840731214E+03  0.50400001928E-02 0.  1.
       -1    1    3    3    0  502 -0.44429349176E+03  0.73152909728E+03  0.97042282392E+03  0.12939288946E+04  0.50400001928E-02 0. -1.
</event>
<event>
 5   0  0.6222733E-05  0.1995267E+04  0.7818609E-02  0.8608837E-01
        1   -1    0    0  501    0  0.00000000000E+00  0.00000000000E+00  0.12578480984E+04  0.12578480984E+04  0.50400001928E-02 0.  1.
       -1   -1    0    0    0  501  0.00000000000E+00  0.00000000000E+00 -0.79124993711E+03  0.79124993712E+03  0.50400001928E-02 0. -1.
    10030    2    1    2    0    0  0.00000000000E+00  0.00000000000E+00  0.46659816132E+03  0.20490980356E+04  0.19952666276E+04 0.  0.
        2    1    3    3  502    0  0.93030772230E+03  0.24654271324E+03 -0.36498556425E+02  0.96311365490E+03  0.25500000920E-02 0. -1.
       -2    1    3    3    0  502 -0.93030772230E+03 -0.24654271324E+03  0.50309671774E+03  0.10859843807E+04  0.25500000920E-02 0.  1.
</event>
<event>
 5   0  0.1274868E-04  0.2043667E+04  0.7818609E-02  0.8586473E-01
        2   -1    0    0  501    0  0.00000000000E+00  0.00000000000E+00  0.12065618897E+04  0.12065618897E+04  0.25500000920E-02 0.  1.
       -2   -1    0    0    0  501  0.00000000000E+00  0.00000000000E+00 -0.86538740620E+03  0.86538740620E+03  0.25500000920E-02 0. -1.
    10030    2    1    2    0    0  0.00000000000E+00  0.00000000000E+00  0.34117448346E+03  0.20719492959E+04  0.20436667675E+04 0.  0.
        1    1    3    3  502    0  0.79936537648E+03  0.80582645938E+02  0.81072440142E+03  0.11413818918E+04  0.50400001928E-02 0.  1.
       -1    1    3    3    0  502 -0.79936537648E+03 -0.80582645938E+02 -0.46954991796E+03  0.93056740402E+03  0.50400001928E-02 0. -1.
</event>
<event>
 5   0  0.6028501E-05  0.1998218E+04  0.7818609E-02  0.8607454E-01
       -1   -1    0    0    0  501  0.00000000000E+00  0.00000000000E+00  0.64877563211E+03  0.64877563213E+03  0.50400001928E-02 0.  1.
        1   -1    0    0  501    0  0.00000000000E+00  0.00000000000E+00 -0.15386200592E+04  0.15386200592E+04  0.50400001928E-02 0. -1.
    10030    2    1    2    0    0  0.00000000000E+00  0.00000000000E+00 -0.88984442707E+03  0.21873956913E+04  0.19982184080E+04 0.  0.
        4    1    3    3  502    0  0.67423606607E+03 -0.60676024852E+03 -0.90346518297E+03  0.12802356118E+04  0.12699999809E+01 0. -1.
       -4    1    3    3    0  502 -0.67423606607E+03  0.60676024852E+03  0.13620755893E+02  0.90716007952E+03  0.12699999809E+01 0.  1.
</event>
<event>
 5   0  0.1159914E-04  0.2067392E+04  0.7818609E-02  0.8575745E-01
        2   -1    0    0  501    0  0.00000000000E+00  0.00000000000E+00  0.71231743353E+03  0.71231743354E+03  0.25500000920E-02 0. -1.
       -2   -1    0    0    0  501  0.00000000000E+00  0.00000000000E+00 -0.15000717003E+04  0.15000717003E+04  0.25500000920E-02 0.  1.
    10030    2    1    2    0    0  0.00000000000E+00  0.00000000000E+00 -0.78775426672E+03  0.22123891338E+04  0.20673918096E+04 0.  0.
        3    1    3    3  502    0 -0.17127196592E+03  0.10170199129E+04 -0.31924622615E+03  0.10796211153E+04  0.10100000352E+00 0. -1.
       -3    1    3    3    0  502  0.17127196592E+03 -0.10170199129E+04 -0.46850804058E+03  0.11327680185E+04  0.10100000352E+00 0.  1.
</event>
<event>
 5   0  0.6028501E-05  0.1976919E+04  0.7818609E-02  0.8617488E-01
       -1   -1    0    0    0  501  0.00000000000E+00  0.00000000000E+00  0.59537505831E+03  0.59537505833E+03  0.50400001928E-02 0.  1.
        1   -1    0    0  501    0  0.00000000000E+00  0.00000000000E+00 -0.16410705306E+04  0.16410705306E+04  0.50400001928E-02 0. -1.
    10030    2    1    2    0    0  0.00000000000E+00  0.00000000000E+00 -0.10456954723E+04  0.22364455889E+04  0.19769192830E+04 0.  0.
        4    1    3    3  502    0  0.79087202992E+03 -0.21752405816E+03  0.10115811969E+03  0.82645620674E+03  0.12699999809E+01 0.  1.
       -4    1    3    3    0  502 -0.79087202992E+03  0.21752405816E+03 -0.11468535920E+04  0.14099893822E+04  0.12699999809E+01 0. -1.
</event>
<event>
 5   0  0.1159914E-04  0.1991175E+04  0.7818609E-02  0.8610758E-01
        2   -1    0    0  501    0  0.00000000000E+00  0.00000000000E+00  0.20015679834E+04  0.20015679834E+04  0.25500000920E-02 0.  1.
       -2   -1    0    0    0  501  0.00000000000E+00  0.00000000000E+00 -0.49520894834E+03  0.49520894835E+03  0.25500000920E-02 0. -1.
    10030    2    1    2    0    0  0.00000000000E+00  0.00000000000E+00  0.15063590351E+04  0.24967769318E+04  0.19911749056E+04 0.  0.
        3    1    3    3  502    0  0.73178728234E+03  0.67487330567E+03  0.77210337476E+03  0.12598056345E+04  0.10100000352E+00 0.  1.
       -3    1    3    3    0  502 -0.73178728234E+03 -0.67487330567E+03  0.73425566032E+03  0.12369712972E+04  0.10100000352E+00 0. -1.
</event>
<event>
 5   0  0.1242761E-04  0.1988337E+04  0.7818609E-02  0.8612093E-01
        2   -1    0    0  501    0  0.00000000000E+00  0.00000000000E+00  0.14764371347E+04  0.14764371347E+04  0.25500000920E-02 0.  1.
       -2   -1    0    0    0  501  0.00000000000E+00  0.00000000000E+00 -0.66942996278E+03  0.66942996279E+03  0.25500000920E-02 0. -1.
    10030    2    1    2    0    0  0.00000000000E+00  0.00000000000E+00  0.80700717193E+03  0.21458670975E+04  0.19883372512E+04 0.  0.
        4    1    3    3  502    0  0.89024019959E+03  0.14569276301E+03 -0.47473372332E+02  0.90333234645E+03  0.12699999809E+01 0. -1.
       -4    1    3    3    0  502 -0.89024019959E+03 -0.14569276301E+03  0.85448054426E+03  0.12425347511E+04  0.12699999809E+01 0.  1.
</event>
<event>
 5   0  0.1281789E-04  0.2006395E+04  0.7818609E-02  0.8603637E-01
       -2   -1    0    0    0  501  0.00000000000E+00  0.00000000000E+00  0.13101534149E+04  0.13101534149E+04  0.25500000920E-02 0.  1.
        2   -1    0    0  501    0  0.00000000000E+00  0.00000000000E+00 -0.76815823838E+03  0.76815823838E+03  0.25500000920E-02 0. -1.
    10030    2    1    2    0    0  0.00000000000E+00  0.00000000000E+00  0.54199517651E+03  0.20783116533E+04  0.20063949155E+04 0.  0.
        2    1    3    3  502    0 -0.18233042671E+02 -0.96210969880E+03  0.56474217344E+03  0.11157603859E+04  0.25500000920E-02 0.  1.
       -2    1    3    3    0  502  0.18233042671E+02  0.96210969880E+03 -0.22746996928E+02  0.96255126733E+03  0.25500000920E-02 0. -1.
</event>
<event>
 5   0  0.1281789E-04  0.2013034E+04  0.7818609E-02  0.8600551E-01
       -2   -1    0    0    0  501  0.00000000000E+00  0.00000000000E+00  0.49034626680E+03  0.49034626681E+03  0.25500000920E-02 0. -1.
        2   -1    0    0  501    0  0.00000000000E+00  0.00000000000E+00 -0.20660436619E+04  0.20660436619E+04  0.25500000920E-02 0.  1.
    10030    2    1    2    0    0  0.00000000000E+00  0.00000000000E+00 -0.15756973951E+04  0.25563899287E+04  0.20130343233E+04 0.  0.
        2    1    3    3  502    0 -0.97545338008E+02 -0.19393773659E+03  0.46026229879E+03  0.50888930264E+03  0.25500000920E-02 0. -1.
       -2    1    3    3    0  502  0.97545338008E+02  0.19393773659E+03 -0.20359596939E+04  0.20475006261E+04  0.25500000920E-02 0.  1.
</event>
<event>
 5   0  0.6028501E-05  0.1985356E+04  0.7818609E-02  0.8613498E-01
        1   -1    0    0  501    0  0.00000000000E+00  0.00000000000E+00  0.11819232102E+04  0.11819232102E+04  0.50400001928E-02 0.  1.
       -1   -1    0    0    0  501  0.00000000000E+00  0.00000000000E+00 -0.83373419058E+03  0.83373419059E+03  0.50400001928E-02 0. -1.
    10030    2    1    2    0    0  0.00000000000E+00  0.00000000000E+00  0.34818901962E+03  0.20156574008E+04  0.19853561806E+04 0.  0.
        4    1    3    3  502    0  0.13750656896E+03 -0.16642301737E+03  0.11578012236E+04  0.11777563261E+04  0.12699999809E+01 0.  1.
       -4    1    3    3    0  502 -0.13750656896E+03  0.16642301737E+03 -0.80961220403E+03  0.83790107473E+03  0.12699999809E+01 0. -1.
</event>
<event>
 5   0  0.1281789E-04  0.2105764E+04  0.7818609E-02  0.8558709E-01
       -2   -1    0    0    0  501  0.00000000000E+00  0.00000000000E+00  0.91342957454E+03  0.91342957455E+03  0.25500000920E-02 0. -1.
        2   -1    0    0  501    0  0.00000000000E+00  0.00000000000E+00 -0.12136240515E+04  0.12136240515E+04  0.25500000920E-02 0.  1.
    10030    2    1    2    0    0  0.00000000000E+00  0.00000000000E+00 -0.30019447692E+03  0.21270536260E+04  0.21057636154E+04 0.  0.
        2    1    3    3  502    0 -0.38916685790E+03 -0.66269225015E+03  0.57686525108E+03  0.96092943529E+03  0.25500000920E-02 0. -1.
       -2    1    3    3    0  502  0.38916685790E+03  0.66269225015E+03 -0.87705972800E+03  0.11661241907E+04  0.25500000920E-02 0.  1.
</event>
<event>
 5   0  0.1244229E-04  0.1988770E+04  0.7818609E-02  0.8611889E-01
       -2   -1    0    0    0  501  0.00000000000E+00  0.00000000000E+00  0.17569756259E+04  0.17569756259E+04  0.25500000920E-02 0. -1.
        2   -1    0    0  501    0  0.00000000000E+00  0.00000000000E+00 -0.56278625325E+03  0.56278625325E+03  0.25500000920E-02 0.  1.
    10030    2    1    2    0    0  0.00000000000E+00  0.00000000000E+00  0.11941893727E+04  0.23197618792E+04  0.19887702025E+04 0.  0.
        5    1    3    3  502    0 -0.65736736762E+03 -0.52863965945E+03 -0.17014978620E+02  0.84374364889E+03  0.46999998093E+01 0.  1.
       -5    1    3    3    0  502  0.65736736762E+03  0.52863965945E+03  0.12112043513E+04  0.14760182303E+04  0.46999998093E+01 0. -1.
</event>
<event>
 5   0  0.1244229E-04  0.2036349E+04  0.7818609E-02  0.8589812E-01
        2   -1    0    0  501    0  0.00000000000E+00  0.00000000000E+00  0.81206172688E+03  0.81206172688E+03  0.25500000920E-02 0.  1.
       -2   -1    0    0    0  501  0.00000000000E+00  0.00000000000E+00 -0.12766021712E+04  0.12766021712E+04  0.25500000920E-02 0. -1.
    10030    2    1    2    0    0  0.00000000000E+00  0.00000000000E+00 -0.46454044436E+03  0.20886638981E+04  0.20363494432E+04 0.  0.
        5    1    3    3  502    0  0.83141731568E+03 -0.48172763866E+03  0.11304088361E+03  0.96753118917E+03  0.46999998093E+01 0.  1.
       -5    1    3    3    0  502 -0.83141731568E+03  0.48172763866E+03 -0.57758132797E+03  0.11211327089E+04  0.46999998093E+01 0. -1.
</event>
<event>
 5   0  0.1159914E-04  0.1996189E+04  0.7818609E-02  0.8608405E-01
       -2   -1    0    0    0  501  0.00000000000E+00  0.00000000000E+00  0.42326910084E+03  0.42326910085E+03  0.25500000920E-02 0.  1.
        2   -1    0    0  501    0  0.00000000000E+00  0.00000000000E+00 -0.23535671002E+04  0.23535671002E+04  0.25500000920E-02 0. -1.
    10030    2    1    2    0    0  0.00000000000E+00  0.00000000000E+00 -0.19302979993E+04  0.27768362010E+04  0.19961885986E+04 0.  0.
        3    1    3    3  502    0 -0.64861186708E+03 -0.52381853369E+03 -0.17284758990E+04  0.19190393832E+04  0.10100000352E+00 0. -1.
       -3    1    3    3    0  502  0.64861186708E+03  0.52381853369E+03 -0.20182210028E+03  0.85779681785E+03  0.10100000352E+00 0.  1.
</event>
<event>
 5   0  0.6168338E-05  0.1918433E+04  0.7818609E-02  0.8645735E-01
       -1   -1    0    0    0  501  0.00000000000E+00  0.00000000000E+00  0.66100298839E+03  0.66100298841E+03  0.50400001928E-02 0.  1.
        1   -1    0    0  501    0  0.00000000000E+00  0.00000000000E+00 -0.13919699424E+04  0.13919699424E+04  0.50400001928E-02 0. -1.
    10030    2    1    2    0    0  0.00000000000E+00  0.00000000000E+00 -0.73096695403E+03  0.20529729308E+04  0.19184329978E+04 0.  0.
        5    1    3    3  502    0  0.66642962251E+03  0.37601203922E+03  0.25349286972E+03  0.80609814563E+03  0.46999998093E+01 0.  1.
       -5    1    3    3    0  502 -0.66642962251E+03 -0.37601203922E+03 -0.98445982375E+03  0.12468747852E+04  0.46999998093E+01 0. -1.
</event>
<event>
 5   0  0.6256535E-05  0.1999008E+04  0.7818609E-02  0.8607085E-01
       -1   -1    0    0    0  501  0.00000000000E+00  0.00000000000E+00  0.76744122645E+03  0.76744122647E+03  0.50400001928E-02 0.  1.
        1   -1    0    0  501    0  0.00000000000E+00  0.00000000000E+00 -0.13017390965E+04  0.13017390965E+04  0.50400001928E-02 0. -1.
    10030    2    1    2    0    0  0.00000000000E+00  0.00000000000E+00 -0.53429787001E+03  0.20691803229E+04  0.19990080027E+04 0.  0.
        1    1    3    3  502    0  0.17454071039E+03 -0.33784907381E+03 -0.12239350903E+04  0.12816487668E+04  0.50400001928E-02 0. -1.
       -1    1    3    3    0  502 -0.17454071039E+03  0.33784907381E+03  0.68963722027E+03  0.78753155611E+03  0.50400001928E-02 0.  1.
</event>
<event>
 5   0  0.1159914E-04  0.1948897E+04  0.7818609E-02  0.8630893E-01
        2   -1    0    0  501    0  0.00000000000E+00  0.00000000000E+00  0.12340561217E+04  0.12340561217E+04  0.25500000920E-02 0. -1.
       -2   -1    0    0    0  501  0.00000000000E+00  0.00000000000E+00 -0.76945399951E+03  0.76945399951E+03  0.25500000920E-02 0.  1.
    10030    2    1    2    0    0  0.00000000000E+00  0.00000000000E+00  0.46460212218E+03  0.20035101212E+04  0.19488965272E+04 0.  0.
        3    1    3    3  502    0  0.93945041513E+03 -0.18668292025E+03  0.41657773923E+03  0.10444877300E+04  0.10100000352E+00 0.  1.
       -3    1    3    3    0  502 -0.93945041513E+03  0.18668292025E+03  0.48024382952E+02  0.95902239116E+03  0.10100000352E+00 0. -1.
</event>
<event>
 5   0  0.6222733E-05  0.1997602E+04  0.7818609E-02  0.8607743E-01
       -1   -1    0    0    0  501  0.00000000000E+00  0.00000000000E+00  0.11947025038E+04  0.11947025038E+04  0.50400001928E-02 0.  1.
        1   -1    0    0  501    0  0.00000000000E+00  0.00000000000E+00 -0.83502217128E+03  0.83502217129E+03  0.50400001928E-02 0. -1.
    10030    2    1    2    0    0  0.00000000000E+00  0.00000000000E+00  0.35968033256E+03  0.20297246751E+04  0.19976016408E+04 0.  0.
        2    1    3    3  502    0 -0.45455651205E+03  0.44884527835E+03  0.95998868080E+03  0.11531096972E+04  0.25500000920E-02 0.  1.
       -2    1    3    3    0  502  0.45455651205E+03 -0.44884527835E+03 -0.60030834824E+03  0.87661497792E+03  0.25500000920E-02 0. -1.
</event>
<event>
 5   0  0.1242761E-04  0.1996275E+04  0.7818609E-02  0.8608364E-01
       -2   -1    0    0    0  501  0.00000000000E+00  0.00000000000E+00  0.52995895938E+03  0.52995895938E+03  0.25500000920E-02 0.  1.
        2   -1    0    0  501    0  0.00000000000E+00  0.00000000000E+00 -0.18799155744E+04  0.18799155744E+04  0.25500000920E-02 0. -1.
    10030    2    1    2    0    0  0.00000000000E+00  0.00000000000E+00 -0.13499566150E+04  0.24098745338E+04  0.19962746319E+04 0.  0.
        4    1    3    3  502    0  0.46523361036E+03  0.41766928059E+03  0.26429185792E+03  0.67877959547E+03  0.12699999809E+01 0.  1.
       -4    1    3    3    0  502 -0.46523361036E+03 -0.41766928059E+03 -0.16142484729E+04  0.17310949383E+04  0.12699999809E+01 0. -1.
</event>
<event>
 5   0  0.6028501E-05  0.1928238E+04  0.7818609E-02  0.8640927E-01
        1   -1    0    0  501    0  0.00000000000E+00  0.00000000000E+00  0.99109788103E+03  0.99109788104E+03  0.50400001928E-02 0. -1.
       -1   -1    0    0    0  501  0.00000000000E+00  0.00000000000E+00 -0.93787414596E+03  0.93787414597E+03  0.50400001928E-02 0.  1.
    10030    2    1    2    0    0  0.00000000000E+00  0.00000000000E+00  0.53223735070E+02  0.19289720270E+04  0.19282376189E+04 0.  0.
        4    1    3    3  502    0 -0.54152737835E+03 -0.54691277533E+03 -0.55426234969E+03  0.94845867095E+03  0.12699999809E+01 0.  1.
       -4    1    3    3    0  502  0.54152737835E+03  0.54691277533E+03  0.60748608476E+03  0.98051335605E+03  0.12699999809E+01 0. -1.
</event>
<event>
 5   0  0.1242761E-04  0.1995079E+04  0.7818609E-02  0.8608925E-01
       -2   -1    0    0    0  501  0.00000000000E+00  0.00000000000E+00  0.15571966637E+04  0.15571966637E+04  0.25500000920E-02 0.  1.
        2   -1    0    0  501    0  0.00000000000E+00  0.00000000000E+00 -0.63902353389E+03  0.63902353389E+03  0.25500000920E-02 0. -1.
    10030    2    1    2    0    0  0.00000000000E+00  0.00000000000E+00  0.91817312983E+03  0.21962201976E+04  0.19950792616E+04 0.  0.
        4    1    3    3  502    0 -0.83417716305E+01 -0.96112588106E+03  0.16524604105E+03  0.97526427771E+03  0.12699999809E+01 0. -1.
       -4    1    3    3    0  502  0.83417716305E+01  0.96112588106E+03  0.75292708878E+03  0.12209559199E+04  0.12699999809E+01 0.  1.
</event>
<event>
 5   0  0.1274868E-04  0.2001499E+04  0.7818609E-02  0.8605920E-01
       -2   -1    0    0    0  501  0.00000000000E+00  0.00000000000E+00  0.73733989791E+03  0.73733989792E+03  0.25500000920E-02 0. -1.
        2   -1    0    0  501    0  0.00000000000E+00  0.00000000000E+00 -0.13582597936E+04  0.13582597936E+04  0.25500000920E-02 0.  1.
    10030    2    1    2    0    0  0.00000000000E+00  0.00000000000E+00 -0.62091989567E+03  0.20955996915E+04  0.20014985761E+04 0.  0.
        1    1    3    3  502    0  0.74017494060E+03 -0.53634584773E+03 -0.73701215103E+03  0.11741859827E+04  0.50400001928E-02 0. -1.
       -1    1    3    3    0  502 -0.74017494060E+03  0.53634584773E+03  0.11609225537E+03  0.92141370885E+03  0.50400001928E-02 0.  1.
</event>
<event>
 5   0  0.1281789E-04  0.2004099E+04  0.7818609E-02  0.8604707E-01
       -2   -1    0    0    0  501  0.00000000000E+00  0.00000000000E+00  0.12842108234E+04  0.12842108234E+04  0.25500000920E-02 0.  1.
        2   -1    0    0  501    0  0.00000000000E+00  0.00000000000E+00 -0.78188360472E+03  0.78188360472E+03  0.25500000920E-02 0. -1.
    10030    2    1    2    0    0  0.00000000000E+00  0.00000000000E+00  0.50232721868E+03  0.20660944281E+04  0.20040991870E+04 0.  0.
        2    1    3    3  502    0 -0.76008480567E+03  0.54453523275E+02  0.92199155423E+03  0.11961448592E+04  0.25500000920E-02 0.  1.
       -2    1    3    3    0  502  0.76008480567E+03 -0.54453523275E+02 -0.41966433555E+03  0.86994956897E+03  0.25500000920E-02 0. -1.
</event>
<event>
 5   0  0.6214547E-05  0.2063933E+04  0.7818609E-02  0.8577300E-01
        1   -1    0    0  501    0  0.00000000000E+00  0.00000000000E+00  0.58783140247E+03  0.58783140249E+03  0.50400001928E-02 0.  1.
       -1   -1    0    0    0  501  0.00000000000E+00  0.00000000000E+00 -0.18116667238E+04  0.18116667238E+04  0.50400001928E-02 0. -1.
    10030    2    1    2    0    0  0.00000000000E+00  0.00000000000E+00 -0.12238353214E+04  0.23994981263E+04  0.20639327422E+04 0.  0.
        3    1    3    3  502    0  0.67471929027E+03 -0.47908592244E+03 -0.13287580101E+04  0.15653649100E+04  0.10100000352E+00 0. -1.
       -3    1    3    3    0  502 -0.67471929027E+03  0.47908592244E+03  0.10492268879E+03  0.83413321632E+03  0.10100000352E+00 0.  1.
</event>
<event>
 5   0  0.6256535E-05  0.1973512E+04  0.7818609E-02  0.8619106E-01
       -1   -1    0    0    0  501  0.00000000000E+00  0.00000000000E+00  0.89297878240E+03  0.89297878241E+03  0.50400001928E-02 0. -1.
        1   -1    0    0  501    0  0.00000000000E+00  0.00000000000E+00 -0.10903811953E+04  0.10903811953E+04  0.50400001928E-02 0.  1.
    10030    2    1    2    0    0  0.00000000000E+00  0.00000000000E+00 -0.19740241293E+03  0.19833599778E+04  0.19735118669E+04 0.  0.
        1    1    3    3  502    0 -0.11654041966E+03 -0.52139551191E+03 -0.93245082090E+03  0.10746624971E+04  0.50400001928E-02 0.  1.
       -1    1    3    3    0  502  0.11654041966E+03  0.52139551191E+03  0.73504840797E+03  0.90869748065E+03  0.50400001928E-02 0. -1.
</event>
<event>
 5   0  0.6222733E-05  0.2002325E+04  0.7818609E-02  0.8605535E-01
       -1   -1    0    0    0  501  0.00000000000E+00  0.00000000000E+00  0.66642945472E+03  0.66642945474E+03  0.50400001928E-02 0.  1.
        1   -1    0    0  501    0  0.00000000000E+00  0.00000000000E+00 -0.15040241987E+04  0.15040241987E+04  0.50400001928E-02 0. -1.
    10030    2    1    2    0    0  0.00000000000E+00  0.00000000000E+00 -0.83759474397E+03  0.21704536534E+04  0.20023246756E+04 0.  0.
        2    1    3    3  502    0  0.44811449229E+03  0.24672980032E+03  0.51407176047E+03  0.72522545976E+03  0.25500000920E-02 0.  1.
       -2    1    3    3    0  502 -0.44811449229E+03 -0.24672980032E+03 -0.13516665044E+04  0.14452281937E+04  0.25500000920E-02 0. -1.
</event>
<event>
 5   0  0.1281789E-04  0.2004724E+04  0.7818609E-02  0.8604415E-01
       -2   -1    0    0    0  501  0.00000000000E+00  0.00000000000E+00  0.69908297756E+03  0.69908297756E+03  0.25500000920E-02 0. -1.
        2   -1    0    0  501    0  0.00000000000E+00  0.00000000000E+00 -0.14372105254E+04  0.14372105254E+04  0.25500000920E-02 0.  1.
    10030    2    1    2    0    0  0.00000000000E+00  0.00000000000E+00 -0.73812754786E+03  0.21362935030E+04  0.20047238348E+04 0.  0.
        2    1    3    3  502    0  0.43094497773E+03  0.89816375749E+03 -0.25079468414E+03  0.10272826693E+04  0.25500000920E-02 0. -1.
       -2    1    3    3    0  502 -0.43094497773E+03 -0.89816375749E+03 -0.48733286372E+03  0.11090108337E+04  0.25500000920E-02 0.  1.
</event>
<event>
 5   0  0.1244229E-04  0.2015349E+04  0.7818609E-02  0.8599478E-01
       -2   -1    0    0    0  501  0.00000000000E+00  0.00000000000E+00  0.69736986846E+03  0.69736986847E+03  0.25500000920E-02 0. -1.
        2   -1    0    0  501    0  0.00000000000E+00  0.00000000000E+00 -0.14560534381E+04  0.14560534381E+04  0.25500000920E-02 0.  1.
    10030    2    1    2    0    0  0.00000000000E+00  0.00000000000E+00 -0.75868356964E+03  0.21534233066E+04  0.20153488975E+04 0.  0.
        5    1    3    3  502    0 -0.20089211541E+03  0.26569832179E+03  0.63683024894E+03  0.71869889119E+03  0.46999998093E+01 0. -1.
       -5    1    3    3    0  502  0.20089211541E+03 -0.26569832179E+03 -0.13955138186E+04  0.14347244154E+04  0.46999998093E+01 0.  1.
</event>
<event>
 5   0  0.6256535E-05  0.2019109E+04  0.7818609E-02  0.8597738E-01
       -1   -1    0    0    0  501  0.00000000000E+00  0.00000000000E+00  0.99175337575E+03  0.99175337576E+03  0.50400001928E-02 0. -1.
        1   -1    0    0  501    0  0.00000000000E+00  0.00000000000E+00 -0.10276755790E+04  0.10276755790E+04  0.50400001928E-02 0.  1.
    10030    2    1    2    0    0  0.00000000000E+00  0.00000000000E+00 -0.35922203282E+02  0.20194289548E+04  0.20191094321E+04 0.  0.
        1    1    3    3  502    0 -0.25876491867E+03 -0.85153495816E+03  0.45869553420E+03  0.10012355673E+04  0.50400001928E-02 0.  1.
       -1    1    3    3    0  502  0.25876491867E+03  0.85153495816E+03 -0.49461773748E+03  0.10181933875E+04  0.50400001928E-02 0. -1.
</event>
<event>
 5   0  0.1274868E-04  0.2004422E+04  0.7818609E-02  0.8604556E-01
        2   -1    0    0  501    0  0.00000000000E+00  0.00000000000E+00  0.65943688013E+03  0.65943688014E+03  0.25500000920E-02 0.  1.
       -2   -1    0    0    0  501  0.00000000000E+00  0.00000000000E+00 -0.15231578566E+04  0.15231578566E+04  0.25500000920E-02 0. -1.
    10030    2    1    2    0    0  0.00000000000E+00  0.00000000000E+00 -0.86372097649E+03  0.21825947368E+04  0.20044215773E+04 0.  0.
        1    1    3    3  502    0  0.10932871417E+03 -0.28876054374E+03  0.60635552813E+03  0.68044283072E+03  0.50400001928E-02 0.  1.
       -1    1    3    3    0  502 -0.10932871417E+03  0.28876054374E+03 -0.14700765046E+04  0.15021519060E+04  0.50400001928E-02 0. -1.
</event>
<event>
 5   0  0.6256535E-05  0.2009419E+04  0.7818609E-02  0.8602230E-01
        1   -1    0    0  501    0  0.00000000000E+00  0.00000000000E+00  0.70039171861E+03  0.70039171863E+03  0.50400001928E-02 0. -1.
       -1   -1    0    0    0  501  0.00000000000E+00  0.00000000000E+00 -0.14412516042E+04  0.14412516042E+04  0.50400001928E-02 0.  1.
    10030    2    1    2    0    0  0.00000000000E+00  0.00000000000E+00 -0.74085988557E+03  0.21416433228E+04  0.20094185109E+04 0.  0.
        1    1    3    3  502    0 -0.59742619525E+03 -0.69732536359E+01  0.49048124378E+03  0.77300616787E+03  0.50400001928E-02 0. -1.
       -1    1    3    3    0  502  0.59742619525E+03  0.69732536359E+01 -0.12313411293E+04  0.13686371549E+04  0.50400001928E-02 0.  1.
</event>
<event>
 5   0  0.1244229E-04  0.2010817E+04  0.7818609E-02  0.8601580E-01
       -2   -1    0    0    0  501  0.00000000000E+00  0.00000000000E+00  0.92933665015E+03  0.92933665015E+03  0.25500000920E-02 0.  1.
        2   -1    0    0  501    0  0.00000000000E+00  0.00000000000E+00 -0.10877078305E+04  0.10877078305E+04  0.25500000920E-02 0. -1.
    10030    2    1    2    0    0  0.00000000000E+00  0.00000000000E+00 -0.15837118039E+03  0.20170444807E+04  0.20108174970E+04 0.  0.
        5    1    3    3  502    0  0.51745096236E+03 -0.27754609146E+03 -0.89782397765E+03  0.10727988237E+04  0.46999998093E+01 0. -1.
       -5    1    3    3    0  502 -0.51745096236E+03  0.27754609146E+03  0.73945279726E+03  0.94424565697E+03  0.46999998093E+01 0.  1.
</event>
<event>
 5   0  0.1274868E-04  0.2022772E+04  0.7818609E-02  0.8596047E-01
        2   -1    0    0  501    0  0.00000000000E+00  0.00000000000E+00  0.12444124293E+04  0.12444124293E+04  0.25500000920E-02 0. -1.
       -2   -1    0    0    0  501  0.00000000000E+00  0.00000000000E+00 -0.82199584625E+03  0.82199584626E+03  0.25500000920E-02 0.  1.
    10030    2    1    2    0    0  0.00000000000E+00  0.00000000000E+00  0.42241658307E+03  0.20664082756E+04  0.20227722046E+04 0.  0.
        1    1    3    3  502    0  0.53288890455E+03  0.53118111982E+03 -0.47922494259E+03  0.89206530717E+03  0.50400001928E-02 0.  1.
       -1    1    3    3    0  502 -0.53288890455E+03 -0.53118111982E+03  0.90164152565E+03  0.11743429684E+04  0.50400001928E-02 0. -1.
</event>
<event>
 5   0  0.1244229E-04  0.1991318E+04  0.7818609E-02  0.8610691E-01
       -2   -1    0    0    0  501  0.00000000000E+00  0.00000000000E+00  0.84068993433E+03  0.84068993433E+03  0.25500000920E-02 0.  1.
        2   -1    0    0  501    0  0.00000000000E+00  0.00000000000E+00 -0.11791942436E+04  0.11791942436E+04  0.25500000920E-02 0. -1.
    10030    2    1    2    0    0  0.00000000000E+00  0.00000000000E+00 -0.33850430925E+03  0.20198841779E+04  0.19913178864E+04 0.  0.
        5    1    3    3  502    0  0.19805697692E+03 -0.46289793815E+03  0.70203075043E+03  0.86392727228E+03  0.46999998093E+01 0.  1.
       -5    1    3    3    0  502 -0.19805697692E+03  0.46289793815E+03 -0.10405350597E+04  0.11559569056E+04  0.46999998093E+01 0. -1.
</event>
<event>
 5   0  0.1244229E-04  0.1977977E+04  0.7818609E-02  0.8616987E-01
       -2   -1    0    0    0  501  0.00000000000E+00  0.00000000000E+00  0.59655808182E+03  0.59655808182E+03  0.25500000920E-02 0. -1.
        2   -1    0    0  501    0  0.00000000000E+00  0.00000000000E+00 -0.16395698369E+04  0.16395698369E+04  0.25500000920E-02 0.  1.
    10030    2    1    2    0    0  0.00000000000E+00  0.00000000000E+00 -0.10430117551E+04  0.22361279187E+04  0.19779773880E+04 0.  0.
        5    1    3    3  502    0 -0.23800973104E+03  0.15337497465E+03 -0.15927545144E+04  0.16177334602E+04  0.46999998093E+01 0.  1.
       -5    1    3    3    0  502  0.23800973104E+03 -0.15337497465E+03  0.54974275935E+03  0.61839445855E+03  0.46999998093E+01 0. -1.
</event>
<event>
 5   0  0.4479000E-05  0.1933111E+04  0.7818609E-02  0.8638548E-01
        4   -1    0    0  501    0  0.00000000000E+00  0.00000000000E+00  0.11557133200E+04  0.11557140178E+04  0.12699999809E+01 0.  1.
       -4   -1    0    0    0  501  0.00000000000E+00  0.00000000000E+00 -0.80835573380E+03  0.80835673144E+03  0.12699999809E+01 0. -1.
    10030    2    1    2    0    0  0.00000000000E+00  0.00000000000E+00  0.34735758623E+03  0.19640707493E+04  0.19331106061E+04 0.  0.
        4    1    3    3  502    0 -0.85945021575E+03 -0.30704458996E+03  0.49704722234E+03  0.10392250034E+04  0.12699999809E+01 0. -1.
       -4    1    3    3    0  502  0.85945021575E+03  0.30704458996E+03 -0.14968963611E+03  0.92484574586E+03  0.12699999809E+01 0.  1.
</event>
<event>
 5   0  0.1159914E-04  0.1960456E+04  0.7818609E-02  0.8625335E-01
        2   -1    0    0  501    0  0.00000000000E+00  0.00000000000E+00  0.80523959014E+03  0.80523959014E+03  0.25500000920E-02 0. -1.
       -2   -1    0    0    0  501  0.00000000000E+00  0.00000000000E+00 -0.11932438317E+04  0.11932438317E+04  0.25500000920E-02 0.  1.
    10030    2    1    2    0    0  0.00000000000E+00  0.00000000000E+00 -0.38800424152E+03  0.19984834218E+04  0.19604562468E+04 0.  0.
        3    1    3    3  502    0  0.29616622949E+03 -0.66788736605E+03 -0.86017574552E+03  0.11285788819E+04  0.10100000352E+00 0.  1.
       -3    1    3    3    0  502 -0.29616622949E+03  0.66788736605E+03  0.47217150400E+03  0.86990453994E+03  0.10100000352E+00 0. -1.
</event>
<event>
 5   0  0.6222733E-05  0.1895322E+04  0.7818609E-02  0.8657188E-01
       -1   -1    0    0    0  501  0.00000000000E+00  0.00000000000E+00  0.13077825914E+04  0.13077825914E+04  0.50400001928E-02 0.  1.
        1   -1    0    0  501    0  0.00000000000E+00  0.00000000000E+00 -0.68670544726E+03  0.68670544728E+03  0.50400001928E-02 0. -1.
    10030    2    1    2    0    0  0.00000000000E+00  0.00000000000E+00  0.62107714416E+03  0.19944880387E+04  0.18953220617E+04 0.  0.
        2    1    3    3  502    0 -0.35519756024E+03 -0.80385656178E+03 -0.62569485528E+02  0.88105937327E+03  0.25500000920E-02 0. -1.
       -2    1    3    3    0  502  0.35519756024E+03  0.80385656178E+03  0.68364662969E+03  0.11134286654E+04  0.25500000920E-02 0.  1.
</event>
<event>
 5   0  0.1242761E-04  0.2034370E+04  0.7818609E-02  0.8590718E-01
        2   -1    0    0  501    0  0.00000000000E+00  0.00000000000E+00  0.14017168853E+04  0.14017168853E+04  0.25500000920E-02 0.  1.
       -2   -1    0    0    0  501  0.00000000000E+00  0.00000000000E+00 -0.73814126288E+03  0.73814126288E+03  0.25500000920E-02 0. -1.
    10030    2    1    2    0    0  0.00000000000E+00  0.00000000000E+00  0.66357562246E+03  0.21398581482E+04  0.20343697520E+04 0.  0.
        4    1    3    3  502    0  0.16731156940E+03  0.79123557836E+03 -0.31714380437E+03  0.86869367862E+03  0.12699999809E+01 0. -1.
       -4    1    3    3    0  502 -0.16731156940E+03 -0.79123557836E+03  0.98071942683E+03  0.12711644696E+04  0.12699999809E+01 0.  1.
</event>
<event>
 5   0  0.6214547E-05  0.2000065E+04  0.7818609E-02  0.8606590E-01
       -1   -1    0    0    0  501  0.00000000000E+00  0.00000000000E+00  0.61612553571E+03  0.61612553573E+03  0.50400001928E-02 0. -1.
        1   -1    0    0  501    0  0.00000000000E+00  0.00000000000E+00 -0.16231519885E+04  0.16231519885E+04  0.50400001928E-02 0.  1.
    10030    2    1    2    0    0  0.00000000000E+00  0.00000000000E+00 -0.10070264528E+04  0.22392775243E+04  0.20000653874E+04 0.  0.
        3    1    3    3  502    0 -0.26445991452E+03 -0.60086989868E+03  0.34108669334E+03  0.73981337113E+03  0.10100000352E+00 0. -1.
       -3    1    3    3    0  502  0.26445991452E+03  0.60086989868E+03 -0.13481131461E+04  0.14994641531E+04  0.10100000352E+00 0.  1.
</event>
<event>
 5   0  0.1159914E-04  0.2001096E+04  0.7818609E-02  0.8606108E-01
        2   -1    0    0  501    0  0.00000000000E+00  0.00000000000E+00  0.64176420182E+03  0.64176420182E+03  0.25500000920E-02 0. -1.
       -2   -1    0    0    0  501  0.00000000000E+00  0.00000000000E+00 -0.15599128012E+04  0.15599128012E+04  0.25500000920E-02 0.  1.
    10030    2    1    2    0    0  0.00000000000E+00  0.00000000000E+00 -0.91814859941E+03  0.22016770030E+04  0.20010958935E+04 0.  0.
        3    1    3    3  502    0  0.28876381015E+03  0.27139413715E+03  0.55174042418E+03  0.67930613247E+03  0.10100000352E+00 0. -1.
       -3    1    3    3    0  502 -0.28876381015E+03 -0.27139413715E+03 -0.14698890236E+04  0.15223708706E+04  0.10100000352E+00 0.  1.
</event>
<event>
 5   0  0.6028501E-05  0.2000062E+04  0.7818609E-02  0.8606592E-01
       -1   -1    0    0    0  501  0.00000000000E+00  0.00000000000E+00  0.99399451128E+03  0.99399451130E+03  0.50400001928E-02 0.  1.
        1   -1    0    0  501    0  0.00000000000E+00  0.00000000000E+00 -0.10061043194E+04  0.10061043194E+04  0.50400001928E-02 0. -1.
    10030    2    1    2    0    0  0.00000000000E+00  0.00000000000E+00 -0.12109808084E+02  0.20000988307E+04  0.20000621703E+04 0.  0.
        4    1    3    3  502    0 -0.40933631109E+03  0.76511339765E+03 -0.50316142211E+03  0.10030591989E+04  0.12699999809E+01 0. -1.
       -4    1    3    3    0  502  0.40933631109E+03 -0.76511339765E+03  0.49105161402E+03  0.99703963180E+03  0.12699999809E+01 0.  1.
</event>
<event>
 5   0  0.1274868E-04  0.1951523E+04  0.7818609E-02  0.8629626E-01
       -2   -1    0    0    0  501  0.00000000000E+00  0.00000000000E+00  0.11396480572E+04  0.11396480572E+04  0.25500000920E-02 0. -1.
        2   -1    0    0  501    0  0.00000000000E+00  0.00000000000E+00 -0.83544298782E+03  0.83544298783E+03  0.25500000920E-02 0.  1.
    10030    2    1    2    0    0  0.00000000000E+00  0.00000000000E+00  0.30420506935E+03  0.19750910450E+04  0.19515234848E+04 0.  0.
        1    1    3    3  502    0 -0.20342182456E+03 -0.59136740909E+03  0.91015737231E+03  0.11043017222E+04  0.50400001928E-02 0. -1.
       -1    1    3    3    0  502  0.20342182456E+03  0.59136740909E+03 -0.60595230295E+03  0.87078932281E+03  0.50400001928E-02 0.  1.
</event>
<event>
 5   0  0.6168338E-05  0.1992669E+04  0.7818609E-02  0.8610056E-01
        1   -1    0    0  501    0  0.00000000000E+00  0.00000000000E+00  0.14766188568E+04  0.14766188568E+04  0.50400001928E-02 0. -1.
       -1   -1    0    0    0  501  0.00000000000E+00  0.00000000000E+00 -0.67226736602E+03  0.67226736604E+03  0.50400001928E-02 0.  1.
    10030    2    1    2    0    0  0.00000000000E+00  0.00000000000E+00  0.80435149077E+03  0.21488862228E+04  0.19926692345E+04 0.  0.
        5    1    3    3  502    0 -0.46010722370E+03  0.87752816925E+03  0.28955572050E+03  0.10322882109E+04  0.46999998093E+01 0.  1.
       -5    1    3    3    0  502  0.46010722370E+03 -0.87752816925E+03  0.51479577027E+03  0.11165980119E+04  0.46999998093E+01 0. -1.
</event>
<event>
 5   0  0.6028501E-05  0.2010534E+04  0.7818609E-02  0.8601711E-01
        1   -1    0    0  501    0  0.00000000000E+00  0.00000000000E+00  0.10556167512E+04  0.10556167512E+04  0.50400001928E-02 0.  1.
       -1   -1    0    0    0  501  0.00000000000E+00  0.00000000000E+00 -0.95731895681E+03  0.95731895682E+03  0.50400001928E-02 0. -1.
    10030    2    1    2    0    0  0.00000000000E+00  0.00000000000E+00  0.98297794374E+02  0.20129357080E+04  0.20105341848E+04 0.  0.
        4    1    3    3  502    0 -0.52356471891E+03 -0.63212153911E+03 -0.53194307877E+03  0.97809135925E+03  0.12699999809E+01 0. -1.
       -4    1    3    3    0  502  0.52356471891E+03  0.63212153911E+03  0.63024087315E+03  0.10348443488E+04  0.12699999809E+01 0.  1.
</event>
<event>
 5   0  0.1159914E-04  0.1994596E+04  0.7818609E-02  0.8609152E-01
       -2   -1    0    0    0  501  0.00000000000E+00  0.00000000000E+00  0.52087005294E+03  0.52087005295E+03  0.25500000920E-02 0.  1.
        2   -1    0    0  501    0  0.00000000000E+00  0.00000000000E+00 -0.19095031258E+04  0.19095031258E+04  0.25500000920E-02 0. -1.
    10030    2    1    2    0    0  0.00000000000E+00  0.00000000000E+00 -0.13886330729E+04  0.24303731788E+04  0.19945956926E+04 0.  0.
        3    1    3    3  502    0 -0.54567305495E+03  0.75972483079E+03 -0.27281771414E+03  0.97435641156E+03  0.10100000352E+00 0.  1.
       -3    1    3    3    0  502  0.54567305495E+03 -0.75972483079E+03 -0.11158153587E+04  0.14560167672E+04  0.10100000352E+00 0. -1.
</event>
<event>
 5   0  0.6168338E-05  0.1995649E+04  0.7818609E-02  0.8608658E-01
        1   -1    0    0  501    0  0.00000000000E+00  0.00000000000E+00  0.20127194910E+04  0.20127194910E+04  0.50400001928E-02 0.  1.
       -1   -1    0    0    0  501  0.00000000000E+00  0.00000000000E+00 -0.49468062163E+03  0.49468062165E+03  0.50400001928E-02 0. -1.
    10030    2    1    2    0    0  0.00000000000E+00  0.00000000000E+00  0.15180388694E+04  0.25074001127E+04  0.19956485953E+04 0.  0.
        5    1    3    3  502    0 -0.95688645298E+02  0.82561903897E+03  0.65326793540E+02  0.83372225249E+03  0.46999998093E+01 0. -1.
       -5    1    3    3    0  502  0.95688645298E+02 -0.82561903897E+03  0.14527120758E+04  0.16736778602E+04  0.46999998093E+01 0.  1.
</event>
<event>
 5   0  0.6214547E-05  0.1927066E+04  0.7818609E-02  0.8641500E-01
       -1   -1    0    0    0  501  0.00000000000E+00  0.00000000000E+00  0.57459317989E+03  0.57459317991E+03  0.50400001928E-02 0.  1.
        1   -1    0    0  501    0  0.00000000000E+00  0.00000000000E+00 -0.16157442559E+04  0.16157442559E+04  0.50400001928E-02 0. -1.
    10030    2    1    2    0    0  0.00000000000E+00  0.00000000000E+00 -0.10411510760E+04  0.21903374358E+04  0.19270657798E+04 0.  0.
        3    1    3    3  502    0 -0.94059453339E+03  0.18249544195E+03 -0.63633747313E+03  0.11501947889E+04  0.10100000352E+00 0. -1.
       -3    1    3    3    0  502  0.94059453339E+03 -0.18249544195E+03 -0.40481360285E+03  0.10401426469E+04  0.10100000352E+00 0.  1.
</event>
<event>
 5   0  0.6222733E-05  0.2000170E+04  0.7818609E-02  0.8606541E-01
        1   -1    0    0  501    0  0.00000000000E+00  0.00000000000E+00  0.15071165214E+04  0.15071165214E+04  0.50400001928E-02 0. -1.
       -1   -1    0    0    0  501  0.00000000000E+00  0.00000000000E+00 -0.66363152192E+03  0.66363152194E+03  0.50400001928E-02 0.  1.
    10030    2    1    2    0    0  0.00000000000E+00  0.00000000000E+00  0.84348499949E+03  0.21707480434E+04  0.20001700236E+04 0.  0.
        2    1    3    3  502    0  0.50557642595E+03 -0.61431998462E+03  0.10793672470E+04  0.13409064918E+04  0.25500000920E-02 0. -1.
       -2    1    3    3    0  502 -0.50557642595E+03  0.61431998462E+03 -0.23588224747E+03  0.82984155154E+03  0.25500000920E-02 0.  1.
</event>
<event>
 5   0  0.1281789E-04  0.2012965E+04  0.7818609E-02  0.8600583E-01
       -2   -1    0    0    0  501  0.00000000000E+00  0.00000000000E+00  0.57553482416E+03  0.57553482416E+03  0.25500000920E-02 0.  1.
        2   -1    0    0  501    0  0.00000000000E+00  0.00000000000E+00 -0.17601133693E+04  0.17601133693E+04  0.25500000920E-02 0. -1.
    10030    2    1    2    0    0  0.00000000000E+00  0.00000000000E+00 -0.11845785452E+04  0.23356481935E+04  0.20129645188E+04 0.  0.
        2    1    3    3  502    0 -0.68956186188E+03  0.70205408950E+03 -0.83741549660E+03  0.12921455877E+04  0.25500000920E-02 0. -1.
       -2    1    3    3    0  502  0.68956186188E+03 -0.70205408950E+03 -0.34716304859E+03  0.10435026058E+04  0.25500000920E-02 0.  1.
</event>
<event>
 5   0  0.6222733E-05  0.1989515E+04  0.7818609E-02  0.8611539E-01
       -1   -1    0    0    0  501  0.00000000000E+00  0.00000000000E+00  0.69692589586E+03  0.69692589588E+03  0.50400001928E-02 0.  1.
        1   -1    0    0  501    0  0.00000000000E+00  0.00000000000E+00 -0.14198673416E+04  0.14198673416E+04  0.50400001928E-02 0. -1.
    10030    2    1    2    0    0  0.00000000000E+00  0.00000000000E+00 -0.72294144572E+03  0.21167932375E+04  0.19895148344E+04 0.  0.
        2    1    3    3  502    0  0.80754710381E+03 -0.54929432622E+03 -0.16047880456E+03  0.98975250866E+03  0.25500000920E-02 0.  1.
       -2    1    3    3    0  502 -0.80754710381E+03  0.54929432622E+03 -0.56246264116E+03  0.11270407288E+04  0.25500000920E-02 0. -1.
</event>
<event>
 5   0  0.6222733E-05  0.2005858E+04  0.7818609E-02  0.8603887E-01
       -1   -1    0    0    0  501  0.00000000000E+00  0.00000000000E+00  0.49971295939E+03  0.49971295941E+03  0.50400001928E-02 0. -1.
        1   -1    0    0  501    0  0.00000000000E+00  0.00000000000E+00 -0.20128890199E+04  0.20128890199E+04  0.50400001928E-02 0.  1.
    10030    2    1    2    0    0  0.00000000000E+00  0.00000000000E+00 -0.15131760605E+04  0.25126019794E+04  0.20058581496E+04 0.  0.
        2    1    3    3  502    0  0.31763422769E+03  0.55863184294E+03 -0.17211192504E+04  0.18371751448E+04  0.25500000920E-02 0.  1.
       -2    1    3    3    0  502 -0.31763422769E+03 -0.55863184294E+03  0.20794318990E+03  0.67542683452E+03  0.25500000920E-02 0. -1.
</event>
<event>
 5   0  0.6214547E-05  0.1986876E+04  0.7818609E-02  0.8612781E-01
       -1   -1    0    0    0  501  0.00000000000E+00  0.00000000000E+00  0.65936779843E+03  0.65936779845E+03  0.50400001928E-02 0.  1.
        1   -1    0    0  501    0  0.00000000000E+00  0.00000000000E+00 -0.14967655098E+04  0.14967655098E+04  0.50400001928E-02 0. -1.
    10030    2    1    2    0    0  0.00000000000E+00  0.00000000000E+00 -0.83739771132E+03  0.21561333082E+04  0.19868759186E+04 0.  0.
        3    1    3    3  502    0  0.81628956621E+03  0.16332149283E+03 -0.10070231391E+04  0.13065596729E+04  0.10100000352E+00 0. -1.
       -3    1    3    3    0  502 -0.81628956621E+03 -0.16332149283E+03  0.16962542776E+03  0.84957363534E+03  0.10100000352E+00 0.  1.
</event>
<event>
 5   0  0.1274868E-04  0.1984641E+04  0.7818609E-02  0.8613836E-01
        2   -1    0    0  501    0  0.00000000000E+00  0.00000000000E+00  0.16963504592E+04  0.16963504592E+04  0.25500000920E-02 0.  1.
       -2   -1    0    0    0  501  0.00000000000E+00  0.00000000000E+00 -0.58048117014E+03  0.58048117015E+03  0.25500000920E-02 0. -1.
    10030    2    1    2    0    0  0.00000000000E+00  0.00000000000E+00  0.11158692890E+04  0.22768316293E+04  0.19846405211E+04 0.  0.
        1    1    3    3  502    0  0.76114802771E+03  0.32050533998E+03  0.11890441138E+04  0.14477209322E+04  0.50400001928E-02 0.  1.
       -1    1    3    3    0  502 -0.76114802771E+03 -0.32050533998E+03 -0.73174824755E+02  0.82911069710E+03  0.50400001928E-02 0. -1.
</event>
<event>
 5   0  0.1242761E-04  0.1994406E+04  0.7818609E-02  0.8609240E-01
       -2   -1    0    0    0  501  0.00000000000E+00  0.00000000000E+00  0.41694907921E+03  0.41694907922E+03  0.25500000920E-02 0. -1.
        2   -1    0    0  501    0  0.00000000000E+00  0.00000000000E+00 -0.23849776625E+04  0.23849776625E+04  0.25500000920E-02 0.  1.
    10030    2    1    2    0    0  0.00000000000E+00  0.00000000000E+00 -0.19680285833E+04  0.28019267417E+04  0.19944064183E+04 0.  0.
        4    1    3    3  502    0  0.38769948097E+03  0.53510288441E+02 -0.22725683839E+04  0.23060231809E+04  0.12699999809E+01 0.  1.
       -4    1    3    3    0  502 -0.38769948097E+03 -0.53510288441E+02  0.30453980064E+03  0.49590356078E+03  0.12699999809E+01 0. -1.
</event>
<event>
 5   0  0.6256535E-05  0.1976336E+04  0.7818609E-02  0.8617765E-01
        1   -1    0    0  501    0  0.00000000000E+00  0.00000000000E+00  0.92946097093E+03  0.92946097095E+03  0.50400001928E-02 0. -1.
       -1   -1    0    0    0  501  0.00000000000E+00  0.00000000000E+00 -0.10505834738E+04  0.10505834738E+04  0.50400001928E-02 0.  1.
    10030    2    1    2    0    0  0.00000000000E+00  0.00000000000E+00 -0.12112250288E+03  0.19800444448E+04  0.19763363435E+04 0.  0.
        1    1    3    3  502    0  0.49640852160E+03 -0.57987517873E+02 -0.91462321319E+03  0.10422665660E+04  0.50400001928E-02 0.  1.
       -1    1    3    3    0  502 -0.49640852160E+03  0.57987517873E+02  0.79350071032E+03  0.93777787873E+03  0.50400001928E-02 0. -1.
</event>
<event>
 5   0  0.1274868E-04  0.2023595E+04  0.7818609E-02  0.8595668E-01
       -2   -1    0    0    0  501  0.00000000000E+00  0.00000000000E+00  0.53160868251E+03  0.53160868252E+03  0.25500000920E-02 0.  1.
        2   -1    0    0  501    0  0.00000000000E+00  0.00000000000E+00 -0.19257285340E+04  0.19257285340E+04  0.25500000920E-02 0. -1.
    10030    2    1    2    0    0  0.00000000000E+00  0.00000000000E+00 -0.13941198515E+04  0.24573372165E+04  0.20235948298E+04 0.  0.
        1    1    3    3  502    0  0.92491062502E+03  0.33138462301E+03 -0.40345366391E+03  0.10620971197E+04  0.50400001928E-02 0.  1.
       -1    1    3    3    0  502 -0.92491062502E+03 -0.33138462301E+03 -0.99066618755E+03  0.13952400968E+04  0.50400001928E-02 0. -1.
</event>
<event>
 5   0  0.1242761E-04  0.1991989E+04  0.7818609E-02  0.8610375E-01
       -2   -1    0    0    0  501  0.00000000000E+00  0.00000000000E+00  0.95107702364E+03  0.95107702365E+03  0.25500000920E-02 0. -1.
        2   -1    0    0  501    0  0.00000000000E+00  0.00000000000E+00 -0.10430337701E+04  0.10430337702E+04  0.25500000920E-02 0.  1.
    10030    2    1    2    0    0  0.00000000000E+00  0.00000000000E+00 -0.91956746506E+02  0.19941107938E+04  0.19919894113E+04 0.  0.
        4    1    3    3  502    0  0.29639137089E+03 -0.94415082143E+03  0.66992250409E+02  0.99184585136E+03  0.12699999809E+01 0. -1.
       -4    1    3    3    0  502 -0.29639137089E+03  0.94415082143E+03 -0.15894899691E+03  0.10022649424E+04  0.12699999809E+01 0.  1.
</event>
<event>
 5   0  0.1244229E-04  0.2006601E+04  0.7818609E-02  0.8603541E-01
        2   -1    0    0  501    0  0.00000000000E+00  0.00000000000E+00  0.10469487316E+04  0.10469487316E+04  0.25500000920E-02 0. -1.
       -2   -1    0    0    0  501  0.00000000000E+00  0.00000000000E+00 -0.96147155400E+03  0.96147155400E+03  0.25500000920E-02 0.  1.
    10030    2    1    2    0    0  0.00000000000E+00  0.00000000000E+00  0.85477177634E+02  0.20084202856E+04  0.20066005322E+04 0.  0.
        5    1    3    3  502    0 -0.41252478283E+02  0.15532658604E+03  0.10339705991E+04  0.10463963900E+04  0.46999998093E+01 0. -1.
       -5    1    3    3    0  502  0.41252478283E+02 -0.15532658604E+03 -0.94849342142E+03  0.96202389564E+03  0.46999998093E+01 0.  1.
</event>
<event>
 5   0  0.1274868E-04  0.2036951E+04  0.7818609E-02  0.8589537E-01
        2   -1    0    0  501    0  0.00000000000E+00  0.00000000000E+00  0.17802263248E+04  0.17802263248E+04  0.25500000920E-02 0.  1.
       -2   -1    0    0    0  501  0.00000000000E+00  0.00000000000E+00 -0.58267467106E+03  0.58267467106E+03  0.25500000920E-02 0. -1.
    10030    2    1    2    0    0  0.00000000000E+00  0.00000000000E+00  0.11975516537E+04  0.23629009959E+04  0.20369514361E+04 0.  0.
        1    1    3    3  502    0 -0.71925466974E+03  0.47627560714E+02  0.14334226150E+04  0.16044612983E+04  0.50400001928E-02 0.  1.
       -1    1    3    3    0  502  0.71925466974E+03 -0.47627560714E+02 -0.23587096126E+03  0.75843969758E+03  0.50400001928E-02 0. -1.
</event>
<event>
 5   0  0.1244229E-04  0.1999865E+04  0.7818609E-02  0.8606684E-01
        2   -1    0    0  501    0  0.00000000000E+00  0.00000000000E+00  0.78958701299E+03  0.78958701299E+03  0.25500000920E-02 0. -1.
       -2   -1    0    0    0  501  0.00000000000E+00  0.00000000000E+00 -0.12663137351E+04  0.12663137351E+04  0.25500000920E-02 0.  1.
    10030    2    1    2    0    0  0.00000000000E+00  0.00000000000E+00 -0.47672672211E+03  0.20559007481E+04  0.19998648750E+04 0.  0.
        5    1    3    3  502    0 -0.42949512123E+03  0.30675330622E+03 -0.11114416284E+04  0.12304016553E+04  0.46999998093E+01 0.  1.
       -5    1    3    3    0  502  0.42949512123E+03 -0.30675330622E+03  0.63471490625E+03  0.82549909283E+03  0.46999998093E+01 0. -1.
</event>
<event>
 5   0  0.1274868E-04  0.2005098E+04  0.7818609E-02  0.8604241E-01
       -2   -1    0    0    0  501  0.00000000000E+00  0.00000000000E+00  0.47735662158E+03  0.47735662159E+03  0.25500000920E-02 0.  1.
        2   -1    0    0  501    0  0.00000000000E+00  0.00000000000E+00 -0.21055640539E+04  0.21055640539E+04  0.25500000920E-02 0. -1.
    10030    2    1    2    0    0  0.00000000000E+00  0.00000000000E+00 -0.16282074323E+04  0.25829206754E+04  0.20050984447E+04 0.  0.
        1    1    3    3  502    0 -0.66579779151E+03 -0.19521129047E+03  0.11812211351E+03  0.70380890931E+03  0.50400001928E-02 0.  1.
       -1    1    3    3    0  502  0.66579779151E+03  0.19521129047E+03 -0.17463295458E+04  0.18791117661E+04  0.50400001928E-02 0. -1.
</event>
<event>
 5   0  0.6028501E-05  0.1981975E+04  0.7818609E-02  0.8615094E-01
        1   -1    0    0  501    0  0.00000000000E+00  0.00000000000E+00  0.15688648231E+04  0.15688648232E+04  0.50400001928E-02 0.  1.
       -1   -1    0    0    0  501  0.00000000000E+00  0.00000000000E+00 -0.62596638179E+03  0.62596638181E+03  0.50400001928E-02 0. -1.
    10030    2    1    2    0    0  0.00000000000E+00  0.00000000000E+00  0.94289844136E+03  0.21948312050E+04  0.19819754155E+04 0.  0.
        4    1    3    3  502    0  0.62241393763E+03 -0.18969541352E+03  0.12991648321E+04  0.14530018353E+04  0.12699999809E+01 0.  1.
       -4    1    3    3    0  502 -0.62241393763E+03  0.18969541352E+03 -0.35626639069E+03  0.74182936966E+03  0.12699999809E+01 0. -1.
</event>
<event>
 5   0  0.6214547E-05  0.2013147E+04  0.7818609E-02  0.8600499E-01
        1   -1    0    0  501    0  0.00000000000E+00  0.00000000000E+00  0.82307539414E+03  0.82307539416E+03  0.50400001928E-02 0.  1.
       -1   -1    0    0    0  501  0.00000000000E+00  0.00000000000E+00 -0.12309809181E+04  0.12309809181E+04  0.50400001928E-02 0. -1.
    10030    2    1    2    0    0  0.00000000000E+00  0.00000000000E+00 -0.40790552393E+03  0.20540563122E+04  0.20131468941E+04 0.  0.
        3    1    3    3  502    0  0.35968106304E+03 -0.76180012606E+03 -0.76603784191E+03  0.11386500273E+04  0.10100000352E+00 0. -1.
       -3    1    3    3    0  502 -0.35968106304E+03  0.76180012606E+03  0.35813231798E+03  0.91540628496E+03  0.10100000352E+00 0.  1.
</event>
<event>
 5   0  0.1274868E-04  0.1987746E+04  0.7818609E-02  0.8612372E-01
       -2   -1    0    0    0  501  0.00000000000E+00  0.00000000000E+00  0.68702071114E+03  0.68702071115E+03  0.25500000920E-02 0. -1.
        2   -1    0    0  501    0  0.00000000000E+00  0.00000000000E+00 -0.14377778016E+04  0.14377778016E+04  0.25500000920E-02 0.  1.
    10030    2    1    2    0    0  0.00000000000E+00  0.00000000000E+00 -0.75075709041E+03  0.21247985127E+04  0.19877455850E+04 0.  0.
        1    1    3    3  502    0 -0.65756308447E+03  0.56898582922E+02 -0.11696849025E+04  0.13430522812E+04  0.50400001928E-02 0.  1.
       -1    1    3    3    0  502  0.65756308447E+03 -0.56898582922E+02  0.41892781207E+03  0.78174623155E+03  0.50400001928E-02 0. -1.
</event>
<event>
 5   0  0.6222733E-05  0.2009163E+04  0.7818609E-02  0.8602349E-01
        1   -1    0    0  501    0  0.00000000000E+00  0.00000000000E+00  0.20423377444E+04  0.20423377444E+04  0.50400001928E-02 0. -1.
       -1   -1    0    0    0  501  0.00000000000E+00  0.00000000000E+00 -0.49413183834E+03  0.49413183837E+03  0.50400001928E-02 0.  1.
    10030    2    1    2    0    0  0.00000000000E+00  0.00000000000E+00  0.15482059060E+04  0.25364695828E+04  0.20091631135E+04 0.  0.
        2    1    3    3  502    0 -0.45124745155E+02 -0.96102578447E+03  0.40913171648E+03  0.10454642808E+04  0.25500000920E-02 0.  1.
       -2    1    3    3    0  502  0.45124745155E+02  0.96102578447E+03  0.11390741896E+04  0.14910053019E+04  0.25500000920E-02 0. -1.
</event>
<event>
 5   0  0.1281789E-04  0.1993444E+04  0.7818609E-02  0.8609692E-01
       -2   -1    0    0    0  501  0.00000000000E+00  0.00000000000E+00  0.13917938986E+04  0.13917938986E+04  0.25500000920E-02 0.  1.
        2   -1    0    0  501    0  0.00000000000E+00  0.00000000000E+00 -0.71379458119E+03  0.71379458119E+03  0.25500000920E-02 0. -1.
    10030    2    1    2    0    0  0.00000000000E+00  0.00000000000E+00  0.67799931738E+03  0.21055884798E+04  0.19934441983E+04 0.  0.
        2    1    3    3  502    0  0.11015806145E+02 -0.38243908252E+03  0.13111424810E+04  0.13658241487E+04  0.25500000920E-02 0.  1.
       -2    1    3    3    0  502 -0.11015806145E+02  0.38243908252E+03 -0.63314316361E+03  0.73976433103E+03  0.25500000920E-02 0. -1.
</event>
<event>
 5   0  0.6028501E-05  0.2015278E+04  0.7818609E-02  0.8599511E-01
       -1   -1    0    0    0  501  0.00000000000E+00  0.00000000000E+00  0.10204015029E+04  0.10204015029E+04  0.50400001928E-02 0.  1.
        1   -1    0    0  501    0  0.00000000000E+00  0.00000000000E+00 -0.99503590348E+03  0.99503590349E+03  0.50400001928E-02 0. -1.
    10030    2    1    2    0    0  0.00000000000E+00  0.00000000000E+00  0.25365599407E+02  0.20154374064E+04  0.20152777787E+04 0.  0.
        4    1    3    3  502    0  0.78947670178E+02  0.76231019412E+03  0.66694020683E+03  0.10159529611E+04  0.12699999809E+01 0.  1.
       -4    1    3    3    0  502 -0.78947670178E+02 -0.76231019412E+03 -0.64157460742E+03  0.99948444534E+03  0.12699999809E+01 0. -1.
</event>
<event>
 5   0  0.1244229E-04  0.1970273E+04  0.7818609E-02  0.8620646E-01
       -2   -1    0    0    0  501  0.00000000000E+00  0.00000000000E+00  0.66110989457E+03  0.66110989458E+03  0.25500000920E-02 0. -1.
        2   -1    0    0  501    0  0.00000000000E+00  0.00000000000E+00 -0.14679769179E+04  0.14679769179E+04  0.25500000920E-02 0.  1.
    10030    2    1    2    0    0  0.00000000000E+00  0.00000000000E+00 -0.80686702337E+03  0.21290868125E+04  0.19702731440E+04 0.  0.
        5    1    3    3  502    0 -0.50855810084E+02  0.18103926702E+03  0.64152340863E+03  0.66853264950E+03  0.46999998093E+01 0. -1.
       -5    1    3    3    0  502  0.50855810084E+02 -0.18103926702E+03 -0.14483904320E+04  0.14605541630E+04  0.46999998093E+01 0.  1.
</event>
<event>
 5   0  0.6028501E-05  0.2052699E+04  0.7818609E-02  0.8582371E-01
        1   -1    0    0  501    0  0.00000000000E+00  0.00000000000E+00  0.76854301200E+03  0.76854301202E+03  0.50400001928E-02 0. -1.
       -1   -1    0    0    0  501  0.00000000000E+00  0.00000000000E+00 -0.13706368032E+04  0.13706368032E+04  0.50400001928E-02 0.  1.
    10030    2    1    2    0    0  0.00000000000E+00  0.00000000000E+00 -0.60209379116E+03  0.21391798152E+04  0.20526990399E+04 0.  0.
        4    1    3    3  502    0 -0.83646892772E+03  0.92868784001E+02 -0.91323687346E+03  0.12418969676E+04  0.12699999809E+01 0.  1.
       -4    1    3    3    0  502  0.83646892772E+03 -0.92868784001E+02  0.31114308230E+03  0.89728284763E+03  0.12699999809E+01 0. -1.
</event>
<event>
 5   0  0.1274868E-04  0.1902847E+04  0.7818609E-02  0.8653441E-01
        2   -1    0    0  501    0  0.00000000000E+00  0.00000000000E+00  0.16170201321E+04  0.16170201321E+04  0.25500000920E-02 0.  1.
       -2   -1    0    0    0  501  0.00000000000E+00  0.00000000000E+00 -0.55979906133E+03  0.55979906133E+03  0.25500000920E-02 0. -1.
    10030    2    1    2    0    0  0.00000000000E+00  0.00000000000E+00  0.10572210708E+04  0.21768191935E+04  0.19028466592E+04 0.  0.
        1    1    3    3  502    0 -0.80424171079E+03  0.14790376371E+03  0.10849733568E+04  0.13586196810E+04  0.50400001928E-02 0. -1.
       -1    1    3    3    0  502  0.80424171079E+03 -0.14790376371E+03 -0.27752286029E+02  0.81819951240E+03  0.50400001928E-02 0.  1.
</event>
<event>
 5   0  0.6222733E-05  0.1996797E+04  0.7818609E-02  0.8608120E-01
       -1   -1    0    0    0  501  0.00000000000E+00  0.00000000000E+00  0.11563862265E+04  0.11563862265E+04  0.50400001928E-02 0. -1.
        1   -1    0    0  501    0  0.00000000000E+00  0.00000000000E+00 -0.86199545506E+03  0.86199545507E+03  0.50400001928E-02 0.  1.
    10030    2    1    2    0    0  0.00000000000E+00  0.00000000000E+00  0.29439077145E+03  0.20183816816E+04  0.19967971069E+04 0.  0.
        2    1    3    3  502    0  0.46808319458E+03  0.20734203345E+03  0.10136113950E+04  0.11355618239E+04  0.25500000920E-02 0. -1.
       -2    1    3    3    0  502 -0.46808319458E+03 -0.20734203345E+03 -0.71922062350E+03  0.88281985771E+03  0.25500000920E-02 0.  1.
</event>
<event>
 5   0  0.6222733E-05  0.1917655E+04  0.7818609E-02  0.8646118E-01
        1   -1    0    0  501    0  0.00000000000E+00  0.00000000000E+00  0.96287914590E+03  0.96287914591E+03  0.50400001928E-02 0. -1.
       -1   -1    0    0    0  501  0.00000000000E+00  0.00000000000E+00 -0.95479264505E+03  0.95479264507E+03  0.50400001928E-02 0.  1.
    10030    2    1    2    0    0  0.00000000000E+00  0.00000000000E+00  0.80865008419E+01  0.19176717910E+04  0.19176547412E+04 0.  0.
        2    1    3    3  502    0  0.17953662928E+02  0.35099743602E+03 -0.88805682463E+03  0.95507405885E+03  0.25500000920E-02 0.  1.
       -2    1    3    3    0  502 -0.17953662928E+02 -0.35099743602E+03  0.89614332547E+03  0.96259773213E+03  0.25500000920E-02 0. -1.
</event>
<event>
 5   0  0.6168338E-05  0.1991583E+04  0.7818609E-02  0.8610566E-01
       -1   -1    0    0    0  501  0.00000000000E+00  0.00000000000E+00  0.11341840204E+04  0.11341840204E+04  0.50400001928E-02 0. -1.
        1   -1    0    0  501    0  0.00000000000E+00  0.00000000000E+00 -0.87428557086E+03  0.87428557088E+03  0.50400001928E-02 0.  1.
    10030    2    1    2    0    0  0.00000000000E+00  0.00000000000E+00  0.25989844954E+03  0.20084695913E+04  0.19915830123E+04 0.  0.
        5    1    3    3  502    0 -0.64299646891E+03  0.52272165172E+03 -0.42690675635E+03  0.93217694287E+03  0.46999998093E+01 0.  1.
       -5    1    3    3    0  502  0.64299646891E+03 -0.52272165172E+03  0.68680520588E+03  0.10762926484E+04  0.46999998093E+01 0. -1.
</event>
<event>
 5   0  0.6168338E-05  0.2001569E+04  0.7818609E-02  0.8605887E-01
        1   -1    0    0  501    0  0.00000000000E+00  0.00000000000E+00  0.16459138414E+04  0.16459138414E+04  0.50400001928E-02 0. -1.
       -1   -1    0    0    0  501  0.00000000000E+00  0.00000000000E+00 -0.60851906388E+03  0.60851906390E+03  0.50400001928E-02 0.  1.
    10030    2    1    2    0    0  0.00000000000E+00  0.00000000000E+00  0.10373947775E+04  0.22544329053E+04  0.20015693343E+04 0.  0.
        5    1    3    3  502    0  0.93715836526E+03  0.29991034117E+03  0.72434440588E+03  0.12218465217E+04  0.46999998093E+01 0. -1.
       -5    1    3    3    0  502 -0.93715836526E+03 -0.29991034117E+03  0.31305037161E+03  0.10325863835E+04  0.46999998093E+01 0.  1.
</event>
<event>
 5   0  0.6028501E-05  0.2003411E+04  0.7818609E-02  0.8605028E-01
        1   -1    0    0  501    0  0.00000000000E+00  0.00000000000E+00  0.16592934268E+04  0.16592934268E+04  0.50400001928E-02 0. -1.
       -1   -1    0    0    0  501  0.00000000000E+00  0.00000000000E+00 -0.60472360344E+03  0.60472360346E+03  0.50400001928E-02 0.  1.
    10030    2    1    2    0    0  0.00000000000E+00  0.00000000000E+00  0.10545698234E+04  0.22640170303E+04  0.20034109916E+04 0.  0.
        4    1    3    3  502    0  0.18773051569E+02 -0.99983163666E+03  0.59314604053E+03  0.11626863582E+04  0.12699999809E+01 0.  1.
       -4    1    3    3    0  502 -0.18773051569E+02  0.99983163666E+03  0.46142378285E+03  0.11013306721E+04  0.12699999809E+01 0. -1.
</event>
<event>
 5   0  0.1242761E-04  0.2017317E+04  0.7818609E-02  0.8598567E-01
       -2   -1    0    0    0  501  0.00000000000E+00  0.00000000000E+00  0.40412237062E+03  0.40412237062E+03  0.25500000920E-02 0.  1.
        2   -1    0    0  501    0  0.00000000000E+00  0.00000000000E+00 -0.25175341651E+04  0.25175341651E+04  0.25500000920E-02 0. -1.
    10030    2    1    2    0    0  0.00000000000E+00  0.00000000000E+00 -0.21134117945E+04  0.29216565357E+04  0.20173169061E+04 0.  0.
        4    1    3    3  502    0 -0.65331877443E+03  0.19121296141E+03  0.21274521609E+02  0.68105949506E+03  0.12699999809E+01 0.  1.
       -4    1    3    3    0  502  0.65331877443E+03 -0.19121296141E+03 -0.21346863161E+04  0.22405970407E+04  0.12699999809E+01 0. -1.
</event>
<event>
 5   0  0.1274868E-04  0.1974914E+04  0.7818609E-02  0.8618440E-01
       -2   -1    0    0    0  501  0.00000000000E+00  0.00000000000E+00  0.10008289199E+04  0.10008289199E+04  0.25500000920E-02 0.  1.
        2   -1    0    0  501    0  0.00000000000E+00  0.00000000000E+00 -0.97426392987E+03  0.97426392987E+03  0.25500000920E-02 0. -1.
    10030    2    1    2    0    0  0.00000000000E+00  0.00000000000E+00  0.26564990073E+02  0.19750928498E+04  0.19749141922E+04 0.  0.
        1    1    3    3  502    0  0.25559171152E+03 -0.30996507149E+03 -0.88883350020E+03  0.97541296877E+03  0.50400001928E-02 0. -1.
       -1    1    3    3    0  502 -0.25559171152E+03  0.30996507149E+03  0.91539849027E+03  0.99967988104E+03  0.50400001928E-02 0.  1.
</event>
<event>
 5   0  0.1244229E-04  0.1950203E+04  0.7818609E-02  0.8630263E-01
        2   -1    0    0  501    0  0.00000000000E+00  0.00000000000E+00  0.34099546942E+04  0.34099546942E+04  0.25500000920E-02 0.  1.
       -2   -1    0    0    0  501  0.00000000000E+00  0.00000000000E+00 -0.27883730169E+03  0.27883730170E+03  0.25500000920E-02 0. -1.
    10030    2    1    2    0    0  0.00000000000E+00  0.00000000000E+00  0.31311173925E+04  0.36887919959E+04  0.19502026211E+04 0.  0.
        5    1    3    3  502    0  0.44887473129E+03  0.53777503621E+03  0.28253331089E+03  0.75533944404E+03  0.46999998093E+01 0. -1.
       -5    1    3    3    0  502 -0.44887473129E+03 -0.53777503621E+03  0.28485840817E+04  0.29334525519E+04  0.46999998093E+01 0.  1.
</event>
<event>
 5   0  0.1281789E-04  0.2009126E+04  0.7818609E-02  0.8602366E-01
        2   -1    0    0  501    0  0.00000000000E+00  0.00000000000E+00  0.12023106528E+04  0.12023106528E+04  0.25500000920E-02 0. -1.
       -2   -1    0    0    0  501  0.00000000000E+00  0.00000000000E+00 -0.83933940842E+03  0.83933940842E+03  0.25500000920E-02 0.  1.
    10030    2    1    2    0    0  0.00000000000E+00  0.00000000000E+00  0.36297124440E+03  0.20416500612E+04  0.20091258916E+04 0.  0.
        2    1    3    3  502    0 -0.86819226153E+03 -0.49350579151E+03  0.70907986936E+02  0.10011661759E+04  0.25500000920E-02 0.  1.
       -2    1    3    3    0  502  0.86819226153E+03  0.49350579151E+03  0.29206325747E+03  0.10404838853E+04  0.25500000920E-02 0. -1.
</event>
<event>
 5   0  0.6222733E-05  0.2009426E+04  0.7818609E-02  0.8602226E-01
        1   -1    0    0  501    0  0.00000000000E+00  0.00000000000E+00  0.97607868498E+03  0.97607868499E+03  0.50400001928E-02 0. -1.
       -1   -1    0    0    0  501  0.00000000000E+00  0.00000000000E+00 -0.10341872088E+04  0.10341872088E+04  0.50400001928E-02 0.  1.
    10030    2    1    2    0    0  0.00000000000E+00  0.00000000000E+00 -0.58108523844E+02  0.20102658938E+04  0.20094258790E+04 0.  0.
        2    1    3    3  502    0  0.85622777937E+03  0.21178012036E+03  0.45226146495E+03  0.99122008769E+03  0.25500000920E-02 0. -1.
       -2    1    3    3    0  502 -0.85622777937E+03 -0.21178012036E+03 -0.51036998879E+03  0.10190458061E+04  0.25500000920E-02 0.  1.
</event>
<event>
 5   0  0.6256535E-05  0.2223812E+04  0.7818609E-02  0.8508582E-01
       -1   -1    0    0    0  501  0.00000000000E+00  0.00000000000E+00  0.48374538399E+03  0.48374538402E+03  0.50400001928E-02 0. -1.
        1   -1    0    0  501    0  0.00000000000E+00  0.00000000000E+00 -0.25557547898E+04  0.25557547898E+04  0.50400001928E-02 0.  1.
    10030    2    1    2    0    0  0.00000000000E+00  0.00000000000E+00 -0.20720094058E+04  0.30395001738E+04  0.22238116667E+04 0.  0.
        1    1    3    3  502    0 -0.62589580327E+03  0.85209196270E+03 -0.15065649328E+04  0.18405282302E+04  0.50400001928E-02 0.  1.
       -1    1    3    3    0  502  0.62589580327E+03 -0.85209196270E+03 -0.56544447298E+03  0.11989719436E+04  0.50400001928E-02 0. -1.
</event>
<event>
 5   0  0.1244229E-04  0.2007102E+04  0.7818609E-02  0.8603308E-01
        2   -1    0    0  501    0  0.00000000000E+00  0.00000000000E+00  0.11086960011E+04  0.11086960011E+04  0.25500000920E-02 0.  1.
       -2   -1    0    0    0  501  0.00000000000E+00  0.00000000000E+00 -0.90837720541E+03  0.90837720542E+03  0.25500000920E-02 0. -1.
    10030    2    1    2    0    0  0.00000000000E+00  0.00000000000E+00  0.20031879570E+03  0.20170732065E+04  0.20071015671E+04 0.  0.
        5    1    3    3  502    0 -0.59810641190E+03  0.37620534528E+03 -0.61600319677E+03  0.93741334011E+03  0.46999998093E+01 0. -1.
       -5    1    3    3    0  502  0.59810641190E+03 -0.37620534528E+03  0.81632199247E+03  0.10796598664E+04  0.46999998093E+01 0.  1.
</event>
<event>
 5   0  0.1274868E-04  0.1963017E+04  0.7818609E-02  0.8624109E-01
       -2   -1    0    0    0  501  0.00000000000E+00  0.00000000000E+00  0.48961982835E+03  0.48961982836E+03  0.25500000920E-02 0.  1.
        2   -1    0    0  501    0  0.00000000000E+00  0.00000000000E+00 -0.19675646497E+04  0.19675646497E+04  0.25500000920E-02 0. -1.
    10030    2    1    2    0    0  0.00000000000E+00  0.00000000000E+00 -0.14779448213E+04  0.24571844780E+04  0.19630167254E+04 0.  0.
        1    1    3    3  502    0  0.52646445328E+02  0.36868330581E+03 -0.18756862115E+04  0.19123017001E+04  0.50400001928E-02 0. -1.
       -1    1    3    3    0  502 -0.52646445328E+02 -0.36868330581E+03  0.39774139019E+03  0.54488277793E+03  0.50400001928E-02 0.  1.
</event>
<event>
 5   0  0.6168338E-05  0.1995154E+04  0.7818609E-02  0.8608890E-01
       -1   -1    0    0    0  501  0.00000000000E+00  0.00000000000E+00  0.73288090546E+03  0.73288090547E+03  0.50400001928E-02 0. -1.
        1   -1    0    0  501    0  0.00000000000E+00  0.00000000000E+00 -0.13578734995E+04  0.13578734995E+04  0.50400001928E-02 0.  1.
    10030    2    1    2    0    0  0.00000000000E+00  0.00000000000E+00 -0.62499259407E+03  0.20907544050E+04  0.19951536882E+04 0.  0.
        5    1    3    3  502    0 -0.18417477065E+03 -0.85824195343E+03 -0.80916655545E+03  0.11938476457E+04  0.46999998093E+01 0.  1.
       -5    1    3    3    0  502  0.18417477065E+03  0.85824195343E+03  0.18417396138E+03  0.89690675927E+03  0.46999998093E+01 0. -1.
</event>
<event>
 5   0  0.6214547E-05  0.1980394E+04  0.7818609E-02  0.8615842E-01
       -1   -1    0    0    0  501  0.00000000000E+00  0.00000000000E+00  0.40816614687E+03  0.40816614690E+03  0.50400001928E-02 0. -1.
        1   -1    0    0  501    0  0.00000000000E+00  0.00000000000E+00 -0.24021829882E+04  0.24021829882E+04  0.50400001928E-02 0.  1.
    10030    2    1    2    0    0  0.00000000000E+00  0.00000000000E+00 -0.19940168413E+04  0.28103491351E+04  0.19803936724E+04 0.  0.
        3    1    3    3  502    0 -0.19077016740E+03  0.57703685808E+03  0.11235479547E+03  0.61805210348E+03  0.10100000352E+00 0. -1.
       -3    1    3    3    0  502  0.19077016740E+03 -0.57703685808E+03 -0.21063716368E+04  0.21922970316E+04  0.10100000352E+00 0.  1.
</event>
<event>
 5   0  0.1244229E-04  0.1986798E+04  0.7818609E-02  0.8612818E-01
       -2   -1    0    0    0  501  0.00000000000E+00  0.00000000000E+00  0.77526919876E+03  0.77526919876E+03  0.25500000920E-02 0.  1.
        2   -1    0    0  501    0  0.00000000000E+00  0.00000000000E+00 -0.12729013844E+04  0.12729013844E+04  0.25500000920E-02 0. -1.
    10030    2    1    2    0    0  0.00000000000E+00  0.00000000000E+00 -0.49763218563E+03  0.20481705831E+04  0.19867976609E+04 0.  0.
        5    1    3    3  502    0 -0.58010099650E+03  0.55711763216E+02  0.58052107220E+03  0.82258602709E+03  0.46999998093E+01 0.  1.
       -5    1    3    3    0  502  0.58010099650E+03 -0.55711763216E+02 -0.10781532578E+04  0.12255845561E+04  0.46999998093E+01 0. -1.
</event>
<event>
 5   0  0.6214547E-05  0.1874707E+04  0.7818609E-02  0.8667550E-01
       -1   -1    0    0    0  501  0.00000000000E+00  0.00000000000E+00  0.53904222936E+03  0.53904222938E+03  0.50400001928E-02 0.  1.
        1   -1    0    0  501    0  0.00000000000E+00  0.00000000000E+00 -0.16299861322E+04  0.16299861322E+04  0.50400001928E-02 0. -1.
    10030    2    1    2    0    0  0.00000000000E+00  0.00000000000E+00 -0.10909439028E+04  0.21690283616E+04  0.18747067595E+04 0.  0.
        3    1    3    3  502    0 -0.49110834077E+03 -0.73053111032E+03 -0.17276789737E+03  0.89705733489E+03  0.10100000352E+00 0.  1.
       -3    1    3    3    0  502  0.49110834077E+03  0.73053111032E+03 -0.91817600546E+03  0.12719710267E+04  0.10100000352E+00 0. -1.
</event>
<event>
 5   0  0.1159914E-04  0.2073111E+04  0.7818609E-02  0.8573181E-01
        2   -1    0    0  501    0  0.00000000000E+00  0.00000000000E+00  0.10645319851E+04  0.10645319851E+04  0.25500000920E-02 0.  1.
       -2   -1    0    0    0  501  0.00000000000E+00  0.00000000000E+00 -0.10093145203E+04  0.10093145203E+04  0.25500000920E-02 0. -1.
    10030    2    1    2    0    0  0.00000000000E+00  0.00000000000E+00  0.55217464844E+02  0.20738465054E+04  0.20731112752E+04 0.  0.
        3    1    3    3  502    0 -0.35913186045E+03 -0.59846131666E+03  0.79424593260E+03  0.10573354493E+04  0.10100000352E+00 0.  1.
       -3    1    3    3    0  502  0.35913186045E+03  0.59846131666E+03 -0.73902846776E+03  0.10165110561E+04  0.10100000352E+00 0. -1.
</event>
<event>
 5   0  0.6222733E-05  0.2055032E+04  0.7818609E-02  0.8581315E-01
       -1   -1    0    0    0  501  0.00000000000E+00  0.00000000000E+00  0.14041969400E+04  0.14041969400E+04  0.50400001928E-02 0. -1.
        1   -1    0    0  501    0  0.00000000000E+00  0.00000000000E+00 -0.75188084751E+03  0.75188084753E+03  0.50400001928E-02 0.  1.
    10030    2    1    2    0    0  0.00000000000E+00  0.00000000000E+00  0.65231609250E+03  0.21560777875E+04  0.20550316643E+04 0.  0.
        2    1    3    3  502    0  0.35605762622E+03  0.83320421739E+03  0.83452668872E+03  0.12318445905E+04  0.25500000920E-02 0.  1.
       -2    1    3    3    0  502 -0.35605762622E+03 -0.83320421739E+03 -0.18221059622E+03  0.92423319700E+03  0.25500000920E-02 0. -1.
</event>
<event>
 5   0  0.1274868E-04  0.1973994E+04  0.7818609E-02  0.8618877E-01
        2   -1    0    0  501    0  0.00000000000E+00  0.00000000000E+00  0.94693600234E+03  0.94693600234E+03  0.25500000920E-02 0. -1.
       -2   -1    0    0    0  501  0.00000000000E+00  0.00000000000E+00 -0.10287526852E+04  0.10287526852E+04  0.25500000920E-02 0.  1.
    10030    2    1    2    0    0  0.00000000000E+00  0.00000000000E+00 -0.81816682863E+02  0.19756886875E+04  0.19739938755E+04 0.  0.
        1    1    3    3  502    0  0.33661633207E+03 -0.80265776134E+03 -0.50670335890E+03  0.10071337204E+04  0.50400001928E-02 0.  1.
       -1    1    3    3    0  502 -0.33661633207E+03  0.80265776134E+03  0.42488667604E+03  0.96855496713E+03  0.50400001928E-02 0. -1.
</event>
<event>
 5   0  0.6222733E-05  0.1985653E+04  0.7818609E-02  0.8613358E-01
       -1   -1    0    0    0  501  0.00000000000E+00  0.00000000000E+00  0.60045544052E+03  0.60045544054E+03  0.50400001928E-02 0. -1.
        1   -1    0    0  501    0  0.00000000000E+00  0.00000000000E+00 -0.16415948642E+04  0.16415948642E+04  0.50400001928E-02 0.  1.
    10030    2    1    2    0    0  0.00000000000E+00  0.00000000000E+00 -0.10411394237E+04  0.22420503048E+04  0.19856531091E+04 0.  0.
        2    1    3    3  502    0 -0.71249375457E+03 -0.62220976558E+03 -0.18011988691E+03  0.96293069135E+03  0.25500000920E-02 0. -1.
       -2    1    3    3    0  502  0.71249375457E+03  0.62220976558E+03 -0.86101953678E+03  0.12791196134E+04  0.25500000920E-02 0.  1.
</event>
<event>
 5   0  0.1242761E-04  0.1886470E+04  0.7818609E-02  0.8661621E-01
        2   -1    0    0  501    0  0.00000000000E+00  0.00000000000E+00  0.12901462735E+04  0.12901462735E+04  0.25500000920E-02 0. -1.
       -2   -1    0    0    0  501  0.00000000000E+00  0.00000000000E+00 -0.68960577983E+03  0.68960577983E+03  0.25500000920E-02 0.  1.
    10030    2    1    2    0    0  0.00000000000E+00  0.00000000000E+00  0.60054049370E+03  0.19797520534E+04  0.18864700656E+04 0.  0.
        4    1    3    3  502    0 -0.24372689103E+03 -0.78388028638E+03 -0.18726535926E+03  0.84198635884E+03  0.12699999809E+01 0.  1.
       -4    1    3    3    0  502  0.24372689103E+03  0.78388028638E+03  0.78780585296E+03  0.11377656945E+04  0.12699999809E+01 0. -1.
</event>
<event>
 5   0  0.6028501E-05  0.1991869E+04  0.7818609E-02  0.8610431E-01
        1   -1    0    0  501    0  0.00000000000E+00  0.00000000000E+00  0.23080771094E+04  0.23080771094E+04  0.50400001928E-02 0.  1.
       -1   -1    0    0    0  501  0.00000000000E+00  0.00000000000E+00 -0.42974552774E+03  0.42974552777E+03  0.50400001928E-02 0. -1.
    10030    2    1    2    0    0  0.00000000000E+00  0.00000000000E+00  0.18783315817E+04  0.27378226372E+04  0.19918692884E+04 0.  0.
        4    1    3    3  502    0  0.49543456614E+03  0.19652361055E+03  0.20955495462E+04  0.21622688205E+04  0.12699999809E+01 0.  1.
       -4    1    3    3    0  502 -0.49543456614E+03 -0.19652361055E+03 -0.21721796453E+03  0.57555381664E+03  0.12699999809E+01 0. -1.
</event>
<event>
 5   0  0.4479000E-05  0.1992687E+04  0.7818609E-02  0.8610047E-01
        4   -1    0    0  501    0  0.00000000000E+00  0.00000000000E+00  0.14365356209E+04  0.14365361823E+04  0.12699999809E+01 0.  1.
       -4   -1    0    0    0  501  0.00000000000E+00  0.00000000000E+00 -0.69103648851E+03  0.69103765552E+03  0.12699999809E+01 0. -1.
    10030    2    1    2    0    0  0.00000000000E+00  0.00000000000E+00  0.74549913244E+03  0.21275738379E+04  0.19926869998E+04 0.  0.
        3    1    3    3  502    0  0.93115463471E+02 -0.73790454036E+03  0.10805946406E+04  0.13118149213E+04  0.10100000352E+00 0.  1.
       -3    1    3    3    0  502 -0.93115463471E+02  0.73790454036E+03 -0.33509550813E+03  0.81575891659E+03  0.10100000352E+00 0. -1.
</event>
<event>
 5   0  0.6168338E-05  0.2019659E+04  0.7818609E-02  0.8597484E-01
        1   -1    0    0  501    0  0.00000000000E+00  0.00000000000E+00  0.14146636890E+04  0.14146636890E+04  0.50400001928E-02 0. -1.
       -1   -1    0    0    0  501  0.00000000000E+00  0.00000000000E+00 -0.72084664896E+03  0.72084664897E+03  0.50400001928E-02 0.  1.
    10030    2    1    2    0    0  0.00000000000E+00  0.00000000000E+00  0.69381704008E+03  0.21355103380E+04  0.20196589610E+04 0.  0.
        5    1    3    3  502    0  0.76087156907E+03  0.17143967884E+03 -0.33130185236E+03  0.84740788024E+03  0.46999998093E+01 0.  1.
       -5    1    3    3    0  502 -0.76087156907E+03 -0.17143967884E+03  0.10251188924E+04  0.12881024578E+04  0.46999998093E+01 0. -1.
</event>
<event>
 5   0  0.6222733E-05  0.1975440E+04  0.7818609E-02  0.8618190E-01
        1   -1    0    0  501    0  0.00000000000E+00  0.00000000000E+00  0.20615660050E+04  0.20615660051E+04  0.50400001928E-02 0.  1.
       -1   -1    0    0    0  501  0.00000000000E+00  0.00000000000E+00 -0.47322811629E+03  0.47322811632E+03  0.50400001928E-02 0. -1.
    10030    2    1    2    0    0  0.00000000000E+00  0.00000000000E+00  0.15883378888E+04  0.25347941214E+04  0.19754402013E+04 0.  0.
        2    1    3    3  502    0 -0.19642938619E+03  0.25196277086E+03  0.19934350021E+04  0.20188741539E+04  0.25500000920E-02 0.  1.
       -2    1    3    3    0  502  0.19642938619E+03 -0.25196277086E+03 -0.40509711331E+03  0.51591996751E+03  0.25500000920E-02 0. -1.
</event>
<event>
 5   0  0.6214547E-05  0.1967531E+04  0.7818609E-02  0.8621953E-01
        1   -1    0    0  501    0  0.00000000000E+00  0.00000000000E+00  0.10597141588E+04  0.10597141588E+04  0.50400001928E-02 0.  1.
       -1   -1    0    0    0  501  0.00000000000E+00  0.00000000000E+00 -0.91326007767E+03  0.91326007768E+03  0.50400001928E-02 0. -1.
    10030    2    1    2    0    0  0.00000000000E+00  0.00000000000E+00  0.14645408113E+03  0.19729742365E+04  0.19675310773E+04 0.  0.
        3    1    3    3  502    0  0.22045761444E+03  0.91378479990E+03 -0.21773150120E+03  0.96488923567E+03  0.10100000352E+00 0. -1.
       -3    1    3    3    0  502 -0.22045761444E+03 -0.91378479990E+03  0.36418558233E+03  0.10080850008E+04  0.10100000352E+00 0.  1.
</event>
<event>
 5   0  0.6168338E-05  0.1973016E+04  0.7818609E-02  0.8619341E-01
        1   -1    0    0  501    0  0.00000000000E+00  0.00000000000E+00  0.13091740786E+04  0.13091740786E+04  0.50400001928E-02 0.  1.
       -1   -1    0    0    0  501  0.00000000000E+00  0.00000000000E+00 -0.74336822453E+03  0.74336822454E+03  0.50400001928E-02 0. -1.
    10030    2    1    2    0    0  0.00000000000E+00  0.00000000000E+00  0.56580585409E+03  0.20525423032E+04  0.19730163815E+04 0.  0.
        5    1    3    3  502    0  0.48159150701E+03  0.31794072001E+03 -0.54944628037E+03  0.79682494067E+03  0.46999998093E+01 0. -1.
       -5    1    3    3    0  502 -0.48159150701E+03 -0.31794072001E+03  0.11152521345E+04  0.12557173625E+04  0.46999998093E+01 0.  1.
</event>
<event>
 5   0  0.6168338E-05  0.2005410E+04  0.7818609E-02  0.8604095E-01
       -1   -1    0    0    0  501  0.00000000000E+00  0.00000000000E+00  0.71451437824E+03  0.71451437826E+03  0.50400001928E-02 0.  1.
        1   -1    0    0  501    0  0.00000000000E+00  0.00000000000E+00 -0.14071339678E+04  0.14071339678E+04  0.50400001928E-02 0. -1.
    10030    2    1    2    0    0  0.00000000000E+00  0.00000000000E+00 -0.69261958958E+03  0.21216483461E+04  0.20054101348E+04 0.  0.
        5    1    3    3  502    0  0.65995019396E+03 -0.38479446441E+03  0.34079117771E+03  0.83651763589E+03  0.46999998093E+01 0.  1.
       -5    1    3    3    0  502 -0.65995019396E+03  0.38479446441E+03 -0.10334107673E+04  0.12851307102E+04  0.46999998093E+01 0. -1.
</event>
<event>
 5   0  0.6168338E-05  0.1999384E+04  0.7818609E-02  0.8606909E-01
        1   -1    0    0  501    0  0.00000000000E+00  0.00000000000E+00  0.15825531583E+04  0.15825531583E+04  0.50400001928E-02 0.  1.
       -1   -1    0    0    0  501  0.00000000000E+00  0.00000000000E+00 -0.63150141095E+03  0.63150141097E+03  0.50400001928E-02 0. -1.
    10030    2    1    2    0    0  0.00000000000E+00  0.00000000000E+00  0.95105174736E+03  0.22140545693E+04  0.19993844577E+04 0.  0.
        5    1    3    3  502    0 -0.57259908287E+03  0.55391810489E+03 -0.19318830292E+03  0.81977971859E+03  0.46999998093E+01 0. -1.
       -5    1    3    3    0  502  0.57259908287E+03 -0.55391810489E+03  0.11442400503E+04  0.13942748507E+04  0.46999998093E+01 0.  1.
</event>
<event>
 5   0  0.1242761E-04  0.2169280E+04  0.7818609E-02  0.8531324E-01
        2   -1    0    0  501    0  0.00000000000E+00  0.00000000000E+00  0.12378860638E+04  0.12378860638E+04  0.25500000920E-02 0.  1.
       -2   -1    0    0    0  501  0.00000000000E+00  0.00000000000E+00 -0.95036514579E+03  0.95036514579E+03  0.25500000920E-02 0. -1.
    10030    2    1    2    0    0  0.00000000000E+00  0.00000000000E+00  0.28752091802E+03  0.21882512096E+04  0.21692798524E+04 0.  0.
        4    1    3    3  502    0  0.10373707600E+04 -0.30782719337E+03  0.68634436750E+02  0.10842545704E+04  0.12699999809E+01 0. -1.
       -4    1    3    3    0  502 -0.10373707600E+04  0.30782719337E+03  0.21888648127E+03  0.11039966392E+04  0.12699999809E+01 0.  1.
</event>
<event>
 5   0  0.6028501E-05  0.1937788E+04  0.7818609E-02  0.8636272E-01
       -1   -1    0    0    0  501  0.00000000000E+00  0.00000000000E+00  0.46505157128E+03  0.46505157130E+03  0.50400001928E-02 0.  1.
        1   -1    0    0  501    0  0.00000000000E+00  0.00000000000E+00 -0.20186049321E+04  0.20186049321E+04  0.50400001928E-02 0. -1.
    10030    2    1    2    0    0  0.00000000000E+00  0.00000000000E+00 -0.15535533608E+04  0.24836565034E+04  0.19377878062E+04 0.  0.
        4    1    3    3  502    0  0.21963135704E+03  0.11162906550E+03 -0.19777852985E+04  0.19930718204E+04  0.12699999809E+01 0. -1.
       -4    1    3    3    0  502 -0.21963135704E+03 -0.11162906550E+03  0.42423193775E+03  0.49058468297E+03  0.12699999809E+01 0.  1.
</event>
<event>
 5   0  0.1159914E-04  0.1873105E+04  0.7818609E-02  0.8668361E-01
        2   -1    0    0  501    0  0.00000000000E+00  0.00000000000E+00  0.18118120152E+04  0.18118120152E+04  0.25500000920E-02 0.  1.
       -2   -1    0    0    0  501  0.00000000000E+00  0.00000000000E+00 -0.48411769434E+03  0.48411769435E+03  0.25500000920E-02 0. -1.
    10030    2    1    2    0    0  0.00000000000E+00  0.00000000000E+00  0.13276943208E+04  0.22959297095E+04  0.18731046478E+04 0.  0.
        3    1    3    3  502    0  0.15972887361E+03 -0.38594131412E+03  0.16913217464E+04  0.17421346880E+04  0.10100000352E+00 0.  1.
       -3    1    3    3    0  502 -0.15972887361E+03  0.38594131412E+03 -0.36362742559E+03  0.55379502152E+03  0.10100000352E+00 0. -1.
</event>
<event>
 5   0  0.1274868E-04  0.1974170E+04  0.7818609E-02  0.8618793E-01
       -2   -1    0    0    0  501  0.00000000000E+00  0.00000000000E+00  0.11803283671E+04  0.11803283671E+04  0.25500000920E-02 0.  1.
        2   -1    0    0  501    0  0.00000000000E+00  0.00000000000E+00 -0.82547984212E+03  0.82547984212E+03  0.25500000920E-02 0. -1.
    10030    2    1    2    0    0  0.00000000000E+00  0.00000000000E+00  0.35484852501E+03  0.20058082093E+04  0.19741704832E+04 0.  0.
        1    1    3    3  502    0  0.66039783936E+03  0.53652497693E+03  0.68579562526E+03  0.10928403345E+04  0.50400001928E-02 0. -1.
       -1    1    3    3    0  502 -0.66039783936E+03 -0.53652497693E+03 -0.33094710025E+03  0.91296787473E+03  0.50400001928E-02 0.  1.
</event>
<event>
 5   0  0.6028501E-05  0.2012030E+04  0.7818609E-02  0.8601017E-01
       -1   -1    0    0    0  501  0.00000000000E+00  0.00000000000E+00  0.79043673054E+03  0.79043673056E+03  0.50400001928E-02 0. -1.
        1   -1    0    0  501    0  0.00000000000E+00  0.00000000000E+00 -0.12803881902E+04  0.12803881902E+04  0.50400001928E-02 0.  1.
    10030    2    1    2    0    0  0.00000000000E+00  0.00000000000E+00 -0.48995145968E+03  0.20708249208E+04  0.20120296767E+04 0.  0.
        4    1    3    3  502    0  0.16236245984E+03  0.23548239112E+03  0.74770366526E+03  0.80054725584E+03  0.12699999809E+01 0. -1.
       -4    1    3    3    0  502 -0.16236245984E+03 -0.23548239112E+03 -0.12376551249E+04  0.12702776650E+04  0.12699999809E+01 0.  1.
</event>
<event>
 5   0  0.1274868E-04  0.1990233E+04  0.7818609E-02  0.8611201E-01
        2   -1    0    0  501    0  0.00000000000E+00  0.00000000000E+00  0.64978616851E+03  0.64978616852E+03  0.25500000920E-02 0. -1.
       -2   -1    0    0    0  501  0.00000000000E+00  0.00000000000E+00 -0.15239728421E+04  0.15239728421E+04  0.25500000920E-02 0.  1.
    10030    2    1    2    0    0  0.00000000000E+00  0.00000000000E+00 -0.87418667363E+03  0.21737590107E+04  0.19902326236E+04 0.  0.
        1    1    3    3  502    0  0.41030243435E+03  0.18452245632E+03  0.53237144919E+03  0.69700501036E+03  0.50400001928E-02 0. -1.
       -1    1    3    3    0  502 -0.41030243435E+03 -0.18452245632E+03 -0.14065581228E+04  0.14767540003E+04  0.50400001928E-02 0.  1.
</event>
<event>
 5   0  0.1159914E-04  0.1999259E+04  0.7818609E-02  0.8606967E-01
       -2   -1    0    0    0  501  0.00000000000E+00  0.00000000000E+00  0.16685774108E+04  0.16685774108E+04  0.25500000920E-02 0. -1.
        2   -1    0    0  501    0  0.00000000000E+00  0.00000000000E+00 -0.59886879295E+03  0.59886879296E+03  0.25500000920E-02 0.  1.
    10030    2    1    2    0    0  0.00000000000E+00  0.00000000000E+00  0.10697086178E+04  0.22674462037E+04  0.19992588026E+04 0.  0.
        3    1    3    3  502    0 -0.90827375816E+03 -0.22787796903E+03  0.13811586453E+03  0.94655458943E+03  0.10100000352E+00 0.  1.
       -3    1    3    3    0  502  0.90827375816E+03  0.22787796903E+03  0.93159275328E+03  0.13208916143E+04  0.10100000352E+00 0. -1.
</event>
<event>
 5   0  0.6222733E-05  0.1996037E+04  0.7818609E-02  0.8608476E-01
       -1   -1    0    0    0  501  0.00000000000E+00  0.00000000000E+00  0.11145338134E+04  0.11145338135E+04  0.50400001928E-02 0. -1.
        1   -1    0    0  501    0  0.00000000000E+00  0.00000000000E+00 -0.89368433211E+03  0.89368433213E+03  0.50400001928E-02 0.  1.
    10030    2    1    2    0    0  0.00000000000E+00  0.00000000000E+00  0.22084948134E+03  0.20082181456E+04  0.19960374813E+04 0.  0.
        2    1    3    3  502    0 -0.49344912264E+03  0.72653649561E+03  0.58733648799E+03  0.10565564188E+04  0.25500000920E-02 0. -1.
       -2    1    3    3    0  502  0.49344912264E+03 -0.72653649561E+03 -0.36648700666E+03  0.95166172674E+03  0.25500000920E-02 0.  1.
</event>
<event>
 5   0  0.1159914E-04  0.2030309E+04  0.7818609E-02  0.8592580E-01
       -2   -1    0    0    0  501  0.00000000000E+00  0.00000000000E+00  0.55445827617E+03  0.55445827617E+03  0.25500000920E-02 0.  1.
        2   -1    0    0  501    0  0.00000000000E+00  0.00000000000E+00 -0.18586397052E+04  0.18586397052E+04  0.25500000920E-02 0. -1.
    10030    2    1    2    0    0  0.00000000000E+00  0.00000000000E+00 -0.13041814290E+04  0.24130979814E+04  0.20303085154E+04 0.  0.
        3    1    3    3  502    0  0.10058171035E+04 -0.12682623128E+03 -0.71481598345E+03  0.12404494504E+04  0.10100000352E+00 0.  1.
       -3    1    3    3    0  502 -0.10058171035E+04  0.12682623128E+03 -0.58936544558E+03  0.11726485310E+04  0.10100000352E+00 0. -1.
</event>
<event>
 5   0  0.6028501E-05  0.1986322E+04  0.7818609E-02  0.8613042E-01
       -1   -1    0    0    0  501  0.00000000000E+00  0.00000000000E+00  0.72845632538E+03  0.72845632539E+03  0.50400001928E-02 0. -1.
        1   -1    0    0  501    0  0.00000000000E+00  0.00000000000E+00 -0.13540530914E+04  0.13540530914E+04  0.50400001928E-02 0.  1.
    10030    2    1    2    0    0  0.00000000000E+00  0.00000000000E+00 -0.62559676597E+03  0.20825094168E+04  0.19863217658E+04 0.  0.
        4    1    3    3  502    0 -0.64957247577E+03  0.23403931775E+03 -0.10612652620E+04  0.12660980897E+04  0.12699999809E+01 0.  1.
       -4    1    3    3    0  502  0.64957247577E+03 -0.23403931775E+03  0.43566849606E+03  0.81641132702E+03  0.12699999809E+01 0. -1.
</event>
<event>
 5   0  0.6222733E-05  0.1997816E+04  0.7818609E-02  0.8607642E-01
       -1   -1    0    0    0  501  0.00000000000E+00  0.00000000000E+00  0.59858934579E+03  0.59858934581E+03  0.50400001928E-02 0. -1.
        1   -1    0    0  501    0  0.00000000000E+00  0.00000000000E+00 -0.16669484989E+04  0.16669484989E+04  0.50400001928E-02 0.  1.
    10030    2    1    2    0    0  0.00000000000E+00  0.00000000000E+00 -0.10683591531E+04  0.22655378447E+04  0.19978164194E+04 0.  0.
        2    1    3    3  502    0 -0.93984192709E+03 -0.33839223386E+03 -0.53682927260E+03  0.11340184389E+04  0.25500000920E-02 0. -1.
       -2    1    3    3    0  502  0.93984192709E+03  0.33839223386E+03 -0.53152988052E+03  0.11315194058E+04  0.25500000920E-02 0.  1.
</event>
<event>
 5   0  0.6256535E-05  0.2000002E+04  0.7818609E-02  0.8606620E-01
        1   -1    0    0  501    0  0.00000000000E+00  0.00000000000E+00  0.93178752120E+03  0.93178752122E+03  0.50400001928E-02 0.  1.
       -1   -1    0    0    0  501  0.00000000000E+00  0.00000000000E+00 -0.10732078055E+04  0.10732078055E+04  0.50400001928E-02 0. -1.
    10030    2    1    2    0    0  0.00000000000E+00  0.00000000000E+00 -0.14142028427E+03  0.20049953267E+04  0.20000016408E+04 0.  0.
        1    1    3    3  502    0  0.22867964353E+03  0.47854061337E+03  0.77917197506E+03  0.94255210188E+03  0.50400001928E-02 0.  1.
       -1    1    3    3    0  502 -0.22867964353E+03 -0.47854061337E+03 -0.92059225933E+03  0.10624432248E+04  0.50400001928E-02 0. -1.
</event>
<event>
 5   0  0.1274868E-04  0.2016136E+04  0.7818609E-02  0.8599113E-01
       -2   -1    0    0    0  501  0.00000000000E+00  0.00000000000E+00  0.49879072422E+03  0.49879072423E+03  0.25500000920E-02 0.  1.
        2   -1    0    0  501    0  0.00000000000E+00  0.00000000000E+00 -0.20373305637E+04  0.20373305637E+04  0.25500000920E-02 0. -1.
    10030    2    1    2    0    0  0.00000000000E+00  0.00000000000E+00 -0.15385398394E+04  0.25361212879E+04  0.20161364907E+04 0.  0.
        1    1    3    3  502    0 -0.40777683667E+02  0.92840462344E+03 -0.27787290753E+03  0.96995428608E+03  0.50400001928E-02 0.  1.
       -1    1    3    3    0  502  0.40777683667E+02 -0.92840462344E+03 -0.12606669319E+04  0.15661670018E+04  0.50400001928E-02 0. -1.
</event>
<event>
 5   0  0.6256535E-05  0.1986677E+04  0.7818609E-02  0.8612875E-01
        1   -1    0    0  501    0  0.00000000000E+00  0.00000000000E+00  0.14278394049E+04  0.14278394049E+04  0.50400001928E-02 0.  1.
       -1   -1    0    0    0  501  0.00000000000E+00  0.00000000000E+00 -0.69105881196E+03  0.69105881198E+03  0.50400001928E-02 0. -1.
    10030    2    1    2    0    0  0.00000000000E+00  0.00000000000E+00  0.73678059292E+03  0.21188982169E+04  0.19866766247E+04 0.  0.
        1    1    3    3  502    0 -0.47537501743E+03 -0.45416874634E+03  0.11625760195E+04  0.13356023579E+04  0.50400001928E-02 0.  1.
       -1    1    3    3    0  502  0.47537501743E+03  0.45416874634E+03 -0.42579542656E+03  0.78329585896E+03  0.50400001928E-02 0. -1.
</event>
<event>
 5   0  0.6028501E-05  0.2014533E+04  0.7818609E-02  0.8599856E-01
        1   -1    0    0  501    0  0.00000000000E+00  0.00000000000E+00  0.13625920568E+04  0.13625920568E+04  0.50400001928E-02 0. -1.
       -1   -1    0    0    0  501  0.00000000000E+00  0.00000000000E+00 -0.74459947798E+03  0.74459947800E+03  0.50400001928E-02 0.  1.
    10030    2    1    2    0    0  0.00000000000E+00  0.00000000000E+00  0.61799257878E+03  0.21071915348E+04  0.20145325355E+04 0.  0.
        4    1    3    3  502    0  0.48469220003E+03 -0.87206480327E+03  0.16420933850E+03  0.10111329634E+04  0.12699999809E+01 0. -1.
       -4    1    3    3    0  502 -0.48469220003E+03  0.87206480327E+03  0.45378324028E+03  0.10960585714E+04  0.12699999809E+01 0.  1.
</event>
<event>
 5   0  0.1281789E-04  0.1967747E+04  0.7818609E-02  0.8621850E-01
       -2   -1    0    0    0  501  0.00000000000E+00  0.00000000000E+00  0.74849224310E+03  0.74849224311E+03  0.25500000920E-02 0. -1.
        2   -1    0    0  501    0  0.00000000000E+00  0.00000000000E+00 -0.12932766493E+04  0.12932766493E+04  0.25500000920E-02 0.  1.
    10030    2    1    2    0    0  0.00000000000E+00  0.00000000000E+00 -0.54478440624E+03  0.20417688925E+04  0.19677474840E+04 0.  0.
        2    1    3    3  502    0  0.87025858257E+03 -0.27372041144E+02 -0.74778438383E+03  0.11477285018E+04  0.25500000920E-02 0. -1.
       -2    1    3    3    0  502 -0.87025858257E+03  0.27372041144E+02  0.20299997759E+03  0.89404039063E+03  0.25500000920E-02 0.  1.
</event>
<event>
 5   0  0.1281789E-04  0.2012255E+04  0.7818609E-02  0.8600912E-01
       -2   -1    0    0    0  501  0.00000000000E+00  0.00000000000E+00  0.12295992852E+04  0.12295992852E+04  0.25500000920E-02 0. -1.
        2   -1    0    0  501    0  0.00000000000E+00  0.00000000000E+00 -0.82327019791E+03  0.82327019791E+03  0.25500000920E-02 0.  1.
    10030    2    1    2    0    0  0.00000000000E+00  0.00000000000E+00  0.40632908732E+03  0.20528694831E+04  0.20122549013E+04 0.  0.
        2    1    3    3  502    0  0.37271243268E+03 -0.88910777126E+03  0.49683793256E+03  0.10845621779E+04  0.25500000920E-02 0. -1.
       -2    1    3    3    0  502 -0.37271243268E+03  0.88910777126E+03 -0.90508845243E+02  0.96830730529E+03  0.25500000920E-02 0.  1.
</event>
<event>
 5   0  0.1244229E-04  0.1975267E+04  0.7818609E-02  0.8618272E-01
        2   -1    0    0  501    0  0.00000000000E+00  0.00000000000E+00  0.20250083342E+04  0.20250083342E+04  0.25500000920E-02 0. -1.
       -2   -1    0    0    0  501  0.00000000000E+00  0.00000000000E+00 -0.48168706411E+03  0.48168706411E+03  0.25500000920E-02 0.  1.
    10030    2    1    2    0    0  0.00000000000E+00  0.00000000000E+00  0.15433212701E+04  0.25066953983E+04  0.19752673939E+04 0.  0.
        5    1    3    3  502    0  0.12154551530E+03  0.15530368811E+03  0.19997525640E+04  0.20094588712E+04  0.46999998093E+01 0. -1.
       -5    1    3    3    0  502 -0.12154551530E+03 -0.15530368811E+03 -0.45643129391E+03  0.49723652711E+03  0.46999998093E+01 0.  1.
</event>
<event>
 5   0  0.1274868E-04  0.2019843E+04  0.7818609E-02  0.8597399E-01
       -2   -1    0    0    0  501  0.00000000000E+00  0.00000000000E+00  0.11989966323E+04  0.11989966323E+04  0.25500000920E-02 0. -1.
        2   -1    0    0  501    0  0.00000000000E+00  0.00000000000E+00 -0.85066267252E+03  0.85066267252E+03  0.25500000920E-02 0.  1.
    10030    2    1    2    0    0  0.00000000000E+00  0.00000000000E+00  0.34833395979E+03  0.20496593048E+04  0.20198432410E+04 0.  0.
        1    1    3    3  502    0 -0.50733332618E+03 -0.70113090426E+03 -0.35406494278E+03  0.93505809044E+03  0.50400001928E-02 0.  1.
       -1    1    3    3    0  502  0.50733332618E+03  0.70113090426E+03  0.70239890257E+03  0.11146012144E+04  0.50400001928E-02 0. -1.
</event>
<event>
 5   0  0.6214547E-05  0.1809829E+04  0.7818609E-02  0.8701090E-01
        1   -1    0    0  501    0  0.00000000000E+00  0.00000000000E+00  0.13290380217E+04  0.13290380217E+04  0.50400001928E-02 0. -1.
       -1   -1    0    0    0  501  0.00000000000E+00  0.00000000000E+00 -0.61613759189E+03  0.61613759191E+03  0.50400001928E-02 0.  1.
    10030    2    1    2    0    0  0.00000000000E+00  0.00000000000E+00  0.71290042981E+03  0.19451756136E+04  0.18098290375E+04 0.  0.
        3    1    3    3  502    0 -0.44656544863E+03  0.57785851704E+03 -0.21785989367E+03  0.76210505122E+03  0.10100000352E+00 0.  1.
       -3    1    3    3    0  502  0.44656544863E+03 -0.57785851704E+03  0.93076032348E+03  0.11830705624E+04  0.10100000352E+00 0. -1.
</event>
<event>
 5   0  0.1242761E-04  0.1978769E+04  0.7818609E-02  0.8616612E-01
        2   -1    0    0  501    0  0.00000000000E+00  0.00000000000E+00  0.63486107928E+03  0.63486107929E+03  0.25500000920E-02 0. -1.
       -2   -1    0    0    0  501  0.00000000000E+00  0.00000000000E+00 -0.15418837782E+04  0.15418837782E+04  0.25500000920E-02 0.  1.
    10030    2    1    2    0    0  0.00000000000E+00  0.00000000000E+00 -0.90702269892E+03  0.21767448575E+04  0.19787693141E+04 0.  0.
        4    1    3    3  502    0  0.27617384649E+03  0.85644877054E+03 -0.11461702323E+01  0.89987744535E+03  0.12699999809E+01 0. -1.
       -4    1    3    3    0  502 -0.27617384649E+03 -0.85644877054E+03 -0.90587652869E+03  0.12768674121E+04  0.12699999809E+01 0.  1.
</event>
<event>
 5   0  0.1244229E-04  0.1956195E+04  0.7818609E-02  0.8627379E-01
       -2   -1    0    0    0  501  0.00000000000E+00  0.00000000000E+00  0.60445587192E+03  0.60445587193E+03  0.25500000920E-02 0.  1.
        2   -1    0    0  501    0  0.00000000000E+00  0.00000000000E+00 -0.15827032070E+04  0.15827032070E+04  0.25500000920E-02 0. -1.
    10030    2    1    2    0    0  0.00000000000E+00  0.00000000000E+00 -0.97824733507E+03  0.21871590789E+04  0.19561945169E+04 0.  0.
        5    1    3    3  502    0 -0.89009281869E+03 -0.17361288070E+03 -0.79468723260E+02  0.91035379178E+03  0.46999998093E+01 0.  1.
       -5    1    3    3    0  502  0.89009281869E+03  0.17361288070E+03 -0.89877861181E+03  0.12768052871E+04  0.46999998093E+01 0. -1.
</event>
<event>
 5   0  0.1159914E-04  0.2009764E+04  0.7818609E-02  0.8602069E-01
       -2   -1    0    0    0  501  0.00000000000E+00  0.00000000000E+00  0.67793901705E+03  0.67793901706E+03  0.25500000920E-02 0.  1.
        2   -1    0    0  501    0  0.00000000000E+00  0.00000000000E+00 -0.14894969911E+04  0.14894969911E+04  0.25500000920E-02 0. -1.
    10030    2    1    2    0    0  0.00000000000E+00  0.00000000000E+00 -0.81155797402E+03  0.21674360081E+04  0.20097642907E+04 0.  0.
        3    1    3    3  502    0  0.51442718658E+03  0.80989186374E+03 -0.72792415940E+03  0.12043395507E+04  0.10100000352E+00 0. -1.
       -3    1    3    3    0  502 -0.51442718658E+03 -0.80989186374E+03 -0.83633814618E+02  0.96309645747E+03  0.10100000352E+00 0.  1.
</event>
<event>
 5   0  0.6256535E-05  0.2003081E+04  0.7818609E-02  0.8605182E-01
        1   -1    0    0  501    0  0.00000000000E+00  0.00000000000E+00  0.79036126999E+03  0.79036127001E+03  0.50400001928E-02 0.  1.
       -1   -1    0    0    0  501  0.00000000000E+00  0.00000000000E+00 -0.12691453557E+04  0.12691453557E+04  0.50400001928E-02 0. -1.
    10030    2    1    2    0    0  0.00000000000E+00  0.00000000000E+00 -0.47878408570E+03  0.20595066257E+04  0.20030809621E+04 0.  0.
        1    1    3    3  502    0  0.12743788042E+03 -0.17874269408E+02 -0.12606098823E+04  0.12671610703E+04  0.50400001928E-02 0. -1.
       -1    1    3    3    0  502 -0.12743788042E+03  0.17874269408E+02  0.78182579659E+03  0.79234555536E+03  0.50400001928E-02 0.  1.
</event>
<event>
 5   0  0.4479000E-05  0.2010818E+04  0.7818609E-02  0.8601579E-01
       -4   -1    0    0    0  501  0.00000000000E+00  0.00000000000E+00  0.18139557437E+04  0.18139561883E+04  0.12699999809E+01 0. -1.
        4   -1    0    0  501    0  0.00000000000E+00  0.00000000000E+00 -0.55726026293E+03  0.55726171010E+03  0.12699999809E+01 0.  1.
    10030    2    1    2    0    0  0.00000000000E+00  0.00000000000E+00  0.12566954807E+04  0.23712178984E+04  0.20108184379E+04 0.  0.
        3    1    3    3  502    0  0.26419802264E+03 -0.82128251765E+03  0.19538089627E+02  0.86295267316E+03  0.10100000352E+00 0.  1.
       -3    1    3    3    0  502 -0.26419802264E+03  0.82128251765E+03  0.12371573911E+04  0.15082652252E+04  0.10100000352E+00 0. -1.
</event>
<event>
 5   0  0.6222733E-05  0.2014786E+04  0.7818609E-02  0.8599739E-01
       -1   -1    0    0    0  501  0.00000000000E+00  0.00000000000E+00  0.54890248894E+03  0.54890248896E+03  0.50400001928E-02 0. -1.
        1   -1    0    0  501    0  0.00000000000E+00  0.00000000000E+00 -0.18488544786E+04  0.18488544786E+04  0.50400001928E-02 0.  1.
    10030    2    1    2    0    0  0.00000000000E+00  0.00000000000E+00 -0.12999519897E+04  0.23977569676E+04  0.20147861673E+04 0.  0.
        2    1    3    3  502    0 -0.26570178656E+03  0.76500292610E+03 -0.13630454577E+04  0.15854714870E+04  0.25500000920E-02 0.  1.
       -2    1    3    3    0  502  0.26570178656E+03 -0.76500292610E+03  0.63093467983E+02  0.81228548062E+03  0.25500000920E-02 0. -1.
</event>
<event>
 5   0  0.1281789E-04  0.1999280E+04  0.7818609E-02  0.8606958E-01
        2   -1    0    0  501    0  0.00000000000E+00  0.00000000000E+00  0.47597201003E+03  0.47597201003E+03  0.25500000920E-02 0.  1.
       -2   -1    0    0    0  501  0.00000000000E+00  0.00000000000E+00 -0.20994506325E+04  0.20994506325E+04  0.25500000920E-02 0. -1.
    10030    2    1    2    0    0  0.00000000000E+00  0.00000000000E+00 -0.16234786225E+04  0.25754226425E+04  0.19992796078E+04 0.  0.
        2    1    3    3  502    0 -0.85179864629E+03  0.52315885640E+03 -0.80547943588E+03  0.12837652607E+04  0.25500000920E-02 0.  1.
       -2    1    3    3    0  502  0.85179864629E+03 -0.52315885640E+03 -0.81799918657E+03  0.12916573819E+04  0.25500000920E-02 0. -1.
</event>
<event>
 5   0  0.1242761E-04  0.1976471E+04  0.7818609E-02  0.8617701E-01
       -2   -1    0    0    0  501  0.00000000000E+00  0.00000000000E+00  0.76800406285E+03  0.76800406285E+03  0.25500000920E-02 0.  1.
        2   -1    0    0  501    0  0.00000000000E+00  0.00000000000E+00 -0.12716196655E+04  0.12716196655E+04  0.25500000920E-02 0. -1.
    10030    2    1    2    0    0  0.00000000000E+00  0.00000000000E+00 -0.50361560261E+03  0.20396237283E+04  0.19764706620E+04 0.  0.
        4    1    3    3  502    0  0.44561151392E+03  0.53352954846E+03  0.47304903475E+03  0.84083315979E+03  0.12699999809E+01 0.  1.
       -4    1    3    3    0  502 -0.44561151392E+03 -0.53352954846E+03 -0.97666463736E+03  0.11987905685E+04  0.12699999809E+01 0. -1.
</event>
<event>
 5   0  0.1244229E-04  0.2021159E+04  0.7818609E-02  0.8596792E-01
        2   -1    0    0  501    0  0.00000000000E+00  0.00000000000E+00  0.15704019172E+04  0.15704019172E+04  0.25500000920E-02 0. -1.
       -2   -1    0    0    0  501  0.00000000000E+00  0.00000000000E+00 -0.65032439150E+03  0.65032439151E+03  0.25500000920E-02 0.  1.
    10030    2    1    2    0    0  0.00000000000E+00  0.00000000000E+00  0.92007752574E+03  0.22207263087E+04  0.20211587481E+04 0.  0.
        5    1    3    3  502    0 -0.71088943633E+03 -0.50153091095E+03 -0.10487939075E+03  0.87630977509E+03  0.46999998093E+01 0. -1.
       -5    1    3    3    0  502  0.71088943633E+03  0.50153091095E+03  0.10249569165E+04  0.13444165337E+04  0.46999998093E+01 0.  1.
</event>
<event>
 5   0  0.6256535E-05  0.1996557E+04  0.7818609E-02  0.8608232E-01
       -1   -1    0    0    0  501  0.00000000000E+00  0.00000000000E+00  0.59048498912E+03  0.59048498914E+03  0.50400001928E-02 0.  1.
        1   -1    0    0  501    0  0.00000000000E+00  0.00000000000E+00 -0.16876978508E+04  0.16876978508E+04  0.50400001928E-02 0. -1.
    10030    2    1    2    0    0  0.00000000000E+00  0.00000000000E+00 -0.10972128617E+04  0.22781828400E+04  0.19965572840E+04 0.  0.
        1    1    3    3  502    0  0.22883035093E+03  0.11489852764E+03 -0.16495892268E+04  0.16693440683E+04  0.50400001928E-02 0. -1.
       -1    1    3    3    0  502 -0.22883035093E+03 -0.11489852764E+03  0.55237636509E+03  0.60883877168E+03  0.50400001928E-02 0.  1.
</event>
<event>
 5   0  0.6028501E-05  0.1986770E+04  0.7818609E-02  0.8612831E-01
       -1   -1    0    0    0  501  0.00000000000E+00  0.00000000000E+00  0.81772688621E+03  0.81772688622E+03  0.50400001928E-02 0. -1.
        1   -1    0    0  501    0  0.00000000000E+00  0.00000000000E+00 -0.12067770617E+04  0.12067770618E+04  0.50400001928E-02 0.  1.
    10030    2    1    2    0    0  0.00000000000E+00  0.00000000000E+00 -0.38905017553E+03  0.20245039480E+04  0.19867702928E+04 0.  0.
        4    1    3    3  502    0 -0.19392030343E+03 -0.27592372052E+03 -0.11466553347E+04  0.11952234323E+04  0.12699999809E+01 0.  1.
       -4    1    3    3    0  502  0.19392030343E+03  0.27592372052E+03  0.75760515915E+03  0.82928051569E+03  0.12699999809E+01 0. -1.
</event>
<event>
 5   0  0.1281789E-04  0.1999518E+04  0.7818609E-02  0.8606846E-01
       -2   -1    0    0    0  501  0.00000000000E+00  0.00000000000E+00  0.65145120108E+03  0.65145120108E+03  0.25500000920E-02 0. -1.
        2   -1    0    0  501    0  0.00000000000E+00  0.00000000000E+00 -0.15342939746E+04  0.15342939746E+04  0.25500000920E-02 0.  1.
    10030    2    1    2    0    0  0.00000000000E+00  0.00000000000E+00 -0.88284277355E+03  0.21857451757E+04  0.19995175944E+04 0.  0.
        2    1    3    3  502    0 -0.60064977967E+02  0.93230587480E+03 -0.52296190847E+02  0.93570130776E+03  0.25500000920E-02 0. -1.
       -2    1    3    3    0  502  0.60064977967E+02 -0.93230587480E+03 -0.83054658271E+03  0.12500438680E+04  0.25500000920E-02 0.  1.
</event>
<event>
 5   0  0.1274868E-04  0.1958792E+04  0.7818609E-02  0.8626133E-01
        2   -1    0    0  501    0  0.00000000000E+00  0.00000000000E+00  0.12245601821E+04  0.12245601821E+04  0.25500000920E-02 0.  1.
       -2   -1    0    0    0  501  0.00000000000E+00  0.00000000000E+00 -0.78331483297E+03  0.78331483297E+03  0.25500000920E-02 0. -1.
    10030    2    1    2    0    0  0.00000000000E+00  0.00000000000E+00  0.44124534914E+03  0.20078750151E+04  0.19587916219E+04 0.  0.
        1    1    3    3  502    0  0.48787195340E+03 -0.61474701917E+03  0.82120800708E+03  0.11359205656E+04  0.50400001928E-02 0.  1.
       -1    1    3    3    0  502 -0.48787195340E+03  0.61474701917E+03 -0.37996265794E+03  0.87195444947E+03  0.50400001928E-02 0. -1.
</event>
<event>
 5   0  0.1274868E-04  0.2113111E+04  0.7818609E-02  0.8555490E-01
        2   -1    0    0  501    0  0.00000000000E+00  0.00000000000E+00  0.10669411693E+04  0.10669411693E+04  0.25500000920E-02 0.  1.
       -2   -1    0    0    0  501  0.00000000000E+00  0.00000000000E+00 -0.10462713303E+04  0.10462713303E+04  0.25500000920E-02 0. -1.
    10030    2    1    2    0    0  0.00000000000E+00  0.00000000000E+00  0.20669838966E+02  0.21132124997E+04  0.21131114089E+04 0.  0.
        1    1    3    3  502    0  0.95542851774E+03 -0.14206387742E+03  0.43847239248E+03  0.10607939653E+04  0.50400001928E-02 0.  1.
       -1    1    3    3    0  502 -0.95542851774E+03  0.14206387742E+03 -0.41780255352E+03  0.10524185344E+04  0.50400001928E-02 0. -1.
</event>
<event>
 5   0  0.6222733E-05  0.1974931E+04  0.7818609E-02  0.8618432E-01
        1   -1    0    0  501    0  0.00000000000E+00  0.00000000000E+00  0.15305156898E+04  0.15305156898E+04  0.50400001928E-02 0. -1.
       -1   -1    0    0    0  501  0.00000000000E+00  0.00000000000E+00 -0.63709774348E+03  0.63709774350E+03  0.50400001928E-02 0.  1.
    10030    2    1    2    0    0  0.00000000000E+00  0.00000000000E+00  0.89341794628E+03  0.21676134333E+04  0.19749309784E+04 0.  0.
        2    1    3    3  502    0  0.81666740772E+02  0.36687220554E+03 -0.55552000678E+03  0.67072136516E+03  0.25500000920E-02 0.  1.
       -2    1    3    3    0  502 -0.81666740772E+02 -0.36687220554E+03  0.14489379531E+04  0.14968920681E+04  0.25500000920E-02 0. -1.
</event>
<event>
 5   0  0.1244229E-04  0.2011824E+04  0.7818609E-02  0.8601112E-01
       -2   -1    0    0    0  501  0.00000000000E+00  0.00000000000E+00  0.12047002048E+04  0.12047002048E+04  0.25500000920E-02 0.  1.
        2   -1    0    0  501    0  0.00000000000E+00  0.00000000000E+00 -0.83992627902E+03  0.83992627902E+03  0.25500000920E-02 0. -1.
    10030    2    1    2    0    0  0.00000000000E+00  0.00000000000E+00  0.36477392574E+03  0.20446264838E+04  0.20118244062E+04 0.  0.
        5    1    3    3  502    0 -0.86476470891E+03 -0.50281921580E+03  0.28990462020E+03  0.10414950525E+04  0.46999998093E+01 0.  1.
       -5    1    3    3    0  502  0.86476470891E+03  0.50281921580E+03  0.74869305541E+02  0.10031314313E+04  0.46999998093E+01 0. -1.
</event>
<event>
 5   0  0.6028501E-05  0.2013560E+04  0.7818609E-02  0.8600307E-01
       -1   -1    0    0    0  501  0.00000000000E+00  0.00000000000E+00  0.48599515859E+03  0.48599515862E+03  0.50400001928E-02 0.  1.
        1   -1    0    0  501    0  0.00000000000E+00  0.00000000000E+00 -0.20856301828E+04  0.20856301828E+04  0.50400001928E-02 0. -1.
    10030    2    1    2    0    0  0.00000000000E+00  0.00000000000E+00 -0.15996350242E+04  0.25716253414E+04  0.20135602017E+04 0.  0.
        4    1    3    3  502    0  0.72733147667E+03 -0.47148536113E+03 -0.14572660216E+03  0.87894674365E+03  0.12699999809E+01 0.  1.
       -4    1    3    3    0  502 -0.72733147667E+03  0.47148536113E+03 -0.14539084220E+04  0.16926785977E+04  0.12699999809E+01 0. -1.
</event>
<event>
 5   0  0.6256535E-05  0.1984752E+04  0.7818609E-02  0.8613783E-01
        1   -1    0    0  501    0  0.00000000000E+00  0.00000000000E+00  0.12051276078E+04  0.12051276078E+04  0.50400001928E-02 0. -1.
       -1   -1    0    0    0  501  0.00000000000E+00  0.00000000000E+00 -0.81718326194E+03  0.81718326195E+03  0.50400001928E-02 0.  1.
    10030    2    1    2    0    0  0.00000000000E+00  0.00000000000E+00  0.38794434586E+03  0.20223108698E+04  0.19847519841E+04 0.  0.
        1    1    3    3  502    0 -0.22047855675E+01  0.38435728581E+03  0.11262036993E+04  0.11899874607E+04  0.50400001928E-02 0. -1.
       -1    1    3    3    0  502  0.22047855675E+01 -0.38435728581E+03 -0.73825935347E+03  0.83232340905E+03  0.50400001928E-02 0.  1.
</event>
<event>
 5   0  0.6256535E-05  0.1978881E+04  0.7818609E-02  0.8616559E-01
        1   -1    0    0  501    0  0.00000000000E+00  0.00000000000E+00  0.25018042346E+04  0.25018042346E+04  0.50400001928E-02 0. -1.
       -1   -1    0    0    0  501  0.00000000000E+00  0.00000000000E+00 -0.39131451326E+03  0.39131451329E+03  0.50400001928E-02 0.  1.
    10030    2    1    2    0    0  0.00000000000E+00  0.00000000000E+00  0.21104897214E+04  0.28931187479E+04  0.19788808013E+04 0.  0.
        1    1    3    3  502    0  0.98442591032E+03 -0.26252386467E+02  0.91494835193E+03  0.13442150302E+04  0.50400001928E-02 0. -1.
       -1    1    3    3    0  502 -0.98442591032E+03  0.26252386467E+02  0.11955413695E+04  0.15489037177E+04  0.50400001928E-02 0.  1.
</event>
<event>
 5   0  0.6222733E-05  0.1997411E+04  0.7818609E-02  0.8607832E-01
       -1   -1    0    0    0  501  0.00000000000E+00  0.00000000000E+00  0.45684389726E+03  0.45684389729E+03  0.50400001928E-02 0.  1.
        1   -1    0    0  501    0  0.00000000000E+00  0.00000000000E+00 -0.21832676342E+04  0.21832676342E+04  0.50400001928E-02 0. -1.
    10030    2    1    2    0    0  0.00000000000E+00  0.00000000000E+00 -0.17264237369E+04  0.26401115315E+04  0.19974108188E+04 0.  0.
        2    1    3    3  502    0 -0.72348191022E+03 -0.64174815987E+02  0.42818629412E+02  0.72758361475E+03  0.25500000920E-02 0.  1.
       -2    1    3    3    0  502  0.72348191022E+03  0.64174815987E+02 -0.17692423663E+04  0.19125279167E+04  0.25500000920E-02 0. -1.
</event>
<event>
 5   0  0.6214547E-05  0.2005551E+04  0.7818609E-02  0.8604030E-01
        1   -1    0    0  501    0  0.00000000000E+00  0.00000000000E+00  0.19176271718E+04  0.19176271718E+04  0.50400001928E-02 0. -1.
       -1   -1    0    0    0  501  0.00000000000E+00  0.00000000000E+00 -0.52437663310E+03  0.52437663312E+03  0.50400001928E-02 0.  1.
    10030    2    1    2    0    0  0.00000000000E+00  0.00000000000E+00  0.13932505387E+04  0.24420038050E+04  0.20055511760E+04 0.  0.
        3    1    3    3  502    0  0.27590908960E+03 -0.92116228750E+03  0.35031267600E+03  0.10234181779E+04  0.10100000352E+00 0. -1.
       -3    1    3    3    0  502 -0.27590908960E+03  0.92116228750E+03  0.10429378627E+04  0.14185856271E+04  0.10100000352E+00 0.  1.
</event>
<event>
 5   0  0.1159914E-04  0.1738430E+04  0.7818609E-02  0.8739745E-01
        2   -1    0    0  501    0  0.00000000000E+00  0.00000000000E+00  0.13766555310E+04  0.13766555310E+04  0.25500000920E-02 0. -1.
       -2   -1    0    0    0  501  0.00000000000E+00  0.00000000000E+00 -0.54881878926E+03  0.54881878926E+03  0.25500000920E-02 0.  1.
    10030    2    1    2    0    0  0.00000000000E+00  0.00000000000E+00  0.82783674171E+03  0.19254743202E+04  0.17384296612E+04 0.  0.
        3    1    3    3  502    0 -0.46458786464E+03 -0.51256566206E+02  0.12256157636E+04  0.13117176258E+04  0.10100000352E+00 0. -1.
       -3    1    3    3    0  502  0.46458786464E+03  0.51256566206E+02 -0.39777902189E+03  0.61375669447E+03  0.10100000352E+00 0.  1.
</event>
<event>
 5   0  0.6214547E-05  0.2006987E+04  0.7818609E-02  0.8603361E-01
        1   -1    0    0  501    0  0.00000000000E+00  0.00000000000E+00  0.21735851152E+04  0.21735851152E+04  0.50400001928E-02 0.  1.
       -1   -1    0    0    0  501  0.00000000000E+00  0.00000000000E+00 -0.46328934804E+03  0.46328934807E+03  0.50400001928E-02 0. -1.
    10030    2    1    2    0    0  0.00000000000E+00  0.00000000000E+00  0.17102957672E+04  0.26368744633E+04  0.20069866277E+04 0.  0.
        3    1    3    3  502    0  0.43209873230E+03  0.85970719818E+03  0.48077500748E+03  0.10756162880E+04  0.10100000352E+00 0. -1.
       -3    1    3    3    0  502 -0.43209873230E+03 -0.85970719818E+03  0.12295207597E+04  0.15612581752E+04  0.10100000352E+00 0.  1.
</event>
<event>
 5   0  0.1242761E-04  0.1993587E+04  0.7818609E-02  0.8609625E-01
       -2   -1    0    0    0  501  0.00000000000E+00  0.00000000000E+00  0.96180706874E+03  0.96180706875E+03  0.25500000920E-02 0. -1.
        2   -1    0    0  501    0  0.00000000000E+00  0.00000000000E+00 -0.10330528408E+04  0.10330528408E+04  0.25500000920E-02 0.  1.
    10030    2    1    2    0    0  0.00000000000E+00  0.00000000000E+00 -0.71245772050E+02  0.19948599095E+04  0.19935872438E+04 0.  0.
        4    1    3    3  502    0  0.75693328739E+03  0.63888915902E+02  0.61020847056E+03  0.97436429818E+03  0.12699999809E+01 0. -1.
       -4    1    3    3    0  502 -0.75693328739E+03 -0.63888915902E+02 -0.68145424261E+03  0.10204956114E+04  0.12699999809E+01 0.  1.
</event>
<event>
 5   0  0.1159914E-04  0.1988565E+04  0.7818609E-02  0.8611986E-01
       -2   -1    0    0    0  501  0.00000000000E+00  0.00000000000E+00  0.52736442572E+03  0.52736442573E+03  0.25500000920E-02 0.  1.
        2   -1    0    0  501    0  0.00000000000E+00  0.00000000000E+00 -0.18746000896E+04  0.18746000896E+04  0.25500000920E-02 0. -1.
    10030    2    1    2    0    0  0.00000000000E+00  0.00000000000E+00 -0.13472356639E+04  0.24019645154E+04  0.19885647083E+04 0.  0.
        3    1    3    3  502    0 -0.32330609699E+03 -0.18045479452E+03  0.44098688103E+03  0.57581264719E+03  0.10100000352E+00 0.  1.
       -3    1    3    3    0  502  0.32330609699E+03  0.18045479452E+03 -0.17882225449E+04  0.18261518682E+04  0.10100000352E+00 0. -1.
</event>
<event>
 5   0  0.1281789E-04  0.1888869E+04  0.7818609E-02  0.8660417E-01
       -2   -1    0    0    0  501  0.00000000000E+00  0.00000000000E+00  0.12127718481E+04  0.12127718481E+04  0.25500000920E-02 0. -1.
        2   -1    0    0  501    0  0.00000000000E+00  0.00000000000E+00 -0.73546910938E+03  0.73546910938E+03  0.25500000920E-02 0.  1.
    10030    2    1    2    0    0  0.00000000000E+00  0.00000000000E+00  0.47730273876E+03  0.19482409575E+04  0.18888686890E+04 0.  0.
        2    1    3    3  502    0  0.61969134179E+03  0.71058646617E+03  0.18210339632E+03  0.96026669835E+03  0.25500000920E-02 0. -1.
       -2    1    3    3    0  502 -0.61969134179E+03 -0.71058646617E+03  0.29519934245E+03  0.98797425917E+03  0.25500000920E-02 0.  1.
</event>
<event>
 5   0  0.6168338E-05  0.1766264E+04  0.7818609E-02  0.8724448E-01
       -1   -1    0    0    0  501  0.00000000000E+00  0.00000000000E+00  0.98337613213E+03  0.98337613214E+03  0.50400001928E-02 0. -1.
        1   -1    0    0  501    0  0.00000000000E+00  0.00000000000E+00 -0.79310694536E+03  0.79310694538E+03  0.50400001928E-02 0.  1.
    10030    2    1    2    0    0  0.00000000000E+00  0.00000000000E+00  0.19026918677E+03  0.17764830775E+04  0.17662643520E+04 0.  0.
        5    1    3    3  502    0  0.40559606586E+03  0.41579057218E+03  0.76419773140E+03  0.95990115701E+03  0.46999998093E+01 0. -1.
       -5    1    3    3    0  502 -0.40559606586E+03 -0.41579057218E+03 -0.57392854464E+03  0.81658192051E+03  0.46999998093E+01 0.  1.
</event>
<event>
 5   0  0.6256535E-05  0.2024726E+04  0.7818609E-02  0.8595147E-01
        1   -1    0    0  501    0  0.00000000000E+00  0.00000000000E+00  0.16436264195E+04  0.16436264195E+04  0.50400001928E-02 0. -1.
       -1   -1    0    0    0  501  0.00000000000E+00  0.00000000000E+00 -0.62354761138E+03  0.62354761140E+03  0.50400001928E-02 0.  1.
    10030    2    1    2    0    0  0.00000000000E+00  0.00000000000E+00  0.10200788081E+04  0.22671740309E+04  0.20247264782E+04 0.  0.
        1    1    3    3  502    0  0.30166928166E+03 -0.96523509104E+03  0.45756426569E+03  0.11099766636E+04  0.50400001928E-02 0.  1.
       -1    1    3    3    0  502 -0.30166928166E+03  0.96523509104E+03  0.56251454246E+03  0.11571973673E+04  0.50400001928E-02 0. -1.
</event>
<event>
 5   0  0.1242761E-04  0.1646860E+04  0.7818609E-02  0.8792266E-01
        2   -1    0    0  501    0  0.00000000000E+00  0.00000000000E+00  0.86311688652E+03  0.86311688652E+03  0.25500000920E-02 0. -1.
       -2   -1    0    0    0  501  0.00000000000E+00  0.00000000000E+00 -0.78556821722E+03  0.78556821722E+03  0.25500000920E-02 0.  1.
    10030    2    1    2    0    0  0.00000000000E+00  0.00000000000E+00  0.77548669300E+02  0.16486851037E+04  0.16468602780E+04 0.  0.
        4    1    3    3  502    0  0.61635668098E+03 -0.81916379655E+02 -0.50166616398E+03  0.79892202650E+03  0.12699999809E+01 0.  1.
       -4    1    3    3    0  502 -0.61635668098E+03  0.81916379655E+02  0.57921483328E+03  0.84976307724E+03  0.12699999809E+01 0. -1.
</event>
<event>
 5   0  0.1242761E-04  0.2055374E+04  0.7818609E-02  0.8581160E-01
       -2   -1    0    0    0  501  0.00000000000E+00  0.00000000000E+00  0.57723263945E+03  0.57723263946E+03  0.25500000920E-02 0. -1.
        2   -1    0    0  501    0  0.00000000000E+00  0.00000000000E+00 -0.18296616864E+04  0.18296616864E+04  0.25500000920E-02 0.  1.
    10030    2    1    2    0    0  0.00000000000E+00  0.00000000000E+00 -0.12524290469E+04  0.24068943258E+04  0.20553738779E+04 0.  0.
        4    1    3    3  502    0  0.72275256115E+03 -0.72369555481E+03 -0.50892298518E+03  0.11424144338E+04  0.12699999809E+01 0. -1.
       -4    1    3    3    0  502 -0.72275256115E+03  0.72369555481E+03 -0.74350606173E+03  0.12644798921E+04  0.12699999809E+01 0.  1.
</event>
<event>
 5   0  0.1244229E-04  0.2005633E+04  0.7818609E-02  0.8603991E-01
        2   -1    0    0  501    0  0.00000000000E+00  0.00000000000E+00  0.64462676159E+03  0.64462676160E+03  0.25500000920E-02 0. -1.
       -2   -1    0    0    0  501  0.00000000000E+00  0.00000000000E+00 -0.15600364844E+04  0.15600364844E+04  0.25500000920E-02 0.  1.
    10030    2    1    2    0    0  0.00000000000E+00  0.00000000000E+00 -0.91540972277E+03  0.22046632460E+04  0.20056333333E+04 0.  0.
        5    1    3    3  502    0 -0.41078730086E+03  0.91428253426E+03 -0.42363888479E+03  0.10881869112E+04  0.46999998093E+01 0. -1.
       -5    1    3    3    0  502  0.41078730086E+03 -0.91428253426E+03 -0.49177083798E+03  0.11164763348E+04  0.46999998093E+01 0.  1.
</event>
<event>
 5   0  0.1159914E-04  0.2011859E+04  0.7818609E-02  0.8601096E-01
        2   -1    0    0  501    0  0.00000000000E+00  0.00000000000E+00  0.17202277247E+04  0.17202277247E+04  0.25500000920E-02 0.  1.
       -2   -1    0    0    0  501  0.00000000000E+00  0.00000000000E+00 -0.58823244477E+03  0.58823244477E+03  0.25500000920E-02 0. -1.
    10030    2    1    2    0    0  0.00000000000E+00  0.00000000000E+00  0.11319952799E+04  0.23084601694E+04  0.20118586034E+04 0.  0.
        3    1    3    3  502    0  0.30114225075E+03  0.76950874268E+03 -0.92212721298E+02  0.83146470546E+03  0.10100000352E+00 0. -1.
       -3    1    3    3    0  502 -0.30114225075E+03 -0.76950874268E+03  0.12242080012E+04  0.14769954640E+04  0.10100000352E+00 0.  1.
</event>
<event>
 5   0  0.1242761E-04  0.2003288E+04  0.7818609E-02  0.8605085E-01
        2   -1    0    0  501    0  0.00000000000E+00  0.00000000000E+00  0.12804915360E+04  0.12804915360E+04  0.25500000920E-02 0.  1.
       -2   -1    0    0    0  501  0.00000000000E+00  0.00000000000E+00 -0.78352016575E+03  0.78352016576E+03  0.25500000920E-02 0. -1.
    10030    2    1    2    0    0  0.00000000000E+00  0.00000000000E+00  0.49697137027E+03  0.20640117018E+04  0.20032882374E+04 0.  0.
        4    1    3    3  502    0 -0.69528161455E+03 -0.11615976724E+03 -0.48468799010E+03  0.85547277905E+03  0.12699999809E+01 0. -1.
       -4    1    3    3    0  502  0.69528161455E+03  0.11615976724E+03  0.98165936037E+03  0.12085389227E+04  0.12699999809E+01 0.  1.
</event>
<event>
 5   0  0.6168338E-05  0.2057507E+04  0.7818609E-02  0.8580196E-01
       -1   -1    0    0    0  501  0.00000000000E+00  0.00000000000E+00  0.14713562233E+04  0.14713562233E+04  0.50400001928E-02 0.  1.
        1   -1    0    0  501    0  0.00000000000E+00  0.00000000000E+00 -0.71929144836E+03  0.71929144838E+03  0.50400001928E-02 0. -1.
    10030    2    1    2    0    0  0.00000000000E+00  0.00000000000E+00  0.75206477490E+03  0.21906476716E+04  0.20575071800E+04 0.  0.
        5    1    3    3  502    0 -0.74244739747E+03 -0.64775898055E+03  0.69096338340E+03  0.12034418649E+04  0.46999998093E+01 0. -1.
       -5    1    3    3    0  502  0.74244739747E+03  0.64775898055E+03  0.61101391496E+02  0.98720580678E+03  0.46999998093E+01 0.  1.
</event>
<event>
 5   0  0.6222733E-05  0.1640785E+04  0.7818609E-02  0.8795877E-01
        1   -1    0    0  501    0  0.00000000000E+00  0.00000000000E+00  0.34877770890E+03  0.34877770894E+03  0.50400001928E-02 0. -1.
       -1   -1    0    0    0  501  0.00000000000E+00  0.00000000000E+00 -0.19297215238E+04  0.19297215238E+04  0.50400001928E-02 0.  1.
    10030    2    1    2    0    0  0.00000000000E+00  0.00000000000E+00 -0.15809438149E+04  0.22784992328E+04  0.16407849974E+04 0.  0.
        2    1    3    3  502    0  0.36094775154E+03  0.73640257189E+03 -0.76030800325E+03  0.11183202972E+04  0.25500000920E-02 0.  1.
       -2    1    3    3    0  502 -0.36094775154E+03 -0.73640257189E+03 -0.82063581167E+03  0.11601789356E+04  0.25500000920E-02 0. -1.
</event>
<event>
 5   0  0.1242761E-04  0.2000853E+04  0.7818609E-02  0.8606222E-01
       -2   -1    0    0    0  501  0.00000000000E+00  0.00000000000E+00  0.59761536438E+03  0.59761536439E+03  0.25500000920E-02 0.  1.
        2   -1    0    0  501    0  0.00000000000E+00  0.00000000000E+00 -0.16747445270E+04  0.16747445270E+04  0.25500000920E-02 0. -1.
    10030    2    1    2    0    0  0.00000000000E+00  0.00000000000E+00 -0.10771291626E+04  0.22723598913E+04  0.20008528789E+04 0.  0.
        4    1    3    3  502    0  0.10441683317E+03 -0.31001283636E+03 -0.16122869497E+04  0.16451387950E+04  0.12699999809E+01 0. -1.
       -4    1    3    3    0  502 -0.10441683317E+03  0.31001283636E+03  0.53515778709E+03  0.62722109637E+03  0.12699999809E+01 0.  1.
</event>
<event>
 5   0  0.1159914E-04  0.2035129E+04  0.7818609E-02  0.8590370E-01
        2   -1    0    0  501    0  0.00000000000E+00  0.00000000000E+00  0.75570491572E+03  0.75570491572E+03  0.25500000920E-02 0.  1.
       -2   -1    0    0    0  501  0.00000000000E+00  0.00000000000E+00 -0.13701615192E+04  0.13701615192E+04  0.25500000920E-02 0. -1.
    10030    2    1    2    0    0  0.00000000000E+00  0.00000000000E+00 -0.61445660351E+03  0.21258664349E+04  0.20351292789E+04 0.  0.
        3    1    3    3  502    0  0.10295373771E+03 -0.34600012594E+03 -0.13010250864E+04  0.13501784493E+04  0.10100000352E+00 0. -1.
       -3    1    3    3    0  502 -0.10295373771E+03  0.34600012594E+03  0.68656848287E+03  0.77568798568E+03  0.10100000352E+00 0.  1.
</event>
<event>
 5   0  0.4479000E-05  0.1987372E+04  0.7818609E-02  0.8612548E-01
       -3   -1    0    0    0  501  0.00000000000E+00  0.00000000000E+00  0.42903818105E+03  0.42903819293E+03  0.10100000352E+00 0.  1.
        3   -1    0    0  501    0  0.00000000000E+00  0.00000000000E+00 -0.23014544326E+04  0.23014544348E+04  0.10100000352E+00 0. -1.
    10030    2    1    2    0    0  0.00000000000E+00  0.00000000000E+00 -0.18724162516E+04  0.27304926278E+04  0.19873719760E+04 0.  0.
        3    1    3    3  502    0 -0.49029962864E+03  0.68178850958E+03 -0.16660468657E+04  0.18657281331E+04  0.10100000352E+00 0. -1.
       -3    1    3    3    0  502  0.49029962864E+03 -0.68178850958E+03 -0.20636938585E+03  0.86476449467E+03  0.10100000352E+00 0.  1.
</event>
<event>
 5   0  0.1281789E-04  0.2007071E+04  0.7818609E-02  0.8603322E-01
        2   -1    0    0  501    0  0.00000000000E+00  0.00000000000E+00  0.92318313697E+03  0.92318313697E+03  0.25500000920E-02 0.  1.
       -2   -1    0    0    0  501  0.00000000000E+00  0.00000000000E+00 -0.10908816683E+04  0.10908816683E+04  0.25500000920E-02 0. -1.
    10030    2    1    2    0    0  0.00000000000E+00  0.00000000000E+00 -0.16769853133E+03  0.20140648053E+04  0.20070710606E+04 0.  0.
        2    1    3    3  502    0  0.26018715065E+02  0.92213279020E+03  0.31259407373E+03  0.97402305478E+03  0.25500000920E-02 0.  1.
       -2    1    3    3    0  502 -0.26018715065E+02 -0.92213279020E+03 -0.48029260506E+03  0.10400417505E+04  0.25500000920E-02 0. -1.
</event>
<event>
 5   0  0.1242761E-04  0.2033616E+04  0.7818609E-02  0.8591063E-01
        2   -1    0    0  501    0  0.00000000000E+00  0.00000000000E+00  0.17318274766E+04  0.17318274766E+04  0.25500000920E-02 0.  1.
       -2   -1    0    0    0  501  0.00000000000E+00  0.00000000000E+00 -0.59699875320E+03  0.59699875320E+03  0.25500000920E-02 0. -1.
    10030    2    1    2    0    0  0.00000000000E+00  0.00000000000E+00  0.11348287234E+04  0.23288262298E+04  0.20336163299E+04 0.  0.
        4    1    3    3  502    0 -0.69019728960E+03 -0.28892098711E+03 -0.22104616133E+03  0.78019911157E+03  0.12699999809E+01 0. -1.
       -4    1    3    3    0  502  0.69019728960E+03  0.28892098711E+03  0.13558748847E+04  0.15486271182E+04  0.12699999809E+01 0.  1.
</event>
<event>
 5   0  0.6256535E-05  0.1988387E+04  0.7818609E-02  0.8612070E-01
        1   -1    0    0  501    0  0.00000000000E+00  0.00000000000E+00  0.10163266870E+04  0.10163266870E+04  0.50400001928E-02 0. -1.
       -1   -1    0    0    0  501  0.00000000000E+00  0.00000000000E+00 -0.97254199160E+03  0.97254199162E+03  0.50400001928E-02 0.  1.
    10030    2    1    2    0    0  0.00000000000E+00  0.00000000000E+00  0.43784695380E+02  0.19888686786E+04  0.19883866629E+04 0.  0.
        1    1    3    3  502    0 -0.55682628562E+03  0.36551232266E+03 -0.71636896185E+03  0.97818160885E+03  0.50400001928E-02 0.  1.
       -1    1    3    3    0  502  0.55682628562E+03 -0.36551232266E+03  0.76015365722E+03  0.10106870698E+04  0.50400001928E-02 0. -1.
</event>
<event>
 5   0  0.1281789E-04  0.2000281E+04  0.7818609E-02  0.8606489E-01
       -2   -1    0    0    0  501  0.00000000000E+00  0.00000000000E+00  0.55908432186E+03  0.55908432187E+03  0.25500000920E-02 0.  1.
        2   -1    0    0  501    0  0.00000000000E+00  0.00000000000E+00 -0.17891416175E+04  0.17891416175E+04  0.25500000920E-02 0. -1.
    10030    2    1    2    0    0  0.00000000000E+00  0.00000000000E+00 -0.12300572956E+04  0.23482259394E+04  0.20002810082E+04 0.  0.
        2    1    3    3  502    0 -0.31806387099E+03 -0.41273654437E+03 -0.16172014381E+04  0.16990752110E+04  0.25500000920E-02 0. -1.
       -2    1    3    3    0  502  0.31806387099E+03  0.41273654437E+03  0.38714414249E+03  0.64915072838E+03  0.25500000920E-02 0.  1.
</event>
<event>
 5   0  0.6168338E-05  0.1993012E+04  0.7818609E-02  0.8609895E-01
        1   -1    0    0  501    0  0.00000000000E+00  0.00000000000E+00  0.77439643264E+03  0.77439643266E+03  0.50400001928E-02 0.  1.
       -1   -1    0    0    0  501  0.00000000000E+00  0.00000000000E+00 -0.12823201639E+04  0.12823201639E+04  0.50400001928E-02 0. -1.
    10030    2    1    2    0    0  0.00000000000E+00  0.00000000000E+00 -0.50792373127E+03  0.20567165966E+04  0.19930119523E+04 0.  0.
        5    1    3    3  502    0  0.81739326645E+03  0.45028780684E+03  0.10665191229E+03  0.93930164560E+03  0.46999998093E+01 0.  1.
       -5    1    3    3    0  502 -0.81739326645E+03 -0.45028780684E+03 -0.61457564357E+03  0.11174149510E+04  0.46999998093E+01 0. -1.
</event>
<event>
 5   0  0.6214547E-05  0.1987413E+04  0.7818609E-02  0.8612528E-01
       -1   -1    0    0    0  501  0.00000000000E+00  0.00000000000E+00  0.12660733064E+04  0.12660733064E+04  0.50400001928E-02 0. -1.
        1   -1    0    0  501    0  0.00000000000E+00  0.00000000000E+00 -0.77993286557E+03  0.77993286559E+03  0.50400001928E-02 0.  1.
    10030    2    1    2    0    0  0.00000000000E+00  0.00000000000E+00  0.48614044084E+03  0.20460061720E+04  0.19874125711E+04 0.  0.
        3    1    3    3  502    0  0.17386498039E+03  0.41079620604E+03 -0.67106699203E+03  0.80579989594E+03  0.10100000352E+00 0.  1.
       -3    1    3    3    0  502 -0.17386498039E+03 -0.41079620604E+03  0.11572074329E+04  0.12402062761E+04  0.10100000352E+00 0. -1.
</event>
<event>
 5   0  0.1244229E-04  0.1985921E+04  0.7818609E-02  0.8613232E-01
        2   -1    0    0  501    0  0.00000000000E+00  0.00000000000E+00  0.12652210938E+04  0.12652210938E+04  0.25500000920E-02 0.  1.
       -2   -1    0    0    0  501  0.00000000000E+00  0.00000000000E+00 -0.77928680410E+03  0.77928680410E+03  0.25500000920E-02 0. -1.
    10030    2    1    2    0    0  0.00000000000E+00  0.00000000000E+00  0.48593428968E+03  0.20445078979E+04  0.19859205449E+04 0.  0.
        5    1    3    3  502    0  0.99112015371E+03 -0.34005745678E+02  0.29415793233E+03  0.10344208665E+04  0.46999998093E+01 0. -1.
       -5    1    3    3    0  502 -0.99112015371E+03  0.34005745678E+02  0.19177635735E+03  0.10100870314E+04  0.46999998093E+01 0.  1.
</event>
<event>
 5   0  0.6168338E-05  0.1983984E+04  0.7818609E-02  0.8614146E-01
        1   -1    0    0  501    0  0.00000000000E+00  0.00000000000E+00  0.29086284670E+04  0.29086284671E+04  0.50400001928E-02 0. -1.
       -1   -1    0    0    0  501  0.00000000000E+00  0.00000000000E+00 -0.33832019687E+03  0.33832019691E+03  0.50400001928E-02 0.  1.
    10030    2    1    2    0    0  0.00000000000E+00  0.00000000000E+00  0.25703082702E+04  0.32469486640E+04  0.19839836246E+04 0.  0.
        5    1    3    3  502    0  0.38016255337E+03 -0.67074188923E+03  0.26362455509E+03  0.81482405770E+03  0.46999998093E+01 0.  1.
       -5    1    3    3    0  502 -0.38016255337E+03  0.67074188923E+03  0.23066837151E+04  0.24321246063E+04  0.46999998093E+01 0. -1.
</event>
<event>
 5   0  0.1159914E-04  0.2005743E+04  0.7818609E-02  0.8603940E-01
       -2   -1    0    0    0  501  0.00000000000E+00  0.00000000000E+00  0.93070925901E+03  0.93070925902E+03  0.25500000920E-02 0. -1.
        2   -1    0    0  501    0  0.00000000000E+00  0.00000000000E+00 -0.10806286424E+04  0.10806286424E+04  0.25500000920E-02 0.  1.
    10030    2    1    2    0    0  0.00000000000E+00  0.00000000000E+00 -0.14991938336E+03  0.20113379014E+04  0.20057428380E+04 0.  0.
        3    1    3    3  502    0  0.59161331676E+03  0.72716886948E+03 -0.43228244740E+03  0.10323027685E+04  0.10100000352E+00 0.  1.
       -3    1    3    3    0  502 -0.59161331676E+03 -0.72716886948E+03  0.28236306405E+03  0.97903513290E+03  0.10100000352E+00 0. -1.
</event>
<event>
 5   0  0.6256535E-05  0.1978739E+04  0.7818609E-02  0.8616626E-01
       -1   -1    0    0    0  501  0.00000000000E+00  0.00000000000E+00  0.58523716561E+03  0.58523716563E+03  0.50400001928E-02 0. -1.
        1   -1    0    0  501    0  0.00000000000E+00  0.00000000000E+00 -0.16725729272E+04  0.16725729272E+04  0.50400001928E-02 0.  1.
    10030    2    1    2    0    0  0.00000000000E+00  0.00000000000E+00 -0.10873357616E+04  0.22578100928E+04  0.19787388299E+04 0.  0.
        1    1    3    3  502    0  0.61955158584E+03 -0.33326359506E+03 -0.13374404040E+04  0.15111769008E+04  0.50400001928E-02 0.  1.
       -1    1    3    3    0  502 -0.61955158584E+03  0.33326359506E+03  0.25010464236E+03  0.74663319205E+03  0.50400001928E-02 0. -1.
</event>
<event>
 5   0  0.6168338E-05  0.2009221E+04  0.7818609E-02  0.8602322E-01
        1   -1    0    0  501    0  0.00000000000E+00  0.00000000000E+00  0.97687662281E+03  0.97687662282E+03  0.50400001928E-02 0.  1.
       -1   -1    0    0    0  501  0.00000000000E+00  0.00000000000E+00 -0.10331312478E+04  0.10331312478E+04  0.50400001928E-02 0. -1.
    10030    2    1    2    0    0  0.00000000000E+00  0.00000000000E+00 -0.56254624964E+02  0.20100078706E+04  0.20092205098E+04 0.  0.
        5    1    3    3  502    0 -0.59260998222E+03 -0.79903201761E+03  0.11185935680E+03  0.10010860912E+04  0.46999998093E+01 0. -1.
       -5    1    3    3    0  502  0.59260998222E+03  0.79903201761E+03 -0.16811398176E+03  0.10089217795E+04  0.46999998093E+01 0.  1.
</event>
<event>
 5   0  0.1159914E-04  0.2127536E+04  0.7818609E-02  0.8549210E-01
       -2   -1    0    0    0  501  0.00000000000E+00  0.00000000000E+00  0.13450908516E+04  0.13450908516E+04  0.25500000920E-02 0.  1.
        2   -1    0    0  501    0  0.00000000000E+00  0.00000000000E+00 -0.84128318529E+03  0.84128318529E+03  0.25500000920E-02 0. -1.
    10030    2    1    2    0    0  0.00000000000E+00  0.00000000000E+00  0.50380766634E+03  0.21863740369E+04  0.21275359608E+04 0.  0.
        3    1    3    3  502    0  0.73998722895E+03 -0.17193466598E+02  0.10370525387E+04  0.12741093723E+04  0.10100000352E+00 0.  1.
       -3    1    3    3    0  502 -0.73998722895E+03  0.17193466598E+02 -0.53324487234E+03  0.91226466466E+03  0.10100000352E+00 0. -1.
</event>
<event>
 5   0  0.1244229E-04  0.1992695E+04  0.7818609E-02  0.8610044E-01
       -2   -1    0    0    0  501  0.00000000000E+00  0.00000000000E+00  0.11145363968E+04  0.11145363968E+04  0.25500000920E-02 0. -1.
        2   -1    0    0  501    0  0.00000000000E+00  0.00000000000E+00 -0.89069172908E+03  0.89069172908E+03  0.25500000920E-02 0.  1.
    10030    2    1    2    0    0  0.00000000000E+00  0.00000000000E+00  0.22384466777E+03  0.20052281259E+04  0.19926950097E+04 0.  0.
        5    1    3    3  502    0 -0.21058998801E+02  0.46798086111E+03  0.99679174355E+03  0.11013924994E+04  0.46999998093E+01 0. -1.
       -5    1    3    3    0  502  0.21058998801E+02 -0.46798086111E+03 -0.77294707578E+03  0.90383562651E+03  0.46999998093E+01 0.  1.
</event>
<event>
 5   0  0.1244229E-04  0.1988154E+04  0.7818609E-02  0.8612179E-01
        2   -1    0    0  501    0  0.00000000000E+00  0.00000000000E+00  0.16174811571E+04  0.16174811571E+04  0.25500000920E-02 0. -1.
       -2   -1    0    0    0  501  0.00000000000E+00  0.00000000000E+00 -0.61094295717E+03  0.61094295718E+03  0.25500000920E-02 0.  1.
    10030    2    1    2    0    0  0.00000000000E+00  0.00000000000E+00  0.10065381999E+04  0.22284241142E+04  0.19881536372E+04 0.  0.
        5    1    3    3  502    0  0.50262074516E+03  0.26782224708E+03 -0.40993928042E+03  0.70173262225E+03  0.46999998093E+01 0.  1.
       -5    1    3    3    0  502 -0.50262074516E+03 -0.26782224708E+03  0.14164774803E+04  0.15266914920E+04  0.46999998093E+01 0. -1.
</event>
<event>
 5   0  0.6028501E-05  0.2043784E+04  0.7818609E-02  0.8586419E-01
        1   -1    0    0  501    0  0.00000000000E+00  0.00000000000E+00  0.90716373847E+03  0.90716373848E+03  0.50400001928E-02 0.  1.
       -1   -1    0    0    0  501  0.00000000000E+00  0.00000000000E+00 -0.11511299613E+04  0.11511299613E+04  0.50400001928E-02 0. -1.
    10030    2    1    2    0    0  0.00000000000E+00  0.00000000000E+00 -0.24396622279E+03  0.20582936998E+04  0.20437840974E+04 0.  0.
        4    1    3    3  502    0 -0.25074935990E+03 -0.36676285689E+03 -0.10487725817E+04  0.11389977066E+04  0.12699999809E+01 0. -1.
       -4    1    3    3    0  502  0.25074935990E+03  0.36676285689E+03  0.80480635893E+03  0.91929599311E+03  0.12699999809E+01 0.  1.
</event>
<event>
 5   0  0.4479000E-05  0.2057672E+04  0.7818609E-02  0.8580122E-01
        3   -1    0    0  501    0  0.00000000000E+00  0.00000000000E+00  0.19203356174E+04  0.19203356201E+04  0.10100000352E+00 0. -1.
       -3   -1    0    0    0  501  0.00000000000E+00  0.00000000000E+00 -0.55120746290E+03  0.55120747215E+03  0.10100000352E+00 0.  1.
    10030    2    1    2    0    0  0.00000000000E+00  0.00000000000E+00  0.13691281545E+04  0.24715430922E+04  0.20576718284E+04 0.  0.
        4    1    3    3  502    0  0.18346542508E+03 -0.79975102410E+03 -0.60953733043E+02  0.82278686986E+03  0.12699999809E+01 0.  1.
       -4    1    3    3    0  502 -0.18346542508E+03  0.79975102410E+03  0.14300818876E+04  0.16487562224E+04  0.12699999809E+01 0. -1.
</event>
<event>
 5   0  0.6028501E-05  0.1983634E+04  0.7818609E-02  0.8614311E-01
       -1   -1    0    0    0  501  0.00000000000E+00  0.00000000000E+00  0.72371643533E+03  0.72371643535E+03  0.50400001928E-02 0. -1.
        1   -1    0    0  501    0  0.00000000000E+00  0.00000000000E+00 -0.13592354474E+04  0.13592354474E+04  0.50400001928E-02 0.  1.
    10030    2    1    2    0    0  0.00000000000E+00  0.00000000000E+00 -0.63551901206E+03  0.20829518828E+04  0.19836340719E+04 0.  0.
        4    1    3    3  502    0  0.39053656590E+03 -0.23422953545E+03 -0.12429630005E+04  0.13237601437E+04  0.12699999809E+01 0.  1.
       -4    1    3    3    0  502 -0.39053656590E+03  0.23422953545E+03  0.60744398846E+03  0.75919173902E+03  0.12699999809E+01 0. -1.
</event>
<event>
 5   0  0.6214547E-05  0.1985141E+04  0.7818609E-02  0.8613599E-01
       -1   -1    0    0    0  501  0.00000000000E+00  0.00000000000E+00  0.67442936093E+03  0.67442936094E+03  0.50400001928E-02 0. -1.
        1   -1    0    0  501    0  0.00000000000E+00  0.00000000000E+00 -0.14607846559E+04  0.14607846559E+04  0.50400001928E-02 0.  1.
    10030    2    1    2    0    0  0.00000000000E+00  0.00000000000E+00 -0.78635529496E+03  0.21352140168E+04  0.19851408635E+04 0.  0.
        3    1    3    3  502    0 -0.70076410125E+03 -0.29375058871E+03 -0.10800768798E+04  0.13205778320E+04  0.10100000352E+00 0.  1.
       -3    1    3    3    0  502  0.70076410125E+03  0.29375058871E+03  0.29372158485E+03  0.81463618480E+03  0.10100000352E+00 0. -1.
</event>
<event>
 5   0  0.6028501E-05  0.2000508E+04  0.7818609E-02  0.8606383E-01
       -1   -1    0    0    0  501  0.00000000000E+00  0.00000000000E+00  0.13360184403E+04  0.13360184403E+04  0.50400001928E-02 0. -1.
        1   -1    0    0  501    0  0.00000000000E+00  0.00000000000E+00 -0.74887270829E+03  0.74887270831E+03  0.50400001928E-02 0.  1.
    10030    2    1    2    0    0  0.00000000000E+00  0.00000000000E+00  0.58714573198E+03  0.20848911486E+04  0.20005076833E+04 0.  0.
        4    1    3    3  502    0  0.36847022973E+03 -0.58739599557E+03  0.10448847517E+04  0.12540295543E+04  0.12699999809E+01 0. -1.
       -4    1    3    3    0  502 -0.36847022973E+03  0.58739599557E+03 -0.45773901972E+03  0.83086159430E+03  0.12699999809E+01 0.  1.
</event>
<event>
 5   0  0.1159914E-04  0.2023463E+04  0.7818609E-02  0.8595729E-01
        2   -1    0    0  501    0  0.00000000000E+00  0.00000000000E+00  0.12012492176E+04  0.12012492176E+04  0.25500000920E-02 0. -1.
       -2   -1    0    0    0  501  0.00000000000E+00  0.00000000000E+00 -0.85211322075E+03  0.85211322076E+03  0.25500000920E-02 0.  1.
    10030    2    1    2    0    0  0.00000000000E+00  0.00000000000E+00  0.34913599683E+03  0.20533624383E+04  0.20234627150E+04 0.  0.
        3    1    3    3  502    0 -0.33241981663E+03  0.56427296411E+03  0.95712678581E+03  0.11597407498E+04  0.10100000352E+00 0. -1.
       -3    1    3    3    0  502  0.33241981663E+03 -0.56427296411E+03 -0.60799078897E+03  0.89362168852E+03  0.10100000352E+00 0.  1.
</event>
<event>
 5   0  0.1244229E-04  0.2000430E+04  0.7818609E-02  0.8606420E-01
        2   -1    0    0  501    0  0.00000000000E+00  0.00000000000E+00  0.22407740256E+04  0.22407740256E+04  0.25500000920E-02 0.  1.
       -2   -1    0    0    0  501  0.00000000000E+00  0.00000000000E+00 -0.44646605851E+03  0.44646605852E+03  0.25500000920E-02 0. -1.
    10030    2    1    2    0    0  0.00000000000E+00  0.00000000000E+00  0.17943079671E+04  0.26872400841E+04  0.20004295011E+04 0.  0.
        5    1    3    3  502    0  0.31996400534E+03  0.93258750818E+03  0.67112659382E+03  0.11926983776E+04  0.46999998093E+01 0. -1.
       -5    1    3    3    0  502 -0.31996400534E+03 -0.93258750818E+03  0.11231813733E+04  0.14945417065E+04  0.46999998093E+01 0.  1.
</event>
<event>
 5   0  0.1244229E-04  0.1983843E+04  0.7818609E-02  0.8614212E-01
       -2   -1    0    0    0  501  0.00000000000E+00  0.00000000000E+00  0.59053149611E+03  0.59053149612E+03  0.25500000920E-02 0. -1.
        2   -1    0    0  501    0  0.00000000000E+00  0.00000000000E+00 -0.16661394754E+04  0.16661394754E+04  0.25500000920E-02 0.  1.
    10030    2    1    2    0    0  0.00000000000E+00  0.00000000000E+00 -0.10756079793E+04  0.22566709715E+04  0.19838425715E+04 0.  0.
        5    1    3    3  502    0 -0.63551080128E+03  0.64862971206E+03 -0.83802771915E+02  0.91194269365E+03  0.46999998093E+01 0. -1.
       -5    1    3    3    0  502  0.63551080128E+03 -0.64862971206E+03 -0.99180520735E+03  0.13447282778E+04  0.46999998093E+01 0.  1.
</event>
<event>
 5   0  0.6256535E-05  0.1986119E+04  0.7818609E-02  0.8613138E-01
        1   -1    0    0  501    0  0.00000000000E+00  0.00000000000E+00  0.10935919086E+04  0.10935919086E+04  0.50400001928E-02 0. -1.
       -1   -1    0    0    0  501  0.00000000000E+00  0.00000000000E+00 -0.90176853381E+03  0.90176853382E+03  0.50400001928E-02 0.  1.
    10030    2    1    2    0    0  0.00000000000E+00  0.00000000000E+00  0.19182337475E+03  0.19953604424E+04  0.19861185987E+04 0.  0.
        1    1    3    3  502    0 -0.25652605557E+03  0.26094751992E+03  0.10233908378E+04  0.10868431498E+04  0.50400001928E-02 0. -1.
       -1    1    3    3    0  502  0.25652605557E+03 -0.26094751992E+03 -0.83156746305E+03  0.90851729260E+03  0.50400001928E-02 0.  1.
</event>
<event>
 5   0  0.1274868E-04  0.2000574E+04  0.7818609E-02  0.8606353E-01
       -2   -1    0    0    0  501  0.00000000000E+00  0.00000000000E+00  0.10318195095E+04  0.10318195095E+04  0.25500000920E-02 0. -1.
        2   -1    0    0  501    0  0.00000000000E+00  0.00000000000E+00 -0.96971766959E+03  0.96971766959E+03  0.25500000920E-02 0.  1.
    10030    2    1    2    0    0  0.00000000000E+00  0.00000000000E+00  0.62101839954E+02  0.20015371791E+04  0.20005735280E+04 0.  0.
        1    1    3    3  502    0  0.71864248416E+03 -0.20913142176E+03  0.69498992475E+03  0.10213686735E+04  0.50400001928E-02 0. -1.
       -1    1    3    3    0  502 -0.71864248416E+03  0.20913142176E+03 -0.63288808480E+03  0.98016850567E+03  0.50400001928E-02 0.  1.
</event>
<event>
 5   0  0.1274868E-04  0.2011645E+04  0.7818609E-02  0.8601196E-01
       -2   -1    0    0    0  501  0.00000000000E+00  0.00000000000E+00  0.10258771013E+04  0.10258771013E+04  0.25500000920E-02 0.  1.
        2   -1    0    0  501    0  0.00000000000E+00  0.00000000000E+00 -0.98615947086E+03  0.98615947086E+03  0.25500000920E-02 0. -1.
    10030    2    1    2    0    0  0.00000000000E+00  0.00000000000E+00  0.39717630437E+02  0.20120365722E+04  0.20116445207E+04 0.  0.
        1    1    3    3  502    0 -0.13636116948E+03  0.81903185671E+03 -0.54794088201E+03  0.99480991202E+03  0.50400001928E-02 0. -1.
       -1    1    3    3    0  502  0.13636116948E+03 -0.81903185671E+03  0.58765851244E+03  0.10172266601E+04  0.50400001928E-02 0.  1.
</event>
<event>
 5   0  0.6214547E-05  0.2060173E+04  0.7818609E-02  0.8578993E-01
       -1   -1    0    0    0  501  0.00000000000E+00  0.00000000000E+00  0.74152883847E+03  0.74152883849E+03  0.50400001928E-02 0. -1.
        1   -1    0    0  501    0  0.00000000000E+00  0.00000000000E+00 -0.14309332261E+04  0.14309332261E+04  0.50400001928E-02 0.  1.
    10030    2    1    2    0    0  0.00000000000E+00  0.00000000000E+00 -0.68940438763E+03  0.21724620646E+04  0.20601730540E+04 0.  0.
        3    1    3    3  502    0 -0.48973701299E+03 -0.31049529184E+03  0.55307000408E+03  0.80133395520E+03  0.10100000352E+00 0. -1.
       -3    1    3    3    0  502  0.48973701299E+03  0.31049529184E+03 -0.12424743917E+04  0.13711281094E+04  0.10100000352E+00 0.  1.
</event>
<event>
 5   0  0.1242761E-04  0.1998269E+04  0.7818609E-02  0.8607430E-01
        2   -1    0    0  501    0  0.00000000000E+00  0.00000000000E+00  0.10009647661E+04  0.10009647661E+04  0.25500000920E-02 0. -1.
       -2   -1    0    0    0  501  0.00000000000E+00  0.00000000000E+00 -0.99730800894E+03  0.99730800895E+03  0.25500000920E-02 0.  1.
    10030    2    1    2    0    0  0.00000000000E+00  0.00000000000E+00  0.36567571871E+01  0.19982727751E+04  0.19982694292E+04 0.  0.
        4    1    3    3  502    0 -0.79192708233E+03  0.56615894212E+03 -0.22308112090E+03  0.99872481238E+03  0.12699999809E+01 0.  1.
       -4    1    3    3    0  502  0.79192708233E+03 -0.56615894212E+03  0.22673787809E+03  0.99954796270E+03  0.12699999809E+01 0. -1.
</event>
<event>
 5   0  0.6222733E-05  0.1974436E+04  0.7818609E-02  0.8618667E-01
       -1   -1    0    0    0  501  0.00000000000E+00  0.00000000000E+00  0.43419599796E+03  0.43419599799E+03  0.50400001928E-02 0.  1.
        1   -1    0    0  501    0  0.00000000000E+00  0.00000000000E+00 -0.22446069150E+04  0.22446069150E+04  0.50400001928E-02 0. -1.
    10030    2    1    2    0    0  0.00000000000E+00  0.00000000000E+00 -0.18104109170E+04  0.26788029130E+04  0.19744359595E+04 0.  0.
        2    1    3    3  502    0 -0.69130317023E+03  0.70411078906E+03 -0.94651964355E+03  0.13673227534E+04  0.25500000920E-02 0.  1.
       -2    1    3    3    0  502  0.69130317023E+03 -0.70411078906E+03 -0.86389127345E+03  0.13114801595E+04  0.25500000920E-02 0. -1.
</event>
<event>
 5   0  0.1281789E-04  0.2102262E+04  0.7818609E-02  0.8560248E-01
        2   -1    0    0  501    0  0.00000000000E+00  0.00000000000E+00  0.18043202821E+04  0.18043202821E+04  0.25500000920E-02 0.  1.
       -2   -1    0    0    0  501  0.00000000000E+00  0.00000000000E+00 -0.61235023960E+03  0.61235023960E+03  0.25500000920E-02 0. -1.
    10030    2    1    2    0    0  0.00000000000E+00  0.00000000000E+00  0.11919700425E+04  0.24166705217E+04  0.21022615984E+04 0.  0.
        2    1    3    3  502    0  0.28286250198E+03 -0.61447964742E+03 -0.32887631062E+03  0.75216757430E+03  0.25500000920E-02 0. -1.
       -2    1    3    3    0  502 -0.28286250198E+03  0.61447964742E+03  0.15208463531E+04  0.16645029474E+04  0.25500000920E-02 0.  1.
</event>
<event>
 5   0  0.6256535E-05  0.1998694E+04  0.7818609E-02  0.8607232E-01
        1   -1    0    0  501    0  0.00000000000E+00  0.00000000000E+00  0.11093343118E+04  0.11093343118E+04  0.50400001928E-02 0. -1.
       -1   -1    0    0    0  501  0.00000000000E+00  0.00000000000E+00 -0.90026433639E+03  0.90026433641E+03  0.50400001928E-02 0.  1.
    10030    2    1    2    0    0  0.00000000000E+00  0.00000000000E+00  0.20906997536E+03  0.20095986482E+04  0.19986936914E+04 0.  0.
        1    1    3    3  502    0  0.35614566834E+02 -0.42367492625E+02  0.11077920637E+04  0.11091738629E+04  0.50400001928E-02 0. -1.
       -1    1    3    3    0  502 -0.35614566834E+02  0.42367492625E+02 -0.89872208833E+03  0.90042478524E+03  0.50400001928E-02 0.  1.
</event>
<event>
 5   0  0.1281789E-04  0.1967645E+04  0.7818609E-02  0.8621899E-01
       -2   -1    0    0    0  501  0.00000000000E+00  0.00000000000E+00  0.41003049038E+03  0.41003049039E+03  0.25500000920E-02 0.  1.
        2   -1    0    0  501    0  0.00000000000E+00  0.00000000000E+00 -0.23605733393E+04  0.23605733393E+04  0.25500000920E-02 0. -1.
    10030    2    1    2    0    0  0.00000000000E+00  0.00000000000E+00 -0.19505428489E+04  0.27706038297E+04  0.19676453379E+04 0.  0.
        2    1    3    3  502    0  0.57446468893E+03  0.33882916572E+03 -0.19936674962E+04  0.21022666262E+04  0.25500000920E-02 0. -1.
       -2    1    3    3    0  502 -0.57446468893E+03 -0.33882916572E+03  0.43124647234E+02  0.66833720350E+03  0.25500000920E-02 0.  1.
</event>
<event>
 5   0  0.1244229E-04  0.2005858E+04  0.7818609E-02  0.8603887E-01
        2   -1    0    0  501    0  0.00000000000E+00  0.00000000000E+00  0.12803098862E+04  0.12803098862E+04  0.25500000920E-02 0. -1.
       -2   -1    0    0    0  501  0.00000000000E+00  0.00000000000E+00 -0.78564278573E+03  0.78564278573E+03  0.25500000920E-02 0.  1.
    10030    2    1    2    0    0  0.00000000000E+00  0.00000000000E+00  0.49466710051E+03  0.20659526720E+04  0.20058576476E+04 0.  0.
        5    1    3    3  502    0  0.46580462195E+03 -0.46058803757E+03  0.10295124531E+04  0.12202595081E+04  0.46999998093E+01 0. -1.
       -5    1    3    3    0  502 -0.46580462195E+03  0.46058803757E+03 -0.53484535256E+03  0.84569316383E+03  0.46999998093E+01 0.  1.
</event>
<event>
 5   0  0.1244229E-04  0.1775776E+04  0.7818609E-02  0.8719289E-01
       -2   -1    0    0    0  501  0.00000000000E+00  0.00000000000E+00  0.15205536713E+04  0.15205536713E+04  0.25500000920E-02 0. -1.
        2   -1    0    0  501    0  0.00000000000E+00  0.00000000000E+00 -0.51845924628E+03  0.51845924629E+03  0.25500000920E-02 0.  1.
    10030    2    1    2    0    0  0.00000000000E+00  0.00000000000E+00  0.10020944250E+04  0.20390129176E+04  0.17757760111E+04 0.  0.
        5    1    3    3  502    0 -0.21657907500E+03 -0.84928509799E+03  0.66396488971E+03  0.10995740713E+04  0.46999998093E+01 0.  1.
       -5    1    3    3    0  502  0.21657907500E+03  0.84928509799E+03  0.33812953533E+03  0.93943884637E+03  0.46999998093E+01 0. -1.
</event>
<event>
 5   0  0.1244229E-04  0.1989949E+04  0.7818609E-02  0.8611334E-01
        2   -1    0    0  501    0  0.00000000000E+00  0.00000000000E+00  0.13325089651E+04  0.13325089651E+04  0.25500000920E-02 0. -1.
       -2   -1    0    0    0  501  0.00000000000E+00  0.00000000000E+00 -0.74293998440E+03  0.74293998440E+03  0.25500000920E-02 0.  1.
    10030    2    1    2    0    0  0.00000000000E+00  0.00000000000E+00  0.58956898071E+03  0.20754489495E+04  0.19899489338E+04 0.  0.
        5    1    3    3  502    0  0.41064262517E+03 -0.88794552920E+03  0.48389659480E+03  0.10914452038E+04  0.46999998093E+01 0. -1.
       -5    1    3    3    0  502 -0.41064262517E+03  0.88794552920E+03  0.10567238591E+03  0.98400374571E+03  0.46999998093E+01 0.  1.
</event>
<event>
 5   0  0.6214547E-05  0.2007372E+04  0.7818609E-02  0.8603182E-01
       -1   -1    0    0    0  501  0.00000000000E+00  0.00000000000E+00  0.68806694119E+03  0.68806694121E+03  0.50400001928E-02 0. -1.
        1   -1    0    0  501    0  0.00000000000E+00  0.00000000000E+00 -0.14640803377E+04  0.14640803377E+04  0.50400001928E-02 0.  1.
    10030    2    1    2    0    0  0.00000000000E+00  0.00000000000E+00 -0.77601339653E+03  0.21521472789E+04  0.20073716942E+04 0.  0.
        3    1    3    3  502    0  0.89301506379E+03  0.11326867095E+03 -0.86396071822E+03  0.12476913997E+04  0.10100000352E+00 0.  1.
       -3    1    3    3    0  502 -0.89301506379E+03 -0.11326867095E+03  0.87947321686E+02  0.90445587928E+03  0.10100000352E+00 0. -1.
</event>
<event>
 5   0  0.6214547E-05  0.1958132E+04  0.7818609E-02  0.8626449E-01
        1   -1    0    0  501    0  0.00000000000E+00  0.00000000000E+00  0.62721046804E+03  0.62721046806E+03  0.50400001928E-02 0.  1.
       -1   -1    0    0    0  501  0.00000000000E+00  0.00000000000E+00 -0.15283069569E+04  0.15283069570E+04  0.50400001928E-02 0. -1.
    10030    2    1    2    0    0  0.00000000000E+00  0.00000000000E+00 -0.90109648890E+03  0.21555174250E+04  0.19581318871E+04 0.  0.
        3    1    3    3  502    0  0.49332751050E+03 -0.60864520663E+03  0.19579194832E+03  0.80756146354E+03  0.10100000352E+00 0.  1.
       -3    1    3    3    0  502 -0.49332751050E+03  0.60864520663E+03 -0.10968884372E+04  0.13479559615E+04  0.10100000352E+00 0. -1.
</event>
<event>
 5   0  0.6214547E-05  0.1968549E+04  0.7818609E-02  0.8621468E-01
        1   -1    0    0  501    0  0.00000000000E+00  0.00000000000E+00  0.83694968578E+03  0.83694968580E+03  0.50400001928E-02 0.  1.
       -1   -1    0    0    0  501  0.00000000000E+00  0.00000000000E+00 -0.11575320916E+04  0.11575320916E+04  0.50400001928E-02 0. -1.
    10030    2    1    2    0    0  0.00000000000E+00  0.00000000000E+00 -0.32058240579E+03  0.19944817774E+04  0.19685488263E+04 0.  0.
        3    1    3    3  502    0  0.18466982738E+03  0.79166561863E+03 -0.72254206470E+03  0.10876141054E+04  0.10100000352E+00 0. -1.
       -3    1    3    3    0  502 -0.18466982738E+03 -0.79166561863E+03  0.40195965890E+03  0.90686767196E+03  0.10100000352E+00 0.  1.
</event>
<event>
 5   0  0.1274868E-04  0.1999888E+04  0.7818609E-02  0.8606673E-01
        2   -1    0    0  501    0  0.00000000000E+00  0.00000000000E+00  0.12423560161E+04  0.12423560161E+04  0.25500000920E-02 0. -1.
       -2   -1    0    0    0  501  0.00000000000E+00  0.00000000000E+00 -0.80483178455E+03  0.80483178455E+03  0.25500000920E-02 0.  1.
    10030    2    1    2    0    0  0.00000000000E+00  0.00000000000E+00  0.43752423159E+03  0.20471878007E+04  0.19998876064E+04 0.  0.
        1    1    3    3  502    0  0.79601743644E+03  0.42348695292E+03  0.66130954953E+03  0.11181749768E+04  0.50400001928E-02 0. -1.
       -1    1    3    3    0  502 -0.79601743644E+03 -0.42348695292E+03 -0.22378531794E+03  0.92901282389E+03  0.50400001928E-02 0.  1.
</event>
<event>
 5   0  0.6168338E-05  0.1994109E+04  0.7818609E-02  0.8609380E-01
        1   -1    0    0  501    0  0.00000000000E+00  0.00000000000E+00  0.14415143005E+04  0.14415143005E+04  0.50400001928E-02 0.  1.
       -1   -1    0    0    0  501  0.00000000000E+00  0.00000000000E+00 -0.68963421945E+03  0.68963421946E+03  0.50400001928E-02 0. -1.
    10030    2    1    2    0    0  0.00000000000E+00  0.00000000000E+00  0.75188008107E+03  0.21311485200E+04  0.19941089133E+04 0.  0.
        5    1    3    3  502    0  0.60088150349E+03 -0.71112804094E+03  0.75730144573E+03  0.12001205113E+04  0.46999998093E+01 0.  1.
       -5    1    3    3    0  502 -0.60088150349E+03  0.71112804094E+03 -0.54213646627E+01  0.93102800873E+03  0.46999998093E+01 0. -1.
</event>
<event>
 5   0  0.1274868E-04  0.1985558E+04  0.7818609E-02  0.8613403E-01
        2   -1    0    0  501    0  0.00000000000E+00  0.00000000000E+00  0.79614615516E+03  0.79614615516E+03  0.25500000920E-02 0.  1.
       -2   -1    0    0    0  501  0.00000000000E+00  0.00000000000E+00 -0.12379763972E+04  0.12379763972E+04  0.25500000920E-02 0. -1.
    10030    2    1    2    0    0  0.00000000000E+00  0.00000000000E+00 -0.44183024201E+03  0.20341225523E+04  0.19855580060E+04 0.  0.
        1    1    3    3  502    0  0.80452599487E+01 -0.93153027964E+03 -0.57252511415E+03  0.10934342205E+04  0.50400001928E-02 0. -1.
       -1    1    3    3    0  502 -0.80452599487E+01  0.93153027964E+03  0.13069487214E+03  0.94068833188E+03  0.50400001928E-02 0.  1.
</event>
<event>
 5   0  0.1159914E-04  0.2003438E+04  0.7818609E-02  0.8605015E-01
        2   -1    0    0  501    0  0.00000000000E+00  0.00000000000E+00  0.16334143433E+04  0.16334143433E+04  0.25500000920E-02 0.  1.
       -2   -1    0    0    0  501  0.00000000000E+00  0.00000000000E+00 -0.61432112207E+03  0.61432112207E+03  0.25500000920E-02 0. -1.
    10030    2    1    2    0    0  0.00000000000E+00  0.00000000000E+00  0.10190932212E+04  0.22477354654E+04  0.20034379773E+04 0.  0.
        3    1    3    3  502    0 -0.21866659522E+03 -0.51977566846E+03  0.14384275861E+04  0.15450099534E+04  0.10100000352E+00 0.  1.
       -3    1    3    3    0  502  0.21866659522E+03  0.51977566846E+03 -0.41933436490E+03  0.70272551197E+03  0.10100000352E+00 0. -1.
</event>
<event>
 5   0  0.1281789E-04  0.2039340E+04  0.7818609E-02  0.8588446E-01
        2   -1    0    0  501    0  0.00000000000E+00  0.00000000000E+00  0.13531776184E+04  0.13531776184E+04  0.25500000920E-02 0.  1.
       -2   -1    0    0    0  501  0.00000000000E+00  0.00000000000E+00 -0.76835951711E+03  0.76835951711E+03  0.25500000920E-02 0. -1.
    10030    2    1    2    0    0  0.00000000000E+00  0.00000000000E+00  0.58481810127E+03  0.21215371355E+04  0.20393399927E+04 0.  0.
        2    1    3    3  502    0  0.78571227651E+01 -0.54080424673E+03 -0.60683640523E+03  0.81288461074E+03  0.25500000920E-02 0. -1.
       -2    1    3    3    0  502 -0.78571227651E+01  0.54080424673E+03  0.11916545065E+04  0.13086525247E+04  0.25500000920E-02 0.  1.
</event>
<event>
 5   0  0.6222733E-05  0.1979859E+04  0.7818609E-02  0.8616096E-01
       -1   -1    0    0    0  501  0.00000000000E+00  0.00000000000E+00  0.65672873551E+03  0.65672873553E+03  0.50400001928E-02 0. -1.
        1   -1    0    0  501    0  0.00000000000E+00  0.00000000000E+00 -0.14921844202E+04  0.14921844202E+04  0.50400001928E-02 0.  1.
    10030    2    1    2    0    0  0.00000000000E+00  0.00000000000E+00 -0.83545568471E+03  0.21489131558E+04  0.19798589722E+04 0.  0.
        2    1    3    3  502    0 -0.37926228302E+03 -0.26049696403E+03 -0.13690754702E+04  0.14443220523E+04  0.25500000920E-02 0.  1.
       -2    1    3    3    0  502  0.37926228302E+03  0.26049696403E+03  0.53361978550E+03  0.70459110346E+03  0.25500000920E-02 0. -1.
</event>
<event>
 5   0  0.1244229E-04  0.1948660E+04  0.7818609E-02  0.8631007E-01
       -2   -1    0    0    0  501  0.00000000000E+00  0.00000000000E+00  0.83926251157E+03  0.83926251158E+03  0.25500000920E-02 0. -1.
        2   -1    0    0  501    0  0.00000000000E+00  0.00000000000E+00 -0.11311351071E+04  0.11311351071E+04  0.25500000920E-02 0.  1.
    10030    2    1    2    0    0  0.00000000000E+00  0.00000000000E+00 -0.29187259551E+03  0.19703976187E+04  0.19486603510E+04 0.  0.
        5    1    3    3  502    0  0.35100085760E+03  0.66987437668E+03 -0.76708833162E+03  0.10772093023E+04  0.46999998093E+01 0.  1.
       -5    1    3    3    0  502 -0.35100085760E+03 -0.66987437668E+03  0.47521573611E+03  0.89318831632E+03  0.46999998093E+01 0. -1.
</event>
<event>
 5   0  0.1244229E-04  0.2028207E+04  0.7818609E-02  0.8593545E-01
       -2   -1    0    0    0  501  0.00000000000E+00  0.00000000000E+00  0.98463449616E+03  0.98463449617E+03  0.25500000920E-02 0.  1.
        2   -1    0    0  501    0  0.00000000000E+00  0.00000000000E+00 -0.10444547282E+04  0.10444547282E+04  0.25500000920E-02 0. -1.
    10030    2    1    2    0    0  0.00000000000E+00  0.00000000000E+00 -0.59820232015E+02  0.20290892243E+04  0.20282072429E+04 0.  0.
        5    1    3    3  502    0 -0.47792300525E+03  0.29631911920E+03 -0.87417794338E+03  0.10394347435E+04  0.46999998093E+01 0. -1.
       -5    1    3    3    0  502  0.47792300525E+03 -0.29631911920E+03  0.81435771137E+03  0.98965448082E+03  0.46999998093E+01 0.  1.
</event>
<event>
 5   0  0.1274868E-04  0.2002610E+04  0.7818609E-02  0.8605401E-01
       -2   -1    0    0    0  501  0.00000000000E+00  0.00000000000E+00  0.51792800877E+03  0.51792800878E+03  0.25500000920E-02 0. -1.
        2   -1    0    0  501    0  0.00000000000E+00  0.00000000000E+00 -0.19358129648E+04  0.19358129648E+04  0.25500000920E-02 0.  1.
    10030    2    1    2    0    0  0.00000000000E+00  0.00000000000E+00 -0.14178849560E+04  0.24537409735E+04  0.20026100511E+04 0.  0.
        1    1    3    3  502    0  0.40764033789E+03  0.59348580573E+03 -0.15615551050E+04  0.17195494737E+04  0.50400001928E-02 0.  1.
       -1    1    3    3    0  502 -0.40764033789E+03 -0.59348580573E+03  0.14367014899E+03  0.73419149982E+03  0.50400001928E-02 0. -1.
</event>
<event>
 5   0  0.1242761E-04  0.2005651E+04  0.7818609E-02  0.8603983E-01
       -2   -1    0    0    0  501  0.00000000000E+00  0.00000000000E+00  0.14052360537E+04  0.14052360537E+04  0.25500000920E-02 0. -1.
        2   -1    0    0  501    0  0.00000000000E+00  0.00000000000E+00 -0.71565129532E+03  0.71565129533E+03  0.25500000920E-02 0.  1.
    10030    2    1    2    0    0  0.00000000000E+00  0.00000000000E+00  0.68958475840E+03  0.21208873491E+04  0.20056510186E+04 0.  0.
        4    1    3    3  502    0  0.73513702865E+03  0.17410462265E+03 -0.35258231380E+03  0.83369944910E+03  0.12699999809E+01 0.  1.
       -4    1    3    3    0  502 -0.73513702865E+03 -0.17410462265E+03  0.10421670722E+04  0.12871879000E+04  0.12699999809E+01 0. -1.
</event>
<event>
 5   0  0.6222733E-05  0.2019236E+04  0.7818609E-02  0.8597680E-01
       -1   -1    0    0    0  501  0.00000000000E+00  0.00000000000E+00  0.15465475316E+04  0.15465475316E+04  0.50400001928E-02 0. -1.
        1   -1    0    0  501    0  0.00000000000E+00  0.00000000000E+00 -0.65909930201E+03  0.65909930203E+03  0.50400001928E-02 0.  1.
    10030    2    1    2    0    0  0.00000000000E+00  0.00000000000E+00  0.88744822959E+03  0.22056468336E+04  0.20192358937E+04 0.  0.
        2    1    3    3  502    0 -0.81734699513E+03 -0.39131196454E+03 -0.42507199616E+02  0.90718687494E+03  0.25500000920E-02 0.  1.
       -2    1    3    3    0  502  0.81734699513E+03  0.39131196454E+03  0.92995542921E+03  0.12984599587E+04  0.25500000920E-02 0. -1.
</event>
<event>
 5   0  0.6222733E-05  0.1990224E+04  0.7818609E-02  0.8611205E-01
       -1   -1    0    0    0  501  0.00000000000E+00  0.00000000000E+00  0.57538341950E+03  0.57538341952E+03  0.50400001928E-02 0.  1.
        1   -1    0    0  501    0  0.00000000000E+00  0.00000000000E+00 -0.17210230116E+04  0.17210230116E+04  0.50400001928E-02 0. -1.
    10030    2    1    2    0    0  0.00000000000E+00  0.00000000000E+00 -0.11456395921E+04  0.22964064312E+04  0.19902242140E+04 0.  0.
        2    1    3    3  502    0 -0.38142116120E+03 -0.59084097013E+03  0.23953239992E+03  0.74293399762E+03  0.25500000920E-02 0.  1.
       -2    1    3    3    0  502  0.38142116120E+03  0.59084097013E+03 -0.13851719920E+04  0.15534724335E+04  0.25500000920E-02 0. -1.
</event>
<event>
 5   0  0.1244229E-04  0.2107606E+04  0.7818609E-02  0.8557900E-01
       -2   -1    0    0    0  501  0.00000000000E+00  0.00000000000E+00  0.12336492116E+04  0.12336492116E+04  0.25500000920E-02 0.  1.
        2   -1    0    0  501    0  0.00000000000E+00  0.00000000000E+00 -0.90017529828E+03  0.90017529829E+03  0.25500000920E-02 0. -1.
    10030    2    1    2    0    0  0.00000000000E+00  0.00000000000E+00  0.33347391331E+03  0.21338245099E+04  0.21076057952E+04 0.  0.
        5    1    3    3  502    0  0.24903263076E+03  0.37812113885E+03  0.11301446093E+04  0.12174735211E+04  0.46999998093E+01 0.  1.
       -5    1    3    3    0  502 -0.24903263076E+03 -0.37812113885E+03 -0.79667069594E+03  0.91635098876E+03  0.46999998093E+01 0. -1.
</event>
<event>
 5   0  0.1159914E-04  0.1984037E+04  0.7818609E-02  0.8614121E-01
       -2   -1    0    0    0  501  0.00000000000E+00  0.00000000000E+00  0.77286993558E+03  0.77286993559E+03  0.25500000920E-02 0.  1.
        2   -1    0    0  501    0  0.00000000000E+00  0.00000000000E+00 -0.12733065282E+04  0.12733065282E+04  0.25500000920E-02 0. -1.
    10030    2    1    2    0    0  0.00000000000E+00  0.00000000000E+00 -0.50043659257E+03  0.20461764637E+04  0.19840366271E+04 0.  0.
        3    1    3    3  502    0 -0.72498898488E+03 -0.67651515825E+03 -0.27972444089E+03  0.10303045960E+04  0.10100000352E+00 0. -1.
       -3    1    3    3    0  502  0.72498898488E+03  0.67651515825E+03 -0.22071215168E+03  0.10158718677E+04  0.10100000352E+00 0.  1.
</event>
<event>
 5   0  0.6222733E-05  0.2008381E+04  0.7818609E-02  0.8602712E-01
        1   -1    0    0  501    0  0.00000000000E+00  0.00000000000E+00  0.77043169566E+03  0.77043169568E+03  0.50400001928E-02 0.  1.
       -1   -1    0    0    0  501  0.00000000000E+00  0.00000000000E+00 -0.13088744161E+04  0.13088744161E+04  0.50400001928E-02 0. -1.
    10030    2    1    2    0    0  0.00000000000E+00  0.00000000000E+00 -0.53844272045E+03  0.20793061118E+04  0.20083807765E+04 0.  0.
        2    1    3    3  502    0  0.69679712201E+03  0.41117948811E+03  0.34659817030E+03  0.88018469218E+03  0.25500000920E-02 0.  1.
       -2    1    3    3    0  502 -0.69679712201E+03 -0.41117948811E+03 -0.88504089074E+03  0.11991214196E+04  0.25500000920E-02 0. -1.
</event>
<event>
 5   0  0.1242761E-04  0.2036247E+04  0.7818609E-02  0.8589859E-01
       -2   -1    0    0    0  501  0.00000000000E+00  0.00000000000E+00  0.94612875850E+03  0.94612875851E+03  0.25500000920E-02 0.  1.
        2   -1    0    0  501    0  0.00000000000E+00  0.00000000000E+00 -0.10955971138E+04  0.10955971138E+04  0.25500000920E-02 0. -1.
    10030    2    1    2    0    0  0.00000000000E+00  0.00000000000E+00 -0.14946835531E+03  0.20417258723E+04  0.20362474674E+04 0.  0.
        4    1    3    3  502    0  0.17685131358E+03 -0.98038038585E+03  0.13595548457E+03  0.10054390060E+04  0.12699999809E+01 0.  1.
       -4    1    3    3    0  502 -0.17685131358E+03  0.98038038585E+03 -0.28542383988E+03  0.10362868663E+04  0.12699999809E+01 0. -1.
</event>
<event>
 5   0  0.6028501E-05  0.2007711E+04  0.7818609E-02  0.8603024E-01
       -1   -1    0    0    0  501  0.00000000000E+00  0.00000000000E+00  0.15747659309E+04  0.15747659309E+04  0.50400001928E-02 0. -1.
        1   -1    0    0  501    0  0.00000000000E+00  0.00000000000E+00 -0.63992120383E+03  0.63992120385E+03  0.50400001928E-02 0.  1.
    10030    2    1    2    0    0  0.00000000000E+00  0.00000000000E+00  0.93484472703E+03  0.22146871347E+04  0.20077112444E+04 0.  0.
        4    1    3    3  502    0  0.47814092030E+03 -0.83018271096E+03  0.79817006335E+03  0.12469559480E+04  0.12699999809E+01 0. -1.
       -4    1    3    3    0  502 -0.47814092030E+03  0.83018271096E+03  0.13667466368E+03  0.96773118676E+03  0.12699999809E+01 0.  1.
</event>
<event>
 5   0  0.6214547E-05  0.1900695E+04  0.7818609E-02  0.8654510E-01
        1   -1    0    0  501    0  0.00000000000E+00  0.00000000000E+00  0.57259494535E+03  0.57259494537E+03  0.50400001928E-02 0. -1.
       -1   -1    0    0    0  501  0.00000000000E+00  0.00000000000E+00 -0.15773116260E+04  0.15773116260E+04  0.50400001928E-02 0.  1.
    10030    2    1    2    0    0  0.00000000000E+00  0.00000000000E+00 -0.10047166807E+04  0.21499065714E+04  0.19006953089E+04 0.  0.
        3    1    3    3  502    0 -0.84933592465E+03 -0.42178586301E+03 -0.57286803178E+03  0.11079046074E+04  0.10100000352E+00 0.  1.
       -3    1    3    3    0  502  0.84933592465E+03  0.42178586301E+03 -0.43184864888E+03  0.10420019640E+04  0.10100000352E+00 0. -1.
</event>
<event>
 5   0  0.1159914E-04  0.2019674E+04  0.7818609E-02  0.8597477E-01
        2   -1    0    0  501    0  0.00000000000E+00  0.00000000000E+00  0.16671784876E+04  0.16671784876E+04  0.25500000920E-02 0. -1.
       -2   -1    0    0    0  501  0.00000000000E+00  0.00000000000E+00 -0.61167481969E+03  0.61167481969E+03  0.25500000920E-02 0.  1.
    10030    2    1    2    0    0  0.00000000000E+00  0.00000000000E+00  0.10555036679E+04  0.22788533073E+04  0.20196743310E+04 0.  0.
        3    1    3    3  502    0 -0.32094618380E+03  0.13235374654E+03 -0.54222543825E+03  0.64384190855E+03  0.10100000352E+00 0.  1.
       -3    1    3    3    0  502  0.32094618380E+03 -0.13235374654E+03  0.15977291061E+04  0.16350113987E+04  0.10100000352E+00 0. -1.
</event>
<event>
 5   0  0.6222733E-05  0.1949603E+04  0.7818609E-02  0.8630552E-01
       -1   -1    0    0    0  501  0.00000000000E+00  0.00000000000E+00  0.59889278982E+03  0.59889278984E+03  0.50400001928E-02 0.  1.
        1   -1    0    0  501    0  0.00000000000E+00  0.00000000000E+00 -0.15866584007E+04  0.15866584007E+04  0.50400001928E-02 0. -1.
    10030    2    1    2    0    0  0.00000000000E+00  0.00000000000E+00 -0.98776561090E+03  0.21855511906E+04  0.19496033198E+04 0.  0.
        2    1    3    3  502    0  0.53418362084E+03 -0.12096719613E+03  0.41009118304E+03  0.68422217278E+03  0.25500000920E-02 0.  1.
       -2    1    3    3    0  502 -0.53418362084E+03  0.12096719613E+03 -0.13978567939E+04  0.15013290178E+04  0.25500000920E-02 0. -1.
</event>
<event>
 5   0  0.1274868E-04  0.2009376E+04  0.7818609E-02  0.8602250E-01
       -2   -1    0    0    0  501  0.00000000000E+00  0.00000000000E+00  0.92231317352E+03  0.92231317353E+03  0.25500000920E-02 0.  1.
        2   -1    0    0  501    0  0.00000000000E+00  0.00000000000E+00 -0.10944194533E+04  0.10944194533E+04  0.25500000920E-02 0. -1.
    10030    2    1    2    0    0  0.00000000000E+00  0.00000000000E+00 -0.17210627973E+03  0.20167326268E+04  0.20093755041E+04 0.  0.
        1    1    3    3  502    0 -0.79026949174E+03  0.62002462677E+03 -0.10713174240E+03  0.10101651437E+04  0.50400001928E-02 0.  1.
       -1    1    3    3    0  502  0.79026949174E+03 -0.62002462677E+03 -0.64974537331E+02  0.10065674830E+04  0.50400001928E-02 0. -1.
</event>
<event>
 5   0  0.1159914E-04  0.1994729E+04  0.7818609E-02  0.8609089E-01
        2   -1    0    0  501    0  0.00000000000E+00  0.00000000000E+00  0.20962516124E+04  0.20962516124E+04  0.25500000920E-02 0.  1.
       -2   -1    0    0    0  501  0.00000000000E+00  0.00000000000E+00 -0.47453093143E+03  0.47453093144E+03  0.25500000920E-02 0. -1.
    10030    2    1    2    0    0  0.00000000000E+00  0.00000000000E+00  0.16217206810E+04  0.25707825439E+04  0.19947292851E+04 0.  0.
        3    1    3    3  502    0  0.22631145331E+03  0.11262755038E+03  0.20542795903E+04  0.20697745008E+04  0.10100000352E+00 0.  1.
       -3    1    3    3    0  502 -0.22631145331E+03 -0.11262755038E+03 -0.43255890928E+03  0.50100804305E+03  0.10100000352E+00 0. -1.
</event>
<event>
 5   0  0.6256535E-05  0.1951984E+04  0.7818609E-02  0.8629405E-01
       -1   -1    0    0    0  501  0.00000000000E+00  0.00000000000E+00  0.17010546388E+04  0.17010546388E+04  0.50400001928E-02 0. -1.
        1   -1    0    0  501    0  0.00000000000E+00  0.00000000000E+00 -0.55998228798E+03  0.55998228800E+03  0.50400001928E-02 0.  1.
    10030    2    1    2    0    0  0.00000000000E+00  0.00000000000E+00  0.11410723508E+04  0.22610369268E+04  0.19519840866E+04 0.  0.
        1    1    3    3  502    0  0.44871133805E+03 -0.84412685563E+03  0.34275921443E+03  0.10155667838E+04  0.50400001928E-02 0. -1.
       -1    1    3    3    0  502 -0.44871133805E+03  0.84412685563E+03  0.79831313635E+03  0.12454701430E+04  0.50400001928E-02 0.  1.
</event>
<event>
 5   0  0.6256535E-05  0.2080274E+04  0.7818609E-02  0.8569983E-01
       -1   -1    0    0    0  501  0.00000000000E+00  0.00000000000E+00  0.15042674875E+04  0.15042674875E+04  0.50400001928E-02 0. -1.
        1   -1    0    0  501    0  0.00000000000E+00  0.00000000000E+00 -0.71921069339E+03  0.71921069341E+03  0.50400001928E-02 0.  1.
    10030    2    1    2    0    0  0.00000000000E+00  0.00000000000E+00  0.78505679407E+03  0.22234781809E+04  0.20802742730E+04 0.  0.
        1    1    3    3  502    0 -0.21729514044E+02  0.33783025098E+03  0.14437377925E+04  0.14828959046E+04  0.50400001928E-02 0. -1.
       -1    1    3    3    0  502  0.21729514044E+02 -0.33783025098E+03 -0.65868099844E+03  0.74058227631E+03  0.50400001928E-02 0.  1.
</event>
<event>
 5   0  0.1274868E-04  0.1976608E+04  0.7818609E-02  0.8617636E-01
       -2   -1    0    0    0  501  0.00000000000E+00  0.00000000000E+00  0.37275800923E+03  0.37275800924E+03  0.25500000920E-02 0.  1.
        2   -1    0    0  501    0  0.00000000000E+00  0.00000000000E+00 -0.26203187435E+04  0.26203187435E+04  0.25500000920E-02 0. -1.
    10030    2    1    2    0    0  0.00000000000E+00  0.00000000000E+00 -0.22475607342E+04  0.29930767527E+04  0.19766080020E+04 0.  0.
        1    1    3    3  502    0 -0.96969145879E+03  0.26126916601E+02 -0.83742847895E+03  0.12815110606E+04  0.50400001928E-02 0. -1.
       -1    1    3    3    0  502  0.96969145879E+03 -0.26126916601E+02 -0.14101322553E+04  0.17115656921E+04  0.50400001928E-02 0.  1.
</event>
<event>
 5   0  0.6222733E-05  0.2043746E+04  0.7818609E-02  0.8586437E-01
        1   -1    0    0  501    0  0.00000000000E+00  0.00000000000E+00  0.18129322797E+04  0.18129322797E+04  0.50400001928E-02 0.  1.
       -1   -1    0    0    0  501  0.00000000000E+00  0.00000000000E+00 -0.57598655246E+03  0.57598655248E+03  0.50400001928E-02 0. -1.
    10030    2    1    2    0    0  0.00000000000E+00  0.00000000000E+00  0.12369457272E+04  0.23889188322E+04  0.20437461815E+04 0.  0.
        2    1    3    3  502    0 -0.63572932952E+03  0.52700535066E+03 -0.85136309646E+02  0.83014132005E+03  0.25500000920E-02 0. -1.
       -2    1    3    3    0  502  0.63572932952E+03 -0.52700535066E+03  0.13220820369E+04  0.15587775121E+04  0.25500000920E-02 0.  1.
</event>
<event>
 5   0  0.6256535E-05  0.1915491E+04  0.7818609E-02  0.8647184E-01
        1   -1    0    0  501    0  0.00000000000E+00  0.00000000000E+00  0.11526434916E+04  0.11526434916E+04  0.50400001928E-02 0.  1.
       -1   -1    0    0    0  501  0.00000000000E+00  0.00000000000E+00 -0.79580241838E+03  0.79580241839E+03  0.50400001928E-02 0. -1.
    10030    2    1    2    0    0  0.00000000000E+00  0.00000000000E+00  0.35684107321E+03  0.19484459100E+04  0.19154910369E+04 0.  0.
        1    1    3    3  502    0 -0.54551529530E+03 -0.78494773249E+03  0.23899843634E+03  0.98531727516E+03  0.50400001928E-02 0.  1.
       -1    1    3    3    0  502  0.54551529530E+03  0.78494773249E+03  0.11784263688E+03  0.96312863483E+03  0.50400001928E-02 0. -1.
</event>
<event>
 5   0  0.1159914E-04  0.2051190E+04  0.7818609E-02  0.8583055E-01
       -2   -1    0    0    0  501  0.00000000000E+00  0.00000000000E+00  0.49405884500E+03  0.49405884500E+03  0.25500000920E-02 0. -1.
        2   -1    0    0  501    0  0.00000000000E+00  0.00000000000E+00 -0.21289865704E+04  0.21289865704E+04  0.25500000920E-02 0.  1.
    10030    2    1    2    0    0  0.00000000000E+00  0.00000000000E+00 -0.16349277254E+04  0.26230454154E+04  0.20511895534E+04 0.  0.
        3    1    3    3  502    0  0.50769551996E+03 -0.45226019414E+03  0.16442099185E+03  0.69952004757E+03  0.10100000352E+00 0. -1.
       -3    1    3    3    0  502 -0.50769551996E+03  0.45226019414E+03 -0.17993487172E+04  0.19235253678E+04  0.10100000352E+00 0.  1.
</event>
<event>
 5   0  0.6028501E-05  0.1991992E+04  0.7818609E-02  0.8610374E-01
       -1   -1    0    0    0  501  0.00000000000E+00  0.00000000000E+00  0.10044306570E+04  0.10044306570E+04  0.50400001928E-02 0. -1.
        1   -1    0    0  501    0  0.00000000000E+00  0.00000000000E+00 -0.98763199027E+03  0.98763199029E+03  0.50400001928E-02 0.  1.
    10030    2    1    2    0    0  0.00000000000E+00  0.00000000000E+00  0.16798666723E+02  0.19920626473E+04  0.19919918161E+04 0.  0.
        4    1    3    3  502    0  0.70740466391E+03  0.29125656356E+03 -0.62939641677E+03  0.99065291938E+03  0.12699999809E+01 0.  1.
       -4    1    3    3    0  502 -0.70740466391E+03 -0.29125656356E+03  0.64619508349E+03  0.10014097279E+04  0.12699999809E+01 0. -1.
</event>
<event>
 5   0  0.6256535E-05  0.2015681E+04  0.7818609E-02  0.8599324E-01
       -1   -1    0    0    0  501  0.00000000000E+00  0.00000000000E+00  0.10955062741E+04  0.10955062741E+04  0.50400001928E-02 0.  1.
        1   -1    0    0  501    0  0.00000000000E+00  0.00000000000E+00 -0.92718969092E+03  0.92718969094E+03  0.50400001928E-02 0. -1.
    10030    2    1    2    0    0  0.00000000000E+00  0.00000000000E+00  0.16831658318E+03  0.20226959651E+04  0.20156806530E+04 0.  0.
        1    1    3    3  502    0  0.91821147481E+03  0.41425682878E+03  0.11622402007E+03  0.10140162994E+04  0.50400001928E-02 0. -1.
       -1    1    3    3    0  502 -0.91821147481E+03 -0.41425682878E+03  0.52092563111E+02  0.10086796656E+04  0.50400001928E-02 0.  1.
</event>
<event>
 5   0  0.6028501E-05  0.1962367E+04  0.7818609E-02  0.8624420E-01
       -1   -1    0    0    0  501  0.00000000000E+00  0.00000000000E+00  0.58310900529E+03  0.58310900531E+03  0.50400001928E-02 0.  1.
        1   -1    0    0  501    0  0.00000000000E+00  0.00000000000E+00 -0.16510138750E+04  0.16510138750E+04  0.50400001928E-02 0. -1.
    10030    2    1    2    0    0  0.00000000000E+00  0.00000000000E+00 -0.10679048697E+04  0.22341228804E+04  0.19623669977E+04 0.  0.
        4    1    3    3  502    0  0.35038645677E+03 -0.27193717598E+03  0.46246406768E+03  0.64077696866E+03  0.12699999809E+01 0.  1.
       -4    1    3    3    0  502 -0.35038645677E+03  0.27193717598E+03 -0.15303689374E+04  0.15933459117E+04  0.12699999809E+01 0. -1.
</event>
<event>
 5   0  0.1281789E-04  0.1995228E+04  0.7818609E-02  0.8608855E-01
        2   -1    0    0  501    0  0.00000000000E+00  0.00000000000E+00  0.10756166250E+04  0.10756166250E+04  0.25500000920E-02 0.  1.
       -2   -1    0    0    0  501  0.00000000000E+00  0.00000000000E+00 -0.92526796388E+03  0.92526796388E+03  0.25500000920E-02 0. -1.
    10030    2    1    2    0    0  0.00000000000E+00  0.00000000000E+00  0.15034866114E+03  0.20008845889E+04  0.19952279113E+04 0.  0.
        2    1    3    3  502    0 -0.58874750965E+03  0.71644591162E+03  0.44406941477E+03  0.10281614754E+04  0.25500000920E-02 0.  1.
       -2    1    3    3    0  502  0.58874750965E+03 -0.71644591162E+03 -0.29372075363E+03  0.97272311349E+03  0.25500000920E-02 0. -1.
</event>
<event>
 5   0  0.1242761E-04  0.2024732E+04  0.7818609E-02  0.8595144E-01
        2   -1    0    0  501    0  0.00000000000E+00  0.00000000000E+00  0.14507345856E+04  0.14507345856E+04  0.25500000920E-02 0. -1.
       -2   -1    0    0    0  501  0.00000000000E+00  0.00000000000E+00 -0.70645947259E+03  0.70645947260E+03  0.25500000920E-02 0.  1.
    10030    2    1    2    0    0  0.00000000000E+00  0.00000000000E+00  0.74427511304E+03  0.21571940582E+04  0.20247322690E+04 0.  0.
        4    1    3    3  502    0  0.71062842228E+03  0.29143517997E+03 -0.33052118425E+03  0.83616570416E+03  0.12699999809E+01 0.  1.
       -4    1    3    3    0  502 -0.71062842228E+03 -0.29143517997E+03  0.10747962973E+04  0.13210283541E+04  0.12699999809E+01 0. -1.
</event>
<event>
 5   0  0.1159914E-04  0.1996531E+04  0.7818609E-02  0.8608244E-01
       -2   -1    0    0    0  501  0.00000000000E+00  0.00000000000E+00  0.10064244096E+04  0.10064244096E+04  0.25500000920E-02 0.  1.
        2   -1    0    0  501    0  0.00000000000E+00  0.00000000000E+00 -0.99017318162E+03  0.99017318162E+03  0.25500000920E-02 0. -1.
    10030    2    1    2    0    0  0.00000000000E+00  0.00000000000E+00  0.16251227985E+02  0.19965975912E+04  0.19965314520E+04 0.  0.
        3    1    3    3  502    0 -0.95689708027E+02  0.95976309000E+02 -0.98093014078E+03  0.99024841499E+03  0.10100000352E+00 0. -1.
       -3    1    3    3    0  502  0.95689708027E+02 -0.95976309000E+02  0.99718136876E+03  0.10063491762E+04  0.10100000352E+00 0.  1.
</event>
<event>
 5   0  0.6214547E-05  0.2001310E+04  0.7818609E-02  0.8606008E-01
        1   -1    0    0  501    0  0.00000000000E+00  0.00000000000E+00  0.65258252529E+03  0.65258252531E+03  0.50400001928E-02 0. -1.
       -1   -1    0    0    0  501  0.00000000000E+00  0.00000000000E+00 -0.15343818706E+04  0.15343818706E+04  0.50400001928E-02 0.  1.
    10030    2    1    2    0    0  0.00000000000E+00  0.00000000000E+00 -0.88179934535E+03  0.21869643960E+04  0.20013103667E+04 0.  0.
        3    1    3    3  502    0 -0.78692044276E+03  0.94823622617E+01 -0.11162761400E+04  0.13657987148E+04  0.10100000352E+00 0.  1.
       -3    1    3    3    0  502  0.78692044276E+03 -0.94823622617E+01  0.23447679468E+03  0.82116568113E+03  0.10100000352E+00 0. -1.
</event>
<event>
 5   0  0.1159914E-04  0.2002389E+04  0.7818609E-02  0.8605504E-01
        2   -1    0    0  501    0  0.00000000000E+00  0.00000000000E+00  0.62728031791E+03  0.62728031792E+03  0.25500000920E-02 0. -1.
       -2   -1    0    0    0  501  0.00000000000E+00  0.00000000000E+00 -0.15979949295E+04  0.15979949295E+04  0.25500000920E-02 0.  1.
    10030    2    1    2    0    0  0.00000000000E+00  0.00000000000E+00 -0.97071461155E+03  0.22252752474E+04  0.20023893401E+04 0.  0.
        3    1    3    3  502    0  0.38593159408E+02  0.22094506260E+03 -0.15697160446E+04  0.15856590502E+04  0.10100000352E+00 0.  1.
       -3    1    3    3    0  502 -0.38593159408E+02 -0.22094506260E+03  0.59900143307E+03  0.63961619715E+03  0.10100000352E+00 0. -1.
</event>
<event>
 5   0  0.1281789E-04  0.2006049E+04  0.7818609E-02  0.8603798E-01
       -2   -1    0    0    0  501  0.00000000000E+00  0.00000000000E+00  0.12928705295E+04  0.12928705295E+04  0.25500000920E-02 0.  1.
        2   -1    0    0  501    0  0.00000000000E+00  0.00000000000E+00 -0.77815855363E+03  0.77815855363E+03  0.25500000920E-02 0. -1.
    10030    2    1    2    0    0  0.00000000000E+00  0.00000000000E+00  0.51471197589E+03  0.20710290832E+04  0.20060491133E+04 0.  0.
        2    1    3    3  502    0  0.60471537008E+03 -0.75515209788E+03 -0.16028925226E+02  0.96757030555E+03  0.25500000920E-02 0. -1.
       -2    1    3    3    0  502 -0.60471537008E+03  0.75515209788E+03  0.53074090111E+03  0.11034587776E+04  0.25500000920E-02 0.  1.
</event>
<event>
 5   0  0.6214547E-05  0.1998362E+04  0.7818609E-02  0.8607387E-01
        1   -1    0    0  501    0  0.00000000000E+00  0.00000000000E+00  0.99133488533E+03  0.99133488534E+03  0.50400001928E-02 0.  1.
       -1   -1    0    0    0  501  0.00000000000E+00  0.00000000000E+00 -0.10070893487E+04  0.10070893487E+04  0.50400001928E-02 0. -1.
    10030    2    1    2    0    0  0.00000000000E+00  0.00000000000E+00 -0.15754463331E+02  0.19984242340E+04  0.19983621333E+04 0.  0.
        3    1    3    3  502    0  0.22905571172E+03  0.43848072893E+03 -0.87602339744E+03  0.10060560977E+04  0.10100000352E+00 0. -1.
       -3    1    3    3    0  502 -0.22905571172E+03 -0.43848072893E+03  0.86026893410E+03  0.99236813628E+03  0.10100000352E+00 0.  1.
</event>
<event>
 5   0  0.1244229E-04  0.1708451E+04  0.7818609E-02  0.8756559E-01
        2   -1    0    0  501    0  0.00000000000E+00  0.00000000000E+00  0.10294925183E+04  0.10294925183E+04  0.25500000920E-02 0.  1.
       -2   -1    0    0    0  501  0.00000000000E+00  0.00000000000E+00 -0.70879692983E+03  0.70879692984E+03  0.25500000920E-02 0. -1.
    10030    2    1    2    0    0  0.00000000000E+00  0.00000000000E+00  0.32069558844E+03  0.17382894481E+04  0.17084509197E+04 0.  0.
        5    1    3    3  502    0  0.68700167637E+03  0.40050110380E+03 -0.15704039062E+03  0.81059003927E+03  0.46999998093E+01 0. -1.
       -5    1    3    3    0  502 -0.68700167637E+03 -0.40050110380E+03  0.47773597906E+03  0.92769940884E+03  0.46999998093E+01 0.  1.
</event>
<event>
 5   0  0.4479000E-05  0.2377536E+04  0.7818609E-02  0.8447962E-01
        3   -1    0    0  501    0  0.00000000000E+00  0.00000000000E+00  0.22346227954E+04  0.22346227977E+04  0.10100000352E+00 0.  1.
       -3   -1    0    0    0  501  0.00000000000E+00  0.00000000000E+00 -0.63239738255E+03  0.63239739062E+03  0.10100000352E+00 0. -1.
    10030    2    1    2    0    0  0.00000000000E+00  0.00000000000E+00  0.16022254129E+04  0.28670201883E+04  0.23775362219E+04 0.  0.
        1    1    3    3  502    0  0.54769656942E+03  0.78124829681E+03 -0.53998278630E+02  0.95563395060E+03  0.50400001928E-02 0. -1.
       -1    1    3    3    0  502 -0.54769656942E+03 -0.78124829681E+03  0.16562236915E+04  0.19113862377E+04  0.50400001928E-02 0.  1.
</event>
<event>
 5   0  0.1244229E-04  0.1974966E+04  0.7818609E-02  0.8618415E-01
       -2   -1    0    0    0  501  0.00000000000E+00  0.00000000000E+00  0.54035076511E+03  0.54035076511E+03  0.25500000920E-02 0. -1.
        2   -1    0    0  501    0  0.00000000000E+00  0.00000000000E+00 -0.18046107492E+04  0.18046107492E+04  0.25500000920E-02 0.  1.
    10030    2    1    2    0    0  0.00000000000E+00  0.00000000000E+00 -0.12642599841E+04  0.23449615143E+04  0.19749661253E+04 0.  0.
        5    1    3    3  502    0  0.64024203494E+03  0.49876276163E+02 -0.15227978131E+04  0.16526744313E+04  0.46999998093E+01 0.  1.
       -5    1    3    3    0  502 -0.64024203494E+03 -0.49876276163E+02  0.25853782905E+03  0.69228708299E+03  0.46999998093E+01 0. -1.
</event>
<event>
 5   0  0.1274868E-04  0.1952524E+04  0.7818609E-02  0.8629145E-01
       -2   -1    0    0    0  501  0.00000000000E+00  0.00000000000E+00  0.51215837331E+03  0.51215837332E+03  0.25500000920E-02 0. -1.
        2   -1    0    0  501    0  0.00000000000E+00  0.00000000000E+00 -0.18609232403E+04  0.18609232403E+04  0.25500000920E-02 0.  1.
    10030    2    1    2    0    0  0.00000000000E+00  0.00000000000E+00 -0.13487648669E+04  0.23730816136E+04  0.19525239252E+04 0.  0.
        1    1    3    3  502    0  0.75713989700E+03  0.12098811964E+03  0.60088882253E+02  0.76909662756E+03  0.50400001928E-02 0. -1.
       -1    1    3    3    0  502 -0.75713989700E+03 -0.12098811964E+03 -0.14088537492E+04  0.16039849860E+04  0.50400001928E-02 0.  1.
</event>
<event>
 5   0  0.1242761E-04  0.1991353E+04  0.7818609E-02  0.8610674E-01
        2   -1    0    0  501    0  0.00000000000E+00  0.00000000000E+00  0.10373598726E+04  0.10373598726E+04  0.25500000920E-02 0.  1.
       -2   -1    0    0    0  501  0.00000000000E+00  0.00000000000E+00 -0.95566790685E+03  0.95566790686E+03  0.25500000920E-02 0. -1.
    10030    2    1    2    0    0  0.00000000000E+00  0.00000000000E+00  0.81691965698E+02  0.19930277794E+04  0.19913528447E+04 0.  0.
        4    1    3    3  502    0  0.72711109494E+03  0.21069678384E+03 -0.60644853001E+03  0.96998201610E+03  0.12699999809E+01 0. -1.
       -4    1    3    3    0  502 -0.72711109494E+03 -0.21069678384E+03  0.68814049571E+03  0.10230457633E+04  0.12699999809E+01 0.  1.
</event>
<event>
 5   0  0.6214547E-05  0.2009535E+04  0.7818609E-02  0.8602176E-01
        1   -1    0    0  501    0  0.00000000000E+00  0.00000000000E+00  0.12782646077E+04  0.12782646077E+04  0.50400001928E-02 0. -1.
       -1   -1    0    0    0  501  0.00000000000E+00  0.00000000000E+00 -0.78978781784E+03  0.78978781786E+03  0.50400001928E-02 0.  1.
    10030    2    1    2    0    0  0.00000000000E+00  0.00000000000E+00  0.48847678988E+03  0.20680524256E+04  0.20095350857E+04 0.  0.
        3    1    3    3  502    0  0.89834033435E+03  0.45001620707E+03  0.23880623739E+03  0.10327431298E+04  0.10100000352E+00 0.  1.
       -3    1    3    3    0  502 -0.89834033435E+03 -0.45001620707E+03  0.24967055249E+03  0.10353092958E+04  0.10100000352E+00 0. -1.
</event>
<event>
 5   0  0.6028501E-05  0.1987696E+04  0.7818609E-02  0.8612395E-01
       -1   -1    0    0    0  501  0.00000000000E+00  0.00000000000E+00  0.90867361007E+03  0.90867361009E+03  0.50400001928E-02 0.  1.
        1   -1    0    0  501    0  0.00000000000E+00  0.00000000000E+00 -0.10870066690E+04  0.10870066690E+04  0.50400001928E-02 0. -1.
    10030    2    1    2    0    0  0.00000000000E+00  0.00000000000E+00 -0.17833305891E+03  0.19956802791E+04  0.19876964296E+04 0.  0.
        4    1    3    3  502    0  0.65547291714E+03  0.66644207923E+02 -0.83622943743E+03  0.10645973326E+04  0.12699999809E+01 0. -1.
       -4    1    3    3    0  502 -0.65547291714E+03 -0.66644207923E+02  0.65789637852E+03  0.93108294653E+03  0.12699999809E+01 0.  1.
</event>
<event>
 5   0  0.1274868E-04  0.2002634E+04  0.7818609E-02  0.8605390E-01
        2   -1    0    0  501    0  0.00000000000E+00  0.00000000000E+00  0.13795916832E+04  0.13795916832E+04  0.25500000920E-02 0. -1.
       -2   -1    0    0    0  501  0.00000000000E+00  0.00000000000E+00 -0.72676274038E+03  0.72676274039E+03  0.25500000920E-02 0.  1.
    10030    2    1    2    0    0  0.00000000000E+00  0.00000000000E+00  0.65282894279E+03  0.21063544236E+04  0.20026340977E+04 0.  0.
        1    1    3    3  502    0 -0.88036845435E+03 -0.27148120901E+02  0.82737028678E+03  0.12084399974E+04  0.50400001928E-02 0. -1.
       -1    1    3    3    0  502  0.88036845435E+03  0.27148120901E+02 -0.17454134400E+03  0.89791442614E+03  0.50400001928E-02 0.  1.
</event>
<event>
 5   0  0.6256535E-05  0.1980248E+04  0.7818609E-02  0.8615911E-01
        1   -1    0    0  501    0  0.00000000000E+00  0.00000000000E+00  0.14956744093E+04  0.14956744093E+04  0.50400001928E-02 0. -1.
       -1   -1    0    0    0  501  0.00000000000E+00  0.00000000000E+00 -0.65545379646E+03  0.65545379648E+03  0.50400001928E-02 0.  1.
    10030    2    1    2    0    0  0.00000000000E+00  0.00000000000E+00  0.84022061286E+03  0.21511282058E+04  0.19802479339E+04 0.  0.
        1    1    3    3  502    0  0.70480058018E+03 -0.47024857475E+03  0.97663548280E+03  0.12929402330E+04  0.50400001928E-02 0. -1.
       -1    1    3    3    0  502 -0.70480058018E+03  0.47024857475E+03 -0.13641486994E+03  0.85818797279E+03  0.50400001928E-02 0.  1.
</event>
<event>
 5   0  0.1242761E-04  0.2000458E+04  0.7818609E-02  0.8606407E-01
       -2   -1    0    0    0  501  0.00000000000E+00  0.00000000000E+00  0.10785138640E+04  0.10785138640E+04  0.25500000920E-02 0.  1.
        2   -1    0    0  501    0  0.00000000000E+00  0.00000000000E+00 -0.92762621194E+03  0.92762621194E+03  0.25500000920E-02 0. -1.
    10030    2    1    2    0    0  0.00000000000E+00  0.00000000000E+00  0.15088765202E+03  0.20061400759E+04  0.20004576778E+04 0.  0.
        4    1    3    3  502    0  0.43149224649E+03  0.61757675448E+03 -0.58435324707E+03  0.95344477381E+03  0.12699999809E+01 0. -1.
       -4    1    3    3    0  502 -0.43149224649E+03 -0.61757675448E+03  0.73524089909E+03  0.10526953021E+04  0.12699999809E+01 0.  1.
</event>
<event>
 5   0  0.1244229E-04  0.2118441E+04  0.7818609E-02  0.8553163E-01
        2   -1    0    0  501    0  0.00000000000E+00  0.00000000000E+00  0.19867483917E+04  0.19867483918E+04  0.25500000920E-02 0.  1.
       -2   -1    0    0    0  501  0.00000000000E+00  0.00000000000E+00 -0.56471558644E+03  0.56471558644E+03  0.25500000920E-02 0. -1.
    10030    2    1    2    0    0  0.00000000000E+00  0.00000000000E+00  0.14220328053E+04  0.25514639782E+04  0.21184407314E+04 0.  0.
        5    1    3    3  502    0  0.99705018355E+02 -0.94353000029E+03  0.12781573105E+04  0.15918222741E+04  0.46999998093E+01 0.  1.
       -5    1    3    3    0  502 -0.99705018355E+02  0.94353000029E+03  0.14387549484E+03  0.95964170405E+03  0.46999998093E+01 0. -1.
</event>
<event>
 5   0  0.1244229E-04  0.1987656E+04  0.7818609E-02  0.8612414E-01
        2   -1    0    0  501    0  0.00000000000E+00  0.00000000000E+00  0.17332975590E+04  0.17332975590E+04  0.25500000920E-02 0.  1.
       -2   -1    0    0    0  501  0.00000000000E+00  0.00000000000E+00 -0.56983501766E+03  0.56983501766E+03  0.25500000920E-02 0. -1.
    10030    2    1    2    0    0  0.00000000000E+00  0.00000000000E+00  0.11634625413E+04  0.23031325766E+04  0.19876555488E+04 0.  0.
        5    1    3    3  502    0 -0.48660789252E+02 -0.98285820123E+03  0.74267817803E+03  0.12328710728E+04  0.46999998093E+01 0. -1.
       -5    1    3    3    0  502  0.48660789252E+02  0.98285820123E+03  0.42078436329E+03  0.10702615038E+04  0.46999998093E+01 0.  1.
</event>
<event>
 5   0  0.6028501E-05  0.1965864E+04  0.7818609E-02  0.8622749E-01
        1   -1    0    0  501    0  0.00000000000E+00  0.00000000000E+00  0.15594260210E+04  0.15594260211E+04  0.50400001928E-02 0. -1.
       -1   -1    0    0    0  501  0.00000000000E+00  0.00000000000E+00 -0.61955829754E+03  0.61955829756E+03  0.50400001928E-02 0.  1.
    10030    2    1    2    0    0  0.00000000000E+00  0.00000000000E+00  0.93986772350E+03  0.21789843186E+04  0.19658640144E+04 0.  0.
        4    1    3    3  502    0 -0.39701238098E+03 -0.42017475675E+03  0.13510944596E+04  0.14695657551E+04  0.12699999809E+01 0. -1.
       -4    1    3    3    0  502  0.39701238098E+03  0.42017475675E+03 -0.41122673612E+03  0.70941856351E+03  0.12699999809E+01 0.  1.
</event>
<event>
 5   0  0.6028501E-05  0.2004012E+04  0.7818609E-02  0.8604747E-01
       -1   -1    0    0    0  501  0.00000000000E+00  0.00000000000E+00  0.10279562315E+04  0.10279562315E+04  0.50400001928E-02 0. -1.
        1   -1    0    0  501    0  0.00000000000E+00  0.00000000000E+00 -0.97671130950E+03  0.97671130951E+03  0.50400001928E-02 0.  1.
    10030    2    1    2    0    0  0.00000000000E+00  0.00000000000E+00  0.51244921996E+02  0.20046675410E+04  0.20040124521E+04 0.  0.
        4    1    3    3  502    0  0.20404364839E+03 -0.96986004131E+03  0.17315814335E+03  0.10061051961E+04  0.12699999809E+01 0. -1.
       -4    1    3    3    0  502 -0.20404364839E+03  0.96986004131E+03 -0.12191322136E+03  0.99856234489E+03  0.12699999809E+01 0.  1.
</event>
<event>
 5   0  0.6256535E-05  0.2006614E+04  0.7818609E-02  0.8603535E-01
       -1   -1    0    0    0  501  0.00000000000E+00  0.00000000000E+00  0.92073082910E+03  0.92073082912E+03  0.50400001928E-02 0.  1.
        1   -1    0    0  501    0  0.00000000000E+00  0.00000000000E+00 -0.10932889652E+04  0.10932889652E+04  0.50400001928E-02 0. -1.
    10030    2    1    2    0    0  0.00000000000E+00  0.00000000000E+00 -0.17255813612E+03  0.20140197944E+04  0.20066139194E+04 0.  0.
        1    1    3    3  502    0 -0.23350975003E+03  0.13073309967E+03  0.88424726615E+03  0.92385668500E+03  0.50400001928E-02 0.  1.
       -1    1    3    3    0  502  0.23350975003E+03 -0.13073309967E+03 -0.10568054023E+04  0.10901631094E+04  0.50400001928E-02 0. -1.
</event>
<event>
 5   0  0.1244229E-04  0.2016282E+04  0.7818609E-02  0.8599046E-01
        2   -1    0    0  501    0  0.00000000000E+00  0.00000000000E+00  0.12330286040E+04  0.12330286040E+04  0.25500000920E-02 0. -1.
       -2   -1    0    0    0  501  0.00000000000E+00  0.00000000000E+00 -0.82426995907E+03  0.82426995907E+03  0.25500000920E-02 0.  1.
    10030    2    1    2    0    0  0.00000000000E+00  0.00000000000E+00  0.40875864489E+03  0.20572985630E+04  0.20162821597E+04 0.  0.
        5    1    3    3  502    0 -0.84627300980E+03 -0.22551197997E+03 -0.30506975997E+03  0.92742833075E+03  0.46999998093E+01 0.  1.
       -5    1    3    3    0  502  0.84627300980E+03  0.22551197997E+03  0.71382840486E+03  0.11298702323E+04  0.46999998093E+01 0. -1.
</event>
<event>
 5   0  0.1242761E-04  0.1778156E+04  0.7818609E-02  0.8718003E-01
       -2   -1    0    0    0  501  0.00000000000E+00  0.00000000000E+00  0.16792929619E+04  0.16792929619E+04  0.25500000920E-02 0.  1.
        2   -1    0    0  501    0  0.00000000000E+00  0.00000000000E+00 -0.47070979092E+03  0.47070979093E+03  0.25500000920E-02 0. -1.
    10030    2    1    2    0    0  0.00000000000E+00  0.00000000000E+00  0.12085831710E+04  0.21500027529E+04  0.17781559426E+04 0.  0.
        4    1    3    3  502    0  0.54859726519E+03  0.22272251867E+02 -0.24123046524E+03  0.59970723093E+03  0.12699999809E+01 0. -1.
       -4    1    3    3    0  502 -0.54859726519E+03 -0.22272251867E+02  0.14498136363E+04  0.15502955219E+04  0.12699999809E+01 0.  1.
</event>
<event>
 5   0  0.1274868E-04  0.1993721E+04  0.7818609E-02  0.8609562E-01
        2   -1    0    0  501    0  0.00000000000E+00  0.00000000000E+00  0.20916555768E+04  0.20916555768E+04  0.25500000920E-02 0.  1.
       -2   -1    0    0    0  501  0.00000000000E+00  0.00000000000E+00 -0.47509281424E+03  0.47509281425E+03  0.25500000920E-02 0. -1.
    10030    2    1    2    0    0  0.00000000000E+00  0.00000000000E+00  0.16165627625E+04  0.25667483910E+04  0.19937206769E+04 0.  0.
        1    1    3    3  502    0 -0.86524502332E+03  0.36129703886E+03  0.12440029047E+04  0.15577957914E+04  0.50400001928E-02 0.  1.
       -1    1    3    3    0  502  0.86524502332E+03 -0.36129703886E+03  0.37255985782E+03  0.10089525997E+04  0.50400001928E-02 0. -1.
</event>
<event>
 5   0  0.1274868E-04  0.2004097E+04  0.7818609E-02  0.8604708E-01
       -2   -1    0    0    0  501  0.00000000000E+00  0.00000000000E+00  0.48926783909E+03  0.48926783909E+03  0.25500000920E-02 0.  1.
        2   -1    0    0  501    0  0.00000000000E+00  0.00000000000E+00 -0.20522523249E+04  0.20522523249E+04  0.25500000920E-02 0. -1.
    10030    2    1    2    0    0  0.00000000000E+00  0.00000000000E+00 -0.15629844858E+04  0.25415201640E+04  0.20040968642E+04 0.  0.
        1    1    3    3  502    0  0.73513774362E+03 -0.36621139980E+03 -0.53471216474E+02  0.82304159218E+03  0.50400001928E-02 0.  1.
       -1    1    3    3    0  502 -0.73513774362E+03  0.36621139980E+03 -0.15095132693E+04  0.17184785718E+04  0.50400001928E-02 0. -1.
</event>
<event>
 5   0  0.6222733E-05  0.1997799E+04  0.7818609E-02  0.8607650E-01
       -1   -1    0    0    0  501  0.00000000000E+00  0.00000000000E+00  0.79051856864E+03  0.79051856866E+03  0.50400001928E-02 0.  1.
        1   -1    0    0  501    0  0.00000000000E+00  0.00000000000E+00 -0.12622096860E+04  0.12622096860E+04  0.50400001928E-02 0. -1.
    10030    2    1    2    0    0  0.00000000000E+00  0.00000000000E+00 -0.47169111738E+03  0.20527282547E+04  0.19977989832E+04 0.  0.
        2    1    3    3  502    0 -0.94453447203E+03 -0.31892593900E+03 -0.17134153627E+03  0.10115419148E+04  0.25500000920E-02 0.  1.
       -2    1    3    3    0  502  0.94453447203E+03  0.31892593900E+03 -0.30034958111E+03  0.10411863399E+04  0.25500000920E-02 0. -1.
</event>
<event>
 5   0  0.6168338E-05  0.2015823E+04  0.7818609E-02  0.8599259E-01
        1   -1    0    0  501    0  0.00000000000E+00  0.00000000000E+00  0.23644784262E+04  0.23644784262E+04  0.50400001928E-02 0.  1.
       -1   -1    0    0    0  501  0.00000000000E+00  0.00000000000E+00 -0.42964450686E+03  0.42964450689E+03  0.50400001928E-02 0. -1.
    10030    2    1    2    0    0  0.00000000000E+00  0.00000000000E+00  0.19348339193E+04  0.27941229331E+04  0.20158225789E+04 0.  0.
        5    1    3    3  502    0  0.18093199369E+03  0.41915522125E+03 -0.27809284040E+03  0.53458881743E+03  0.46999998093E+01 0. -1.
       -5    1    3    3    0  502 -0.18093199369E+03 -0.41915522125E+03  0.22129267597E+04  0.22595341156E+04  0.46999998093E+01 0.  1.
</event>
<event>
 5   0  0.1244229E-04  0.1988510E+04  0.7818609E-02  0.8612011E-01
       -2   -1    0    0    0  501  0.00000000000E+00  0.00000000000E+00  0.13103694683E+04  0.13103694683E+04  0.25500000920E-02 0. -1.
        2   -1    0    0  501    0  0.00000000000E+00  0.00000000000E+00 -0.75440047798E+03  0.75440047799E+03  0.25500000920E-02 0.  1.
    10030    2    1    2    0    0  0.00000000000E+00  0.00000000000E+00  0.55596899036E+03  0.20647699463E+04  0.19885103502E+04 0.  0.
        5    1    3    3  502    0 -0.28723632387E+03 -0.43063975937E+03 -0.60343100568E+03  0.79505117868E+03  0.46999998093E+01 0.  1.
       -5    1    3    3    0  502  0.28723632387E+03  0.43063975937E+03  0.11593999960E+04  0.12697187676E+04  0.46999998093E+01 0. -1.
</event>
<event>
 5   0  0.6028501E-05  0.2007474E+04  0.7818609E-02  0.8603135E-01
       -1   -1    0    0    0  501  0.00000000000E+00  0.00000000000E+00  0.60707835154E+03  0.60707835157E+03  0.50400001928E-02 0. -1.
        1   -1    0    0  501    0  0.00000000000E+00  0.00000000000E+00 -0.16595674779E+04  0.16595674779E+04  0.50400001928E-02 0.  1.
    10030    2    1    2    0    0  0.00000000000E+00  0.00000000000E+00 -0.10524891263E+04  0.22666458295E+04  0.20074735254E+04 0.  0.
        4    1    3    3  502    0  0.82273344418E+03 -0.29168666412E+03  0.33219717883E+02  0.87354255349E+03  0.12699999809E+01 0. -1.
       -4    1    3    3    0  502 -0.82273344418E+03  0.29168666412E+03 -0.10857088442E+04  0.13931032760E+04  0.12699999809E+01 0.  1.
</event>
<event>
 5   0  0.1281789E-04  0.1994192E+04  0.7818609E-02  0.8609341E-01
        2   -1    0    0  501    0  0.00000000000E+00  0.00000000000E+00  0.22264243340E+04  0.22264243340E+04  0.25500000920E-02 0. -1.
       -2   -1    0    0    0  501  0.00000000000E+00  0.00000000000E+00 -0.44654586704E+03  0.44654586705E+03  0.25500000920E-02 0.  1.
    10030    2    1    2    0    0  0.00000000000E+00  0.00000000000E+00  0.17798784670E+04  0.26729702011E+04  0.19941921519E+04 0.  0.
        2    1    3    3  502    0 -0.89465609667E+03 -0.43848801915E+03  0.83769355535E+03  0.13016957275E+04  0.25500000920E-02 0.  1.
       -2    1    3    3    0  502  0.89465609667E+03  0.43848801915E+03  0.94218491165E+03  0.13712744736E+04  0.25500000920E-02 0. -1.
</event>
<event>
 5   0  0.6256535E-05  0.2013173E+04  0.7818609E-02  0.8600487E-01
       -1   -1    0    0    0  501  0.00000000000E+00  0.00000000000E+00  0.59589212172E+03  0.59589212174E+03  0.50400001928E-02 0. -1.
        1   -1    0    0  501    0  0.00000000000E+00  0.00000000000E+00 -0.17003350155E+04  0.17003350155E+04  0.50400001928E-02 0.  1.
    10030    2    1    2    0    0  0.00000000000E+00  0.00000000000E+00 -0.11044428938E+04  0.22962271373E+04  0.20131728590E+04 0.  0.
        1    1    3    3  502    0 -0.30759821588E+02 -0.41512178466E+02  0.59437870967E+03  0.59662004502E+03  0.50400001928E-02 0. -1.
       -1    1    3    3    0  502  0.30759821588E+02  0.41512178466E+02 -0.16988216035E+04  0.16996070923E+04  0.50400001928E-02 0.  1.
</event>
<event>
 5   0  0.1159914E-04  0.2009107E+04  0.7818609E-02  0.8602374E-01
       -2   -1    0    0    0  501  0.00000000000E+00  0.00000000000E+00  0.66451429146E+03  0.66451429146E+03  0.25500000920E-02 0. -1.
        2   -1    0    0  501    0  0.00000000000E+00  0.00000000000E+00 -0.15185951842E+04  0.15185951842E+04  0.25500000920E-02 0.  1.
    10030    2    1    2    0    0  0.00000000000E+00  0.00000000000E+00 -0.85408089272E+03  0.21831094756E+04  0.20091074663E+04 0.  0.
        3    1    3    3  502    0 -0.79646139332E+03  0.60958945793E+03 -0.48829783419E+03  0.11155199879E+04  0.10100000352E+00 0. -1.
       -3    1    3    3    0  502  0.79646139332E+03 -0.60958945793E+03 -0.36578305853E+03  0.10675894878E+04  0.10100000352E+00 0.  1.
</event>
<event>
 5   0  0.1244229E-04  0.2030347E+04  0.7818609E-02  0.8592562E-01
        2   -1    0    0  501    0  0.00000000000E+00  0.00000000000E+00  0.73586943142E+03  0.73586943143E+03  0.25500000920E-02 0.  1.
       -2   -1    0    0    0  501  0.00000000000E+00  0.00000000000E+00 -0.14004892210E+04  0.14004892210E+04  0.25500000920E-02 0. -1.
    10030    2    1    2    0    0  0.00000000000E+00  0.00000000000E+00 -0.66461978961E+03  0.21363586525E+04  0.20303469721E+04 0.  0.
        5    1    3    3  502    0 -0.89631414808E+03 -0.17486348595E+03 -0.79885577834E+03  0.12133214477E+04  0.46999998093E+01 0. -1.
       -5    1    3    3    0  502  0.89631414808E+03  0.17486348595E+03  0.13423598873E+03  0.92303720480E+03  0.46999998093E+01 0.  1.
</event>
<event>
 5   0  0.6256535E-05  0.2013389E+04  0.7818609E-02  0.8600386E-01
       -1   -1    0    0    0  501  0.00000000000E+00  0.00000000000E+00  0.36554034806E+03  0.36554034810E+03  0.50400001928E-02 0.  1.
        1   -1    0    0  501    0  0.00000000000E+00  0.00000000000E+00 -0.27724257824E+04  0.27724257824E+04  0.50400001928E-02 0. -1.
    10030    2    1    2    0    0  0.00000000000E+00  0.00000000000E+00 -0.24068854343E+04  0.31379661305E+04  0.20133886714E+04 0.  0.
        1    1    3    3  502    0  0.77494643701E+03 -0.62354343604E+03 -0.14453198186E+04  0.17545078441E+04  0.50400001928E-02 0. -1.
       -1    1    3    3    0  502 -0.77494643701E+03  0.62354343604E+03 -0.96156561574E+03  0.13834582864E+04  0.50400001928E-02 0.  1.
</event>
<event>
 5   0  0.6028501E-05  0.1993234E+04  0.7818609E-02  0.8609791E-01
        1   -1    0    0  501    0  0.00000000000E+00  0.00000000000E+00  0.88759687955E+03  0.88759687956E+03  0.50400001928E-02 0. -1.
       -1   -1    0    0    0  501  0.00000000000E+00  0.00000000000E+00 -0.11190277045E+04  0.11190277046E+04  0.50400001928E-02 0.  1.
    10030    2    1    2    0    0  0.00000000000E+00  0.00000000000E+00 -0.23143082499E+03  0.20066245841E+04  0.19932340542E+04 0.  0.
        4    1    3    3  502    0  0.50065389124E+03  0.18526770909E+03 -0.96295425178E+03  0.11010272234E+04  0.12699999809E+01 0.  1.
       -4    1    3    3    0  502 -0.50065389124E+03 -0.18526770909E+03  0.73152342678E+03  0.90559736068E+03  0.12699999809E+01 0. -1.
</event>
<event>
 5   0  0.4479000E-05  0.2022867E+04  0.7818609E-02  0.8596004E-01
        3   -1    0    0  501    0  0.00000000000E+00  0.00000000000E+00  0.76497384593E+03  0.76497385259E+03  0.10100000352E+00 0.  1.
       -3   -1    0    0    0  501  0.00000000000E+00  0.00000000000E+00 -0.13372976762E+04  0.13372976800E+04  0.10100000352E+00 0. -1.
    10030    2    1    2    0    0  0.00000000000E+00  0.00000000000E+00 -0.57232383024E+03  0.21022715326E+04  0.20228670322E+04 0.  0.
        4    1    3    3  502    0 -0.17873798622E+03  0.64493396052E+03 -0.10742895918E+04  0.12656961804E+04  0.12699999809E+01 0. -1.
       -4    1    3    3    0  502  0.17873798622E+03 -0.64493396052E+03  0.50196576157E+03  0.83657535216E+03  0.12699999809E+01 0.  1.
</event>
<event>
 5   0  0.6168338E-05  0.1996580E+04  0.7818609E-02  0.8608221E-01
        1   -1    0    0  501    0  0.00000000000E+00  0.00000000000E+00  0.14415819358E+04  0.14415819358E+04  0.50400001928E-02 0.  1.
       -1   -1    0    0    0  501  0.00000000000E+00  0.00000000000E+00 -0.69131219365E+03  0.69131219367E+03  0.50400001928E-02 0. -1.
    10030    2    1    2    0    0  0.00000000000E+00  0.00000000000E+00  0.75026974213E+03  0.21328941295E+04  0.19965802467E+04 0.  0.
        5    1    3    3  502    0  0.91850794494E+03 -0.29165449403E+03  0.96887222351E+02  0.96857029309E+03  0.46999998093E+01 0. -1.
       -5    1    3    3    0  502 -0.91850794494E+03  0.29165449403E+03  0.65338251978E+03  0.11643238364E+04  0.46999998093E+01 0.  1.
</event>
<event>
 5   0  0.1244229E-04  0.1991626E+04  0.7818609E-02  0.8610546E-01
       -2   -1    0    0    0  501  0.00000000000E+00  0.00000000000E+00  0.70402411986E+03  0.70402411986E+03  0.25500000920E-02 0.  1.
        2   -1    0    0  501    0  0.00000000000E+00  0.00000000000E+00 -0.14085357533E+04  0.14085357533E+04  0.25500000920E-02 0. -1.
    10030    2    1    2    0    0  0.00000000000E+00  0.00000000000E+00 -0.70451163341E+03  0.21125598731E+04  0.19916256114E+04 0.  0.
        5    1    3    3  502    0  0.90418609492E+03  0.14460554856E+03 -0.76737315841E+03  0.11947162480E+04  0.46999998093E+01 0.  1.
       -5    1    3    3    0  502 -0.90418609492E+03 -0.14460554856E+03  0.62861525004E+02  0.91784362516E+03  0.46999998093E+01 0. -1.
</event>
<event>
 5   0  0.1244229E-04  0.2004655E+04  0.7818609E-02  0.8604447E-01
       -2   -1    0    0    0  501  0.00000000000E+00  0.00000000000E+00  0.40324849049E+03  0.40324849050E+03  0.25500000920E-02 0. -1.
        2   -1    0    0  501    0  0.00000000000E+00  0.00000000000E+00 -0.24914176808E+04  0.24914176808E+04  0.25500000920E-02 0.  1.
    10030    2    1    2    0    0  0.00000000000E+00  0.00000000000E+00 -0.20881691903E+04  0.28946661713E+04  0.20046550017E+04 0.  0.
        5    1    3    3  502    0 -0.26775758078E+03  0.95775177383E+03 -0.12247586269E+04  0.15776686492E+04  0.46999998093E+01 0.  1.
       -5    1    3    3    0  502  0.26775758078E+03 -0.95775177383E+03 -0.86341056339E+03  0.13169975221E+04  0.46999998093E+01 0. -1.
</event>
<event>
 5   0  0.1159914E-04  0.2014648E+04  0.7818609E-02  0.8599803E-01
       -2   -1    0    0    0  501  0.00000000000E+00  0.00000000000E+00  0.73127235495E+03  0.73127235496E+03  0.25500000920E-02 0.  1.
        2   -1    0    0  501    0  0.00000000000E+00  0.00000000000E+00 -0.13875835900E+04  0.13875835900E+04  0.25500000920E-02 0. -1.
    10030    2    1    2    0    0  0.00000000000E+00  0.00000000000E+00 -0.65631123507E+03  0.21188559450E+04  0.20146478795E+04 0.  0.
        3    1    3    3  502    0 -0.64976054452E+02 -0.47763253406E+03 -0.12584104421E+04  0.13475724753E+04  0.10100000352E+00 0. -1.
       -3    1    3    3    0  502  0.64976054452E+02  0.47763253406E+03  0.60209920704E+03  0.77128346966E+03  0.10100000352E+00 0.  1.
</event>
<event>
 5   0  0.1244229E-04  0.1987158E+04  0.7818609E-02  0.8612648E-01
        2   -1    0    0  501    0  0.00000000000E+00  0.00000000000E+00  0.67015959364E+03  0.67015959365E+03  0.25500000920E-02 0.  1.
       -2   -1    0    0    0  501  0.00000000000E+00  0.00000000000E+00 -0.14730804143E+04  0.14730804143E+04  0.25500000920E-02 0. -1.
    10030    2    1    2    0    0  0.00000000000E+00  0.00000000000E+00 -0.80292082068E+03  0.21432400080E+04  0.19871577410E+04 0.  0.
        5    1    3    3  502    0 -0.82688681664E+03  0.69691028371E+02 -0.99080260761E+03  0.12924049459E+04  0.46999998093E+01 0. -1.
       -5    1    3    3    0  502  0.82688681664E+03 -0.69691028371E+02  0.18788178693E+03  0.85083506206E+03  0.46999998093E+01 0.  1.
</event>
<event>
 5   0  0.6222733E-05  0.1960481E+04  0.7818609E-02  0.8625323E-01
        1   -1    0    0  501    0  0.00000000000E+00  0.00000000000E+00  0.17279390593E+04  0.17279390593E+04  0.50400001928E-02 0.  1.
       -1   -1    0    0    0  501  0.00000000000E+00  0.00000000000E+00 -0.55607952960E+03  0.55607952962E+03  0.50400001928E-02 0. -1.
    10030    2    1    2    0    0  0.00000000000E+00  0.00000000000E+00  0.11718595297E+04  0.22840185889E+04  0.19604811035E+04 0.  0.
        2    1    3    3  502    0  0.17155918861E+03  0.78820362637E+03  0.12347728612E+04  0.14749106856E+04  0.25500000920E-02 0.  1.
       -2    1    3    3    0  502 -0.17155918861E+03 -0.78820362637E+03 -0.62913331538E+02  0.80910790326E+03  0.25500000920E-02 0. -1.
</event>
<event>
 5   0  0.1159914E-04  0.2007880E+04  0.7818609E-02  0.8602945E-01
        2   -1    0    0  501    0  0.00000000000E+00  0.00000000000E+00  0.19668916821E+04  0.19668916821E+04  0.25500000920E-02 0.  1.
       -2   -1    0    0    0  501  0.00000000000E+00  0.00000000000E+00 -0.51243071747E+03  0.51243071748E+03  0.25500000920E-02 0. -1.
    10030    2    1    2    0    0  0.00000000000E+00  0.00000000000E+00  0.14544609646E+04  0.24793223996E+04  0.20078801915E+04 0.  0.
        3    1    3    3  502    0  0.26872879702E+03 -0.36473747758E+03 -0.37903034029E+03  0.59068824515E+03  0.10100000352E+00 0. -1.
       -3    1    3    3    0  502 -0.26872879702E+03  0.36473747758E+03  0.18334913049E+04  0.18886341544E+04  0.10100000352E+00 0.  1.
</event>
<event>
 5   0  0.1242761E-04  0.1963831E+04  0.7818609E-02  0.8623720E-01
        2   -1    0    0  501    0  0.00000000000E+00  0.00000000000E+00  0.14883065151E+04  0.14883065151E+04  0.25500000920E-02 0. -1.
       -2   -1    0    0    0  501  0.00000000000E+00  0.00000000000E+00 -0.64782246208E+03  0.64782246209E+03  0.25500000920E-02 0.  1.
    10030    2    1    2    0    0  0.00000000000E+00  0.00000000000E+00  0.84048405300E+03  0.21361289772E+04  0.19638313481E+04 0.  0.
        4    1    3    3  502    0  0.16949392505E+03 -0.31812422264E+03  0.14137355283E+04  0.14589657188E+04  0.12699999809E+01 0. -1.
       -4    1    3    3    0  502 -0.16949392505E+03  0.31812422264E+03 -0.57325147532E+03  0.67716325839E+03  0.12699999809E+01 0.  1.
</event>
<event>
 5   0  0.1159914E-04  0.2000989E+04  0.7818609E-02  0.8606159E-01
        2   -1    0    0  501    0  0.00000000000E+00  0.00000000000E+00  0.15895230757E+04  0.15895230757E+04  0.25500000920E-02 0.  1.
       -2   -1    0    0    0  501  0.00000000000E+00  0.00000000000E+00 -0.62974174742E+03  0.62974174743E+03  0.25500000920E-02 0. -1.
    10030    2    1    2    0    0  0.00000000000E+00  0.00000000000E+00  0.95978132826E+03  0.22192648231E+04  0.20009887948E+04 0.  0.
        3    1    3    3  502    0  0.70734040299E+03 -0.61182058137E+03  0.85683175247E+02  0.93914667982E+03  0.10100000352E+00 0. -1.
       -3    1    3    3    0  502 -0.70734040299E+03  0.61182058137E+03  0.87409815302E+03  0.12801181433E+04  0.10100000352E+00 0.  1.
</event>
<event>
 5   0  0.6222733E-05  0.2013627E+04  0.7818609E-02  0.8600276E-01
       -1   -1    0    0    0  501  0.00000000000E+00  0.00000000000E+00  0.47699638469E+03  0.47699638472E+03  0.50400001928E-02 0. -1.
        1   -1    0    0  501    0  0.00000000000E+00  0.00000000000E+00 -0.21251176067E+04  0.21251176067E+04  0.50400001928E-02 0.  1.
    10030    2    1    2    0    0  0.00000000000E+00  0.00000000000E+00 -0.16481212220E+04  0.26021139914E+04  0.20136269918E+04 0.  0.
        2    1    3    3  502    0  0.14098224514E+03  0.57781600740E+03 -0.18738325047E+04  0.19659592029E+04  0.25500000920E-02 0.  1.
       -2    1    3    3    0  502 -0.14098224514E+03 -0.57781600740E+03  0.22571128266E+03  0.63615478854E+03  0.25500000920E-02 0. -1.
</event>
<event>
 5   0  0.1281789E-04  0.1996670E+04  0.7818609E-02  0.8608179E-01
       -2   -1    0    0    0  501  0.00000000000E+00  0.00000000000E+00  0.46056062444E+03  0.46056062445E+03  0.25500000920E-02 0. -1.
        2   -1    0    0  501    0  0.00000000000E+00  0.00000000000E+00 -0.21640426633E+04  0.21640426633E+04  0.25500000920E-02 0.  1.
    10030    2    1    2    0    0  0.00000000000E+00  0.00000000000E+00 -0.17034820388E+04  0.26246032877E+04  0.19966700682E+04 0.  0.
        2    1    3    3  502    0 -0.71963907703E+03  0.53174727261E+03 -0.26973605129E+03  0.93455502807E+03  0.25500000920E-02 0. -1.
       -2    1    3    3    0  502  0.71963907703E+03 -0.53174727261E+03 -0.14337459875E+04  0.16900482596E+04  0.25500000920E-02 0.  1.
</event>
<event>
 5   0  0.6028501E-05  0.1983149E+04  0.7818609E-02  0.8614540E-01
       -1   -1    0    0    0  501  0.00000000000E+00  0.00000000000E+00  0.18127949200E+04  0.18127949200E+04  0.50400001928E-02 0. -1.
        1   -1    0    0  501    0  0.00000000000E+00  0.00000000000E+00 -0.54237801830E+03  0.54237801833E+03  0.50400001928E-02 0.  1.
    10030    2    1    2    0    0  0.00000000000E+00  0.00000000000E+00  0.12704169017E+04  0.23551729383E+04  0.19831491283E+04 0.  0.
        4    1    3    3  502    0  0.66563551715E+03  0.23030972256E+03 -0.19364710644E+03  0.73048889433E+03  0.12699999809E+01 0.  1.
       -4    1    3    3    0  502 -0.66563551715E+03 -0.23030972256E+03  0.14640640081E+04  0.16246840440E+04  0.12699999809E+01 0. -1.
</event>
<event>
 5   0  0.6028501E-05  0.1969653E+04  0.7818609E-02  0.8620942E-01
       -1   -1    0    0    0  501  0.00000000000E+00  0.00000000000E+00  0.15316943833E+04  0.15316943833E+04  0.50400001928E-02 0. -1.
        1   -1    0    0  501    0  0.00000000000E+00  0.00000000000E+00 -0.63320936437E+03  0.63320936439E+03  0.50400001928E-02 0.  1.
    10030    2    1    2    0    0  0.00000000000E+00  0.00000000000E+00  0.89848501889E+03  0.21649037477E+04  0.19696529916E+04 0.  0.
        4    1    3    3  502    0 -0.11870156166E+03 -0.87098094620E+03  0.93731510910E+03  0.12850132669E+04  0.12699999809E+01 0.  1.
       -4    1    3    3    0  502  0.11870156166E+03  0.87098094620E+03 -0.38830090204E+02  0.87989048080E+03  0.12699999809E+01 0. -1.
</event>
<event>
 5   0  0.1242761E-04  0.2003559E+04  0.7818609E-02  0.8604959E-01
       -2   -1    0    0    0  501  0.00000000000E+00  0.00000000000E+00  0.48858622416E+03  0.48858622417E+03  0.25500000920E-02 0.  1.
        2   -1    0    0  501    0  0.00000000000E+00  0.00000000000E+00 -0.20540116557E+04  0.20540116557E+04  0.25500000920E-02 0. -1.
    10030    2    1    2    0    0  0.00000000000E+00  0.00000000000E+00 -0.15654254316E+04  0.25425978799E+04  0.20035586333E+04 0.  0.
        4    1    3    3  502    0 -0.22944464546E+03 -0.53139872257E+03 -0.18203278904E+04  0.19101373482E+04  0.12699999809E+01 0. -1.
       -4    1    3    3    0  502  0.22944464546E+03  0.53139872257E+03  0.25490245883E+03  0.63246053165E+03  0.12699999809E+01 0.  1.
</event>
<event>
 5   0  0.6214547E-05  0.2006272E+04  0.7818609E-02  0.8603694E-01
        1   -1    0    0  501    0  0.00000000000E+00  0.00000000000E+00  0.17970589768E+04  0.17970589768E+04  0.50400001928E-02 0.  1.
       -1   -1    0    0    0  501  0.00000000000E+00  0.00000000000E+00 -0.55996034182E+03  0.55996034184E+03  0.50400001928E-02 0. -1.
    10030    2    1    2    0    0  0.00000000000E+00  0.00000000000E+00  0.12370986350E+04  0.23570193187E+04  0.20062719247E+04 0.  0.
        3    1    3    3  502    0  0.18810843293E+03  0.62930385324E+03  0.15093069223E+04  0.16460302301E+04  0.10100000352E+00 0.  1.
       -3    1    3    3    0  502 -0.18810843293E+03 -0.62930385324E+03 -0.27220828733E+03  0.71098908862E+03  0.10100000352E+00 0. -1.
</event>
<event>
 5   0  0.4479000E-05  0.2010333E+04  0.7818609E-02  0.8601805E-01
        4   -1    0    0  501    0  0.00000000000E+00  0.00000000000E+00  0.76817254364E+03  0.76817359347E+03  0.12699999809E+01 0. -1.
       -4   -1    0    0    0  501  0.00000000000E+00  0.00000000000E+00 -0.13152745054E+04  0.13152751186E+04  0.12699999809E+01 0.  1.
    10030    2    1    2    0    0  0.00000000000E+00  0.00000000000E+00 -0.54710196180E+03  0.20834487121E+04  0.20103328031E+04 0.  0.
        5    1    3    3  502    0 -0.17171217315E+03 -0.57444178865E+03  0.56255559081E+03  0.82216745357E+03  0.46999998093E+01 0. -1.
       -5    1    3    3    0  502  0.17171217315E+03  0.57444178865E+03 -0.11096575526E+04  0.12612812585E+04  0.46999998093E+01 0.  1.
</event>
<event>
 5   0  0.1159914E-04  0.1971810E+04  0.7818609E-02  0.8619915E-01
       -2   -1    0    0    0  501  0.00000000000E+00  0.00000000000E+00  0.89262975433E+03  0.89262975434E+03  0.25500000920E-02 0. -1.
        2   -1    0    0  501    0  0.00000000000E+00  0.00000000000E+00 -0.10889275552E+04  0.10889275552E+04  0.25500000920E-02 0.  1.
    10030    2    1    2    0    0  0.00000000000E+00  0.00000000000E+00 -0.19629780086E+03  0.19815573095E+04  0.19718104737E+04 0.  0.
        3    1    3    3  502    0  0.36516336038E+03  0.74680095866E+03 -0.63081914788E+03  0.10435462420E+04  0.10100000352E+00 0.  1.
       -3    1    3    3    0  502 -0.36516336038E+03 -0.74680095866E+03  0.43452134703E+03  0.93801106755E+03  0.10100000352E+00 0. -1.
</event>
<event>
 5   0  0.1159914E-04  0.2001053E+04  0.7818609E-02  0.8606129E-01
       -2   -1    0    0    0  501  0.00000000000E+00  0.00000000000E+00  0.90292762455E+03  0.90292762455E+03  0.25500000920E-02 0. -1.
        2   -1    0    0  501    0  0.00000000000E+00  0.00000000000E+00 -0.11086747889E+04  0.11086747889E+04  0.25500000920E-02 0.  1.
    10030    2    1    2    0    0  0.00000000000E+00  0.00000000000E+00 -0.20574716439E+03  0.20116024135E+04  0.20010528165E+04 0.  0.
        3    1    3    3  502    0  0.95366657953E+03 -0.30114711073E+03 -0.13275496413E+03  0.10088574815E+04  0.10100000352E+00 0.  1.
       -3    1    3    3    0  502 -0.95366657953E+03  0.30114711073E+03 -0.72992200268E+02  0.10027449320E+04  0.10100000352E+00 0. -1.
</event>
<event>
 5   0  0.1242761E-04  0.2000679E+04  0.7818609E-02  0.8606303E-01
       -2   -1    0    0    0  501  0.00000000000E+00  0.00000000000E+00  0.16401741996E+04  0.16401741996E+04  0.25500000920E-02 0.  1.
        2   -1    0    0  501    0  0.00000000000E+00  0.00000000000E+00 -0.61010537213E+03  0.61010537214E+03  0.25500000920E-02 0. -1.
    10030    2    1    2    0    0  0.00000000000E+00  0.00000000000E+00  0.10300688275E+04  0.22502795718E+04  0.20006789752E+04 0.  0.
        4    1    3    3  502    0 -0.53565706468E+02 -0.64203980988E+03 -0.34567595654E+03  0.73114833119E+03  0.12699999809E+01 0. -1.
       -4    1    3    3    0  502  0.53565706468E+02  0.64203980988E+03  0.13757447840E+04  0.15191312406E+04  0.12699999809E+01 0.  1.
</event>
<event>
 5   0  0.6256535E-05  0.2002170E+04  0.7818609E-02  0.8605607E-01
       -1   -1    0    0    0  501  0.00000000000E+00  0.00000000000E+00  0.14744791281E+04  0.14744791282E+04  0.50400001928E-02 0. -1.
        1   -1    0    0  501    0  0.00000000000E+00  0.00000000000E+00 -0.67967841243E+03  0.67967841245E+03  0.50400001928E-02 0.  1.
    10030    2    1    2    0    0  0.00000000000E+00  0.00000000000E+00  0.79480071572E+03  0.21541575406E+04  0.20021704553E+04 0.  0.
        1    1    3    3  502    0  0.25579591669E+03 -0.42886520364E+03 -0.53611284351E+03  0.73264854800E+03  0.50400001928E-02 0.  1.
       -1    1    3    3    0  502 -0.25579591669E+03  0.42886520364E+03  0.13309135592E+04  0.14215089926E+04  0.50400001928E-02 0. -1.
</event>
<event>
 5   0  0.1242761E-04  0.2010838E+04  0.7818609E-02  0.8601570E-01
        2   -1    0    0  501    0  0.00000000000E+00  0.00000000000E+00  0.23887463027E+04  0.23887463027E+04  0.25500000920E-02 0. -1.
       -2   -1    0    0    0  501  0.00000000000E+00  0.00000000000E+00 -0.42317905220E+03  0.42317905220E+03  0.25500000920E-02 0.  1.
    10030    2    1    2    0    0  0.00000000000E+00  0.00000000000E+00  0.19655672505E+04  0.28119253549E+04  0.20108380306E+04 0.  0.
        4    1    3    3  502    0 -0.51201879710E+03 -0.83033450374E+03  0.13231607909E+04  0.16438901205E+04  0.12699999809E+01 0. -1.
       -4    1    3    3    0  502  0.51201879710E+03  0.83033450374E+03  0.64240645964E+03  0.11680352345E+04  0.12699999809E+01 0.  1.
</event>
<event>
 5   0  0.6214547E-05  0.1992311E+04  0.7818609E-02  0.8610224E-01
        1   -1    0    0  501    0  0.00000000000E+00  0.00000000000E+00  0.14833109299E+04  0.14833109299E+04  0.50400001928E-02 0. -1.
       -1   -1    0    0    0  501  0.00000000000E+00  0.00000000000E+00 -0.66899376971E+03  0.66899376973E+03  0.50400001928E-02 0.  1.
    10030    2    1    2    0    0  0.00000000000E+00  0.00000000000E+00  0.81431716018E+03  0.21523046996E+04  0.19923109905E+04 0.  0.
        3    1    3    3  502    0 -0.17816837556E+03 -0.61258366679E+03 -0.41934441864E+03  0.76344775231E+03  0.10100000352E+00 0.  1.
       -3    1    3    3    0  502  0.17816837556E+03  0.61258366679E+03  0.12336615788E+04  0.13888569473E+04  0.10100000352E+00 0. -1.
</event>
<event>
 5   0  0.1159914E-04  0.1998998E+04  0.7818609E-02  0.8607089E-01
        2   -1    0    0  501    0  0.00000000000E+00  0.00000000000E+00  0.95592904690E+03  0.95592904690E+03  0.25500000920E-02 0. -1.
       -2   -1    0    0    0  501  0.00000000000E+00  0.00000000000E+00 -0.10450543216E+04  0.10450543216E+04  0.25500000920E-02 0.  1.
    10030    2    1    2    0    0  0.00000000000E+00  0.00000000000E+00 -0.89125274724E+02  0.20009833685E+04  0.19989975304E+04 0.  0.
        3    1    3    3  502    0  0.25677072944E+03  0.46086658404E+03 -0.89432796712E+03  0.10383408587E+04  0.10100000352E+00 0.  1.
       -3    1    3    3    0  502 -0.25677072944E+03 -0.46086658404E+03  0.80520269239E+03  0.96264250987E+03  0.10100000352E+00 0. -1.
</event>
<event>
 5   0  0.1159914E-04  0.2012669E+04  0.7818609E-02  0.8600720E-01
       -2   -1    0    0    0  501  0.00000000000E+00  0.00000000000E+00  0.52003802820E+03  0.52003802821E+03  0.25500000920E-02 0.  1.
        2   -1    0    0  501    0  0.00000000000E+00  0.00000000000E+00 -0.19473751746E+04  0.19473751746E+04  0.25500000920E-02 0. -1.
    10030    2    1    2    0    0  0.00000000000E+00  0.00000000000E+00 -0.14273371464E+04  0.24674132028E+04  0.20126690200E+04 0.  0.
        3    1    3    3  502    0 -0.22429056000E+03  0.19892773599E+03 -0.18913573178E+04  0.19149702382E+04  0.10100000352E+00 0. -1.
       -3    1    3    3    0  502  0.22429056000E+03 -0.19892773599E+03  0.46402017141E+03  0.55244296459E+03  0.10100000352E+00 0.  1.
</event>
<event>
 5   0  0.6028501E-05  0.1999348E+04  0.7818609E-02  0.8606925E-01
       -1   -1    0    0    0  501  0.00000000000E+00  0.00000000000E+00  0.82494929421E+03  0.82494929422E+03  0.50400001928E-02 0.  1.
        1   -1    0    0  501    0  0.00000000000E+00  0.00000000000E+00 -0.12114057244E+04  0.12114057244E+04  0.50400001928E-02 0. -1.
    10030    2    1    2    0    0  0.00000000000E+00  0.00000000000E+00 -0.38645643020E+03  0.20363550186E+04  0.19993481912E+04 0.  0.
        4    1    3    3  502    0 -0.88894019265E+03  0.45060396823E+03 -0.27269859964E+03  0.10332592808E+04  0.12699999809E+01 0. -1.
       -4    1    3    3    0  502  0.88894019265E+03 -0.45060396823E+03 -0.11375783056E+03  0.10030957378E+04  0.12699999809E+01 0.  1.
</event>
<event>
 5   0  0.6256535E-05  0.1999813E+04  0.7818609E-02  0.8606708E-01
        1   -1    0    0  501    0  0.00000000000E+00  0.00000000000E+00  0.11808665870E+04  0.11808665870E+04  0.50400001928E-02 0.  1.
       -1   -1    0    0    0  501  0.00000000000E+00  0.00000000000E+00 -0.84667721692E+03  0.84667721694E+03  0.50400001928E-02 0. -1.
    10030    2    1    2    0    0  0.00000000000E+00  0.00000000000E+00  0.33418937005E+03  0.20275438039E+04  0.19998128267E+04 0.  0.
        1    1    3    3  502    0 -0.98620661960E+02  0.13040500652E+03 -0.83303304098E+03  0.84892611462E+03  0.50400001928E-02 0. -1.
       -1    1    3    3    0  502  0.98620661960E+02 -0.13040500652E+03  0.11672224110E+04  0.11786176893E+04  0.50400001928E-02 0.  1.
</event>
<event>
 5   0  0.1274868E-04  0.1893927E+04  0.7818609E-02  0.8657885E-01
       -2   -1    0    0    0  501  0.00000000000E+00  0.00000000000E+00  0.87242386812E+03  0.87242386813E+03  0.25500000920E-02 0. -1.
        2   -1    0    0  501    0  0.00000000000E+00  0.00000000000E+00 -0.10278723078E+04  0.10278723078E+04  0.25500000920E-02 0.  1.
    10030    2    1    2    0    0  0.00000000000E+00  0.00000000000E+00 -0.15544843966E+03  0.19002961759E+04  0.18939274904E+04 0.  0.
        1    1    3    3  502    0  0.69298345272E+03 -0.14677245044E+03  0.55285719301E+03  0.89856513055E+03  0.50400001928E-02 0. -1.
       -1    1    3    3    0  502 -0.69298345272E+03  0.14677245044E+03 -0.70830563267E+03  0.10017310454E+04  0.50400001928E-02 0.  1.
</event>
<event>
 5   0  0.6028501E-05  0.1991569E+04  0.7818609E-02  0.8610573E-01
        1   -1    0    0  501    0  0.00000000000E+00  0.00000000000E+00  0.25230946309E+04  0.25230946309E+04  0.50400001928E-02 0.  1.
       -1   -1    0    0    0  501  0.00000000000E+00  0.00000000000E+00 -0.39300408798E+03  0.39300408801E+03  0.50400001928E-02 0. -1.
    10030    2    1    2    0    0  0.00000000000E+00  0.00000000000E+00  0.21300905430E+04  0.29160987190E+04  0.19915687328E+04 0.  0.
        4    1    3    3  502    0 -0.19121832352E+03  0.19777472576E+03 -0.33625846639E+03  0.43445443779E+03  0.12699999809E+01 0. -1.
       -4    1    3    3    0  502  0.19121832352E+03 -0.19777472576E+03  0.24663490094E+04  0.24816442812E+04  0.12699999809E+01 0.  1.
</event>
<event>
 5   0  0.1244229E-04  0.1991054E+04  0.7818609E-02  0.8610815E-01
       -2   -1    0    0    0  501  0.00000000000E+00  0.00000000000E+00  0.15924920334E+04  0.15924920334E+04  0.25500000920E-02 0.  1.
        2   -1    0    0  501    0  0.00000000000E+00  0.00000000000E+00 -0.62234171053E+03  0.62234171053E+03  0.25500000920E-02 0. -1.
    10030    2    1    2    0    0  0.00000000000E+00  0.00000000000E+00  0.97015032289E+03  0.22148337439E+04  0.19910542093E+04 0.  0.
        5    1    3    3  502    0 -0.62587090879E+03  0.65760090165E+02  0.13431425550E+04  0.14832709789E+04  0.46999998093E+01 0.  1.
       -5    1    3    3    0  502  0.62587090879E+03 -0.65760090165E+02 -0.37299223211E+03  0.73156276500E+03  0.46999998093E+01 0. -1.
</event>
<event>
 5   0  0.6222733E-05  0.1914363E+04  0.7818609E-02  0.8647740E-01
       -1   -1    0    0    0  501  0.00000000000E+00  0.00000000000E+00  0.80803958197E+03  0.80803958199E+03  0.50400001928E-02 0.  1.
        1   -1    0    0  501    0  0.00000000000E+00  0.00000000000E+00 -0.11338507552E+04  0.11338507552E+04  0.50400001928E-02 0. -1.
    10030    2    1    2    0    0  0.00000000000E+00  0.00000000000E+00 -0.32581117327E+03  0.19418903372E+04  0.19143628604E+04 0.  0.
        2    1    3    3  502    0 -0.39536454457E+03  0.52578437297E+03 -0.86819768500E+03  0.10892793720E+04  0.25500000920E-02 0. -1.
       -2    1    3    3    0  502  0.39536454457E+03 -0.52578437297E+03  0.54238651174E+03  0.85261096526E+03  0.25500000920E-02 0.  1.
</event>
<event>
 5   0  0.6168338E-05  0.1986548E+04  0.7818609E-02  0.8612936E-01
        1   -1    0    0  501    0  0.00000000000E+00  0.00000000000E+00  0.96439948185E+03  0.96439948187E+03  0.50400001928E-02 0.  1.
       -1   -1    0    0    0  501  0.00000000000E+00  0.00000000000E+00 -0.10230133471E+04  0.10230133471E+04  0.50400001928E-02 0. -1.
    10030    2    1    2    0    0  0.00000000000E+00  0.00000000000E+00 -0.58613865270E+02  0.19874128290E+04  0.19865483049E+04 0.  0.
        5    1    3    3  502    0 -0.95692272772E+03 -0.19224492046E+03 -0.21353982475E+03  0.99913991164E+03  0.46999998093E+01 0. -1.
       -5    1    3    3    0  502  0.95692272772E+03  0.19224492046E+03  0.15492595948E+03  0.98827291736E+03  0.46999998093E+01 0.  1.
</event>
<event>
 5   0  0.6256535E-05  0.1994195E+04  0.7818609E-02  0.8609339E-01
        1   -1    0    0  501    0  0.00000000000E+00  0.00000000000E+00  0.65079847912E+03  0.65079847914E+03  0.50400001928E-02 0. -1.
       -1   -1    0    0    0  501  0.00000000000E+00  0.00000000000E+00 -0.15276675739E+04  0.15276675739E+04  0.50400001928E-02 0.  1.
    10030    2    1    2    0    0  0.00000000000E+00  0.00000000000E+00 -0.87686909477E+03  0.21784660530E+04  0.19941953101E+04 0.  0.
        1    1    3    3  502    0  0.23387353391E+03  0.61850194660E+03  0.37682517138E+03  0.76107732697E+03  0.50400001928E-02 0. -1.
       -1    1    3    3    0  502 -0.23387353391E+03 -0.61850194660E+03 -0.12536942662E+04  0.14173887261E+04  0.50400001928E-02 0.  1.
</event>
<event>
 5   0  0.1244229E-04  0.2006017E+04  0.7818609E-02  0.8603813E-01
        2   -1    0    0  501    0  0.00000000000E+00  0.00000000000E+00  0.21612957761E+04  0.21612957761E+04  0.25500000920E-02 0.  1.
       -2   -1    0    0    0  501  0.00000000000E+00  0.00000000000E+00 -0.46547349920E+03  0.46547349921E+03  0.25500000920E-02 0. -1.
    10030    2    1    2    0    0  0.00000000000E+00  0.00000000000E+00  0.16958222769E+04  0.26267692753E+04  0.20060168571E+04 0.  0.
        5    1    3    3  502    0  0.28117585981E+03  0.94699999532E+03  0.10752233027E+04  0.14601356430E+04  0.46999998093E+01 0.  1.
       -5    1    3    3    0  502 -0.28117585981E+03 -0.94699999532E+03  0.62059897422E+03  0.11666336323E+04  0.46999998093E+01 0. -1.
</event>
<event>
 5   0  0.6222733E-05  0.1946870E+04  0.7818609E-02  0.8631872E-01
       -1   -1    0    0    0  501  0.00000000000E+00  0.00000000000E+00  0.84073941436E+03  0.84073941438E+03  0.50400001928E-02 0. -1.
        1   -1    0    0  501    0  0.00000000000E+00  0.00000000000E+00 -0.11270741813E+04  0.11270741813E+04  0.50400001928E-02 0.  1.
    10030    2    1    2    0    0  0.00000000000E+00  0.00000000000E+00 -0.28633476696E+03  0.19678135957E+04  0.19468699876E+04 0.  0.
        2    1    3    3  502    0  0.65476731746E+03  0.56435984375E+02  0.58265961655E+03  0.87829237108E+03  0.25500000920E-02 0. -1.
       -2    1    3    3    0  502 -0.65476731746E+03 -0.56435984375E+02 -0.86899438350E+03  0.10895212246E+04  0.25500000920E-02 0.  1.
</event>
<event>
 5   0  0.6214547E-05  0.2009146E+04  0.7818609E-02  0.8602356E-01
       -1   -1    0    0    0  501  0.00000000000E+00  0.00000000000E+00  0.69395106006E+03  0.69395106008E+03  0.50400001928E-02 0. -1.
        1   -1    0    0  501    0  0.00000000000E+00  0.00000000000E+00 -0.14542341018E+04  0.14542341018E+04  0.50400001928E-02 0.  1.
    10030    2    1    2    0    0  0.00000000000E+00  0.00000000000E+00 -0.76028304170E+03  0.21481851619E+04  0.20091463825E+04 0.  0.
        3    1    3    3  502    0 -0.83206824305E+03 -0.10471081006E+03 -0.97146522441E+03  0.12833731364E+04  0.10100000352E+00 0.  1.
       -3    1    3    3    0  502  0.83206824305E+03  0.10471081006E+03  0.21118218272E+03  0.86481202543E+03  0.10100000352E+00 0. -1.
</event>
<event>
 5   0  0.1159914E-04  0.1999762E+04  0.7818609E-02  0.8606732E-01
        2   -1    0    0  501    0  0.00000000000E+00  0.00000000000E+00  0.10816990845E+04  0.10816990845E+04  0.25500000920E-02 0.  1.
       -2   -1    0    0    0  501  0.00000000000E+00  0.00000000000E+00 -0.92425189295E+03  0.92425189295E+03  0.25500000920E-02 0. -1.
    10030    2    1    2    0    0  0.00000000000E+00  0.00000000000E+00  0.15744719158E+03  0.20059509775E+04  0.19997624124E+04 0.  0.
        3    1    3    3  502    0  0.65626391055E+03 -0.23509469506E+03  0.79774767679E+03  0.10594117245E+04  0.10100000352E+00 0.  1.
       -3    1    3    3    0  502 -0.65626391055E+03  0.23509469506E+03 -0.64030048521E+03  0.94653925301E+03  0.10100000352E+00 0. -1.
</event>
<event>
 5   0  0.1244229E-04  0.2017625E+04  0.7818609E-02  0.8598424E-01
       -2   -1    0    0    0  501  0.00000000000E+00  0.00000000000E+00  0.11821810818E+04  0.11821810818E+04  0.25500000920E-02 0.  1.
        2   -1    0    0  501    0  0.00000000000E+00  0.00000000000E+00 -0.86086892414E+03  0.86086892415E+03  0.25500000920E-02 0. -1.
    10030    2    1    2    0    0  0.00000000000E+00  0.00000000000E+00  0.32131215762E+03  0.20430500059E+04  0.20176252933E+04 0.  0.
        5    1    3    3  502    0  0.47757596918E+02 -0.29081401192E+03 -0.81629549378E+03  0.86787902426E+03  0.46999998093E+01 0. -1.
       -5    1    3    3    0  502 -0.47757596918E+02  0.29081401192E+03  0.11376076514E+04  0.11751709816E+04  0.46999998093E+01 0.  1.
</event>
<event>
 5   0  0.1274868E-04  0.1943984E+04  0.7818609E-02  0.8633267E-01
        2   -1    0    0  501    0  0.00000000000E+00  0.00000000000E+00  0.95324769872E+03  0.95324769872E+03  0.25500000920E-02 0. -1.
       -2   -1    0    0    0  501  0.00000000000E+00  0.00000000000E+00 -0.99110538651E+03  0.99110538651E+03  0.25500000920E-02 0.  1.
    10030    2    1    2    0    0  0.00000000000E+00  0.00000000000E+00 -0.37857687788E+02  0.19443530852E+04  0.19439844947E+04 0.  0.
        1    1    3    3  502    0  0.52753034134E+03  0.27272907195E+03 -0.78855477467E+03  0.98716160805E+03  0.50400001928E-02 0.  1.
       -1    1    3    3    0  502 -0.52753034134E+03 -0.27272907195E+03  0.75069708689E+03  0.95719147719E+03  0.50400001928E-02 0. -1.
</event>
<event>
 5   0  0.6028501E-05  0.2013613E+04  0.7818609E-02  0.8600282E-01
        1   -1    0    0  501    0  0.00000000000E+00  0.00000000000E+00  0.15269410960E+04  0.15269410960E+04  0.50400001928E-02 0.  1.
       -1   -1    0    0    0  501  0.00000000000E+00  0.00000000000E+00 -0.66384996943E+03  0.66384996945E+03  0.50400001928E-02 0. -1.
    10030    2    1    2    0    0  0.00000000000E+00  0.00000000000E+00  0.86309112655E+03  0.21907910654E+04  0.20136134683E+04 0.  0.
        4    1    3    3  502    0  0.56194219044E+03 -0.78730707011E+03  0.12763444962E+03  0.97566572845E+03  0.12699999809E+01 0.  1.
       -4    1    3    3    0  502 -0.56194219044E+03  0.78730707011E+03  0.73545667693E+03  0.12151253370E+04  0.12699999809E+01 0. -1.
</event>
<event>
 5   0  0.6168338E-05  0.1997388E+04  0.7818609E-02  0.8607843E-01
       -1   -1    0    0    0  501  0.00000000000E+00  0.00000000000E+00  0.82888772683E+03  0.82888772685E+03  0.50400001928E-02 0. -1.
        1   -1    0    0  501    0  0.00000000000E+00  0.00000000000E+00 -0.12032867615E+04  0.12032867615E+04  0.50400001928E-02 0.  1.
    10030    2    1    2    0    0  0.00000000000E+00  0.00000000000E+00 -0.37439903462E+03  0.20321744883E+04  0.19973879227E+04 0.  0.
        5    1    3    3  502    0 -0.93276433002E+03  0.35186353650E+03 -0.12691991626E+03  0.10049815913E+04  0.46999998093E+01 0.  1.
       -5    1    3    3    0  502  0.93276433002E+03 -0.35186353650E+03 -0.24747911836E+03  0.10271928970E+04  0.46999998093E+01 0. -1.
</event>
<event>
 5   0  0.6256535E-05  0.1982375E+04  0.7818609E-02  0.8614906E-01
       -1   -1    0    0    0  501  0.00000000000E+00  0.00000000000E+00  0.13966045870E+04  0.13966045870E+04  0.50400001928E-02 0. -1.
        1   -1    0    0  501    0  0.00000000000E+00  0.00000000000E+00 -0.70345774746E+03  0.70345774748E+03  0.50400001928E-02 0.  1.
    10030    2    1    2    0    0  0.00000000000E+00  0.00000000000E+00  0.69314683955E+03  0.21000623345E+04  0.19823746537E+04 0.  0.
        1    1    3    3  502    0  0.35522745387E+03  0.79343523135E+03 -0.15785251344E+03  0.88354027998E+03  0.50400001928E-02 0.  1.
       -1    1    3    3    0  502 -0.35522745387E+03 -0.79343523135E+03  0.85099935299E+03  0.12165220545E+04  0.50400001928E-02 0. -1.
</event>
<event>
 5   0  0.1281789E-04  0.1938388E+04  0.7818609E-02  0.8635981E-01
       -2   -1    0    0    0  501  0.00000000000E+00  0.00000000000E+00  0.14394766810E+04  0.14394766810E+04  0.25500000920E-02 0. -1.
        2   -1    0    0  501    0  0.00000000000E+00  0.00000000000E+00 -0.65255476436E+03  0.65255476436E+03  0.25500000920E-02 0.  1.
    10030    2    1    2    0    0  0.00000000000E+00  0.00000000000E+00  0.78692191666E+03  0.20920314454E+04  0.19383883681E+04 0.  0.
        2    1    3    3  502    0 -0.54914595446E+03 -0.56461663251E+03 -0.21609272785E+03  0.81673085410E+03  0.25500000920E-02 0.  1.
       -2    1    3    3    0  502  0.54914595446E+03  0.56461663251E+03  0.10030146445E+04  0.12753005913E+04  0.25500000920E-02 0. -1.
</event>
<event>
 5   0  0.6214547E-05  0.2045343E+04  0.7818609E-02  0.8585710E-01
        1   -1    0    0  501    0  0.00000000000E+00  0.00000000000E+00  0.19619596211E+04  0.19619596211E+04  0.50400001928E-02 0.  1.
       -1   -1    0    0    0  501  0.00000000000E+00  0.00000000000E+00 -0.53306745671E+03  0.53306745673E+03  0.50400001928E-02 0. -1.
    10030    2    1    2    0    0  0.00000000000E+00  0.00000000000E+00  0.14288921644E+04  0.24950270778E+04  0.20453428323E+04 0.  0.
        3    1    3    3  502    0  0.29317873865E+02  0.10177330255E+04  0.59733488090E+03  0.11804444160E+04  0.10100000352E+00 0.  1.
       -3    1    3    3    0  502 -0.29317873865E+02 -0.10177330255E+04  0.83155728350E+03  0.13145826619E+04  0.10100000352E+00 0. -1.
</event>
<event>
 5   0  0.4479000E-05  0.2014088E+04  0.7818609E-02  0.8600062E-01
        4   -1    0    0  501    0  0.00000000000E+00  0.00000000000E+00  0.66312177793E+03  0.66312299407E+03  0.12699999809E+01 0. -1.
       -4   -1    0    0    0  501  0.00000000000E+00  0.00000000000E+00 -0.15293359707E+04  0.15293364981E+04  0.12699999809E+01 0.  1.
    10030    2    1    2    0    0  0.00000000000E+00  0.00000000000E+00 -0.86621419280E+03  0.21924594921E+04  0.20140882793E+04 0.  0.
        1    1    3    3  502    0  0.36695800267E+02 -0.99841576279E+03 -0.57061654363E+03  0.11505580633E+04  0.50400001928E-02 0. -1.
       -1    1    3    3    0  502 -0.36695800267E+02  0.99841576279E+03 -0.29559764918E+03  0.10419014288E+04  0.50400001928E-02 0.  1.
</event>
<event>
 5   0  0.6028501E-05  0.2018469E+04  0.7818609E-02  0.8598034E-01
        1   -1    0    0  501    0  0.00000000000E+00  0.00000000000E+00  0.89042723806E+03  0.89042723807E+03  0.50400001928E-02 0. -1.
       -1   -1    0    0    0  501  0.00000000000E+00  0.00000000000E+00 -0.11438935165E+04  0.11438935166E+04  0.50400001928E-02 0.  1.
    10030    2    1    2    0    0  0.00000000000E+00  0.00000000000E+00 -0.25346627849E+03  0.20343207546E+04  0.20184686716E+04 0.  0.
        4    1    3    3  502    0  0.75424997383E+03 -0.58935221313E+03 -0.44912542253E+03  0.10573288572E+04  0.12699999809E+01 0.  1.
       -4    1    3    3    0  502 -0.75424997383E+03  0.58935221313E+03  0.19565914405E+03  0.97699189746E+03  0.12699999809E+01 0. -1.
</event>
<event>
 5   0  0.1159914E-04  0.2011986E+04  0.7818609E-02  0.8601037E-01
       -2   -1    0    0    0  501  0.00000000000E+00  0.00000000000E+00  0.87956657832E+03  0.87956657833E+03  0.25500000920E-02 0.  1.
        2   -1    0    0  501    0  0.00000000000E+00  0.00000000000E+00 -0.11505916546E+04  0.11505916546E+04  0.25500000920E-02 0. -1.
    10030    2    1    2    0    0  0.00000000000E+00  0.00000000000E+00 -0.27102507625E+03  0.20301582329E+04  0.20119860483E+04 0.  0.
        3    1    3    3  502    0 -0.19806220057E+03  0.89369838196E+03 -0.55652986589E+03  0.10712847124E+04  0.10100000352E+00 0. -1.
       -3    1    3    3    0  502  0.19806220057E+03 -0.89369838196E+03  0.28550478964E+03  0.95887352050E+03  0.10100000352E+00 0.  1.
</event>
<event>
 5   0  0.1159914E-04  0.1978017E+04  0.7818609E-02  0.8616968E-01
       -2   -1    0    0    0  501  0.00000000000E+00  0.00000000000E+00  0.50890306423E+03  0.50890306423E+03  0.25500000920E-02 0. -1.
        2   -1    0    0  501    0  0.00000000000E+00  0.00000000000E+00 -0.19220508783E+04  0.19220508783E+04  0.25500000920E-02 0.  1.
    10030    2    1    2    0    0  0.00000000000E+00  0.00000000000E+00 -0.14131478141E+04  0.24309539425E+04  0.19780167659E+04 0.  0.
        3    1    3    3  502    0 -0.10981862414E+03  0.39842309790E+03  0.39769298049E+03  0.57355105447E+03  0.10100000352E+00 0. -1.
       -3    1    3    3    0  502  0.10981862414E+03 -0.39842309790E+03 -0.18108407946E+04  0.18574028881E+04  0.10100000352E+00 0.  1.
</event>
<event>
 5   0  0.6222733E-05  0.1995249E+04  0.7818609E-02  0.8608845E-01
       -1   -1    0    0    0  501  0.00000000000E+00  0.00000000000E+00  0.64835663828E+03  0.64835663830E+03  0.50400001928E-02 0. -1.
        1   -1    0    0  501    0  0.00000000000E+00  0.00000000000E+00 -0.15350416196E+04  0.15350416196E+04  0.50400001928E-02 0.  1.
    10030    2    1    2    0    0  0.00000000000E+00  0.00000000000E+00 -0.88668498132E+03  0.21833982579E+04  0.19952487806E+04 0.  0.
        2    1    3    3  502    0  0.97741533362E+03 -0.11606478233E+03 -0.26539640332E+03  0.10194346566E+04  0.25500000920E-02 0.  1.
       -2    1    3    3    0  502 -0.97741533362E+03  0.11606478233E+03 -0.62128857801E+03  0.11639636013E+04  0.25500000920E-02 0. -1.
</event>
<event>
 5   0  0.6168338E-05  0.2016162E+04  0.7818609E-02  0.8599101E-01
       -1   -1    0    0    0  501  0.00000000000E+00  0.00000000000E+00  0.66443218285E+03  0.66443218287E+03  0.50400001928E-02 0. -1.
        1   -1    0    0  501    0  0.00000000000E+00  0.00000000000E+00 -0.15294675582E+04  0.15294675582E+04  0.50400001928E-02 0.  1.
    10030    2    1    2    0    0  0.00000000000E+00  0.00000000000E+00 -0.86503537532E+03  0.21938997410E+04  0.20161621644E+04 0.  0.
        5    1    3    3  502    0 -0.36038658113E+03 -0.25282388362E+03  0.55429496384E+03  0.70785831981E+03  0.46999998093E+01 0. -1.
       -5    1    3    3    0  502  0.36038658113E+03  0.25282388362E+03 -0.14193303392E+04  0.14860414212E+04  0.46999998093E+01 0.  1.
</event>
<event>
 5   0  0.1244229E-04  0.1999397E+04  0.7818609E-02  0.8606903E-01
        2   -1    0    0  501    0  0.00000000000E+00  0.00000000000E+00  0.18705497415E+04  0.18705497415E+04  0.25500000920E-02 0. -1.
       -2   -1    0    0    0  501  0.00000000000E+00  0.00000000000E+00 -0.53427970578E+03  0.53427970579E+03  0.25500000920E-02 0.  1.
    10030    2    1    2    0    0  0.00000000000E+00  0.00000000000E+00  0.13362700357E+04  0.24048294473E+04  0.19993966745E+04 0.  0.
        5    1    3    3  502    0  0.25476012474E+03  0.57152882022E+03  0.16058594351E+04  0.17234716501E+04  0.46999998093E+01 0. -1.
       -5    1    3    3    0  502 -0.25476012474E+03 -0.57152882022E+03 -0.26958939938E+03  0.68135779716E+03  0.46999998093E+01 0.  1.
</event>
<event>
 5   0  0.1274868E-04  0.1970894E+04  0.7818609E-02  0.8620351E-01
       -2   -1    0    0    0  501  0.00000000000E+00  0.00000000000E+00  0.12128420314E+04  0.12128420314E+04  0.25500000920E-02 0. -1.
        2   -1    0    0  501    0  0.00000000000E+00  0.00000000000E+00 -0.80068638170E+03  0.80068638170E+03  0.25500000920E-02 0.  1.
    10030    2    1    2    0    0  0.00000000000E+00  0.00000000000E+00  0.41215564967E+03  0.20135284131E+04  0.19708943124E+04 0.  0.
        1    1    3    3  502    0 -0.39727949072E+02 -0.14276895087E+03 -0.78923744238E+03  0.80302990215E+03  0.50400001928E-02 0.  1.
       -1    1    3    3    0  502  0.39727949072E+02  0.14276895087E+03  0.12013930920E+04  0.12104985109E+04  0.50400001928E-02 0. -1.
</event>
<event>
 5   0  0.4479000E-05  0.2022374E+04  0.7818609E-02  0.8596231E-01
        3   -1    0    0  501    0  0.00000000000E+00  0.00000000000E+00  0.66746860500E+03  0.66746861264E+03  0.10100000352E+00 0.  1.
       -3   -1    0    0    0  501  0.00000000000E+00  0.00000000000E+00 -0.15319052514E+04  0.15319052548E+04  0.10100000352E+00 0. -1.
    10030    2    1    2    0    0  0.00000000000E+00  0.00000000000E+00 -0.86443664644E+03  0.21993738674E+04  0.20223735295E+04 0.  0.
        1    1    3    3  502    0 -0.27659957374E+03  0.26830878111E+03  0.58448405317E+03  0.70008466248E+03  0.50400001928E-02 0.  1.
       -1    1    3    3    0  502  0.27659957374E+03 -0.26830878111E+03 -0.14489206996E+04  0.14992892049E+04  0.50400001928E-02 0. -1.
</event>
<event>
 5   0  0.6028501E-05  0.1982067E+04  0.7818609E-02  0.8615051E-01
       -1   -1    0    0    0  501  0.00000000000E+00  0.00000000000E+00  0.91721057404E+03  0.91721057405E+03  0.50400001928E-02 0.  1.
        1   -1    0    0  501    0  0.00000000000E+00  0.00000000000E+00 -0.10707984396E+04  0.10707984396E+04  0.50400001928E-02 0. -1.
    10030    2    1    2    0    0  0.00000000000E+00  0.00000000000E+00 -0.15358786553E+03  0.19880090136E+04  0.19820672556E+04 0.  0.
        4    1    3    3  502    0  0.55313953853E+03  0.75622633914E+03  0.24713616709E+03  0.96897859784E+03  0.12699999809E+01 0. -1.
       -4    1    3    3    0  502 -0.55313953853E+03 -0.75622633914E+03 -0.40072403262E+03  0.10190304158E+04  0.12699999809E+01 0.  1.
</event>
<event>
 5   0  0.1242761E-04  0.1942299E+04  0.7818609E-02  0.8634083E-01
       -2   -1    0    0    0  501  0.00000000000E+00  0.00000000000E+00  0.55637680841E+03  0.55637680842E+03  0.25500000920E-02 0.  1.
        2   -1    0    0  501    0  0.00000000000E+00  0.00000000000E+00 -0.16951305099E+04  0.16951305099E+04  0.25500000920E-02 0. -1.
    10030    2    1    2    0    0  0.00000000000E+00  0.00000000000E+00 -0.11387537014E+04  0.22515073183E+04  0.19422989501E+04 0.  0.
        4    1    3    3  502    0 -0.74959815287E+03 -0.58876105902E+02  0.14309656744E+03  0.76540317947E+03  0.12699999809E+01 0.  1.
       -4    1    3    3    0  502  0.74959815287E+03  0.58876105902E+02 -0.12818502689E+04  0.14861041388E+04  0.12699999809E+01 0. -1.
</event>
<event>
 5   0  0.1159914E-04  0.1978403E+04  0.7818609E-02  0.8616785E-01
       -2   -1    0    0    0  501  0.00000000000E+00  0.00000000000E+00  0.49608315903E+03  0.49608315904E+03  0.25500000920E-02 0.  1.
        2   -1    0    0  501    0  0.00000000000E+00  0.00000000000E+00 -0.19724914756E+04  0.19724914756E+04  0.25500000920E-02 0. -1.
    10030    2    1    2    0    0  0.00000000000E+00  0.00000000000E+00 -0.14764083165E+04  0.24685746346E+04  0.19784031969E+04 0.  0.
        3    1    3    3  502    0 -0.96918192899E+03 -0.15217434414E+02 -0.98453701770E+03  0.13816143931E+04  0.10100000352E+00 0. -1.
       -3    1    3    3    0  502  0.96918192899E+03  0.15217434414E+02 -0.49187129883E+03  0.10869602415E+04  0.10100000352E+00 0.  1.
</event>
<event>
 5   0  0.1244229E-04  0.2006876E+04  0.7818609E-02  0.8603413E-01
        2   -1    0    0  501    0  0.00000000000E+00  0.00000000000E+00  0.10893381939E+04  0.10893381939E+04  0.25500000920E-02 0. -1.
       -2   -1    0    0    0  501  0.00000000000E+00  0.00000000000E+00 -0.92431179244E+03  0.92431179244E+03  0.25500000920E-02 0.  1.
    10030    2    1    2    0    0  0.00000000000E+00  0.00000000000E+00  0.16502640151E+03  0.20136499864E+04  0.20068763177E+04 0.  0.
        5    1    3    3  502    0 -0.82715863661E+03  0.55804658300E+03 -0.23951718484E+02  0.99809978145E+03  0.46999998093E+01 0.  1.
       -5    1    3    3    0  502  0.82715863661E+03 -0.55804658300E+03  0.18897811999E+03  0.10155502049E+04  0.46999998093E+01 0. -1.
</event>
<event>
 5   0  0.1244229E-04  0.2008038E+04  0.7818609E-02  0.8602872E-01
        2   -1    0    0  501    0  0.00000000000E+00  0.00000000000E+00  0.18469472865E+04  0.18469472865E+04  0.25500000920E-02 0. -1.
       -2   -1    0    0    0  501  0.00000000000E+00  0.00000000000E+00 -0.54579471255E+03  0.54579471256E+03  0.25500000920E-02 0.  1.
    10030    2    1    2    0    0  0.00000000000E+00  0.00000000000E+00  0.13011525739E+04  0.23927419990E+04  0.20080379113E+04 0.  0.
        5    1    3    3  502    0 -0.75259155121E+03 -0.19433289243E+03 -0.10668575934E+03  0.78457839460E+03  0.46999998093E+01 0.  1.
       -5    1    3    3    0  502  0.75259155121E+03  0.19433289243E+03  0.14078383333E+04  0.16081636044E+04  0.46999998093E+01 0. -1.
</event>
<event>
 5   0  0.1244229E-04  0.2001238E+04  0.7818609E-02  0.8606042E-01
       -2   -1    0    0    0  501  0.00000000000E+00  0.00000000000E+00  0.74490806964E+03  0.74490806964E+03  0.25500000920E-02 0. -1.
        2   -1    0    0  501    0  0.00000000000E+00  0.00000000000E+00 -0.13441095997E+04  0.13441095997E+04  0.25500000920E-02 0.  1.
    10030    2    1    2    0    0  0.00000000000E+00  0.00000000000E+00 -0.59920153009E+03  0.20890176694E+04  0.20012377043E+04 0.  0.
        5    1    3    3  502    0  0.63649009339E+03 -0.18111563370E+03 -0.10830498923E+04  0.12692287701E+04  0.46999998093E+01 0.  1.
       -5    1    3    3    0  502 -0.63649009339E+03  0.18111563370E+03  0.48384836218E+03  0.81978889925E+03  0.46999998093E+01 0. -1.
</event>
<event>
 5   0  0.6168338E-05  0.1995296E+04  0.7818609E-02  0.8608823E-01
        1   -1    0    0  501    0  0.00000000000E+00  0.00000000000E+00  0.12189696314E+04  0.12189696314E+04  0.50400001928E-02 0.  1.
       -1   -1    0    0    0  501  0.00000000000E+00  0.00000000000E+00 -0.81651075754E+03  0.81651075756E+03  0.50400001928E-02 0. -1.
    10030    2    1    2    0    0  0.00000000000E+00  0.00000000000E+00  0.40245887388E+03  0.20354803890E+04  0.19952962860E+04 0.  0.
        5    1    3    3  502    0  0.15197558620E+03  0.66941925604E+03  0.93972935638E+03  0.11637577378E+04  0.46999998093E+01 0.  1.
       -5    1    3    3    0  502 -0.15197558620E+03 -0.66941925604E+03 -0.53727048250E+03  0.87172265115E+03  0.46999998093E+01 0. -1.
</event>
<event>
 5   0  0.1274868E-04  0.2004700E+04  0.7818609E-02  0.8604426E-01
        2   -1    0    0  501    0  0.00000000000E+00  0.00000000000E+00  0.12994865643E+04  0.12994865643E+04  0.25500000920E-02 0. -1.
       -2   -1    0    0    0  501  0.00000000000E+00  0.00000000000E+00 -0.77315580938E+03  0.77315580939E+03  0.25500000920E-02 0.  1.
    10030    2    1    2    0    0  0.00000000000E+00  0.00000000000E+00  0.52633075487E+03  0.20726423736E+04  0.20047000637E+04 0.  0.
        1    1    3    3  502    0 -0.21421395338E+03 -0.73205284863E+03 -0.40919534043E+03  0.86558062459E+03  0.50400001928E-02 0.  1.
       -1    1    3    3    0  502  0.21421395338E+03  0.73205284863E+03  0.93552609530E+03  0.12070617491E+04  0.50400001928E-02 0. -1.
</event>
<event>
 5   0  0.6222733E-05  0.2015076E+04  0.7818609E-02  0.8599605E-01
        1   -1    0    0  501    0  0.00000000000E+00  0.00000000000E+00  0.11729000724E+04  0.11729000725E+04  0.50400001928E-02 0.  1.
       -1   -1    0    0    0  501  0.00000000000E+00  0.00000000000E+00 -0.86548935249E+03  0.86548935251E+03  0.50400001928E-02 0. -1.
    10030    2    1    2    0    0  0.00000000000E+00  0.00000000000E+00  0.30741071995E+03  0.20383894250E+04  0.20150757050E+04 0.  0.
        2    1    3    3  502    0 -0.86228800407E+03  0.12800369116E+03 -0.35731954075E+03  0.94212674366E+03  0.25500000920E-02 0. -1.
       -2    1    3    3    0  502  0.86228800407E+03 -0.12800369116E+03  0.66473026070E+03  0.10962626813E+04  0.25500000920E-02 0.  1.
</event>
<event>
 5   0  0.6222733E-05  0.2015131E+04  0.7818609E-02  0.8599579E-01
        1   -1    0    0  501    0  0.00000000000E+00  0.00000000000E+00  0.11931228483E+04  0.11931228483E+04  0.50400001928E-02 0.  1.
       -1   -1    0    0    0  501  0.00000000000E+00  0.00000000000E+00 -0.85086650527E+03  0.85086650529E+03  0.50400001928E-02 0. -1.
    10030    2    1    2    0    0  0.00000000000E+00  0.00000000000E+00  0.34225634303E+03  0.20439893536E+04  0.20151310313E+04 0.  0.
        2    1    3    3  502    0 -0.21450578029E+03  0.34658641105E+03  0.11057648942E+04  0.11784951724E+04  0.25500000920E-02 0.  1.
       -2    1    3    3    0  502  0.21450578029E+03 -0.34658641105E+03 -0.76350855113E+03  0.86549418124E+03  0.25500000920E-02 0. -1.
</event>
<event>
 5   0  0.6214547E-05  0.1995823E+04  0.7818609E-02  0.8608576E-01
       -1   -1    0    0    0  501  0.00000000000E+00  0.00000000000E+00  0.64300459486E+03  0.64300459488E+03  0.50400001928E-02 0. -1.
        1   -1    0    0  501    0  0.00000000000E+00  0.00000000000E+00 -0.15487088943E+04  0.15487088943E+04  0.50400001928E-02 0.  1.
    10030    2    1    2    0    0  0.00000000000E+00  0.00000000000E+00 -0.90570429940E+03  0.21917134891E+04  0.19958225724E+04 0.  0.
        3    1    3    3  502    0 -0.68186396745E+03 -0.29804390145E+03  0.27728024704E+03  0.79413662735E+03  0.10100000352E+00 0. -1.
       -3    1    3    3    0  502  0.68186396745E+03  0.29804390145E+03 -0.11829845464E+04  0.13975768618E+04  0.10100000352E+00 0.  1.
</event>
<event>
 5   0  0.1274868E-04  0.2001626E+04  0.7818609E-02  0.8605861E-01
        2   -1    0    0  501    0  0.00000000000E+00  0.00000000000E+00  0.13347928935E+04  0.13347928935E+04  0.25500000920E-02 0.  1.
       -2   -1    0    0    0  501  0.00000000000E+00  0.00000000000E+00 -0.75039880515E+03  0.75039880516E+03  0.25500000920E-02 0. -1.
    10030    2    1    2    0    0  0.00000000000E+00  0.00000000000E+00  0.58439408838E+03  0.20851916987E+04  0.20016263312E+04 0.  0.
        1    1    3    3  502    0 -0.28037348159E+03  0.56830705111E+03 -0.51476818048E+03  0.81643644773E+03  0.50400001928E-02 0. -1.
       -1    1    3    3    0  502  0.28037348159E+03 -0.56830705111E+03  0.10991622689E+04  0.12687552510E+04  0.50400001928E-02 0.  1.
</event>
<event>
 5   0  0.6028501E-05  0.1961425E+04  0.7818609E-02  0.8624871E-01
       -1   -1    0    0    0  501  0.00000000000E+00  0.00000000000E+00  0.64958155757E+03  0.64958155759E+03  0.50400001928E-02 0.  1.
        1   -1    0    0  501    0  0.00000000000E+00  0.00000000000E+00 -0.14806407521E+04  0.14806407521E+04  0.50400001928E-02 0. -1.
    10030    2    1    2    0    0  0.00000000000E+00  0.00000000000E+00 -0.83105919451E+03  0.21302223097E+04  0.19614249167E+04 0.  0.
        4    1    3    3  502    0  0.61712273224E+03 -0.34940769516E+03  0.32016514401E+03  0.77809609716E+03  0.12699999809E+01 0.  1.
       -4    1    3    3    0  502 -0.61712273224E+03  0.34940769516E+03 -0.11512243385E+04  0.13521262125E+04  0.12699999809E+01 0. -1.
</event>
<event>
 5   0  0.6028501E-05  0.2000038E+04  0.7818609E-02  0.8606603E-01
        1   -1    0    0  501    0  0.00000000000E+00  0.00000000000E+00  0.13476886117E+04  0.13476886117E+04  0.50400001928E-02 0. -1.
       -1   -1    0    0    0  501  0.00000000000E+00  0.00000000000E+00 -0.74203943554E+03  0.74203943556E+03  0.50400001928E-02 0.  1.
    10030    2    1    2    0    0  0.00000000000E+00  0.00000000000E+00  0.60564917617E+03  0.20897280473E+04  0.20000380964E+04 0.  0.
        4    1    3    3  502    0  0.34336540363E+03 -0.40291822766E+03 -0.58362795341E+03  0.78795056920E+03  0.12699999809E+01 0.  1.
       -4    1    3    3    0  502 -0.34336540363E+03  0.40291822766E+03  0.11892771296E+04  0.13017774781E+04  0.12699999809E+01 0. -1.
</event>
<event>
 5   0  0.6168338E-05  0.2007558E+04  0.7818609E-02  0.8603095E-01
       -1   -1    0    0    0  501  0.00000000000E+00  0.00000000000E+00  0.72158703294E+03  0.72158703296E+03  0.50400001928E-02 0.  1.
        1   -1    0    0  501    0  0.00000000000E+00  0.00000000000E+00 -0.13963286203E+04  0.13963286203E+04  0.50400001928E-02 0. -1.
    10030    2    1    2    0    0  0.00000000000E+00  0.00000000000E+00 -0.67474158738E+03  0.21179156533E+04  0.20075583440E+04 0.  0.
        5    1    3    3  502    0  0.82575346638E+03  0.39643377145E+03  0.95709880909E+02  0.92098370979E+03  0.46999998093E+01 0.  1.
       -5    1    3    3    0  502 -0.82575346638E+03 -0.39643377145E+03 -0.77045146829E+03  0.11969319435E+04  0.46999998093E+01 0. -1.
</event>
<event>
 5   0  0.1281789E-04  0.2008554E+04  0.7818609E-02  0.8602632E-01
        2   -1    0    0  501    0  0.00000000000E+00  0.00000000000E+00  0.18100804955E+04  0.18100804955E+04  0.25500000920E-02 0.  1.
       -2   -1    0    0    0  501  0.00000000000E+00  0.00000000000E+00 -0.55719755147E+03  0.55719755147E+03  0.25500000920E-02 0. -1.
    10030    2    1    2    0    0  0.00000000000E+00  0.00000000000E+00  0.12528829440E+04  0.23672780470E+04  0.20085541268E+04 0.  0.
        2    1    3    3  502    0  0.97987253017E+03 -0.18045574552E+03  0.77486047418E+03  0.12621898454E+04  0.25500000920E-02 0.  1.
       -2    1    3    3    0  502 -0.97987253017E+03  0.18045574552E+03  0.47802246984E+03  0.11050882015E+04  0.25500000920E-02 0. -1.
</event>
<event>
 5   0  0.1242761E-04  0.2031067E+04  0.7818609E-02  0.8592232E-01
        2   -1    0    0  501    0  0.00000000000E+00  0.00000000000E+00  0.15010739047E+04  0.15010739047E+04  0.25500000920E-02 0.  1.
       -2   -1    0    0    0  501  0.00000000000E+00  0.00000000000E+00 -0.68704713611E+03  0.68704713611E+03  0.25500000920E-02 0. -1.
    10030    2    1    2    0    0  0.00000000000E+00  0.00000000000E+00  0.81402676856E+03  0.21881210408E+04  0.20310672340E+04 0.  0.
        4    1    3    3  502    0  0.82551466287E+03  0.59006865636E+03  0.36323315927E+03  0.10777733615E+04  0.12699999809E+01 0. -1.
       -4    1    3    3    0  502 -0.82551466287E+03 -0.59006865636E+03  0.45079360930E+03  0.11103476793E+04  0.12699999809E+01 0.  1.
</event>
<event>
 5   0  0.1244229E-04  0.1984032E+04  0.7818609E-02  0.8614123E-01
        2   -1    0    0  501    0  0.00000000000E+00  0.00000000000E+00  0.12636637915E+04  0.12636637915E+04  0.25500000920E-02 0.  1.
       -2   -1    0    0    0  501  0.00000000000E+00  0.00000000000E+00 -0.77876411954E+03  0.77876411954E+03  0.25500000920E-02 0. -1.
    10030    2    1    2    0    0  0.00000000000E+00  0.00000000000E+00  0.48489967193E+03  0.20424279110E+04  0.19840322779E+04 0.  0.
        5    1    3    3  502    0  0.80848507434E+03 -0.57480081510E+03  0.24807298034E+03  0.10225489651E+04  0.46999998093E+01 0. -1.
       -5    1    3    3    0  502 -0.80848507434E+03  0.57480081510E+03  0.23682669159E+03  0.10198789459E+04  0.46999998093E+01 0.  1.
</event>
<event>
 5   0  0.1159914E-04  0.1969419E+04  0.7818609E-02  0.8621053E-01
        2   -1    0    0  501    0  0.00000000000E+00  0.00000000000E+00  0.83788216852E+03  0.83788216852E+03  0.25500000920E-02 0. -1.
       -2   -1    0    0    0  501  0.00000000000E+00  0.00000000000E+00 -0.11572666781E+04  0.11572666781E+04  0.25500000920E-02 0.  1.
    10030    2    1    2    0    0  0.00000000000E+00  0.00000000000E+00 -0.31938450959E+03  0.19951488466E+04  0.19694193193E+04 0.  0.
        3    1    3    3  502    0 -0.18034824021E+02 -0.77876487127E+03  0.45055037205E+03  0.89988645260E+03  0.10100000352E+00 0. -1.
       -3    1    3    3    0  502  0.18034824021E+02  0.77876487127E+03 -0.76993488164E+03  0.10952623940E+04  0.10100000352E+00 0.  1.
</event>
<event>
 5   0  0.1244229E-04  0.2011739E+04  0.7818609E-02  0.8601152E-01
       -2   -1    0    0    0  501  0.00000000000E+00  0.00000000000E+00  0.92322928549E+03  0.92322928550E+03  0.25500000920E-02 0.  1.
        2   -1    0    0  501    0  0.00000000000E+00  0.00000000000E+00 -0.10959072481E+04  0.10959072481E+04  0.25500000920E-02 0. -1.
    10030    2    1    2    0    0  0.00000000000E+00  0.00000000000E+00 -0.17267796263E+03  0.20191365336E+04  0.20117392134E+04 0.  0.
        5    1    3    3  502    0 -0.59415960802E+03  0.31546616911E+03 -0.83689017062E+03  0.10737559273E+04  0.46999998093E+01 0. -1.
       -5    1    3    3    0  502  0.59415960802E+03 -0.31546616911E+03  0.66421220798E+03  0.94538060637E+03  0.46999998093E+01 0.  1.
</event>
<event>
 5   0  0.1281789E-04  0.2018316E+04  0.7818609E-02  0.8598105E-01
       -2   -1    0    0    0  501  0.00000000000E+00  0.00000000000E+00  0.16325554361E+04  0.16325554361E+04  0.25500000920E-02 0. -1.
        2   -1    0    0  501    0  0.00000000000E+00  0.00000000000E+00 -0.62380725110E+03  0.62380725111E+03  0.25500000920E-02 0.  1.
    10030    2    1    2    0    0  0.00000000000E+00  0.00000000000E+00  0.10087481850E+04  0.22563626872E+04  0.20183160495E+04 0.  0.
        2    1    3    3  502    0 -0.30624739750E+02 -0.18523334469E+03 -0.60411078199E+03  0.63261291767E+03  0.25500000920E-02 0.  1.
       -2    1    3    3    0  502  0.30624739750E+02  0.18523334469E+03  0.16128589670E+04  0.16237497695E+04  0.25500000920E-02 0. -1.
</event>
<event>
 5   0  0.6256535E-05  0.1985807E+04  0.7818609E-02  0.8613285E-01
       -1   -1    0    0    0  501  0.00000000000E+00  0.00000000000E+00  0.91051303278E+03  0.91051303280E+03  0.50400001928E-02 0.  1.
        1   -1    0    0  501    0  0.00000000000E+00  0.00000000000E+00 -0.10827493830E+04  0.10827493830E+04  0.50400001928E-02 0. -1.
    10030    2    1    2    0    0  0.00000000000E+00  0.00000000000E+00 -0.17223635022E+03  0.19932624158E+04  0.19858070646E+04 0.  0.
        1    1    3    3  502    0 -0.15315863311E+03  0.98089910419E+03 -0.70671933226E+02  0.99529650942E+03  0.50400001928E-02 0. -1.
       -1    1    3    3    0  502  0.15315863311E+03 -0.98089910419E+03 -0.10156441700E+03  0.99796590639E+03  0.50400001928E-02 0.  1.
</event>
<event>
 5   0  0.6028501E-05  0.2004595E+04  0.7818609E-02  0.8604475E-01
       -1   -1    0    0    0  501  0.00000000000E+00  0.00000000000E+00  0.78590036706E+03  0.78590036708E+03  0.50400001928E-02 0.  1.
        1   -1    0    0  501    0  0.00000000000E+00  0.00000000000E+00 -0.12782795861E+04  0.12782795861E+04  0.50400001928E-02 0. -1.
    10030    2    1    2    0    0  0.00000000000E+00  0.00000000000E+00 -0.49237921904E+03  0.20641799532E+04  0.20045951172E+04 0.  0.
        4    1    3    3  502    0  0.36766078727E+03  0.18058358723E+03  0.69577661243E+03  0.80739803924E+03  0.12699999809E+01 0.  1.
       -4    1    3    3    0  502 -0.36766078727E+03 -0.18058358723E+03 -0.11881558315E+04  0.12567819139E+04  0.12699999809E+01 0. -1.
</event>
<event>
 5   0  0.1242761E-04  0.1987219E+04  0.7818609E-02  0.8612620E-01
        2   -1    0    0  501    0  0.00000000000E+00  0.00000000000E+00  0.22879510144E+04  0.22879510144E+04  0.25500000920E-02 0. -1.
       -2   -1    0    0    0  501  0.00000000000E+00  0.00000000000E+00 -0.43150373399E+03  0.43150373399E+03  0.25500000920E-02 0.  1.
    10030    2    1    2    0    0  0.00000000000E+00  0.00000000000E+00  0.18564472804E+04  0.27194547484E+04  0.19872185646E+04 0.  0.
        4    1    3    3  502    0  0.60046630235E+03  0.59835146943E+03  0.21889312579E+03  0.87549989986E+03  0.12699999809E+01 0.  1.
       -4    1    3    3    0  502 -0.60046630235E+03 -0.59835146943E+03  0.16375541546E+04  0.18439548485E+04  0.12699999809E+01 0. -1.
</event>
<event>
 5   0  0.1242761E-04  0.2051497E+04  0.7818609E-02  0.8582916E-01
       -2   -1    0    0    0  501  0.00000000000E+00  0.00000000000E+00  0.49873905176E+03  0.49873905176E+03  0.25500000920E-02 0. -1.
        2   -1    0    0  501    0  0.00000000000E+00  0.00000000000E+00 -0.21096397028E+04  0.21096397028E+04  0.25500000920E-02 0.  1.
    10030    2    1    2    0    0  0.00000000000E+00  0.00000000000E+00 -0.16109006511E+04  0.26083787546E+04  0.20514967267E+04 0.  0.
        4    1    3    3  502    0  0.80250842935E+03 -0.59314085820E+03 -0.11071951062E+04  0.14905430128E+04  0.12699999809E+01 0. -1.
       -4    1    3    3    0  502 -0.80250842935E+03  0.59314085820E+03 -0.50370554485E+03  0.11178357418E+04  0.12699999809E+01 0.  1.
</event>
<event>
 5   0  0.6222733E-05  0.1976453E+04  0.7818609E-02  0.8617709E-01
       -1   -1    0    0    0  501  0.00000000000E+00  0.00000000000E+00  0.10170446481E+04  0.10170446481E+04  0.50400001928E-02 0.  1.
        1   -1    0    0  501    0  0.00000000000E+00  0.00000000000E+00 -0.96022481897E+03  0.96022481899E+03  0.50400001928E-02 0. -1.
    10030    2    1    2    0    0  0.00000000000E+00  0.00000000000E+00  0.56819829104E+02  0.19772694671E+04  0.19764528966E+04 0.  0.
        2    1    3    3  502    0 -0.80146290814E+03  0.38647215880E+03 -0.40175376914E+03  0.97627332939E+03  0.25500000920E-02 0.  1.
       -2    1    3    3    0  502  0.80146290814E+03 -0.38647215880E+03  0.45857359824E+03  0.10009961377E+04  0.25500000920E-02 0. -1.
</event>
<event>
 5   0  0.6222733E-05  0.1997606E+04  0.7818609E-02  0.8607741E-01
        1   -1    0    0  501    0  0.00000000000E+00  0.00000000000E+00  0.11866103313E+04  0.11866103313E+04  0.50400001928E-02 0.  1.
       -1   -1    0    0    0  501  0.00000000000E+00  0.00000000000E+00 -0.84072056716E+03  0.84072056718E+03  0.50400001928E-02 0. -1.
    10030    2    1    2    0    0  0.00000000000E+00  0.00000000000E+00  0.34588976415E+03  0.20273308985E+04  0.19976062783E+04 0.  0.
        2    1    3    3  502    0  0.98554178378E+03 -0.14696378138E+03  0.24264542825E+03  0.10255572946E+04  0.25500000920E-02 0.  1.
       -2    1    3    3    0  502 -0.98554178378E+03  0.14696378138E+03  0.10324433590E+03  0.10017736039E+04  0.25500000920E-02 0. -1.
</event>
<event>
 5   0  0.1281789E-04  0.1998288E+04  0.7818609E-02  0.8607422E-01
       -2   -1    0    0    0  501  0.00000000000E+00  0.00000000000E+00  0.12396549623E+04  0.12396549623E+04  0.25500000920E-02 0. -1.
        2   -1    0    0  501    0  0.00000000000E+00  0.00000000000E+00 -0.80529561453E+03  0.80529561454E+03  0.25500000920E-02 0.  1.
    10030    2    1    2    0    0  0.00000000000E+00  0.00000000000E+00  0.43435934777E+03  0.20449505768E+04  0.19982879719E+04 0.  0.
        2    1    3    3  502    0 -0.93485838455E+02 -0.29467167555E+03  0.11894806516E+04  0.12289976481E+04  0.25500000920E-02 0. -1.
       -2    1    3    3    0  502  0.93485838455E+02  0.29467167555E+03 -0.75512130388E+03  0.81595292875E+03  0.25500000920E-02 0.  1.
</event>
<event>
 5   0  0.1159914E-04  0.2014460E+04  0.7818609E-02  0.8599890E-01
        2   -1    0    0  501    0  0.00000000000E+00  0.00000000000E+00  0.87164006040E+03  0.87164006040E+03  0.25500000920E-02 0. -1.
       -2   -1    0    0    0  501  0.00000000000E+00  0.00000000000E+00 -0.11639115430E+04  0.11639115430E+04  0.25500000920E-02 0.  1.
    10030    2    1    2    0    0  0.00000000000E+00  0.00000000000E+00 -0.29227148265E+03  0.20355516034E+04  0.20144596573E+04 0.  0.
        3    1    3    3  502    0  0.75165873306E+03  0.55861643908E+03 -0.52078555342E+03  0.10715693071E+04  0.10100000352E+00 0.  1.
       -3    1    3    3    0  502 -0.75165873306E+03 -0.55861643908E+03  0.22851407077E+03  0.96398229638E+03  0.10100000352E+00 0. -1.
</event>
<event>
 5   0  0.1281789E-04  0.1997969E+04  0.7818609E-02  0.8607571E-01
       -2   -1    0    0    0  501  0.00000000000E+00  0.00000000000E+00  0.43207433572E+03  0.43207433573E+03  0.25500000920E-02 0.  1.
        2   -1    0    0  501    0  0.00000000000E+00  0.00000000000E+00 -0.23097186494E+04  0.23097186494E+04  0.25500000920E-02 0. -1.
    10030    2    1    2    0    0  0.00000000000E+00  0.00000000000E+00 -0.18776443137E+04  0.27417929852E+04  0.19979691201E+04 0.  0.
        2    1    3    3  502    0  0.95844750981E+03  0.28087943158E+03 -0.96810269050E+03  0.13909484906E+04  0.25500000920E-02 0.  1.
       -2    1    3    3    0  502 -0.95844750981E+03 -0.28087943158E+03 -0.90954162321E+03  0.13508444946E+04  0.25500000920E-02 0. -1.
</event>
<event>
 5   0  0.1274868E-04  0.2295053E+04  0.7818609E-02  0.8479874E-01
        2   -1    0    0  501    0  0.00000000000E+00  0.00000000000E+00  0.17702700482E+04  0.17702700482E+04  0.25500000920E-02 0. -1.
       -2   -1    0    0    0  501  0.00000000000E+00  0.00000000000E+00 -0.74385069542E+03  0.74385069542E+03  0.25500000920E-02 0.  1.
    10030    2    1    2    0    0  0.00000000000E+00  0.00000000000E+00  0.10264193528E+04  0.25141207436E+04  0.22950525976E+04 0.  0.
        1    1    3    3  502    0 -0.10824519885E+04  0.35607063560E+02  0.92868290176E+03  0.14266822009E+04  0.50400001928E-02 0. -1.
       -1    1    3    3    0  502  0.10824519885E+04 -0.35607063560E+02  0.97736451014E+02  0.10874385427E+04  0.50400001928E-02 0.  1.
</event>
<event>
 5   0  0.6168338E-05  0.2001814E+04  0.7818609E-02  0.8605773E-01
        1   -1    0    0  501    0  0.00000000000E+00  0.00000000000E+00  0.18302556521E+04  0.18302556521E+04  0.50400001928E-02 0.  1.
       -1   -1    0    0    0  501  0.00000000000E+00  0.00000000000E+00 -0.54736345893E+03  0.54736345895E+03  0.50400001928E-02 0. -1.
    10030    2    1    2    0    0  0.00000000000E+00  0.00000000000E+00  0.12828921931E+04  0.23776191110E+04  0.20018142416E+04 0.  0.
        5    1    3    3  502    0  0.29896800142E+03 -0.95370990053E+03  0.57805485905E+03  0.11546055388E+04  0.46999998093E+01 0.  1.
       -5    1    3    3    0  502 -0.29896800142E+03  0.95370990053E+03  0.70483733408E+03  0.12230135722E+04  0.46999998093E+01 0. -1.
</event>
<event>
 5   0  0.1244229E-04  0.1976180E+04  0.7818609E-02  0.8617839E-01
       -2   -1    0    0    0  501  0.00000000000E+00  0.00000000000E+00  0.75442934924E+03  0.75442934924E+03  0.25500000920E-02 0.  1.
        2   -1    0    0  501    0  0.00000000000E+00  0.00000000000E+00 -0.12941203014E+04  0.12941203014E+04  0.25500000920E-02 0. -1.
    10030    2    1    2    0    0  0.00000000000E+00  0.00000000000E+00 -0.53969095217E+03  0.20485496507E+04  0.19761804946E+04 0.  0.
        5    1    3    3  502    0  0.87414033318E+03  0.40786294702E+03 -0.49175675358E+03  0.10827374106E+04  0.46999998093E+01 0. -1.
       -5    1    3    3    0  502 -0.87414033318E+03 -0.40786294702E+03 -0.47934198594E+02  0.96581224005E+03  0.46999998093E+01 0.  1.
</event>
<event>
 5   0  0.1242761E-04  0.2005159E+04  0.7818609E-02  0.8604212E-01
        2   -1    0    0  501    0  0.00000000000E+00  0.00000000000E+00  0.89506863607E+03  0.89506863607E+03  0.25500000920E-02 0. -1.
       -2   -1    0    0    0  501  0.00000000000E+00  0.00000000000E+00 -0.11230039025E+04  0.11230039025E+04  0.25500000920E-02 0.  1.
    10030    2    1    2    0    0  0.00000000000E+00  0.00000000000E+00 -0.22793526641E+03  0.20180725386E+04  0.20051589177E+04 0.  0.
        4    1    3    3  502    0 -0.45013235175E+02  0.50694717593E+03 -0.98332595056E+03  0.11072276950E+04  0.12699999809E+01 0.  1.
       -4    1    3    3    0  502  0.45013235175E+02 -0.50694717593E+03  0.75539068415E+03  0.91084484361E+03  0.12699999809E+01 0. -1.
</event>
<event>
 5   0  0.1281789E-04  0.1896600E+04  0.7818609E-02  0.8656550E-01
       -2   -1    0    0    0  501  0.00000000000E+00  0.00000000000E+00  0.52187688795E+03  0.52187688796E+03  0.25500000920E-02 0.  1.
        2   -1    0    0  501    0  0.00000000000E+00  0.00000000000E+00 -0.17231522492E+04  0.17231522492E+04  0.25500000920E-02 0. -1.
    10030    2    1    2    0    0  0.00000000000E+00  0.00000000000E+00 -0.12012753612E+04  0.22450291372E+04  0.18966004675E+04 0.  0.
        2    1    3    3  502    0  0.50547144858E+03 -0.64953008506E+03 -0.11582184258E+04  0.14208661579E+04  0.25500000920E-02 0. -1.
       -2    1    3    3    0  502 -0.50547144858E+03  0.64953008506E+03 -0.43056935431E+02  0.82416297928E+03  0.25500000920E-02 0.  1.
</event>
<event>
 5   0  0.6168338E-05  0.1973103E+04  0.7818609E-02  0.8619300E-01
        1   -1    0    0  501    0  0.00000000000E+00  0.00000000000E+00  0.98465515272E+03  0.98465515273E+03  0.50400001928E-02 0. -1.
       -1   -1    0    0    0  501  0.00000000000E+00  0.00000000000E+00 -0.98845199594E+03  0.98845199595E+03  0.50400001928E-02 0.  1.
    10030    2    1    2    0    0  0.00000000000E+00  0.00000000000E+00 -0.37968432171E+01  0.19731071487E+04  0.19731034956E+04 0.  0.
        5    1    3    3  502    0  0.10351130391E+02  0.98640563129E+03 -0.14509777141E+02  0.98657784233E+03  0.46999998093E+01 0. -1.
       -5    1    3    3    0  502 -0.10351130391E+02 -0.98640563129E+03  0.10712933924E+02  0.98652930635E+03  0.46999998093E+01 0.  1.
</event>
<event>
 5   0  0.6168338E-05  0.2008195E+04  0.7818609E-02  0.8602799E-01
        1   -1    0    0  501    0  0.00000000000E+00  0.00000000000E+00  0.13798131037E+04  0.13798131037E+04  0.50400001928E-02 0.  1.
       -1   -1    0    0    0  501  0.00000000000E+00  0.00000000000E+00 -0.73068743044E+03  0.73068743046E+03  0.50400001928E-02 0. -1.
    10030    2    1    2    0    0  0.00000000000E+00  0.00000000000E+00  0.64912567328E+03  0.21105005342E+04  0.20081953005E+04 0.  0.
        5    1    3    3  502    0 -0.53630678507E+03 -0.37713791631E+03  0.11237861452E+04  0.13010670105E+04  0.46999998093E+01 0.  1.
       -5    1    3    3    0  502  0.53630678507E+03  0.37713791631E+03 -0.47466047195E+03  0.80943352368E+03  0.46999998093E+01 0. -1.
</event>
<event>
 5   0  0.1274868E-04  0.2015786E+04  0.7818609E-02  0.8599276E-01
       -2   -1    0    0    0  501  0.00000000000E+00  0.00000000000E+00  0.55349347619E+03  0.55349347620E+03  0.25500000920E-02 0. -1.
        2   -1    0    0  501    0  0.00000000000E+00  0.00000000000E+00 -0.18353385532E+04  0.18353385532E+04  0.25500000920E-02 0.  1.
    10030    2    1    2    0    0  0.00000000000E+00  0.00000000000E+00 -0.12818450770E+04  0.23888320294E+04  0.20157856194E+04 0.  0.
        1    1    3    3  502    0  0.33462611928E+03  0.69936572606E+03 -0.14041256856E+04  0.16039501238E+04  0.50400001928E-02 0.  1.
       -1    1    3    3    0  502 -0.33462611928E+03 -0.69936572606E+03  0.12228060863E+03  0.78488190561E+03  0.50400001928E-02 0. -1.
</event>
<event>
 5   0  0.1244229E-04  0.1995992E+04  0.7818609E-02  0.8608497E-01
        2   -1    0    0  501    0  0.00000000000E+00  0.00000000000E+00  0.16980147074E+04  0.16980147074E+04  0.25500000920E-02 0.  1.
       -2   -1    0    0    0  501  0.00000000000E+00  0.00000000000E+00 -0.58656494101E+03  0.58656494101E+03  0.25500000920E-02 0. -1.
    10030    2    1    2    0    0  0.00000000000E+00  0.00000000000E+00  0.11114497664E+04  0.22845796484E+04  0.19959918804E+04 0.  0.
        5    1    3    3  502    0  0.87805191840E+03  0.11490425439E+03  0.10824767082E+04  0.13985549946E+04  0.46999998093E+01 0.  1.
       -5    1    3    3    0  502 -0.87805191840E+03 -0.11490425439E+03  0.28973058187E+02  0.88602465382E+03  0.46999998093E+01 0. -1.
</event>
<event>
 5   0  0.1244229E-04  0.2013723E+04  0.7818609E-02  0.8600231E-01
       -2   -1    0    0    0  501  0.00000000000E+00  0.00000000000E+00  0.50132972732E+03  0.50132972733E+03  0.25500000920E-02 0.  1.
        2   -1    0    0  501    0  0.00000000000E+00  0.00000000000E+00 -0.20221626934E+04  0.20221626934E+04  0.25500000920E-02 0. -1.
    10030    2    1    2    0    0  0.00000000000E+00  0.00000000000E+00 -0.15208329661E+04  0.25234924207E+04  0.20137231902E+04 0.  0.
        5    1    3    3  502    0 -0.22175091785E+03 -0.89737532956E+03 -0.26026733964E+03  0.96032136796E+03  0.46999998093E+01 0.  1.
       -5    1    3    3    0  502  0.22175091785E+03  0.89737532956E+03 -0.12605656264E+04  0.15631710528E+04  0.46999998093E+01 0. -1.
</event>
<event>
 5   0  0.6028501E-05  0.2269986E+04  0.7818609E-02  0.8489850E-01
        1   -1    0    0  501    0  0.00000000000E+00  0.00000000000E+00  0.17797120169E+04  0.17797120169E+04  0.50400001928E-02 0.  1.
       -1   -1    0    0    0  501  0.00000000000E+00  0.00000000000E+00 -0.72383024653E+03  0.72383024655E+03  0.50400001928E-02 0. -1.
    10030    2    1    2    0    0  0.00000000000E+00  0.00000000000E+00  0.10558817704E+04  0.25035422635E+04  0.22699862449E+04 0.  0.
        4    1    3    3  502    0 -0.98011519536E+03 -0.39083907299E+03  0.66797797259E+02  0.10572816729E+04  0.12699999809E+01 0. -1.
       -4    1    3    3    0  502  0.98011519536E+03  0.39083907299E+03  0.98908397311E+03  0.14462605906E+04  0.12699999809E+01 0.  1.
</event>
<event>
 5   0  0.6028501E-05  0.1981237E+04  0.7818609E-02  0.8615443E-01
        1   -1    0    0  501    0  0.00000000000E+00  0.00000000000E+00  0.72108242096E+03  0.72108242098E+03  0.50400001928E-02 0. -1.
       -1   -1    0    0    0  501  0.00000000000E+00  0.00000000000E+00 -0.13609057830E+04  0.13609057830E+04  0.50400001928E-02 0.  1.
    10030    2    1    2    0    0  0.00000000000E+00  0.00000000000E+00 -0.63982336206E+03  0.20819882040E+04  0.19812372263E+04 0.  0.
        4    1    3    3  502    0  0.12553282485E+03 -0.81493527893E+03  0.25704907954E+03  0.86368619368E+03  0.12699999809E+01 0. -1.
       -4    1    3    3    0  502 -0.12553282485E+03  0.81493527893E+03 -0.89687244161E+03  0.12183020103E+04  0.12699999809E+01 0.  1.
</event>
<event>
 5   0  0.6222733E-05  0.1995632E+04  0.7818609E-02  0.8608666E-01
       -1   -1    0    0    0  501  0.00000000000E+00  0.00000000000E+00  0.79998394259E+03  0.79998394260E+03  0.50400001928E-02 0.  1.
        1   -1    0    0  501    0  0.00000000000E+00  0.00000000000E+00 -0.12445709567E+04  0.12445709567E+04  0.50400001928E-02 0. -1.
    10030    2    1    2    0    0  0.00000000000E+00  0.00000000000E+00 -0.44458701415E+03  0.20445548993E+04  0.19956320110E+04 0.  0.
        2    1    3    3  502    0  0.73465914290E+03 -0.23738886290E+03  0.42530958064E+03  0.88145661712E+03  0.25500000920E-02 0.  1.
       -2    1    3    3    0  502 -0.73465914290E+03  0.23738886290E+03 -0.86989659479E+03  0.11630982822E+04  0.25500000920E-02 0. -1.
</event>
<event>
 5   0  0.1274868E-04  0.1961579E+04  0.7818609E-02  0.8624797E-01
       -2   -1    0    0    0  501  0.00000000000E+00  0.00000000000E+00  0.71672916228E+03  0.71672916228E+03  0.25500000920E-02 0. -1.
        2   -1    0    0  501    0  0.00000000000E+00  0.00000000000E+00 -0.13421360664E+04  0.13421360664E+04  0.25500000920E-02 0.  1.
    10030    2    1    2    0    0  0.00000000000E+00  0.00000000000E+00 -0.62540690408E+03  0.20588652286E+04  0.19615790155E+04 0.  0.
        1    1    3    3  502    0 -0.86818818044E+03 -0.13608494551E+03 -0.76982411793E+03  0.11682889204E+04  0.50400001928E-02 0.  1.
       -1    1    3    3    0  502  0.86818818044E+03  0.13608494551E+03  0.14441721385E+03  0.89057630820E+03  0.50400001928E-02 0. -1.
</event>
<event>
 5   0  0.1244229E-04  0.2002629E+04  0.7818609E-02  0.8605392E-01
       -2   -1    0    0    0  501  0.00000000000E+00  0.00000000000E+00  0.10141277829E+04  0.10141277829E+04  0.25500000920E-02 0. -1.
        2   -1    0    0  501    0  0.00000000000E+00  0.00000000000E+00 -0.98866316202E+03  0.98866316202E+03  0.25500000920E-02 0.  1.
    10030    2    1    2    0    0  0.00000000000E+00  0.00000000000E+00  0.25464620842E+02  0.20027909449E+04  0.20026290525E+04 0.  0.
        5    1    3    3  502    0  0.40234109320E+02 -0.20311426346E+03  0.99247190792E+03  0.10138524378E+04  0.46999998093E+01 0. -1.
       -5    1    3    3    0  502 -0.40234109320E+02  0.20311426346E+03 -0.96700728708E+03  0.98893850711E+03  0.46999998093E+01 0.  1.
</event>
<event>
 5   0  0.1159914E-04  0.1991226E+04  0.7818609E-02  0.8610734E-01
       -2   -1    0    0    0  501  0.00000000000E+00  0.00000000000E+00  0.12822560487E+04  0.12822560487E+04  0.25500000920E-02 0.  1.
        2   -1    0    0  501    0  0.00000000000E+00  0.00000000000E+00 -0.77304776424E+03  0.77304776425E+03  0.25500000920E-02 0. -1.
    10030    2    1    2    0    0  0.00000000000E+00  0.00000000000E+00  0.50920828443E+03  0.20553038129E+04  0.19912259255E+04 0.  0.
        3    1    3    3  502    0 -0.88515770195E+03 -0.44759283893E+03  0.16580272478E+03  0.10056510630E+04  0.10100000352E+00 0. -1.
       -3    1    3    3    0  502  0.88515770195E+03  0.44759283893E+03  0.34340555964E+03  0.10496527499E+04  0.10100000352E+00 0.  1.
</event>
<event>
 5   0  0.6028501E-05  0.1799689E+04  0.7818609E-02  0.8706465E-01
        1   -1    0    0  501    0  0.00000000000E+00  0.00000000000E+00  0.13753948653E+04  0.13753948653E+04  0.50400001928E-02 0. -1.
       -1   -1    0    0    0  501  0.00000000000E+00  0.00000000000E+00 -0.58871847348E+03  0.58871847351E+03  0.50400001928E-02 0.  1.
    10030    2    1    2    0    0  0.00000000000E+00  0.00000000000E+00  0.78667639185E+03  0.19641133388E+04  0.17996892683E+04 0.  0.
        4    1    3    3  502    0  0.50407440019E+03 -0.43932949030E+03 -0.26385537834E+03  0.71883424762E+03  0.12699999809E+01 0.  1.
       -4    1    3    3    0  502 -0.50407440019E+03  0.43932949030E+03  0.10505317702E+04  0.12452790912E+04  0.12699999809E+01 0. -1.
</event>
<event>
 5   0  0.1274868E-04  0.2000056E+04  0.7818609E-02  0.8606594E-01
       -2   -1    0    0    0  501  0.00000000000E+00  0.00000000000E+00  0.65051323063E+03  0.65051323063E+03  0.25500000920E-02 0.  1.
        2   -1    0    0  501    0  0.00000000000E+00  0.00000000000E+00 -0.15373339021E+04  0.15373339021E+04  0.25500000920E-02 0. -1.
    10030    2    1    2    0    0  0.00000000000E+00  0.00000000000E+00 -0.88682067148E+03  0.21878471327E+04  0.20000560424E+04 0.  0.
        1    1    3    3  502    0  0.95712770587E+03  0.26568097764E+03 -0.31689550318E+03  0.10426421185E+04  0.50400001928E-02 0.  1.
       -1    1    3    3    0  502 -0.95712770587E+03 -0.26568097764E+03 -0.56992516830E+03  0.11452050143E+04  0.50400001928E-02 0. -1.
</event>
<event>
 5   0  0.6028501E-05  0.2017481E+04  0.7818609E-02  0.8598491E-01
        1   -1    0    0  501    0  0.00000000000E+00  0.00000000000E+00  0.93048657013E+03  0.93048657015E+03  0.50400001928E-02 0.  1.
       -1   -1    0    0    0  501  0.00000000000E+00  0.00000000000E+00 -0.10935752479E+04  0.10935752479E+04  0.50400001928E-02 0. -1.
    10030    2    1    2    0    0  0.00000000000E+00  0.00000000000E+00 -0.16308867772E+03  0.20240618180E+04  0.20174806880E+04 0.  0.
        4    1    3    3  502    0 -0.20171457642E+03  0.76842774199E+03 -0.70517117890E+03  0.10622796098E+04  0.12699999809E+01 0. -1.
       -4    1    3    3    0  502  0.20171457642E+03 -0.76842774199E+03  0.54208250118E+03  0.96178220819E+03  0.12699999809E+01 0.  1.
</event>
<event>
 5   0  0.1159914E-04  0.2060633E+04  0.7818609E-02  0.8578786E-01
       -2   -1    0    0    0  501  0.00000000000E+00  0.00000000000E+00  0.96332404613E+03  0.96332404614E+03  0.25500000920E-02 0.  1.
        2   -1    0    0  501    0  0.00000000000E+00  0.00000000000E+00 -0.11019680386E+04  0.11019680386E+04  0.25500000920E-02 0. -1.
    10030    2    1    2    0    0  0.00000000000E+00  0.00000000000E+00 -0.13864399245E+03  0.20652920847E+04  0.20606332130E+04 0.  0.
        3    1    3    3  502    0 -0.20045704189E+03  0.92860211141E+03 -0.46905625092E+03  0.10594803838E+04  0.10100000352E+00 0. -1.
       -3    1    3    3    0  502  0.20045704189E+03 -0.92860211141E+03  0.33041225847E+03  0.10058117009E+04  0.10100000352E+00 0.  1.
</event>
<event>
 5   0  0.1242761E-04  0.2073551E+04  0.7818609E-02  0.8572985E-01
       -2   -1    0    0    0  501  0.00000000000E+00  0.00000000000E+00  0.79783220810E+03  0.79783220811E+03  0.25500000920E-02 0.  1.
        2   -1    0    0  501    0  0.00000000000E+00  0.00000000000E+00 -0.13472794258E+04  0.13472794258E+04  0.25500000920E-02 0. -1.
    10030    2    1    2    0    0  0.00000000000E+00  0.00000000000E+00 -0.54944721769E+03  0.21451116339E+04  0.20735505002E+04 0.  0.
        4    1    3    3  502    0 -0.91636088901E+02 -0.52278538317E+03  0.64663037557E+03  0.83656092734E+03  0.12699999809E+01 0.  1.
       -4    1    3    3    0  502  0.91636088901E+02  0.52278538317E+03 -0.11960775933E+04  0.13085507066E+04  0.12699999809E+01 0. -1.
</event>
<event>
 5   0  0.6256535E-05  0.2004016E+04  0.7818609E-02  0.8604745E-01
       -1   -1    0    0    0  501  0.00000000000E+00  0.00000000000E+00  0.99653515699E+03  0.99653515700E+03  0.50400001928E-02 0.  1.
        1   -1    0    0  501    0  0.00000000000E+00  0.00000000000E+00 -0.10075107913E+04  0.10075107913E+04  0.50400001928E-02 0. -1.
    10030    2    1    2    0    0  0.00000000000E+00  0.00000000000E+00 -0.10975634293E+02  0.20040459483E+04  0.20040158927E+04 0.  0.
        1    1    3    3  502    0 -0.69281655803E+03  0.36879389143E+03 -0.62840662878E+03  0.10054345372E+04  0.50400001928E-02 0. -1.
       -1    1    3    3    0  502  0.69281655803E+03 -0.36879389143E+03  0.61743099449E+03  0.99861141112E+03  0.50400001928E-02 0.  1.
</event>
<event>
 5   0  0.1274868E-04  0.2010031E+04  0.7818609E-02  0.8601945E-01
       -2   -1    0    0    0  501  0.00000000000E+00  0.00000000000E+00  0.73476162527E+03  0.73476162528E+03  0.25500000920E-02 0.  1.
        2   -1    0    0  501    0  0.00000000000E+00  0.00000000000E+00 -0.13746713951E+04  0.13746713951E+04  0.25500000920E-02 0. -1.
    10030    2    1    2    0    0  0.00000000000E+00  0.00000000000E+00 -0.63990976982E+03  0.21094330204E+04  0.20100306351E+04 0.  0.
        1    1    3    3  502    0 -0.27240677641E+03  0.11969219336E+03 -0.13273884488E+04  0.13603278161E+04  0.50400001928E-02 0. -1.
       -1    1    3    3    0  502  0.27240677641E+03 -0.11969219336E+03  0.68747867903E+03  0.74910520431E+03  0.50400001928E-02 0.  1.
</event>
<event>
 5   0  0.6168338E-05  0.2008841E+04  0.7818609E-02  0.8602498E-01
       -1   -1    0    0    0  501  0.00000000000E+00  0.00000000000E+00  0.47168141569E+03  0.47168141571E+03  0.50400001928E-02 0.  1.
        1   -1    0    0  501    0  0.00000000000E+00  0.00000000000E+00 -0.21388607129E+04  0.21388607129E+04  0.50400001928E-02 0. -1.
    10030    2    1    2    0    0  0.00000000000E+00  0.00000000000E+00 -0.16671792972E+04  0.26105421286E+04  0.20088413069E+04 0.  0.
        5    1    3    3  502    0 -0.75453893395E+03  0.27347012504E+03 -0.48774899540E+02  0.80406218227E+03  0.46999998093E+01 0.  1.
       -5    1    3    3    0  502  0.75453893395E+03 -0.27347012504E+03 -0.16184043976E+04  0.18064799463E+04  0.46999998093E+01 0. -1.
</event>
<event>
 5   0  0.6168338E-05  0.2002028E+04  0.7818609E-02  0.8605673E-01
        1   -1    0    0  501    0  0.00000000000E+00  0.00000000000E+00  0.14757297415E+04  0.14757297415E+04  0.50400001928E-02 0.  1.
       -1   -1    0    0    0  501  0.00000000000E+00  0.00000000000E+00 -0.67900601350E+03  0.67900601352E+03  0.50400001928E-02 0. -1.
    10030    2    1    2    0    0  0.00000000000E+00  0.00000000000E+00  0.79672372801E+03  0.21547357550E+04  0.20020283403E+04 0.  0.
        5    1    3    3  502    0  0.55653433389E+03 -0.36174601256E+02  0.12930111743E+04  0.14081686878E+04  0.46999998093E+01 0.  1.
       -5    1    3    3    0  502 -0.55653433389E+03  0.36174601256E+02 -0.49628744625E+03  0.74656706723E+03  0.46999998093E+01 0. -1.
</event>
<event>
 5   0  0.6028501E-05  0.1977790E+04  0.7818609E-02  0.8617076E-01
       -1   -1    0    0    0  501  0.00000000000E+00  0.00000000000E+00  0.11208156512E+04  0.11208156512E+04  0.50400001928E-02 0. -1.
        1   -1    0    0  501    0  0.00000000000E+00  0.00000000000E+00 -0.87250126254E+03  0.87250126256E+03  0.50400001928E-02 0.  1.
    10030    2    1    2    0    0  0.00000000000E+00  0.00000000000E+00  0.24831438865E+03  0.19933169138E+04  0.19777897469E+04 0.  0.
        4    1    3    3  502    0 -0.85898566190E+03  0.45850357827E+03 -0.49911090031E+02  0.97497416809E+03  0.12699999809E+01 0.  1.
       -4    1    3    3    0  502  0.85898566190E+03 -0.45850357827E+03  0.29822547868E+03  0.10183427457E+04  0.12699999809E+01 0. -1.
</event>
<event>
 5   0  0.6214547E-05  0.1987896E+04  0.7818609E-02  0.8612301E-01
       -1   -1    0    0    0  501  0.00000000000E+00  0.00000000000E+00  0.70959072469E+03  0.70959072471E+03  0.50400001928E-02 0. -1.
        1   -1    0    0  501    0  0.00000000000E+00  0.00000000000E+00 -0.13922568736E+04  0.13922568736E+04  0.50400001928E-02 0.  1.
    10030    2    1    2    0    0  0.00000000000E+00  0.00000000000E+00 -0.68266614894E+03  0.21018475984E+04  0.19878959369E+04 0.  0.
        3    1    3    3  502    0 -0.97205106350E+03  0.13985739008E+03 -0.50338031332E+03  0.11035556668E+04  0.10100000352E+00 0.  1.
       -3    1    3    3    0  502  0.97205106350E+03 -0.13985739008E+03 -0.17928583562E+03  0.99829193158E+03  0.10100000352E+00 0. -1.
</event>
<event>
 5   0  0.6214547E-05  0.2006614E+04  0.7818609E-02  0.8603534E-01
        1   -1    0    0  501    0  0.00000000000E+00  0.00000000000E+00  0.16788473624E+04  0.16788473624E+04  0.50400001928E-02 0.  1.
       -1   -1    0    0    0  501  0.00000000000E+00  0.00000000000E+00 -0.59959317588E+03  0.59959317590E+03  0.50400001928E-02 0. -1.
    10030    2    1    2    0    0  0.00000000000E+00  0.00000000000E+00  0.10792541866E+04  0.22784405383E+04  0.20066144840E+04 0.  0.
        3    1    3    3  502    0 -0.46064623345E+02  0.87058472460E+03  0.11034694525E+04  0.14063017297E+04  0.10100000352E+00 0.  1.
       -3    1    3    3    0  502  0.46064623345E+02 -0.87058472460E+03 -0.24215265912E+02  0.87213880864E+03  0.10100000352E+00 0. -1.
</event>
<event>
 5   0  0.6028501E-05  0.2010007E+04  0.7818609E-02  0.8601956E-01
        1   -1    0    0  501    0  0.00000000000E+00  0.00000000000E+00  0.92133621855E+03  0.92133621857E+03  0.50400001928E-02 0. -1.
       -1   -1    0    0    0  501  0.00000000000E+00  0.00000000000E+00 -0.10962690373E+04  0.10962690373E+04  0.50400001928E-02 0.  1.
    10030    2    1    2    0    0  0.00000000000E+00  0.00000000000E+00 -0.17493281872E+03  0.20176052559E+04  0.20100073327E+04 0.  0.
        4    1    3    3  502    0  0.43376951450E+03  0.85470899746E+03 -0.39084602941E+03  0.10351066098E+04  0.12699999809E+01 0. -1.
       -4    1    3    3    0  502 -0.43376951450E+03 -0.85470899746E+03  0.21591321069E+03  0.98249864605E+03  0.12699999809E+01 0.  1.
</event>
<event>
 5   0  0.6214547E-05  0.1976587E+04  0.7818609E-02  0.8617646E-01
        1   -1    0    0  501    0  0.00000000000E+00  0.00000000000E+00  0.63533225335E+03  0.63533225337E+03  0.50400001928E-02 0.  1.
       -1   -1    0    0    0  501  0.00000000000E+00  0.00000000000E+00 -0.15373432522E+04  0.15373432522E+04  0.50400001928E-02 0. -1.
    10030    2    1    2    0    0  0.00000000000E+00  0.00000000000E+00 -0.90201099882E+03  0.21726755055E+04  0.19765867070E+04 0.  0.
        3    1    3    3  502    0 -0.48111927804E+03 -0.58324499500E+03  0.24858803108E+03  0.79589352510E+03  0.10100000352E+00 0.  1.
       -3    1    3    3    0  502  0.48111927804E+03  0.58324499500E+03 -0.11505990299E+04  0.13767819804E+04  0.10100000352E+00 0. -1.
</event>
<event>
 5   0  0.6256535E-05  0.1997937E+04  0.7818609E-02  0.8607586E-01
        1   -1    0    0  501    0  0.00000000000E+00  0.00000000000E+00  0.18633444210E+04  0.18633444210E+04  0.50400001928E-02 0.  1.
       -1   -1    0    0    0  501  0.00000000000E+00  0.00000000000E+00 -0.53556265672E+03  0.53556265674E+03  0.50400001928E-02 0. -1.
    10030    2    1    2    0    0  0.00000000000E+00  0.00000000000E+00  0.13277817642E+04  0.23989070777E+04  0.19979366241E+04 0.  0.
        1    1    3    3  502    0 -0.58344431607E+03 -0.17606854443E+03 -0.28650107534E+03  0.67341686086E+03  0.50400001928E-02 0. -1.
       -1    1    3    3    0  502  0.58344431607E+03  0.17606854443E+03  0.16142828396E+04  0.17254902169E+04  0.50400001928E-02 0.  1.
</event>
<event>
 5   0  0.6168338E-05  0.1997479E+04  0.7818609E-02  0.8607800E-01
        1   -1    0    0  501    0  0.00000000000E+00  0.00000000000E+00  0.15313982100E+04  0.15313982100E+04  0.50400001928E-02 0. -1.
       -1   -1    0    0    0  501  0.00000000000E+00  0.00000000000E+00 -0.65135275396E+03  0.65135275398E+03  0.50400001928E-02 0.  1.
    10030    2    1    2    0    0  0.00000000000E+00  0.00000000000E+00  0.88004545606E+03  0.21827509640E+04  0.19974788525E+04 0.  0.
        5    1    3    3  502    0 -0.64838117385E+03  0.52212874546E+03 -0.16291730930E+03  0.84828103428E+03  0.46999998093E+01 0.  1.
       -5    1    3    3    0  502  0.64838117385E+03 -0.52212874546E+03  0.10429627654E+04  0.13344699297E+04  0.46999998093E+01 0. -1.
</event>
<event>
 5   0  0.1159914E-04  0.1994126E+04  0.7818609E-02  0.8609372E-01
       -2   -1    0    0    0  501  0.00000000000E+00  0.00000000000E+00  0.35235596991E+03  0.35235596992E+03  0.25500000920E-02 0. -1.
        2   -1    0    0  501    0  0.00000000000E+00  0.00000000000E+00 -0.28213933387E+04  0.28213933387E+04  0.25500000920E-02 0.  1.
    10030    2    1    2    0    0  0.00000000000E+00  0.00000000000E+00 -0.24690373688E+04  0.31737493086E+04  0.19941261609E+04 0.  0.
        3    1    3    3  502    0 -0.16725713301E+03 -0.27048824107E+03 -0.27385079279E+04  0.27569121347E+04  0.10100000352E+00 0.  1.
       -3    1    3    3    0  502  0.16725713301E+03  0.27048824107E+03  0.26947055914E+03  0.41683717390E+03  0.10100000352E+00 0. -1.
</event>
<event>
 5   0  0.1281789E-04  0.2008049E+04  0.7818609E-02  0.8602867E-01
       -2   -1    0    0    0  501  0.00000000000E+00  0.00000000000E+00  0.42507290057E+03  0.42507290058E+03  0.25500000920E-02 0.  1.
        2   -1    0    0  501    0  0.00000000000E+00  0.00000000000E+00 -0.23715102808E+04  0.23715102808E+04  0.25500000920E-02 0. -1.
    10030    2    1    2    0    0  0.00000000000E+00  0.00000000000E+00 -0.19464373803E+04  0.27965831814E+04  0.20080485590E+04 0.  0.
        2    1    3    3  502    0 -0.33057791490E+03 -0.75650810080E+03 -0.17689763300E+04  0.19521433146E+04  0.25500000920E-02 0. -1.
       -2    1    3    3    0  502  0.33057791490E+03  0.75650810080E+03 -0.17746105026E+03  0.84443986687E+03  0.25500000920E-02 0.  1.
</event>
<event>
 5   0  0.6168338E-05  0.1998824E+04  0.7818609E-02  0.8607170E-01
        1   -1    0    0  501    0  0.00000000000E+00  0.00000000000E+00  0.31947922828E+03  0.31947922832E+03  0.50400001928E-02 0.  1.
       -1   -1    0    0    0  501  0.00000000000E+00  0.00000000000E+00 -0.31264155811E+04  0.31264155811E+04  0.50400001928E-02 0. -1.
    10030    2    1    2    0    0  0.00000000000E+00  0.00000000000E+00 -0.28069363528E+04  0.34458948094E+04  0.19988244917E+04 0.  0.
        5    1    3    3  502    0 -0.40674990833E+03 -0.54021118092E+02  0.16755002363E+03  0.44323680978E+03  0.46999998093E+01 0.  1.
       -5    1    3    3    0  502  0.40674990833E+03  0.54021118092E+02 -0.29744863764E+04  0.30026579996E+04  0.46999998093E+01 0. -1.
</event>
<event>
 5   0  0.1159914E-04  0.1986809E+04  0.7818609E-02  0.8612813E-01
       -2   -1    0    0    0  501  0.00000000000E+00  0.00000000000E+00  0.12386844607E+04  0.12386844608E+04  0.25500000920E-02 0. -1.
        2   -1    0    0  501    0  0.00000000000E+00  0.00000000000E+00 -0.79669400493E+03  0.79669400494E+03  0.25500000920E-02 0.  1.
    10030    2    1    2    0    0  0.00000000000E+00  0.00000000000E+00  0.44199045581E+03  0.20353784657E+04  0.19868089832E+04 0.  0.
        3    1    3    3  502    0 -0.12162381739E+03  0.41679993603E+03 -0.69434477643E+03  0.81891954330E+03  0.10100000352E+00 0.  1.
       -3    1    3    3    0  502  0.12162381739E+03 -0.41679993603E+03  0.11363352322E+04  0.12164589224E+04  0.10100000352E+00 0. -1.
</event>
<event>
 5   0  0.1274868E-04  0.2031870E+04  0.7818609E-02  0.8591864E-01
       -2   -1    0    0    0  501  0.00000000000E+00  0.00000000000E+00  0.85120920629E+03  0.85120920630E+03  0.25500000920E-02 0.  1.
        2   -1    0    0  501    0  0.00000000000E+00  0.00000000000E+00 -0.12125379898E+04  0.12125379898E+04  0.25500000920E-02 0. -1.
    10030    2    1    2    0    0  0.00000000000E+00  0.00000000000E+00 -0.36132878354E+03  0.20637471961E+04  0.20318695824E+04 0.  0.
        1    1    3    3  502    0 -0.90912332211E+03 -0.13401332728E+02 -0.64102884796E+03  0.11124759748E+04  0.50400001928E-02 0. -1.
       -1    1    3    3    0  502  0.90912332211E+03  0.13401332728E+02  0.27970006442E+03  0.95127122136E+03  0.50400001928E-02 0.  1.
</event>
<event>
 5   0  0.1242761E-04  0.1973776E+04  0.7818609E-02  0.8618980E-01
        2   -1    0    0  501    0  0.00000000000E+00  0.00000000000E+00  0.13632459510E+04  0.13632459510E+04  0.25500000920E-02 0. -1.
       -2   -1    0    0    0  501  0.00000000000E+00  0.00000000000E+00 -0.71443306842E+03  0.71443306842E+03  0.25500000920E-02 0.  1.
    10030    2    1    2    0    0  0.00000000000E+00  0.00000000000E+00  0.64881288260E+03  0.20776790194E+04  0.19737760641E+04 0.  0.
        4    1    3    3  502    0 -0.92343410888E+03 -0.50737362447E+02 -0.38169486279E+02  0.92561512302E+03  0.12699999809E+01 0.  1.
       -4    1    3    3    0  502  0.92343410888E+03  0.50737362447E+02  0.68698236888E+03  0.11520638964E+04  0.12699999809E+01 0. -1.
</event>
<event>
 5   0  0.1281789E-04  0.1954673E+04  0.7818609E-02  0.8628111E-01
        2   -1    0    0  501    0  0.00000000000E+00  0.00000000000E+00  0.12877376008E+04  0.12877376008E+04  0.25500000920E-02 0. -1.
       -2   -1    0    0    0  501  0.00000000000E+00  0.00000000000E+00 -0.74175529913E+03  0.74175529913E+03  0.25500000920E-02 0.  1.
    10030    2    1    2    0    0  0.00000000000E+00  0.00000000000E+00  0.54598230163E+03  0.20294928999E+04  0.19546725447E+04 0.  0.
        2    1    3    3  502    0 -0.14671116425E+03  0.54820196037E+03 -0.55316519855E+03  0.79249056269E+03  0.25500000920E-02 0.  1.
       -2    1    3    3    0  502  0.14671116425E+03 -0.54820196037E+03  0.10991475002E+04  0.12370023372E+04  0.25500000920E-02 0. -1.
</event>
<event>
 5   0  0.6168338E-05  0.1996751E+04  0.7818609E-02  0.8608141E-01
        1   -1    0    0  501    0  0.00000000000E+00  0.00000000000E+00  0.70687270142E+03  0.70687270144E+03  0.50400001928E-02 0.  1.
       -1   -1    0    0    0  501  0.00000000000E+00  0.00000000000E+00 -0.14100892835E+04  0.14100892835E+04  0.50400001928E-02 0. -1.
    10030    2    1    2    0    0  0.00000000000E+00  0.00000000000E+00 -0.70321658208E+03  0.21169619849E+04  0.19967509821E+04 0.  0.
        5    1    3    3  502    0  0.17211802056E+03 -0.45600895687E+03  0.57214627391E+03  0.75162639024E+03  0.46999998093E+01 0.  1.
       -5    1    3    3    0  502 -0.17211802056E+03  0.45600895687E+03 -0.12753628560E+04  0.13653355947E+04  0.46999998093E+01 0. -1.
</event>
<event>
 5   0  0.1281789E-04  0.1999043E+04  0.7818609E-02  0.8607068E-01
       -2   -1    0    0    0  501  0.00000000000E+00  0.00000000000E+00  0.13710808961E+04  0.13710808961E+04  0.25500000920E-02 0.  1.
        2   -1    0    0  501    0  0.00000000000E+00  0.00000000000E+00 -0.72865355594E+03  0.72865355595E+03  0.25500000920E-02 0. -1.
    10030    2    1    2    0    0  0.00000000000E+00  0.00000000000E+00  0.64242734018E+03  0.20997344521E+04  0.19990427414E+04 0.  0.
        2    1    3    3  502    0  0.82912888132E+03  0.87665848269E+02 -0.25782792860E+03  0.87270570272E+03  0.25500000920E-02 0. -1.
       -2    1    3    3    0  502 -0.82912888132E+03 -0.87665848269E+02  0.90025526878E+03  0.12270287494E+04  0.25500000920E-02 0.  1.
</event>
<event>
 5   0  0.6168338E-05  0.1603194E+04  0.7818609E-02  0.8818588E-01
        1   -1    0    0  501    0  0.00000000000E+00  0.00000000000E+00  0.92501530491E+03  0.92501530493E+03  0.50400001928E-02 0.  1.
       -1   -1    0    0    0  501  0.00000000000E+00  0.00000000000E+00 -0.69464583397E+03  0.69464583398E+03  0.50400001928E-02 0. -1.
    10030    2    1    2    0    0  0.00000000000E+00  0.00000000000E+00  0.23036947095E+03  0.16196611389E+04  0.16031943462E+04 0.  0.
        5    1    3    3  502    0  0.73927725054E+03  0.36871081022E+02 -0.19562042613E+03  0.76562377896E+03  0.46999998093E+01 0.  1.
       -5    1    3    3    0  502 -0.73927725054E+03 -0.36871081022E+02  0.42598989708E+03  0.85403735995E+03  0.46999998093E+01 0. -1.
</event>
<event>
 5   0  0.6028501E-05  0.1990533E+04  0.7818609E-02  0.8611059E-01
       -1   -1    0    0    0  501  0.00000000000E+00  0.00000000000E+00  0.52561249690E+03  0.52561249692E+03  0.50400001928E-02 0.  1.
        1   -1    0    0  501    0  0.00000000000E+00  0.00000000000E+00 -0.18845743518E+04  0.18845743518E+04  0.50400001928E-02 0. -1.
    10030    2    1    2    0    0  0.00000000000E+00  0.00000000000E+00 -0.13589618549E+04  0.24101868487E+04  0.19905334267E+04 0.  0.
        4    1    3    3  502    0 -0.12163444765E+03 -0.33692301473E+03 -0.18038162756E+04  0.18390396477E+04  0.12699999809E+01 0. -1.
       -4    1    3    3    0  502  0.12163444765E+03  0.33692301473E+03  0.44485442072E+03  0.57114720103E+03  0.12699999809E+01 0.  1.
</event>
<event>
 5   0  0.6222733E-05  0.1991684E+04  0.7818609E-02  0.8610519E-01
        1   -1    0    0  501    0  0.00000000000E+00  0.00000000000E+00  0.87869108666E+03  0.87869108668E+03  0.50400001928E-02 0.  1.
       -1   -1    0    0    0  501  0.00000000000E+00  0.00000000000E+00 -0.11286114539E+04  0.11286114539E+04  0.50400001928E-02 0. -1.
    10030    2    1    2    0    0  0.00000000000E+00  0.00000000000E+00 -0.24992036726E+03  0.20073025406E+04  0.19916835340E+04 0.  0.
        2    1    3    3  502    0  0.48980259665E+03  0.84401197460E+03  0.75187282595E+02  0.97873179392E+03  0.25500000920E-02 0. -1.
       -2    1    3    3    0  502 -0.48980259665E+03 -0.84401197460E+03 -0.32510764985E+03  0.10285707467E+04  0.25500000920E-02 0.  1.
</event>
<event>
 5   0  0.6028501E-05  0.1995536E+04  0.7818609E-02  0.8608710E-01
       -1   -1    0    0    0  501  0.00000000000E+00  0.00000000000E+00  0.60212518520E+03  0.60212518522E+03  0.50400001928E-02 0.  1.
        1   -1    0    0  501    0  0.00000000000E+00  0.00000000000E+00 -0.16533793052E+04  0.16533793052E+04  0.50400001928E-02 0. -1.
    10030    2    1    2    0    0  0.00000000000E+00  0.00000000000E+00 -0.10512541200E+04  0.22555044905E+04  0.19955363393E+04 0.  0.
        4    1    3    3  502    0  0.84538422362E+03 -0.21485099671E+03 -0.10732032451E+04  0.13829686383E+04  0.12699999809E+01 0. -1.
       -4    1    3    3    0  502 -0.84538422362E+03  0.21485099671E+03  0.21949125055E+02  0.87253585217E+03  0.12699999809E+01 0.  1.
</event>
<event>
 5   0  0.1274868E-04  0.1998546E+04  0.7818609E-02  0.8607301E-01
        2   -1    0    0  501    0  0.00000000000E+00  0.00000000000E+00  0.15125334421E+04  0.15125334421E+04  0.25500000920E-02 0. -1.
       -2   -1    0    0    0  501  0.00000000000E+00  0.00000000000E+00 -0.66018145454E+03  0.66018145454E+03  0.25500000920E-02 0.  1.
    10030    2    1    2    0    0  0.00000000000E+00  0.00000000000E+00  0.85235198759E+03  0.21727148967E+04  0.19985459993E+04 0.  0.
        1    1    3    3  502    0  0.17378338709E+03  0.96952630591E+03  0.24308079400E+03  0.10145295441E+04  0.50400001928E-02 0. -1.
       -1    1    3    3    0  502 -0.17378338709E+03 -0.96952630591E+03  0.60927119358E+03  0.11581853525E+04  0.50400001928E-02 0.  1.
</event>
<event>
 5   0  0.1242761E-04  0.1981888E+04  0.7818609E-02  0.8615136E-01
       -2   -1    0    0    0  501  0.00000000000E+00  0.00000000000E+00  0.46389419866E+03  0.46389419867E+03  0.25500000920E-02 0. -1.
        2   -1    0    0  501    0  0.00000000000E+00  0.00000000000E+00 -0.21167972585E+04  0.21167972585E+04  0.25500000920E-02 0.  1.
    10030    2    1    2    0    0  0.00000000000E+00  0.00000000000E+00 -0.16529030598E+04  0.25806914571E+04  0.19818879564E+04 0.  0.
        4    1    3    3  502    0  0.36678378198E+03  0.78932825221E+03 -0.14432842022E+04  0.16854199280E+04  0.12699999809E+01 0.  1.
       -4    1    3    3    0  502 -0.36678378198E+03 -0.78932825221E+03 -0.20961885756E+03  0.89527152910E+03  0.12699999809E+01 0. -1.
</event>
<event>
 5   0  0.6214547E-05  0.1640794E+04  0.7818609E-02  0.8795871E-01
       -1   -1    0    0    0  501  0.00000000000E+00  0.00000000000E+00  0.97516080176E+03  0.97516080178E+03  0.50400001928E-02 0. -1.
        1   -1    0    0  501    0  0.00000000000E+00  0.00000000000E+00 -0.69019524341E+03  0.69019524343E+03  0.50400001928E-02 0.  1.
    10030    2    1    2    0    0  0.00000000000E+00  0.00000000000E+00  0.28496555835E+03  0.16653560452E+04  0.16407941333E+04 0.  0.
        3    1    3    3  502    0  0.27971582376E+03 -0.35403164714E+03  0.83791986264E+03  0.95167697022E+03  0.10100000352E+00 0. -1.
       -3    1    3    3    0  502 -0.27971582376E+03  0.35403164714E+03 -0.55295430429E+03  0.71367907498E+03  0.10100000352E+00 0.  1.
</event>
<event>
 5   0  0.1159914E-04  0.1994373E+04  0.7818609E-02  0.8609256E-01
       -2   -1    0    0    0  501  0.00000000000E+00  0.00000000000E+00  0.53575550854E+03  0.53575550854E+03  0.25500000920E-02 0.  1.
        2   -1    0    0  501    0  0.00000000000E+00  0.00000000000E+00 -0.18560355251E+04  0.18560355251E+04  0.25500000920E-02 0. -1.
    10030    2    1    2    0    0  0.00000000000E+00  0.00000000000E+00 -0.13202800165E+04  0.23917910336E+04  0.19943733418E+04 0.  0.
        3    1    3    3  502    0  0.40166825910E+02  0.99368892767E+03 -0.74786054406E+03  0.12443176694E+04  0.10100000352E+00 0.  1.
       -3    1    3    3    0  502 -0.40166825910E+02 -0.99368892767E+03 -0.57241947249E+03  0.11474733642E+04  0.10100000352E+00 0. -1.
</event>
<event>
 5   0  0.6214547E-05  0.2000954E+04  0.7818609E-02  0.8606175E-01
        1   -1    0    0  501    0  0.00000000000E+00  0.00000000000E+00  0.56260181703E+03  0.56260181706E+03  0.50400001928E-02 0. -1.
       -1   -1    0    0    0  501  0.00000000000E+00  0.00000000000E+00 -0.17791529708E+04  0.17791529708E+04  0.50400001928E-02 0.  1.
    10030    2    1    2    0    0  0.00000000000E+00  0.00000000000E+00 -0.12165511538E+04  0.23417547879E+04  0.20009544664E+04 0.  0.
        3    1    3    3  502    0  0.22152155018E+03 -0.53220489705E+03 -0.15652507230E+04  0.16680298815E+04  0.10100000352E+00 0.  1.
       -3    1    3    3    0  502 -0.22152155018E+03  0.53220489705E+03  0.34869956923E+03  0.67372490633E+03  0.10100000352E+00 0. -1.
</event>
<event>
 5   0  0.6222733E-05  0.1993044E+04  0.7818609E-02  0.8609880E-01
        1   -1    0    0  501    0  0.00000000000E+00  0.00000000000E+00  0.10768874166E+04  0.10768874167E+04  0.50400001928E-02 0.  1.
       -1   -1    0    0    0  501  0.00000000000E+00  0.00000000000E+00 -0.92215361543E+03  0.92215361544E+03  0.50400001928E-02 0. -1.
    10030    2    1    2    0    0  0.00000000000E+00  0.00000000000E+00  0.15473380122E+03  0.19990410321E+04  0.19930435266E+04 0.  0.
        2    1    3    3  502    0  0.51633556210E+03  0.27267526471E+03 -0.73259109193E+03  0.93682651577E+03  0.25500000920E-02 0. -1.
       -2    1    3    3    0  502 -0.51633556210E+03 -0.27267526471E+03  0.88732489314E+03  0.10622145163E+04  0.25500000920E-02 0.  1.
</event>
<event>
 5   0  0.1281789E-04  0.1986689E+04  0.7818609E-02  0.8612869E-01
        2   -1    0    0  501    0  0.00000000000E+00  0.00000000000E+00  0.72191783836E+03  0.72191783836E+03  0.25500000920E-02 0.  1.
       -2   -1    0    0    0  501  0.00000000000E+00  0.00000000000E+00 -0.13668222411E+04  0.13668222411E+04  0.25500000920E-02 0. -1.
    10030    2    1    2    0    0  0.00000000000E+00  0.00000000000E+00 -0.64490440273E+03  0.20887400795E+04  0.19866890625E+04 0.  0.
        2    1    3    3  502    0  0.54631633776E+03 -0.18606613795E+03 -0.11724690493E+04  0.13068151439E+04  0.25500000920E-02 0. -1.
       -2    1    3    3    0  502 -0.54631633776E+03  0.18606613795E+03  0.52756464658E+03  0.78192493561E+03  0.25500000920E-02 0.  1.
</event>
<event>
 5   0  0.4479000E-05  0.2014783E+04  0.7818609E-02  0.8599740E-01
       -3   -1    0    0    0  501  0.00000000000E+00  0.00000000000E+00  0.10904432938E+04  0.10904432985E+04  0.10100000352E+00 0.  1.
        3   -1    0    0  501    0  0.00000000000E+00  0.00000000000E+00 -0.93066562411E+03  0.93066562959E+03  0.10100000352E+00 0. -1.
    10030    2    1    2    0    0  0.00000000000E+00  0.00000000000E+00  0.15977766967E+03  0.20211089280E+04  0.20147834611E+04 0.  0.
        4    1    3    3  502    0  0.15399257567E+03 -0.32864038795E+03  0.10225829102E+04  0.10850786326E+04  0.12699999809E+01 0.  1.
       -4    1    3    3    0  502 -0.15399257567E+03  0.32864038795E+03 -0.86280524050E+03  0.93603029539E+03  0.12699999809E+01 0. -1.
</event>
<event>
 5   0  0.6256535E-05  0.2007023E+04  0.7818609E-02  0.8603344E-01
        1   -1    0    0  501    0  0.00000000000E+00  0.00000000000E+00  0.66602039014E+03  0.66602039016E+03  0.50400001928E-02 0. -1.
       -1   -1    0    0    0  501  0.00000000000E+00  0.00000000000E+00 -0.15120183647E+04  0.15120183647E+04  0.50400001928E-02 0.  1.
    10030    2    1    2    0    0  0.00000000000E+00  0.00000000000E+00 -0.84599797458E+03  0.21780387549E+04  0.20070227315E+04 0.  0.
        1    1    3    3  502    0  0.82682462211E+03 -0.10690554061E+03 -0.10291318858E+04  0.13244546760E+04  0.50400001928E-02 0.  1.
       -1    1    3    3    0  502 -0.82682462211E+03  0.10690554061E+03  0.18313391120E+03  0.85358407893E+03  0.50400001928E-02 0. -1.
</event>
<event>
 5   0  0.1242761E-04  0.1999074E+04  0.7818609E-02  0.8607054E-01
        2   -1    0    0  501    0  0.00000000000E+00  0.00000000000E+00  0.12587334067E+04  0.12587334067E+04  0.25500000920E-02 0.  1.
       -2   -1    0    0    0  501  0.00000000000E+00  0.00000000000E+00 -0.79371362637E+03  0.79371362638E+03  0.25500000920E-02 0. -1.
    10030    2    1    2    0    0  0.00000000000E+00  0.00000000000E+00  0.46501978031E+03  0.20524470331E+04  0.19990736423E+04 0.  0.
        4    1    3    3  502    0 -0.49469721590E+03  0.82427266394E+03  0.51353579236E+03  0.10898951247E+04  0.12699999809E+01 0.  1.
       -4    1    3    3    0  502  0.49469721590E+03 -0.82427266394E+03 -0.48516012051E+02  0.96255190835E+03  0.12699999809E+01 0. -1.
</event>
<event>
 5   0  0.6256535E-05  0.2035543E+04  0.7818609E-02  0.8590181E-01
       -1   -1    0    0    0  501  0.00000000000E+00  0.00000000000E+00  0.96264808085E+03  0.96264808087E+03  0.50400001928E-02 0.  1.
        1   -1    0    0  501    0  0.00000000000E+00  0.00000000000E+00 -0.10760511404E+04  0.10760511404E+04  0.50400001928E-02 0. -1.
    10030    2    1    2    0    0  0.00000000000E+00  0.00000000000E+00 -0.11340305954E+03  0.20386992213E+04  0.20355427436E+04 0.  0.
        1    1    3    3  502    0 -0.25241641934E+03 -0.71735457203E+03  0.62076954226E+03  0.98166514423E+03  0.50400001928E-02 0.  1.
       -1    1    3    3    0  502  0.25241641934E+03  0.71735457203E+03 -0.73417260181E+03  0.10570340770E+04  0.50400001928E-02 0. -1.
</event>
<event>
 5   0  0.1242761E-04  0.1939180E+04  0.7818609E-02  0.8635596E-01
        2   -1    0    0  501    0  0.00000000000E+00  0.00000000000E+00  0.87177974030E+03  0.87177974030E+03  0.25500000920E-02 0. -1.
       -2   -1    0    0    0  501  0.00000000000E+00  0.00000000000E+00 -0.10783736534E+04  0.10783736534E+04  0.25500000920E-02 0.  1.
    10030    2    1    2    0    0  0.00000000000E+00  0.00000000000E+00 -0.20659391311E+03  0.19501533937E+04  0.19391795209E+04 0.  0.
        4    1    3    3  502    0  0.78335218330E+02  0.29528018302E+03 -0.10287086886E+04  0.10731122830E+04  0.12699999809E+01 0.  1.
       -4    1    3    3    0  502 -0.78335218330E+02 -0.29528018302E+03  0.82211477552E+03  0.87704111074E+03  0.12699999809E+01 0. -1.
</event>
<event>
 5   0  0.1244229E-04  0.2008846E+04  0.7818609E-02  0.8602496E-01
        2   -1    0    0  501    0  0.00000000000E+00  0.00000000000E+00  0.15077450361E+04  0.15077450361E+04  0.25500000920E-02 0. -1.
       -2   -1    0    0    0  501  0.00000000000E+00  0.00000000000E+00 -0.66912224474E+03  0.66912224474E+03  0.25500000920E-02 0.  1.
    10030    2    1    2    0    0  0.00000000000E+00  0.00000000000E+00  0.83862279138E+03  0.21768672809E+04  0.20088461793E+04 0.  0.
        5    1    3    3  502    0  0.66536156541E+03 -0.74788094107E+03  0.32987500871E+03  0.10539789021E+04  0.46999998093E+01 0. -1.
       -5    1    3    3    0  502 -0.66536156541E+03  0.74788094107E+03  0.50874778267E+03  0.11228883787E+04  0.46999998093E+01 0.  1.
</event>
<event>
 5   0  0.6028501E-05  0.2025367E+04  0.7818609E-02  0.8594852E-01
        1   -1    0    0  501    0  0.00000000000E+00  0.00000000000E+00  0.10917143978E+04  0.10917143978E+04  0.50400001928E-02 0.  1.
       -1   -1    0    0    0  501  0.00000000000E+00  0.00000000000E+00 -0.93937339925E+03  0.93937339926E+03  0.50400001928E-02 0. -1.
    10030    2    1    2    0    0  0.00000000000E+00  0.00000000000E+00  0.15234099856E+03  0.20310877971E+04  0.20253665988E+04 0.  0.
        4    1    3    3  502    0  0.84404189356E+03 -0.24120195697E+03 -0.43017235192E+03  0.97756583788E+03  0.12699999809E+01 0. -1.
       -4    1    3    3    0  502 -0.84404189356E+03  0.24120195697E+03  0.58251335048E+03  0.10535219592E+04  0.12699999809E+01 0.  1.
</event>
<event>
 5   0  0.1244229E-04  0.2011251E+04  0.7818609E-02  0.8601378E-01
       -2   -1    0    0    0  501  0.00000000000E+00  0.00000000000E+00  0.61958440838E+03  0.61958440838E+03  0.25500000920E-02 0. -1.
        2   -1    0    0  501    0  0.00000000000E+00  0.00000000000E+00 -0.16321951825E+04  0.16321951825E+04  0.25500000920E-02 0.  1.
    10030    2    1    2    0    0  0.00000000000E+00  0.00000000000E+00 -0.10126107741E+04  0.22517795909E+04  0.20112510400E+04 0.  0.
        5    1    3    3  502    0 -0.34664221616E+03 -0.50494942001E+03 -0.13992635676E+04  0.15274473360E+04  0.46999998093E+01 0.  1.
       -5    1    3    3    0  502  0.34664221616E+03  0.50494942001E+03  0.38665279343E+03  0.72433225488E+03  0.46999998093E+01 0. -1.
</event>
<event>
 5   0  0.6222733E-05  0.1997510E+04  0.7818609E-02  0.8607786E-01
       -1   -1    0    0    0  501  0.00000000000E+00  0.00000000000E+00  0.67448204747E+03  0.67448204748E+03  0.50400001928E-02 0.  1.
        1   -1    0    0  501    0  0.00000000000E+00  0.00000000000E+00 -0.14789296139E+04  0.14789296139E+04  0.50400001928E-02 0. -1.
    10030    2    1    2    0    0  0.00000000000E+00  0.00000000000E+00 -0.80444756643E+03  0.21534116614E+04  0.19975099239E+04 0.  0.
        2    1    3    3  502    0  0.65869017292E+03 -0.18513458563E+03 -0.11865835015E+04  0.13697182063E+04  0.25500000920E-02 0. -1.
       -2    1    3    3    0  502 -0.65869017292E+03  0.18513458563E+03  0.38213593504E+03  0.78369345509E+03  0.25500000920E-02 0.  1.
</event>
<event>
 5   0  0.1281789E-04  0.1992945E+04  0.7818609E-02  0.8609926E-01
        2   -1    0    0  501    0  0.00000000000E+00  0.00000000000E+00  0.80628238301E+03  0.80628238301E+03  0.25500000920E-02 0. -1.
       -2   -1    0    0    0  501  0.00000000000E+00  0.00000000000E+00 -0.12315250742E+04  0.12315250742E+04  0.25500000920E-02 0.  1.
    10030    2    1    2    0    0  0.00000000000E+00  0.00000000000E+00 -0.42524269114E+03  0.20378074572E+04  0.19929445266E+04 0.  0.
        2    1    3    3  502    0 -0.26599316141E+03  0.48478981138E+03 -0.10602473696E+04  0.11957834285E+04  0.25500000920E-02 0.  1.
       -2    1    3    3    0  502  0.26599316141E+03 -0.48478981138E+03  0.63500467847E+03  0.84202402865E+03  0.25500000920E-02 0. -1.
</event>
<event>
 5   0  0.6168338E-05  0.2012362E+04  0.7818609E-02  0.8600863E-01
       -1   -1    0    0    0  501  0.00000000000E+00  0.00000000000E+00  0.52241990548E+03  0.52241990550E+03  0.50400001928E-02 0.  1.
        1   -1    0    0  501    0  0.00000000000E+00  0.00000000000E+00 -0.19379043281E+04  0.19379043281E+04  0.50400001928E-02 0. -1.
    10030    2    1    2    0    0  0.00000000000E+00  0.00000000000E+00 -0.14154844226E+04  0.24603242336E+04  0.20123615937E+04 0.  0.
        5    1    3    3  502    0 -0.92037722268E+03  0.36176081961E+03 -0.48094121284E+03  0.10996779814E+04  0.46999998093E+01 0. -1.
       -5    1    3    3    0  502  0.92037722268E+03 -0.36176081961E+03 -0.93454320978E+03  0.13606462522E+04  0.46999998093E+01 0.  1.
</event>
</LesHouchesEvents>
